<LesHouchesEvents version="3.0">
<header>
<!--
#*********************************************************************
#                                                                    *
#                        MadGraph5_aMC@NLO                           *
#                                                                    *
#                           Going Beyond                             *
#                                                                    *
#                   http://madgraph.hep.uiuc.edu                     *
#                   http://madgraph.phys.ucl.ac.be                   *
#                   http://amcatnlo.cern.ch                          *
#                                                                    *
#                     The MadGraph5_aMC@NLO team                     *
#                                                                    *
#....................................................................*
#                                                                    *
# This file contains all the information necessary to reproduce      *
# the events generated:                                              *
#                                                                    *
# 1. software version                                                *
# 2. proc_card          : code generation info including model       *
# 3. param_card         : model primary parameters in the LH format  *
# 4. run_card           : running parameters (collider and cuts)     *
# 5. pythia_card        : present only if pythia has been run        *
# 6. pgs_card           : present only if pgs has been run           *
# 7. delphes_cards      : present only if delphes has been run       *
#                                                                    *
#                                                                    *
#*********************************************************************
-->
<MGVersion>
#5.2.2.3
</MGVersion>
<MG5ProcCard>
#************************************************************
#*                     MadGraph5_aMC@NLO                    *
#*                                                          *
#*                *                       *                 *
#*                  *        * *        *                   *
#*                    * * * * 5 * * * *                     *
#*                  *        * *        *                   *
#*                *                       *                 *
#*                                                          *
#*                                                          *
#*         VERSION 2.2.3                 2015-02-10         *
#*                                                          *
#*    The MadGraph5_aMC@NLO Development Team - Find us at   *
#*    https://server06.fynu.ucl.ac.be/projects/madgraph     *
#*                                                          *
#************************************************************
#*                                                          *
#*               Command File for MadGraph5_aMC@NLO         *
#*                                                          *
#*     run as ./bin/mg5_aMC  filename                       *
#*                                                          *
#************************************************************
set group_subprocesses Auto
set ignore_six_quark_processes False
set loop_optimized_output True
set gauge unitary
set complex_mass_scheme False
import model sm
define p = g u c d s u~ c~ d~ s~
define j = g u c d s u~ c~ d~ s~
define l+ = e+ mu+
define l- = e- mu-
define vl = ve vm vt
define vl~ = ve~ vm~ vt~
import model Zprime_UFO
generate p p > zph, zph > j j
add process p p > zph, zph > b b~
output Dijet_signal
</MG5ProcCard>
<MGProcCard>
#*********************************************************************
#                        MadGraph/MadEvent                           *
#                   http://madgraph.hep.uiuc.edu                     *
#                                                                    *
#                          proc_card.dat                             *
#*********************************************************************
#                                                                    *
#            This Files is generated by MADGRAPH 5                   *
#                                                                    *
# WARNING: This Files is generated for MADEVENT (compatibility issue)*
#          This files is NOT a valid MG4 proc_card.dat               *
#          Running this in MG4 will NEVER reproduce the result of MG5*
#                                                                    *
#*********************************************************************
#*********************************************************************
# Process(es) requested : mg2 input                                  *
#*********************************************************************
# Begin PROCESS # This is TAG. Do not modify this line
p p > zph , zph > j j           #Process
# Be carefull the coupling are here in MG5 convention
          
end_coup           # End the couplings input

done               # this tells MG there are no more procs
# End PROCESS  # This is TAG. Do not modify this line
#*********************************************************************
# Model information                                                  *
#*********************************************************************
# Begin MODEL  # This is TAG. Do not modify this line
Zprime_UFO
# End   MODEL  # This is TAG. Do not modify this line
#*********************************************************************
# Start multiparticle definitions                                    *
#*********************************************************************
# Begin MULTIPARTICLES # This is TAG. Do not modify this line

# End  MULTIPARTICLES # This is TAG. Do not modify this line
</MGProcCard>
<MGRunCard>
#*********************************************************************
#                       MadGraph5_aMC@NLO                            *
#                                                                    *
#                     run_card.dat MadEvent                          *
#                                                                    *
#  This file is used to set the parameters of the run.               *
#                                                                    *
#  Some notation/conventions:                                        *
#                                                                    *
#   Lines starting with a '# ' are info or comments                  *
#                                                                    *
#   mind the format:   value    = variable     ! comment             *
#*********************************************************************
#
#*******************                                                 
# Running parameters
#*******************                                                 
#                                                                    
#*********************************************************************
# Tag name for the run (one word)                                    *
#*********************************************************************
  tag_1     = run_tag ! name of the run 
#*********************************************************************
# Run to generate the grid pack                                      *
#*********************************************************************
  .false.     = gridpack  !True = setting up the grid pack
#*********************************************************************
# Number of events and rnd seed                                      *
# Warning: Do not generate more than 1M events in a single run       *
# If you want to run Pythia, avoid more than 50k events in a run.    *
#*********************************************************************
  2000 = nevents ! Number of unweighted events requested 
 2118 = iseed   ! rnd seed (0=assigned automatically=default))
#*********************************************************************
# Collider type and energy                                           *
# lpp: 0=No PDF, 1=proton, -1=antiproton, 2=photon from proton,      *
#                                         3=photon from electron     *
#*********************************************************************
        1     = lpp1    ! beam 1 type 
        1     = lpp2    ! beam 2 type
     4000     = ebeam1  ! beam 1 total energy in GeV
     4000     = ebeam2  ! beam 2 total energy in GeV
#*********************************************************************
# Beam polarization from -100 (left-handed) to 100 (right-handed)    *
#*********************************************************************
        0     = polbeam1 ! beam polarization for beam 1
        0     = polbeam2 ! beam polarization for beam 2
#*********************************************************************
# PDF CHOICE: this automatically fixes also alpha_s and its evol.    *
#*********************************************************************
 'nn23lo1'    = pdlabel     ! PDF set                                     
 230000    = lhaid     ! if pdlabel=lhapdf, this is the lhapdf number
#*********************************************************************
# Renormalization and factorization scales                           *
#*********************************************************************
 F        = fixed_ren_scale  ! if .true. use fixed ren scale
 F        = fixed_fac_scale  ! if .true. use fixed fac scale
 91.1880  = scale            ! fixed ren scale
 91.1880  = dsqrt_q2fact1    ! fixed fact scale for pdf1
 91.1880  = dsqrt_q2fact2    ! fixed fact scale for pdf2
 1        = scalefact        ! scale factor for event-by-event scales
#*********************************************************************
# Matching - Warning! ickkw > 1 is still beta
#*********************************************************************
 0        = ickkw            ! 0 no matching, 1 MLM, 2 CKKW matching
 1        = highestmult      ! for ickkw=2, highest mult group
 1        = ktscheme         ! for ickkw=1, 1 Durham kT, 2 Pythia pTE
 1        = alpsfact         ! scale factor for QCD emission vx
 F        = chcluster        ! cluster only according to channel diag
 T        = pdfwgt           ! for ickkw=1, perform pdf reweighting
 5        = asrwgtflavor     ! highest quark flavor for a_s reweight
 T        = clusinfo         ! include clustering tag in output
 3.0      = lhe_version       ! Change the way clustering information pass to shower.        
#*********************************************************************
#**********************************************************
#
#**********************************************************
# Automatic ptj and mjj cuts if xqcut > 0
# (turn off for VBF and single top processes)
#**********************************************************
   T  = auto_ptj_mjj  ! Automatic setting of ptj and mjj
#**********************************************************
#                                                                    
#**********************************
# BW cutoff (M+/-bwcutoff*Gamma)
#**********************************
  15  = bwcutoff      ! (M+/-bwcutoff*Gamma)
#**********************************************************
# Apply pt/E/eta/dr/mij cuts on decay products or not
# (note that etmiss/ptll/ptheavy/ht/sorted cuts always apply)
#**********************************************************
   T  = cut_decays    ! Cut decay products 
#*************************************************************
# Number of helicities to sum per event (0 = all helicities)
# 0 gives more stable result, but longer run time (needed for
# long decay chains e.g.).
# Use >=2 if most helicities contribute, e.g. pure QCD.
#*************************************************************
   0  = nhel          ! Number of helicities used per event
#*******************                                                 
# Standard Cuts
#*******************                                                 
#                                                                    
#*********************************************************************
# Minimum and maximum pt's (for max, -1 means no cut)                *
#*********************************************************************
 20  = ptj       ! minimum pt for the jets 
  0  = ptb       ! minimum pt for the b 
 10  = pta       ! minimum pt for the photons 
 10  = ptl       ! minimum pt for the charged leptons 
  0  = misset    ! minimum missing Et (sum of neutrino's momenta)
  0  = ptheavy   ! minimum pt for one heavy final state
 1.0 = ptonium   ! minimum pt for the quarkonium states
 -1  = ptjmax    ! maximum pt for the jets
 -1  = ptbmax    ! maximum pt for the b
 -1  = ptamax    ! maximum pt for the photons
 -1  = ptlmax    ! maximum pt for the charged leptons
 -1  = missetmax ! maximum missing Et (sum of neutrino's momenta)
#*********************************************************************
# Minimum and maximum E's (in the center of mass frame)              *
#*********************************************************************
  0  = ej     ! minimum E for the jets 
  0  = eb     ! minimum E for the b 
  0  = ea     ! minimum E for the photons 
  0  = el     ! minimum E for the charged leptons 
 -1   = ejmax ! maximum E for the jets
 -1   = ebmax ! maximum E for the b
 -1   = eamax ! maximum E for the photons
 -1   = elmax ! maximum E for the charged leptons
#*********************************************************************
# Maximum and minimum absolute rapidity (for max, -1 means no cut)   *
#*********************************************************************
   5  = etaj    ! max rap for the jets 
  -1  = etab    ! max rap for the b
 2.5  = etaa    ! max rap for the photons 
 2.5  = etal    ! max rap for the charged leptons 
 0.6  = etaonium ! max rap for the quarkonium states
   0  = etajmin ! min rap for the jets
   0  = etabmin ! min rap for the b
   0  = etaamin ! min rap for the photons
   0  = etalmin ! main rap for the charged leptons
#*********************************************************************
# Minimum and maximum DeltaR distance                                *
#*********************************************************************
 0.4 = drjj    ! min distance between jets 
 0   = drbb    ! min distance between b's 
 0.4 = drll    ! min distance between leptons 
 0.4 = draa    ! min distance between gammas 
 0   = drbj    ! min distance between b and jet 
 0.4 = draj    ! min distance between gamma and jet 
 0.4 = drjl    ! min distance between jet and lepton 
 0   = drab    ! min distance between gamma and b 
 0   = drbl    ! min distance between b and lepton 
 0.4 = dral    ! min distance between gamma and lepton 
 -1  = drjjmax ! max distance between jets
 -1  = drbbmax ! max distance between b's
 -1  = drllmax ! max distance between leptons
 -1  = draamax ! max distance between gammas
 -1  = drbjmax ! max distance between b and jet
 -1  = drajmax ! max distance between gamma and jet
 -1  = drjlmax ! max distance between jet and lepton
 -1  = drabmax ! max distance between gamma and b
 -1  = drblmax ! max distance between b and lepton
 -1  = dralmax ! maxdistance between gamma and lepton
#*********************************************************************
# Minimum and maximum invariant mass for pairs                       *
# WARNING: for four lepton final state mmll cut require to have      *
#          different lepton masses for each flavor!                  *           
#*********************************************************************
 0   = mmjj    ! min invariant mass of a jet pair 
 0   = mmbb    ! min invariant mass of a b pair 
 0   = mmaa    ! min invariant mass of gamma gamma pair
 0   = mmll    ! min invariant mass of l+l- (same flavour) lepton pair
 -1  = mmjjmax ! max invariant mass of a jet pair
 -1  = mmbbmax ! max invariant mass of a b pair
 -1  = mmaamax ! max invariant mass of gamma gamma pair
 -1  = mmllmax ! max invariant mass of l+l- (same flavour) lepton pair
#*********************************************************************
# Minimum and maximum invariant mass for all letpons                 *
#*********************************************************************
 0   = mmnl    ! min invariant mass for all letpons (l+- and vl) 
 -1  = mmnlmax ! max invariant mass for all letpons (l+- and vl) 
#*********************************************************************
# Minimum and maximum pt for 4-momenta sum of leptons                *
#*********************************************************************
 0   = ptllmin  ! Minimum pt for 4-momenta sum of leptons(l and vl)
 -1  = ptllmax  ! Maximum pt for 4-momenta sum of leptons(l and vl)
#*********************************************************************
# Inclusive cuts                                                     *
#*********************************************************************
 0  = xptj ! minimum pt for at least one jet  
 0  = xptb ! minimum pt for at least one b 
 0  = xpta ! minimum pt for at least one photon 
 0  = xptl ! minimum pt for at least one charged lepton 
#*********************************************************************
# Control the pt's of the jets sorted by pt                          *
#*********************************************************************
 0   = ptj1min ! minimum pt for the leading jet in pt
 0   = ptj2min ! minimum pt for the second jet in pt
 0   = ptj3min ! minimum pt for the third jet in pt
 0   = ptj4min ! minimum pt for the fourth jet in pt
 -1  = ptj1max ! maximum pt for the leading jet in pt 
 -1  = ptj2max ! maximum pt for the second jet in pt
 -1  = ptj3max ! maximum pt for the third jet in pt
 -1  = ptj4max ! maximum pt for the fourth jet in pt
 0   = cutuse  ! reject event if fails any (0) / all (1) jet pt cuts
#*********************************************************************
# Control the pt's of leptons sorted by pt                           *
#*********************************************************************
 0   = ptl1min ! minimum pt for the leading lepton in pt
 0   = ptl2min ! minimum pt for the second lepton in pt
 0   = ptl3min ! minimum pt for the third lepton in pt
 0   = ptl4min ! minimum pt for the fourth lepton in pt
 -1  = ptl1max ! maximum pt for the leading lepton in pt 
 -1  = ptl2max ! maximum pt for the second lepton in pt
 -1  = ptl3max ! maximum pt for the third lepton in pt
 -1  = ptl4max ! maximum pt for the fourth lepton in pt
#*********************************************************************
# Control the Ht(k)=Sum of k leading jets                            *
#*********************************************************************
 0   = htjmin ! minimum jet HT=Sum(jet pt)
 -1  = htjmax ! maximum jet HT=Sum(jet pt)
 0   = ihtmin  !inclusive Ht for all partons (including b)
 -1  = ihtmax  !inclusive Ht for all partons (including b)
 0   = ht2min ! minimum Ht for the two leading jets
 0   = ht3min ! minimum Ht for the three leading jets
 0   = ht4min ! minimum Ht for the four leading jets
 -1  = ht2max ! maximum Ht for the two leading jets
 -1  = ht3max ! maximum Ht for the three leading jets
 -1  = ht4max ! maximum Ht for the four leading jets
#***********************************************************************
# Photon-isolation cuts, according to hep-ph/9801442                   *
# When ptgmin=0, all the other parameters are ignored                  *
# When ptgmin>0, pta and draj are not going to be used                 *
#***********************************************************************
   0 = ptgmin ! Min photon transverse momentum
 0.4 = R0gamma ! Radius of isolation code
 1.0 = xn ! n parameter of eq.(3.4) in hep-ph/9801442
 1.0 = epsgamma ! epsilon_gamma parameter of eq.(3.4) in hep-ph/9801442
 .true. = isoEM ! isolate photons from EM energy (photons and leptons)
#*********************************************************************
# WBF cuts                                                           *
#*********************************************************************
 0   = xetamin ! minimum rapidity for two jets in the WBF case  
 0   = deltaeta ! minimum rapidity for two jets in the WBF case 
#*********************************************************************
# KT DURHAM CUT                                                      *
#*********************************************************************
 -1    =  ktdurham        
 0.4  =  dparameter 
#*********************************************************************
# maximal pdg code for quark to be considered as a light jet         *
# (otherwise b cuts are applied)                                     *
#*********************************************************************
 4 = maxjetflavor    ! Maximum jet pdg code
#*********************************************************************
# Jet measure cuts                                                   *
#*********************************************************************
 0   = xqcut   ! minimum kt jet measure between partons
#*********************************************************************
#
#*********************************************************************
# Store info for systematics studies                                 *
# WARNING: If use_syst is T, matched Pythia output is                *
#          meaningful ONLY if plotted taking matchscale              *
#          reweighting into account!                                 *
#*********************************************************************
   F  = use_syst      ! Enable systematics studies
#
#**************************************
# Parameter of the systematics study
#  will be used by SysCalc (if installed)
#**************************************                                  
#
0.5 1 2 = sys_scalefact  # factorization/renormalization scale factor
0.5 1 2 = sys_alpsfact  # \alpha_s emission scale factors
30 50 = sys_matchscale # variation of merging scale
# PDF sets and number of members (0 or none for all members).
CT10nlo.LHgrid = sys_pdf # matching scales
# MSTW2008nlo68cl.LHgrid 1  = sys_pdf
</MGRunCard>
<slha>
######################################################################
## PARAM_CARD AUTOMATICALY GENERATED BY MG5 FOLLOWING UFO MODEL   ####
######################################################################
##                                                                  ##
##  Width set on Auto will be computed following the information    ##
##        present in the decay.py files of the model.               ##
##        See  arXiv:1402.1178 for more details.                    ##
##                                                                  ##
######################################################################

###################################
## INFORMATION FOR CKMBLOCK
###################################
Block ckmblock 
    1 2.277360e-01 # cabi 

###################################
## INFORMATION FOR FRBLOCK
###################################
Block frblock 
    1 1.200000e+00 # gz 

###################################
## INFORMATION FOR MASS
###################################
Block mass 
    1 5.040000e-03 # MD 
    2 2.550000e-03 # MU 
    3 1.010000e-01 # MS 
    4 1.270000e+00 # MC 
    5 4.700000e+00 # MB 
    6 1.720000e+02 # MT 
   11 5.110000e-04 # Me 
   13 1.056600e-01 # MM 
   15 1.777000e+00 # MTA 
   23 9.118760e+01 # MZ 
   25 1.200000e+02 # MH 
  10030 5.000000e+02 # MZph 
  10031 3.000000e+02 # MZpl 
## Dependent parameters, given by model restrictions.
## Those values should be edited following the 
## analytical expression. MG5 ignores those values 
## but they are important for interfacing the output of MG5
## to external program such as Pythia.
  12 0.000000 # ve : 0.0 
  14 0.000000 # vm : 0.0 
  16 0.000000 # vt : 0.0 
  21 0.000000 # g : 0.0 
  22 0.000000 # a : 0.0 
  24 79.824360 # w+ : cmath.sqrt(MZ__exp__2/2. + cmath.sqrt(MZ__exp__4/4. - (aEW*cmath.pi*MZ__exp__2)/(Gf*sqrt__2))) 

###################################
## INFORMATION FOR SMINPUTS
###################################
Block sminputs 
    1 1.279000e+02 # aEWM1 
    2 1.166370e-05 # Gf 
    3 1.184000e-01 # aS 

###################################
## INFORMATION FOR YUKAWA
###################################
Block yukawa 
    1 5.040000e-03 # ymdo 
    2 2.550000e-03 # ymup 
    3 1.010000e-01 # yms 
    4 1.270000e+00 # ymc 
    5 4.700000e+00 # ymb 
    6 1.720000e+02 # ymt 
   11 5.110000e-04 # yme 
   13 1.056600e-01 # ymm 
   15 1.777000e+00 # ymtau 

###################################
## INFORMATION FOR DECAY
###################################
DECAY   6 1.508336e+00 # WT 
DECAY  23 2.495200e+00 # WZ 
DECAY  24 2.085000e+00 # WW 
DECAY  25 5.753088e-03 # WH 
## Dependent parameters, given by model restrictions.
## Those values should be edited following the 
## analytical expression. MG5 ignores those values 
## but they are important for interfacing the output of MG5
## to external program such as Pythia.
DECAY  1 0.000000 # d : 0.0 
DECAY  2 0.000000 # u : 0.0 
DECAY  3 0.000000 # s : 0.0 
DECAY  4 0.000000 # c : 0.0 
DECAY  5 0.000000 # b : 0.0 
DECAY  11 0.000000 # e- : 0.0 
DECAY  12 0.000000 # ve : 0.0 
DECAY  13 0.000000 # mu- : 0.0 
DECAY  14 0.000000 # vm : 0.0 
DECAY  15 0.000000 # ta- : 0.0 
DECAY  16 0.000000 # vt : 0.0 
DECAY  21 0.000000 # g : 0.0 
DECAY  22 0.000000 # a : 0.0 
DECAY  10030 0.308725 # zph : (gz__exp__2*MZph*(5 + cmath.sqrt(1 - (4*MT__exp__2)/MZph__exp__2)))/(144.*cmath.pi) 
DECAY  10031 0.132629 # zpl : (5*gz__exp__2*MZpl)/(144.*cmath.pi) 
#===========================================================
# QUANTUM NUMBERS OF NEW STATE(S) (NON SM PDG CODE)
#===========================================================

Block QNUMBERS 10030  # zph 
        1 0  # 3 times electric charge
        2 3  # number of spin states (2S+1)
        3 1  # colour rep (1: singlet, 3: triplet, 8: octet)
        4 0  # Particle/Antiparticle distinction (0=own anti)
Block QNUMBERS 10031  # zpl 
        1 0  # 3 times electric charge
        2 3  # number of spin states (2S+1)
        3 1  # colour rep (1: singlet, 3: triplet, 8: octet)
        4 0  # Particle/Antiparticle distinction (0=own anti)
</slha>
## END BANNER##
<MGGenerationInfo>
#  Number of Events        :         4222
#  Integrated weight (pb)  :  0.57762E+02
#  Max wgt                 :  0.18277E-01
#  Average wgt             :  0.13681E-01
</MGGenerationInfo>
</header>
<init>
     2212     2212  0.40000000000E+04  0.40000000000E+04 0 0  247000  247000 2   1
  0.57684190250E+02  0.11104021872E+00  0.18276980000E-01   0
</init>
<event>
 5   0  0.1827698E-01  0.4884577E+03  0.7818609E-02  0.1016836E+00
        2   -1    0    0  501    0  0.00000000000E+00  0.00000000000E+00  0.75258545557E+02  0.75258545600E+02  0.25500000920E-02 0.  1.
       -2   -1    0    0    0  501  0.00000000000E+00  0.00000000000E+00 -0.79257100273E+03  0.79257100273E+03  0.25500000920E-02 0. -1.
    10030    2    1    2    0    0  0.00000000000E+00  0.00000000000E+00 -0.71731245717E+03  0.86782954833E+03  0.48845773998E+03 0.  0.
        1    1    3    3  502    0 -0.99971598821E+02 -0.11230539984E+03 -0.16717489992E+02  0.15128217972E+03  0.50400001928E-02 0.  1.
       -1    1    3    3    0  502  0.99971598821E+02  0.11230539984E+03 -0.70059496718E+03  0.71654736861E+03  0.50400001928E-02 0. -1.
</event>
<event>
 5   0  0.7220250E-02  0.5125996E+03  0.7818609E-02  0.1010542E+00
        3   -1    0    0  501    0  0.00000000000E+00  0.00000000000E+00  0.23985088144E+03  0.23985090271E+03  0.10100000352E+00 0.  1.
       -3   -1    0    0    0  501  0.00000000000E+00  0.00000000000E+00 -0.27387670132E+03  0.27387671994E+03  0.10100000352E+00 0. -1.
    10030    2    1    2    0    0  0.00000000000E+00  0.00000000000E+00 -0.34025819873E+02  0.51372762265E+03  0.51259956482E+03 0.  0.
        4    1    3    3  502    0  0.10121009489E+03 -0.20993610829E+02  0.21803199247E+03  0.24129603735E+03  0.12699999809E+01 0.  1.
       -4    1    3    3    0  502 -0.10121009489E+03  0.20993610829E+02 -0.25205781234E+03  0.27243158529E+03  0.12699999809E+01 0. -1.
</event>
<event>
 5   0  0.1827698E-01  0.4799120E+03  0.7818609E-02  0.1019159E+00
        2   -1    0    0  501    0  0.00000000000E+00  0.00000000000E+00  0.18413000338E+04  0.18413000338E+04  0.25500000920E-02 0. -1.
       -2   -1    0    0    0  501  0.00000000000E+00  0.00000000000E+00 -0.31270770906E+02  0.31270771010E+02  0.25500000920E-02 0.  1.
    10030    2    1    2    0    0  0.00000000000E+00  0.00000000000E+00  0.18100292629E+04  0.18725708049E+04  0.47991195704E+03 0.  0.
        1    1    3    3  502    0  0.18288242796E+03 -0.93991068989E+02  0.42239823850E+03  0.46978779829E+03  0.50400001928E-02 0.  1.
       -1    1    3    3    0  502 -0.18288242796E+03  0.93991068989E+02  0.13876310244E+04  0.14027830066E+04  0.50400001928E-02 0. -1.
</event>
<event>
 5   0  0.1782124E-01  0.5071601E+03  0.7818609E-02  0.1011927E+00
        2   -1    0    0  501    0  0.00000000000E+00  0.00000000000E+00  0.58239966050E+03  0.58239966051E+03  0.25500000920E-02 0. -1.
       -2   -1    0    0    0  501  0.00000000000E+00  0.00000000000E+00 -0.11041017305E+03  0.11041017308E+03  0.25500000920E-02 0.  1.
    10030    2    1    2    0    0  0.00000000000E+00  0.00000000000E+00  0.47198948746E+03  0.69280983358E+03  0.50716012189E+03 0.  0.
        3    1    3    3  502    0 -0.63153465359E+02  0.24336262459E+03  0.19091257567E+03  0.31569185765E+03  0.10100000352E+00 0.  1.
       -3    1    3    3    0  502  0.63153465359E+02 -0.24336262459E+03  0.28107691179E+03  0.37711797594E+03  0.10100000352E+00 0. -1.
</event>
<event>
 5   0  0.1827698E-01  0.5004744E+03  0.7818609E-02  0.1013655E+00
        2   -1    0    0  501    0  0.00000000000E+00  0.00000000000E+00  0.47998082426E+03  0.47998082427E+03  0.25500000920E-02 0.  1.
       -2   -1    0    0    0  501  0.00000000000E+00  0.00000000000E+00 -0.13046076960E+03  0.13046076962E+03  0.25500000920E-02 0. -1.
    10030    2    1    2    0    0  0.00000000000E+00  0.00000000000E+00  0.34952005466E+03  0.61044159389E+03  0.50047444584E+03 0.  0.
        1    1    3    3  502    0  0.12654912634E+03 -0.17497491878E+02 -0.87687509201E+02  0.15495142108E+03  0.50400001928E-02 0. -1.
       -1    1    3    3    0  502 -0.12654912634E+03  0.17497491878E+02  0.43720756386E+03  0.45549017281E+03  0.50400001928E-02 0.  1.
</event>
<event>
 5   0  0.1782124E-01  0.5004003E+03  0.7818609E-02  0.1013674E+00
       -2   -1    0    0    0  501  0.00000000000E+00  0.00000000000E+00  0.13402093310E+03  0.13402093312E+03  0.25500000920E-02 0.  1.
        2   -1    0    0  501    0  0.00000000000E+00  0.00000000000E+00 -0.46709215223E+03  0.46709215224E+03  0.25500000920E-02 0. -1.
    10030    2    1    2    0    0  0.00000000000E+00  0.00000000000E+00 -0.33307121914E+03  0.60111308536E+03  0.50040034410E+03 0.  0.
        3    1    3    3  502    0  0.15560737969E+02 -0.18915400558E+03 -0.36237758855E+03  0.40907077783E+03  0.10100000352E+00 0. -1.
       -3    1    3    3    0  502 -0.15560737969E+02  0.18915400558E+03  0.29306369411E+02  0.19204230753E+03  0.10100000352E+00 0.  1.
</event>
<event>
 5   0  0.1147245E-01  0.5007920E+03  0.7818609E-02  0.1013572E+00
       -1   -1    0    0    0  501  0.00000000000E+00  0.00000000000E+00  0.13382613941E+03  0.13382613951E+03  0.50400001928E-02 0. -1.
        1   -1    0    0  501    0  0.00000000000E+00  0.00000000000E+00 -0.46850449399E+03  0.46850449402E+03  0.50400001928E-02 0.  1.
    10030    2    1    2    0    0  0.00000000000E+00  0.00000000000E+00 -0.33467835458E+03  0.60233063352E+03  0.50079196385E+03 0.  0.
        1    1    3    3  502    0 -0.99773796129E+02  0.84527669546E+02 -0.42417313947E+03  0.44387226719E+03  0.50400001928E-02 0.  1.
       -1    1    3    3    0  502  0.99773796129E+02 -0.84527669546E+02  0.89494784887E+02  0.15845836633E+03  0.50400001928E-02 0. -1.
</event>
<event>
 5   0  0.1141970E-01  0.4908773E+03  0.7818609E-02  0.1016188E+00
        1   -1    0    0  501    0  0.00000000000E+00  0.00000000000E+00  0.29189947197E+03  0.29189947202E+03  0.50400001928E-02 0.  1.
       -1   -1    0    0    0  501  0.00000000000E+00  0.00000000000E+00 -0.20637287883E+03  0.20637287889E+03  0.50400001928E-02 0. -1.
    10030    2    1    2    0    0  0.00000000000E+00  0.00000000000E+00  0.85526593142E+02  0.49827235091E+03  0.49087731415E+03 0.  0.
        3    1    3    3  502    0 -0.23008507730E+03  0.68485634116E+02 -0.91014493129E+01  0.24023378500E+03  0.10100000352E+00 0. -1.
       -3    1    3    3    0  502  0.23008507730E+03 -0.68485634116E+02  0.94628042455E+02  0.25803856591E+03  0.10100000352E+00 0.  1.
</event>
<event>
 5   0  0.1827698E-01  0.4923438E+03  0.7818609E-02  0.1015797E+00
       -2   -1    0    0    0  501  0.00000000000E+00  0.00000000000E+00  0.47958647502E+02  0.47958647570E+02  0.25500000920E-02 0. -1.
        2   -1    0    0  501    0  0.00000000000E+00  0.00000000000E+00 -0.12636014071E+04  0.12636014071E+04  0.25500000920E-02 0.  1.
    10030    2    1    2    0    0  0.00000000000E+00  0.00000000000E+00 -0.12156427596E+04  0.13115600547E+04  0.49234384128E+03 0.  0.
        1    1    3    3  502    0  0.99588894471E+02 -0.14422782991E+03 -0.14733452967E+03  0.22896960165E+03  0.50400001928E-02 0. -1.
       -1    1    3    3    0  502 -0.99588894471E+02  0.14422782991E+03 -0.10683082299E+04  0.10825904530E+04  0.50400001928E-02 0.  1.
</event>
<event>
 5   0  0.7220250E-02  0.4972473E+03  0.7818609E-02  0.1014500E+00
        4   -1    0    0  501    0  0.00000000000E+00  0.00000000000E+00  0.56073602527E+03  0.56073746347E+03  0.12699999809E+01 0.  1.
       -4   -1    0    0    0  501  0.00000000000E+00  0.00000000000E+00 -0.11023152714E+03  0.11023884286E+03  0.12699999809E+01 0. -1.
    10030    2    1    2    0    0  0.00000000000E+00  0.00000000000E+00  0.45050449813E+03  0.67097630633E+03  0.49724732360E+03 0.  0.
        4    1    3    3  502    0  0.95043981807E+02  0.14621987930E+03  0.46435753973E+03  0.49602736738E+03  0.12699999809E+01 0.  1.
       -4    1    3    3    0  502 -0.95043981807E+02 -0.14621987930E+03 -0.13853041598E+02  0.17494893896E+03  0.12699999809E+01 0. -1.
</event>
<event>
 5   0  0.1827698E-01  0.4983776E+03  0.7818609E-02  0.1014203E+00
        2   -1    0    0  501    0  0.00000000000E+00  0.00000000000E+00  0.21011234921E+04  0.21011234921E+04  0.25500000920E-02 0. -1.
       -2   -1    0    0    0  501  0.00000000000E+00  0.00000000000E+00 -0.29553269988E+02  0.29553270098E+02  0.25500000920E-02 0.  1.
    10030    2    1    2    0    0  0.00000000000E+00  0.00000000000E+00  0.20715702221E+04  0.21306767622E+04  0.49837764781E+03 0.  0.
        1    1    3    3  502    0 -0.42589518965E+01  0.19651053498E+03  0.38095593116E+03  0.42867464416E+03  0.50400001928E-02 0.  1.
       -1    1    3    3    0  502  0.42589518965E+01 -0.19651053498E+03  0.16906142909E+04  0.17020021180E+04  0.50400001928E-02 0. -1.
</event>
<event>
 5   0  0.1760649E-01  0.4982138E+03  0.7818609E-02  0.1014246E+00
        2   -1    0    0  501    0  0.00000000000E+00  0.00000000000E+00  0.11485421317E+04  0.11485421317E+04  0.25500000920E-02 0.  1.
       -2   -1    0    0    0  501  0.00000000000E+00  0.00000000000E+00 -0.54028709845E+02  0.54028709906E+02  0.25500000920E-02 0. -1.
    10030    2    1    2    0    0  0.00000000000E+00  0.00000000000E+00  0.10945134218E+04  0.12025708416E+04  0.49821380798E+03 0.  0.
        5    1    3    3  502    0 -0.78948722917E+02 -0.23406560257E+03  0.62406421921E+03  0.67119136381E+03  0.46999998093E+01 0.  1.
       -5    1    3    3    0  502  0.78948722917E+02  0.23406560257E+03  0.47044920262E+03  0.53137947778E+03  0.46999998093E+01 0. -1.
</event>
<event>
 5   0  0.1760649E-01  0.5003980E+03  0.7818609E-02  0.1013675E+00
        2   -1    0    0  501    0  0.00000000000E+00  0.00000000000E+00  0.17931753038E+04  0.17931753038E+04  0.25500000920E-02 0. -1.
       -2   -1    0    0    0  501  0.00000000000E+00  0.00000000000E+00 -0.34909889453E+02  0.34909889546E+02  0.25500000920E-02 0.  1.
    10030    2    1    2    0    0  0.00000000000E+00  0.00000000000E+00  0.17582654143E+04  0.18280851933E+04  0.50039804840E+03 0.  0.
        5    1    3    3  502    0  0.12717242375E+03 -0.38030032949E+02  0.16537479166E+04  0.16590730455E+04  0.46999998093E+01 0. -1.
       -5    1    3    3    0  502 -0.12717242375E+03  0.38030032949E+02  0.10451749770E+03  0.16901214776E+03  0.46999998093E+01 0.  1.
</event>
<event>
 5   0  0.1123271E-01  0.4973514E+03  0.7818609E-02  0.1014473E+00
        1   -1    0    0  501    0  0.00000000000E+00  0.00000000000E+00  0.56176593582E+03  0.56176593584E+03  0.50400001928E-02 0.  1.
       -1   -1    0    0    0  501  0.00000000000E+00  0.00000000000E+00 -0.11008073809E+03  0.11008073820E+03  0.50400001928E-02 0. -1.
    10030    2    1    2    0    0  0.00000000000E+00  0.00000000000E+00  0.45168519773E+03  0.67184667404E+03  0.49735142060E+03 0.  0.
        5    1    3    3  502    0 -0.77233723122E+02 -0.17439033760E+03  0.10381203348E+02  0.19106778173E+03  0.46999998093E+01 0.  1.
       -5    1    3    3    0  502  0.77233723122E+02  0.17439033760E+03  0.44130399438E+03  0.48077889231E+03  0.46999998093E+01 0. -1.
</event>
<event>
 5   0  0.1123271E-01  0.5069127E+03  0.7818609E-02  0.1011990E+00
        1   -1    0    0  501    0  0.00000000000E+00  0.00000000000E+00  0.89606124028E+03  0.89606124029E+03  0.50400001928E-02 0. -1.
       -1   -1    0    0    0  501  0.00000000000E+00  0.00000000000E+00 -0.71691653623E+02  0.71691653800E+02  0.50400001928E-02 0.  1.
    10030    2    1    2    0    0  0.00000000000E+00  0.00000000000E+00  0.82436958665E+03  0.96775289409E+03  0.50691266370E+03 0.  0.
        5    1    3    3  502    0  0.11216754852E+03 -0.11673254921E+03  0.39981569183E+02  0.16681925206E+03  0.46999998093E+01 0.  1.
       -5    1    3    3    0  502 -0.11216754852E+03  0.11673254921E+03  0.78438801747E+03  0.80093364203E+03  0.46999998093E+01 0. -1.
</event>
<event>
 5   0  0.7220250E-02  0.5236905E+03  0.7818609E-02  0.1007774E+00
        3   -1    0    0  501    0  0.00000000000E+00  0.00000000000E+00  0.31876290274E+03  0.31876291874E+03  0.10100000352E+00 0. -1.
       -3   -1    0    0    0  501  0.00000000000E+00  0.00000000000E+00 -0.21509066809E+03  0.21509069180E+03  0.10100000352E+00 0.  1.
    10030    2    1    2    0    0  0.00000000000E+00  0.00000000000E+00  0.10367223466E+03  0.53385361054E+03  0.52369050521E+03 0.  0.
        3    1    3    3  502    0 -0.84274323464E+02 -0.17764651907E+03 -0.12444308624E+03  0.23269408942E+03  0.10100000352E+00 0.  1.
       -3    1    3    3    0  502  0.84274323464E+02  0.17764651907E+03  0.22811532090E+03  0.30115952113E+03  0.10100000352E+00 0. -1.
</event>
<event>
 5   0  0.1147245E-01  0.4649890E+03  0.7818609E-02  0.1023344E+00
        1   -1    0    0  501    0  0.00000000000E+00  0.00000000000E+00  0.65328867515E+03  0.65328867517E+03  0.50400001928E-02 0.  1.
       -1   -1    0    0    0  501  0.00000000000E+00  0.00000000000E+00 -0.82740891679E+02  0.82740891832E+02  0.50400001928E-02 0. -1.
    10030    2    1    2    0    0  0.00000000000E+00  0.00000000000E+00  0.57054778347E+03  0.73602956700E+03  0.46498897866E+03 0.  0.
        1    1    3    3  502    0 -0.29233111481E+01  0.17877635638E+03  0.50043730334E+02  0.18567150110E+03  0.50400001928E-02 0. -1.
       -1    1    3    3    0  502  0.29233111481E+01 -0.17877635638E+03  0.52050405313E+03  0.55035806590E+03  0.50400001928E-02 0.  1.
</event>
<event>
 5   0  0.1141970E-01  0.5074924E+03  0.7818609E-02  0.1011842E+00
       -1   -1    0    0    0  501  0.00000000000E+00  0.00000000000E+00  0.99780084091E+02  0.99780084219E+02  0.50400001928E-02 0. -1.
        1   -1    0    0  501    0  0.00000000000E+00  0.00000000000E+00 -0.64529045491E+03  0.64529045493E+03  0.50400001928E-02 0.  1.
    10030    2    1    2    0    0  0.00000000000E+00  0.00000000000E+00 -0.54551037082E+03  0.74507053915E+03  0.50749240747E+03 0.  0.
        3    1    3    3  502    0 -0.20930961115E+03  0.10793161171E+03 -0.13403813602E+03  0.27097228315E+03  0.10100000352E+00 0. -1.
       -3    1    3    3    0  502  0.20930961115E+03 -0.10793161171E+03 -0.41147223479E+03  0.47409825599E+03  0.10100000352E+00 0.  1.
</event>
<event>
 5   0  0.1141970E-01  0.5263006E+03  0.7818609E-02  0.1007133E+00
       -1   -1    0    0    0  501  0.00000000000E+00  0.00000000000E+00  0.11024134779E+03  0.11024134790E+03  0.50400001928E-02 0. -1.
        1   -1    0    0  501    0  0.00000000000E+00  0.00000000000E+00 -0.62814977413E+03  0.62814977415E+03  0.50400001928E-02 0.  1.
    10030    2    1    2    0    0  0.00000000000E+00  0.00000000000E+00 -0.51790842634E+03  0.73839112205E+03  0.52630059002E+03 0.  0.
        3    1    3    3  502    0  0.10754333590E+03  0.22601492271E+03 -0.37293101233E+03  0.44913902585E+03  0.10100000352E+00 0. -1.
       -3    1    3    3    0  502 -0.10754333590E+03 -0.22601492271E+03 -0.14497741401E+03  0.28925209620E+03  0.10100000352E+00 0.  1.
</event>
<event>
 5   0  0.1827698E-01  0.4984663E+03  0.7818609E-02  0.1014180E+00
       -2   -1    0    0    0  501  0.00000000000E+00  0.00000000000E+00  0.29236808912E+03  0.29236808913E+03  0.25500000920E-02 0.  1.
        2   -1    0    0  501    0  0.00000000000E+00  0.00000000000E+00 -0.21246219503E+03  0.21246219504E+03  0.25500000920E-02 0. -1.
    10030    2    1    2    0    0  0.00000000000E+00  0.00000000000E+00  0.79905894091E+02  0.50483028417E+03  0.49846631171E+03 0.  0.
        1    1    3    3  502    0  0.80064222658E+02  0.18179742933E+03 -0.11248980238E+03  0.22828609402E+03  0.50400001928E-02 0. -1.
       -1    1    3    3    0  502 -0.80064222658E+02 -0.18179742933E+03  0.19239569647E+03  0.27654419015E+03  0.50400001928E-02 0.  1.
</event>
<event>
 5   0  0.1074281E-01  0.5057453E+03  0.7818609E-02  0.1012290E+00
       -1   -1    0    0    0  501  0.00000000000E+00  0.00000000000E+00  0.64893827208E+03  0.64893827210E+03  0.50400001928E-02 0.  1.
        1   -1    0    0  501    0  0.00000000000E+00  0.00000000000E+00 -0.98537209285E+02  0.98537209414E+02  0.50400001928E-02 0. -1.
    10030    2    1    2    0    0  0.00000000000E+00  0.00000000000E+00  0.55040106279E+03  0.74747548151E+03  0.50574525755E+03 0.  0.
        4    1    3    3  502    0  0.11960262733E+03 -0.20826877841E+03  0.39215892829E+03  0.45985966388E+03  0.12699999809E+01 0.  1.
       -4    1    3    3    0  502 -0.11960262733E+03  0.20826877841E+03  0.15824213450E+03  0.28761581763E+03  0.12699999809E+01 0. -1.
</event>
<event>
 5   0  0.1147245E-01  0.5098694E+03  0.7818609E-02  0.1011234E+00
        1   -1    0    0  501    0  0.00000000000E+00  0.00000000000E+00  0.11460971359E+04  0.11460971359E+04  0.50400001928E-02 0. -1.
       -1   -1    0    0    0  501  0.00000000000E+00  0.00000000000E+00 -0.56706965615E+02  0.56706965839E+02  0.50400001928E-02 0.  1.
    10030    2    1    2    0    0  0.00000000000E+00  0.00000000000E+00  0.10893901703E+04  0.12028041017E+04  0.50986935981E+03 0.  0.
        1    1    3    3  502    0  0.20560188689E+03  0.14544328925E+03  0.45134713525E+03  0.51685599813E+03  0.50400001928E-02 0.  1.
       -1    1    3    3    0  502 -0.20560188689E+03 -0.14544328925E+03  0.63804303503E+03  0.68594810362E+03  0.50400001928E-02 0. -1.
</event>
<event>
 5   0  0.1683148E-01  0.5026385E+03  0.7818609E-02  0.1013093E+00
        2   -1    0    0  501    0  0.00000000000E+00  0.00000000000E+00  0.58584623055E+03  0.58584623055E+03  0.25500000920E-02 0. -1.
       -2   -1    0    0    0  501  0.00000000000E+00  0.00000000000E+00 -0.10781218653E+03  0.10781218656E+03  0.25500000920E-02 0.  1.
    10030    2    1    2    0    0  0.00000000000E+00  0.00000000000E+00  0.47803404401E+03  0.69365841712E+03  0.50263849077E+03 0.  0.
        2    1    3    3  502    0 -0.15670889130E+03 -0.29260895042E+02  0.50713993995E+03  0.53160586461E+03  0.25500000920E-02 0. -1.
       -2    1    3    3    0  502  0.15670889130E+03  0.29260895042E+02 -0.29105895935E+02  0.16205255251E+03  0.25500000920E-02 0.  1.
</event>
<event>
 5   0  0.1141970E-01  0.5049568E+03  0.7818609E-02  0.1012493E+00
       -1   -1    0    0    0  501  0.00000000000E+00  0.00000000000E+00  0.52986582763E+03  0.52986582765E+03  0.50400001928E-02 0. -1.
        1   -1    0    0  501    0  0.00000000000E+00  0.00000000000E+00 -0.12030470069E+03  0.12030470080E+03  0.50400001928E-02 0.  1.
    10030    2    1    2    0    0  0.00000000000E+00  0.00000000000E+00  0.40956112693E+03  0.65017052845E+03  0.50495682922E+03 0.  0.
        3    1    3    3  502    0 -0.29165343910E+02 -0.24451931302E+03  0.13303322685E+03  0.27988955210E+03  0.10100000352E+00 0.  1.
       -3    1    3    3    0  502  0.29165343910E+02  0.24451931302E+03  0.27652790008E+03  0.37028097636E+03  0.10100000352E+00 0. -1.
</event>
<event>
 5   0  0.7220250E-02  0.4974262E+03  0.7818609E-02  0.1014453E+00
        3   -1    0    0  501    0  0.00000000000E+00  0.00000000000E+00  0.94899031067E+03  0.94899031604E+03  0.10100000352E+00 0. -1.
       -3   -1    0    0    0  501  0.00000000000E+00  0.00000000000E+00 -0.65183130181E+02  0.65183208430E+02  0.10100000352E+00 0.  1.
    10030    2    1    2    0    0  0.00000000000E+00  0.00000000000E+00  0.88380718048E+03  0.10141735245E+04  0.49742618092E+03 0.  0.
        2    1    3    3  502    0 -0.24816966326E+03  0.26284001714E+01  0.40883214146E+03  0.47826646354E+03  0.25500000920E-02 0.  1.
       -2    1    3    3    0  502  0.24816966326E+03 -0.26284001714E+01  0.47497503902E+03  0.53590706093E+03  0.25500000920E-02 0. -1.
</event>
<event>
 5   0  0.1782124E-01  0.4937268E+03  0.7818609E-02  0.1015429E+00
        2   -1    0    0  501    0  0.00000000000E+00  0.00000000000E+00  0.39146079148E+02  0.39146079231E+02  0.25500000920E-02 0. -1.
       -2   -1    0    0    0  501  0.00000000000E+00  0.00000000000E+00 -0.15567723507E+04  0.15567723507E+04  0.25500000920E-02 0.  1.
    10030    2    1    2    0    0  0.00000000000E+00  0.00000000000E+00 -0.15176262716E+04  0.15959184300E+04  0.49372678163E+03 0.  0.
        3    1    3    3  502    0 -0.13337683644E+03 -0.11056325323E+03 -0.13272723250E+04  0.13385310786E+04  0.10100000352E+00 0.  1.
       -3    1    3    3    0  502  0.13337683644E+03  0.11056325323E+03 -0.19035394659E+03  0.25738735137E+03  0.10100000352E+00 0. -1.
</event>
<event>
 5   0  0.1074281E-01  0.5033754E+03  0.7818609E-02  0.1012902E+00
       -1   -1    0    0    0  501  0.00000000000E+00  0.00000000000E+00  0.36835007993E+03  0.36835007997E+03  0.50400001928E-02 0. -1.
        1   -1    0    0  501    0  0.00000000000E+00  0.00000000000E+00 -0.17197414196E+03  0.17197414203E+03  0.50400001928E-02 0.  1.
    10030    2    1    2    0    0  0.00000000000E+00  0.00000000000E+00  0.19637593798E+03  0.54032422200E+03  0.50337536279E+03 0.  0.
        4    1    3    3  502    0  0.67845171769E+01 -0.25131256693E+03  0.11093572599E+03  0.27479516767E+03  0.12699999809E+01 0.  1.
       -4    1    3    3    0  502 -0.67845171769E+01  0.25131256693E+03  0.85440211984E+02  0.26552905433E+03  0.12699999809E+01 0. -1.
</event>
<event>
 5   0  0.1683148E-01  0.4980523E+03  0.7818609E-02  0.1014289E+00
        2   -1    0    0  501    0  0.00000000000E+00  0.00000000000E+00  0.79018369760E+03  0.79018369760E+03  0.25500000920E-02 0. -1.
       -2   -1    0    0    0  501  0.00000000000E+00  0.00000000000E+00 -0.78480501721E+02  0.78480501763E+02  0.25500000920E-02 0.  1.
    10030    2    1    2    0    0  0.00000000000E+00  0.00000000000E+00  0.71170319588E+03  0.86866419936E+03  0.49805225854E+03 0.  0.
        2    1    3    3  502    0 -0.17438905553E+03  0.16379431714E+03  0.47635888401E+03  0.53306463716E+03  0.25500000920E-02 0. -1.
       -2    1    3    3    0  502  0.17438905553E+03 -0.16379431714E+03  0.23534431187E+03  0.33559956220E+03  0.25500000920E-02 0.  1.
</event>
<event>
 5   0  0.1068522E-01  0.4818005E+03  0.7818609E-02  0.1018642E+00
        1   -1    0    0  501    0  0.00000000000E+00  0.00000000000E+00  0.83790968168E+02  0.83790968319E+02  0.50400001928E-02 0. -1.
       -1   -1    0    0    0  501  0.00000000000E+00  0.00000000000E+00 -0.69259164247E+03  0.69259164248E+03  0.50400001928E-02 0.  1.
    10030    2    1    2    0    0  0.00000000000E+00  0.00000000000E+00 -0.60880067430E+03  0.77638261080E+03  0.48180047461E+03 0.  0.
        2    1    3    3  502    0  0.54697946365E+02 -0.17191549778E+03 -0.56165333426E+03  0.58991632593E+03  0.25500000920E-02 0.  1.
       -2    1    3    3    0  502 -0.54697946365E+02  0.17191549778E+03 -0.47147340040E+02  0.18646628487E+03  0.25500000920E-02 0. -1.
</event>
<event>
 5   0  0.1782124E-01  0.4979195E+03  0.7818609E-02  0.1014323E+00
        2   -1    0    0  501    0  0.00000000000E+00  0.00000000000E+00  0.59802640722E+03  0.59802640723E+03  0.25500000920E-02 0.  1.
       -2   -1    0    0    0  501  0.00000000000E+00  0.00000000000E+00 -0.10364250028E+03  0.10364250031E+03  0.25500000920E-02 0. -1.
    10030    2    1    2    0    0  0.00000000000E+00  0.00000000000E+00  0.49438390694E+03  0.70166890754E+03  0.49791947979E+03 0.  0.
        3    1    3    3  502    0 -0.19105642232E+03  0.32384576325E+02  0.46744986240E+03  0.50602440787E+03  0.10100000352E+00 0.  1.
       -3    1    3    3    0  502  0.19105642232E+03 -0.32384576325E+02  0.26934044542E+02  0.19564449967E+03  0.10100000352E+00 0. -1.
</event>
<event>
 5   0  0.1760649E-01  0.5163014E+03  0.7818609E-02  0.1009609E+00
        2   -1    0    0  501    0  0.00000000000E+00  0.00000000000E+00  0.82647680426E+03  0.82647680426E+03  0.25500000920E-02 0. -1.
       -2   -1    0    0    0  501  0.00000000000E+00  0.00000000000E+00 -0.80633572540E+02  0.80633572581E+02  0.25500000920E-02 0.  1.
    10030    2    1    2    0    0  0.00000000000E+00  0.00000000000E+00  0.74584323172E+03  0.90711037685E+03  0.51630137466E+03 0.  0.
        5    1    3    3  502    0 -0.12089211449E+03 -0.22244904741E+03  0.28470285323E+03  0.38102006073E+03  0.46999998093E+01 0. -1.
       -5    1    3    3    0  502  0.12089211449E+03  0.22244904741E+03  0.46114037849E+03  0.52609031612E+03  0.46999998093E+01 0.  1.
</event>
<event>
 5   0  0.1068522E-01  0.4997530E+03  0.7818609E-02  0.1013843E+00
       -1   -1    0    0    0  501  0.00000000000E+00  0.00000000000E+00  0.15263514650E+03  0.15263514659E+03  0.50400001928E-02 0.  1.
        1   -1    0    0  501    0  0.00000000000E+00  0.00000000000E+00 -0.40906870198E+03  0.40906870201E+03  0.50400001928E-02 0. -1.
    10030    2    1    2    0    0  0.00000000000E+00  0.00000000000E+00 -0.25643355547E+03  0.56170384859E+03  0.49975298414E+03 0.  0.
        2    1    3    3  502    0  0.21682158755E+03 -0.11707452042E+03 -0.17483370420E+03  0.30213385824E+03  0.25500000920E-02 0. -1.
       -2    1    3    3    0  502 -0.21682158755E+03  0.11707452042E+03 -0.81599851272E+02  0.25956999036E+03  0.25500000920E-02 0.  1.
</event>
<event>
 5   0  0.1782124E-01  0.4999158E+03  0.7818609E-02  0.1013801E+00
        2   -1    0    0  501    0  0.00000000000E+00  0.00000000000E+00  0.10949858196E+04  0.10949858196E+04  0.25500000920E-02 0. -1.
       -2   -1    0    0    0  501  0.00000000000E+00  0.00000000000E+00 -0.57059149355E+02  0.57059149412E+02  0.25500000920E-02 0.  1.
    10030    2    1    2    0    0  0.00000000000E+00  0.00000000000E+00  0.10379266702E+04  0.11520449690E+04  0.49991583074E+03 0.  0.
        3    1    3    3  502    0 -0.56280266784E+02  0.17838039503E+03  0.13686509082E+03  0.23177380578E+03  0.10100000352E+00 0.  1.
       -3    1    3    3    0  502  0.56280266784E+02 -0.17838039503E+03  0.90106157943E+03  0.92027116324E+03  0.10100000352E+00 0. -1.
</event>
<event>
 5   0  0.1827698E-01  0.4841656E+03  0.7818609E-02  0.1017997E+00
        2   -1    0    0  501    0  0.00000000000E+00  0.00000000000E+00  0.10728571379E+04  0.10728571379E+04  0.25500000920E-02 0.  1.
       -2   -1    0    0    0  501  0.00000000000E+00  0.00000000000E+00 -0.54624304600E+02  0.54624304660E+02  0.25500000920E-02 0. -1.
    10030    2    1    2    0    0  0.00000000000E+00  0.00000000000E+00  0.10182328333E+04  0.11274814426E+04  0.48416557139E+03 0.  0.
        1    1    3    3  502    0  0.41042382666E+02  0.84994374917E+02 -0.10011360572E+02  0.94914426239E+02  0.50400001928E-02 0. -1.
       -1    1    3    3    0  502 -0.41042382666E+02 -0.84994374917E+02  0.10282441939E+04  0.10325670164E+04  0.50400001928E-02 0.  1.
</event>
<event>
 5   0  0.1141970E-01  0.5200500E+03  0.7818609E-02  0.1008674E+00
       -1   -1    0    0    0  501  0.00000000000E+00  0.00000000000E+00  0.12218280401E+03  0.12218280411E+03  0.50400001928E-02 0. -1.
        1   -1    0    0  501    0  0.00000000000E+00  0.00000000000E+00 -0.55337580146E+03  0.55337580148E+03  0.50400001928E-02 0.  1.
    10030    2    1    2    0    0  0.00000000000E+00  0.00000000000E+00 -0.43119299746E+03  0.67555860559E+03  0.52005002503E+03 0.  0.
        3    1    3    3  502    0 -0.96001606753E+01  0.17150152261E+03  0.37990123084E+02  0.17592099077E+03  0.10100000352E+00 0. -1.
       -3    1    3    3    0  502  0.96001606753E+01 -0.17150152261E+03 -0.46918312054E+03  0.49963761482E+03  0.10100000352E+00 0.  1.
</event>
<event>
 5   0  0.1782124E-01  0.5072432E+03  0.7818609E-02  0.1011905E+00
        2   -1    0    0  501    0  0.00000000000E+00  0.00000000000E+00  0.10161832790E+04  0.10161832790E+04  0.25500000920E-02 0. -1.
       -2   -1    0    0    0  501  0.00000000000E+00  0.00000000000E+00 -0.63299530148E+02  0.63299530200E+02  0.25500000920E-02 0.  1.
    10030    2    1    2    0    0  0.00000000000E+00  0.00000000000E+00  0.95288374887E+03  0.10794828092E+04  0.50724323213E+03 0.  0.
        3    1    3    3  502    0 -0.10569006694E+03  0.22310337680E+03  0.35274593307E+03  0.43055221575E+03  0.10100000352E+00 0.  1.
       -3    1    3    3    0  502  0.10569006694E+03 -0.22310337680E+03  0.60013781580E+03  0.64893059347E+03  0.10100000352E+00 0. -1.
</event>
<event>
 5   0  0.1074281E-01  0.4965971E+03  0.7818609E-02  0.1014671E+00
       -1   -1    0    0    0  501  0.00000000000E+00  0.00000000000E+00  0.52510833734E+03  0.52510833737E+03  0.50400001928E-02 0.  1.
        1   -1    0    0  501    0  0.00000000000E+00  0.00000000000E+00 -0.11740849772E+03  0.11740849783E+03  0.50400001928E-02 0. -1.
    10030    2    1    2    0    0  0.00000000000E+00  0.00000000000E+00  0.40769983962E+03  0.64251683520E+03  0.49659714487E+03 0.  0.
        4    1    3    3  502    0  0.14741283118E+03  0.41892239845E+02  0.45661280261E+03  0.48164547850E+03  0.12699999809E+01 0.  1.
       -4    1    3    3    0  502 -0.14741283118E+03 -0.41892239845E+02 -0.48912962989E+02  0.16087135670E+03  0.12699999809E+01 0. -1.
</event>
<event>
 5   0  0.1074281E-01  0.4965214E+03  0.7818609E-02  0.1014691E+00
        1   -1    0    0  501    0  0.00000000000E+00  0.00000000000E+00  0.48528643981E+03  0.48528643984E+03  0.50400001928E-02 0. -1.
       -1   -1    0    0    0  501  0.00000000000E+00  0.00000000000E+00 -0.12700409185E+03  0.12700409195E+03  0.50400001928E-02 0.  1.
    10030    2    1    2    0    0  0.00000000000E+00  0.00000000000E+00  0.35828234795E+03  0.61229053179E+03  0.49652135348E+03 0.  0.
        4    1    3    3  502    0 -0.24140097882E+03 -0.57224895593E+02  0.16793165219E+03  0.29958600428E+03  0.12699999809E+01 0.  1.
       -4    1    3    3    0  502  0.24140097882E+03  0.57224895593E+02  0.19035069576E+03  0.31270452751E+03  0.12699999809E+01 0. -1.
</event>
<event>
 5   0  0.1141970E-01  0.4932392E+03  0.7818609E-02  0.1015559E+00
        1   -1    0    0  501    0  0.00000000000E+00  0.00000000000E+00  0.15052649110E+04  0.15052649110E+04  0.50400001928E-02 0.  1.
       -1   -1    0    0    0  501  0.00000000000E+00  0.00000000000E+00 -0.40405661106E+02  0.40405661420E+02  0.50400001928E-02 0. -1.
    10030    2    1    2    0    0  0.00000000000E+00  0.00000000000E+00  0.14648592499E+04  0.15456705725E+04  0.49323918789E+03 0.  0.
        3    1    3    3  502    0 -0.70362804841E+02  0.10576201268E+03  0.70001563992E+02  0.14504053500E+03  0.10100000352E+00 0. -1.
       -3    1    3    3    0  502  0.70362804841E+02 -0.10576201268E+03  0.13948576859E+04  0.14006300375E+04  0.10100000352E+00 0.  1.
</event>
<event>
 5   0  0.1709372E-01  0.5428220E+03  0.7818609E-02  0.1003169E+00
        2   -1    0    0  501    0  0.00000000000E+00  0.00000000000E+00  0.80484098935E+03  0.80484098935E+03  0.25500000920E-02 0. -1.
       -2   -1    0    0    0  501  0.00000000000E+00  0.00000000000E+00 -0.91526065101E+02  0.91526065136E+02  0.25500000920E-02 0.  1.
    10030    2    1    2    0    0  0.00000000000E+00  0.00000000000E+00  0.71331492425E+03  0.89636705449E+03  0.54282199220E+03 0.  0.
        4    1    3    3  502    0  0.15852017941E+03 -0.11798647129E+03  0.49439077128E+02  0.20370392715E+03  0.12699999809E+01 0.  1.
       -4    1    3    3    0  502 -0.15852017941E+03  0.11798647129E+03  0.66387584712E+03  0.69266312734E+03  0.12699999809E+01 0. -1.
</event>
<event>
 5   0  0.1709372E-01  0.5145335E+03  0.7818609E-02  0.1010054E+00
       -2   -1    0    0    0  501  0.00000000000E+00  0.00000000000E+00  0.10989732874E+03  0.10989732877E+03  0.25500000920E-02 0.  1.
        2   -1    0    0  501    0  0.00000000000E+00  0.00000000000E+00 -0.60225458638E+03  0.60225458639E+03  0.25500000920E-02 0. -1.
    10030    2    1    2    0    0  0.00000000000E+00  0.00000000000E+00 -0.49235725765E+03  0.71215191515E+03  0.51453345965E+03 0.  0.
        4    1    3    3  502    0  0.20755509647E+03  0.15094417659E+01 -0.35803339622E+02  0.21062974271E+03  0.12699999809E+01 0.  1.
       -4    1    3    3    0  502 -0.20755509647E+03 -0.15094417659E+01 -0.45655391803E+03  0.50152217244E+03  0.12699999809E+01 0. -1.
</event>
<event>
 5   0  0.7220250E-02  0.5081814E+03  0.7818609E-02  0.1011665E+00
        4   -1    0    0  501    0  0.00000000000E+00  0.00000000000E+00  0.61252026911E+03  0.61252158571E+03  0.12699999809E+01 0. -1.
       -4   -1    0    0    0  501  0.00000000000E+00  0.00000000000E+00 -0.10539871967E+03  0.10540637081E+03  0.12699999809E+01 0.  1.
    10030    2    1    2    0    0  0.00000000000E+00  0.00000000000E+00  0.50712154944E+03  0.71792795653E+03  0.50818135036E+03 0.  0.
        2    1    3    3  502    0 -0.75532248697E+02 -0.19374110732E+02 -0.88081610109E+02  0.11763862803E+03  0.25500000920E-02 0.  1.
       -2    1    3    3    0  502  0.75532248697E+02  0.19374110732E+02  0.59520315955E+03  0.60028932849E+03  0.25500000920E-02 0. -1.
</event>
<event>
 5   0  0.1141970E-01  0.5043326E+03  0.7818609E-02  0.1012654E+00
       -1   -1    0    0    0  501  0.00000000000E+00  0.00000000000E+00  0.15710136751E+03  0.15710136759E+03  0.50400001928E-02 0. -1.
        1   -1    0    0  501    0  0.00000000000E+00  0.00000000000E+00 -0.40475673256E+03  0.40475673259E+03  0.50400001928E-02 0.  1.
    10030    2    1    2    0    0  0.00000000000E+00  0.00000000000E+00 -0.24765536505E+03  0.56185810018E+03  0.50433257370E+03 0.  0.
        3    1    3    3  502    0  0.60361961234E+02 -0.37300148333E+02 -0.39340543570E+03  0.39975331702E+03  0.10100000352E+00 0.  1.
       -3    1    3    3    0  502 -0.60361961234E+02  0.37300148333E+02  0.14575007064E+03  0.16210478316E+03  0.10100000352E+00 0. -1.
</event>
<event>
 5   0  0.1123271E-01  0.5035896E+03  0.7818609E-02  0.1012846E+00
       -1   -1    0    0    0  501  0.00000000000E+00  0.00000000000E+00  0.87917403760E+02  0.87917403905E+02  0.50400001928E-02 0.  1.
        1   -1    0    0  501    0  0.00000000000E+00  0.00000000000E+00 -0.72113832420E+03  0.72113832422E+03  0.50400001928E-02 0. -1.
    10030    2    1    2    0    0  0.00000000000E+00  0.00000000000E+00 -0.63322092044E+03  0.80905572812E+03  0.50358955224E+03 0.  0.
        5    1    3    3  502    0 -0.15838545661E+03 -0.19366688005E+03 -0.27157736925E+03  0.36928196650E+03  0.46999998093E+01 0.  1.
       -5    1    3    3    0  502  0.15838545661E+03  0.19366688005E+03 -0.36164355119E+03  0.43977376162E+03  0.46999998093E+01 0. -1.
</event>
<event>
 5   0  0.1683148E-01  0.5037145E+03  0.7818609E-02  0.1012814E+00
        2   -1    0    0  501    0  0.00000000000E+00  0.00000000000E+00  0.61809821858E+03  0.61809821858E+03  0.25500000920E-02 0. -1.
       -2   -1    0    0    0  501  0.00000000000E+00  0.00000000000E+00 -0.10262456758E+03  0.10262456761E+03  0.25500000920E-02 0.  1.
    10030    2    1    2    0    0  0.00000000000E+00  0.00000000000E+00  0.51547365100E+03  0.72072278620E+03  0.50371445252E+03 0.  0.
        2    1    3    3  502    0  0.11655963411E+03  0.22326158602E+03  0.25713262405E+03  0.35992925756E+03  0.25500000920E-02 0.  1.
       -2    1    3    3    0  502 -0.11655963411E+03 -0.22326158602E+03  0.25834102695E+03  0.36079352863E+03  0.25500000920E-02 0. -1.
</event>
<event>
 5   0  0.1782124E-01  0.4960736E+03  0.7818609E-02  0.1014809E+00
        2   -1    0    0  501    0  0.00000000000E+00  0.00000000000E+00  0.10558804062E+04  0.10558804062E+04  0.25500000920E-02 0. -1.
       -2   -1    0    0    0  501  0.00000000000E+00  0.00000000000E+00 -0.58266319961E+02  0.58266320017E+02  0.25500000920E-02 0.  1.
    10030    2    1    2    0    0  0.00000000000E+00  0.00000000000E+00  0.99761408623E+03  0.11141467262E+04  0.49607364623E+03 0.  0.
        3    1    3    3  502    0  0.15999958003E+03 -0.84954381402E+02  0.11828826883E+03  0.21635442513E+03  0.10100000352E+00 0. -1.
       -3    1    3    3    0  502 -0.15999958003E+03  0.84954381402E+02  0.87932581740E+03  0.89779230108E+03  0.10100000352E+00 0.  1.
</event>
<event>
 5   0  0.1827698E-01  0.4992854E+03  0.7818609E-02  0.1013966E+00
        2   -1    0    0  501    0  0.00000000000E+00  0.00000000000E+00  0.41379754882E+03  0.41379754882E+03  0.25500000920E-02 0.  1.
       -2   -1    0    0    0  501  0.00000000000E+00  0.00000000000E+00 -0.15060864159E+03  0.15060864161E+03  0.25500000920E-02 0. -1.
    10030    2    1    2    0    0  0.00000000000E+00  0.00000000000E+00  0.26318890722E+03  0.56440619044E+03  0.49928543632E+03 0.  0.
        1    1    3    3  502    0  0.50262362584E+02 -0.19373005757E+02  0.40714971800E+03  0.41069759110E+03  0.50400001928E-02 0.  1.
       -1    1    3    3    0  502 -0.50262362584E+02  0.19373005757E+02 -0.14396081078E+03  0.15370859933E+03  0.50400001928E-02 0. -1.
</event>
<event>
 5   0  0.1683148E-01  0.5004955E+03  0.7818609E-02  0.1013650E+00
        2   -1    0    0  501    0  0.00000000000E+00  0.00000000000E+00  0.89031537977E+03  0.89031537977E+03  0.25500000920E-02 0. -1.
       -2   -1    0    0    0  501  0.00000000000E+00  0.00000000000E+00 -0.70339041060E+02  0.70339041106E+02  0.25500000920E-02 0.  1.
    10030    2    1    2    0    0  0.00000000000E+00  0.00000000000E+00  0.81997633871E+03  0.96065442088E+03  0.50049547482E+03 0.  0.
        2    1    3    3  502    0 -0.19351101417E+03 -0.15630040430E+03  0.46246915599E+03  0.52512288966E+03  0.25500000920E-02 0. -1.
       -2    1    3    3    0  502  0.19351101417E+03  0.15630040430E+03  0.35750718272E+03  0.43553153122E+03  0.25500000920E-02 0.  1.
</event>
<event>
 5   0  0.1782124E-01  0.4945069E+03  0.7818609E-02  0.1015223E+00
       -2   -1    0    0    0  501  0.00000000000E+00  0.00000000000E+00  0.98929515071E+02  0.98929515103E+02  0.25500000920E-02 0.  1.
        2   -1    0    0  501    0  0.00000000000E+00  0.00000000000E+00 -0.61795794979E+03  0.61795794980E+03  0.25500000920E-02 0. -1.
    10030    2    1    2    0    0  0.00000000000E+00  0.00000000000E+00 -0.51902843472E+03  0.71688746490E+03  0.49450694766E+03 0.  0.
        3    1    3    3  502    0  0.23796188587E+03 -0.66836454814E+02 -0.26883065615E+03  0.36518885896E+03  0.10100000352E+00 0. -1.
       -3    1    3    3    0  502 -0.23796188587E+03  0.66836454814E+02 -0.25019777857E+03  0.35169860594E+03  0.10100000352E+00 0.  1.
</event>
<event>
 5   0  0.1141970E-01  0.5004006E+03  0.7818609E-02  0.1013674E+00
       -1   -1    0    0    0  501  0.00000000000E+00  0.00000000000E+00  0.79054939271E+02  0.79054939431E+02  0.50400001928E-02 0. -1.
        1   -1    0    0  501    0  0.00000000000E+00  0.00000000000E+00 -0.79185681108E+03  0.79185681109E+03  0.50400001928E-02 0.  1.
    10030    2    1    2    0    0  0.00000000000E+00  0.00000000000E+00 -0.71280187181E+03  0.87091175053E+03  0.50040060826E+03 0.  0.
        3    1    3    3  502    0 -0.64919108472E+02 -0.31454368400E+01  0.64105584969E+02  0.91290309688E+02  0.10100000352E+00 0. -1.
       -3    1    3    3    0  502  0.64919108472E+02  0.31454368400E+01 -0.77690745678E+03  0.77962144084E+03  0.10100000352E+00 0.  1.
</event>
<event>
 5   0  0.1760649E-01  0.5017781E+03  0.7818609E-02  0.1013316E+00
        2   -1    0    0  501    0  0.00000000000E+00  0.00000000000E+00  0.51629266947E+03  0.51629266948E+03  0.25500000920E-02 0. -1.
       -2   -1    0    0    0  501  0.00000000000E+00  0.00000000000E+00 -0.12191791461E+03  0.12191791464E+03  0.25500000920E-02 0.  1.
    10030    2    1    2    0    0  0.00000000000E+00  0.00000000000E+00  0.39437475486E+03  0.63821058411E+03  0.50177814062E+03 0.  0.
        5    1    3    3  502    0  0.16135344823E+03  0.18880815799E+03  0.24197154914E+03  0.34677914639E+03  0.46999998093E+01 0. -1.
       -5    1    3    3    0  502 -0.16135344823E+03 -0.18880815799E+03  0.15240320572E+03  0.29143143772E+03  0.46999998093E+01 0.  1.
</event>
<event>
 5   0  0.1123271E-01  0.5021010E+03  0.7818609E-02  0.1013232E+00
        1   -1    0    0  501    0  0.00000000000E+00  0.00000000000E+00  0.23720989918E+03  0.23720989924E+03  0.50400001928E-02 0. -1.
       -1   -1    0    0    0  501  0.00000000000E+00  0.00000000000E+00 -0.26569871527E+03  0.26569871532E+03  0.50400001928E-02 0.  1.
    10030    2    1    2    0    0  0.00000000000E+00  0.00000000000E+00 -0.28488816086E+02  0.50290861455E+03  0.50210104755E+03 0.  0.
        5    1    3    3  502    0  0.51491970494E+02  0.57087461898E+02 -0.25357196313E+03  0.26501175788E+03  0.46999998093E+01 0.  1.
       -5    1    3    3    0  502 -0.51491970494E+02 -0.57087461898E+02  0.22508314705E+03  0.23789685667E+03  0.46999998093E+01 0. -1.
</event>
<event>
 5   0  0.1141970E-01  0.5073571E+03  0.7818609E-02  0.1011876E+00
        1   -1    0    0  501    0  0.00000000000E+00  0.00000000000E+00  0.15345077689E+03  0.15345077697E+03  0.50400001928E-02 0. -1.
       -1   -1    0    0    0  501  0.00000000000E+00  0.00000000000E+00 -0.41937095146E+03  0.41937095149E+03  0.50400001928E-02 0.  1.
    10030    2    1    2    0    0  0.00000000000E+00  0.00000000000E+00 -0.26592017457E+03  0.57282172846E+03  0.50735706692E+03 0.  0.
        3    1    3    3  502    0 -0.91371112961E+02  0.56451068260E+02 -0.39243430786E+03  0.40686619371E+03  0.10100000352E+00 0.  1.
       -3    1    3    3    0  502  0.91371112961E+02 -0.56451068260E+02  0.12651413329E+03  0.16595553475E+03  0.10100000352E+00 0. -1.
</event>
<event>
 5   0  0.7220250E-02  0.4976692E+03  0.7818609E-02  0.1014389E+00
       -3   -1    0    0    0  501  0.00000000000E+00  0.00000000000E+00  0.10471375067E+04  0.10471375116E+04  0.10100000352E+00 0.  1.
        3   -1    0    0  501    0  0.00000000000E+00  0.00000000000E+00 -0.59131317160E+02  0.59131403417E+02  0.10100000352E+00 0. -1.
    10030    2    1    2    0    0  0.00000000000E+00  0.00000000000E+00  0.98800618955E+03  0.11062689150E+04  0.49766924930E+03 0.  0.
        3    1    3    3  502    0 -0.14549154418E+03  0.13473874734E+03  0.15985502226E+03  0.25470759275E+03  0.10100000352E+00 0. -1.
       -3    1    3    3    0  502  0.14549154418E+03 -0.13473874734E+03  0.82815116729E+03  0.85156132225E+03  0.10100000352E+00 0.  1.
</event>
<event>
 5   0  0.1782124E-01  0.4954103E+03  0.7818609E-02  0.1014984E+00
        2   -1    0    0  501    0  0.00000000000E+00  0.00000000000E+00  0.34986441948E+03  0.34986441949E+03  0.25500000920E-02 0. -1.
       -2   -1    0    0    0  501  0.00000000000E+00  0.00000000000E+00 -0.17537608692E+03  0.17537608694E+03  0.25500000920E-02 0.  1.
    10030    2    1    2    0    0  0.00000000000E+00  0.00000000000E+00  0.17448833257E+03  0.52524050643E+03  0.49541034647E+03 0.  0.
        3    1    3    3  502    0 -0.22179980402E+03 -0.10619293366E+03  0.11879775959E+03  0.27310256335E+03  0.10100000352E+00 0. -1.
       -3    1    3    3    0  502  0.22179980402E+03  0.10619293366E+03  0.55690572975E+02  0.25213794308E+03  0.10100000352E+00 0.  1.
</event>
<event>
 5   0  0.1147245E-01  0.4952603E+03  0.7818609E-02  0.1015023E+00
        1   -1    0    0  501    0  0.00000000000E+00  0.00000000000E+00  0.85286181816E+03  0.85286181818E+03  0.50400001928E-02 0. -1.
       -1   -1    0    0    0  501  0.00000000000E+00  0.00000000000E+00 -0.71899928183E+02  0.71899928360E+02  0.50400001928E-02 0.  1.
    10030    2    1    2    0    0  0.00000000000E+00  0.00000000000E+00  0.78096188998E+03  0.92476174654E+03  0.49526034998E+03 0.  0.
        1    1    3    3  502    0 -0.12054590394E+03  0.14036361539E+03  0.69779350469E+03  0.72190652768E+03  0.50400001928E-02 0. -1.
       -1    1    3    3    0  502  0.12054590394E+03 -0.14036361539E+03  0.83168385283E+02  0.20285521886E+03  0.50400001928E-02 0.  1.
</event>
<event>
 5   0  0.1141970E-01  0.4855315E+03  0.7818609E-02  0.1017626E+00
       -1   -1    0    0    0  501  0.00000000000E+00  0.00000000000E+00  0.77424613836E+03  0.77424613837E+03  0.50400001928E-02 0.  1.
        1   -1    0    0  501    0  0.00000000000E+00  0.00000000000E+00 -0.76119460392E+02  0.76119460559E+02  0.50400001928E-02 0. -1.
    10030    2    1    2    0    0  0.00000000000E+00  0.00000000000E+00  0.69812667797E+03  0.85036559893E+03  0.48553145455E+03 0.  0.
        3    1    3    3  502    0  0.18079204612E+03 -0.41623641290E+02  0.74829488984E+02  0.20004438027E+03  0.10100000352E+00 0. -1.
       -3    1    3    3    0  502 -0.18079204612E+03  0.41623641290E+02  0.62329718898E+03  0.65032121867E+03  0.10100000352E+00 0.  1.
</event>
<event>
 5   0  0.1068522E-01  0.5027331E+03  0.7818609E-02  0.1013068E+00
       -1   -1    0    0    0  501  0.00000000000E+00  0.00000000000E+00  0.44056766332E+02  0.44056766621E+02  0.50400001928E-02 0. -1.
        1   -1    0    0  501    0  0.00000000000E+00  0.00000000000E+00 -0.14341757483E+04  0.14341757483E+04  0.50400001928E-02 0.  1.
    10030    2    1    2    0    0  0.00000000000E+00  0.00000000000E+00 -0.13901189820E+04  0.14782325149E+04  0.50273311425E+03 0.  0.
        2    1    3    3  502    0  0.57239406120E+02  0.18906485027E+03 -0.23798899243E+03  0.30929052320E+03  0.25500000920E-02 0. -1.
       -2    1    3    3    0  502 -0.57239406120E+02 -0.18906485027E+03 -0.11521299895E+04  0.11689419917E+04  0.25500000920E-02 0.  1.
</event>
<event>
 5   0  0.1141970E-01  0.4927889E+03  0.7818609E-02  0.1015678E+00
        1   -1    0    0  501    0  0.00000000000E+00  0.00000000000E+00  0.46880784019E+03  0.46880784022E+03  0.50400001928E-02 0.  1.
       -1   -1    0    0    0  501  0.00000000000E+00  0.00000000000E+00 -0.12949917041E+03  0.12949917051E+03  0.50400001928E-02 0. -1.
    10030    2    1    2    0    0  0.00000000000E+00  0.00000000000E+00  0.33930866978E+03  0.59830701072E+03  0.49278890582E+03 0.  0.
        3    1    3    3  502    0 -0.11144956249E+03  0.19667309001E+03  0.50639756413E+02  0.23165859458E+03  0.10100000352E+00 0.  1.
       -3    1    3    3    0  502  0.11144956249E+03 -0.19667309001E+03  0.28866891337E+03  0.36664841614E+03  0.10100000352E+00 0. -1.
</event>
<event>
 5   0  0.1709372E-01  0.5074345E+03  0.7818609E-02  0.1011856E+00
        2   -1    0    0  501    0  0.00000000000E+00  0.00000000000E+00  0.31912358402E+03  0.31912358403E+03  0.25500000920E-02 0.  1.
       -2   -1    0    0    0  501  0.00000000000E+00  0.00000000000E+00 -0.20171635902E+03  0.20171635904E+03  0.25500000920E-02 0. -1.
    10030    2    1    2    0    0  0.00000000000E+00  0.00000000000E+00  0.11740722500E+03  0.52083994307E+03  0.50743451776E+03 0.  0.
        4    1    3    3  502    0 -0.19178077769E+03 -0.81028055864E+02  0.20753572197E+03  0.29396955850E+03  0.12699999809E+01 0.  1.
       -4    1    3    3    0  502  0.19178077769E+03  0.81028055864E+02 -0.90128496976E+02  0.22687038457E+03  0.12699999809E+01 0. -1.
</event>
<event>
 5   0  0.1827698E-01  0.5242105E+03  0.7818609E-02  0.1007646E+00
       -2   -1    0    0    0  501  0.00000000000E+00  0.00000000000E+00  0.89997690281E+02  0.89997690317E+02  0.25500000920E-02 0.  1.
        2   -1    0    0  501    0  0.00000000000E+00  0.00000000000E+00 -0.76334350027E+03  0.76334350027E+03  0.25500000920E-02 0. -1.
    10030    2    1    2    0    0  0.00000000000E+00  0.00000000000E+00 -0.67334580998E+03  0.85334119059E+03  0.52421046129E+03 0.  0.
        1    1    3    3  502    0  0.13749793408E+03  0.21839879807E+03 -0.41118969285E+03  0.48546954632E+03  0.50400001928E-02 0.  1.
       -1    1    3    3    0  502 -0.13749793408E+03 -0.21839879807E+03 -0.26215611714E+03  0.36787164427E+03  0.50400001928E-02 0. -1.
</event>
<event>
 5   0  0.1074281E-01  0.5093677E+03  0.7818609E-02  0.1011362E+00
        1   -1    0    0  501    0  0.00000000000E+00  0.00000000000E+00  0.30179062020E+03  0.30179062024E+03  0.50400001928E-02 0. -1.
       -1   -1    0    0    0  501  0.00000000000E+00  0.00000000000E+00 -0.21493005090E+03  0.21493005096E+03  0.50400001928E-02 0.  1.
    10030    2    1    2    0    0  0.00000000000E+00  0.00000000000E+00  0.86860569303E+02  0.51672067120E+03  0.50936773901E+03 0.  0.
        4    1    3    3  502    0  0.85801691271E+02 -0.47563960533E+02 -0.19499009374E+03  0.21828195098E+03  0.12699999809E+01 0. -1.
       -4    1    3    3    0  502 -0.85801691271E+02  0.47563960533E+02  0.28185066304E+03  0.29843872022E+03  0.12699999809E+01 0.  1.
</event>
<event>
 5   0  0.1683148E-01  0.5128152E+03  0.7818609E-02  0.1010487E+00
       -2   -1    0    0    0  501  0.00000000000E+00  0.00000000000E+00  0.88610787654E+02  0.88610787690E+02  0.25500000920E-02 0.  1.
        2   -1    0    0  501    0  0.00000000000E+00  0.00000000000E+00 -0.74195104695E+03  0.74195104695E+03  0.25500000920E-02 0. -1.
    10030    2    1    2    0    0  0.00000000000E+00  0.00000000000E+00 -0.65334025929E+03  0.83056183464E+03  0.51281523646E+03 0.  0.
        2    1    3    3  502    0 -0.32792402328E+02 -0.21010514057E+03 -0.94633585515E+02  0.23275529480E+03  0.25500000920E-02 0.  1.
       -2    1    3    3    0  502  0.32792402328E+02  0.21010514057E+03 -0.55870667378E+03  0.59780653984E+03  0.25500000920E-02 0. -1.
</event>
<event>
 5   0  0.1141970E-01  0.4986513E+03  0.7818609E-02  0.1014132E+00
       -1   -1    0    0    0  501  0.00000000000E+00  0.00000000000E+00  0.33514583823E+02  0.33514584202E+02  0.50400001928E-02 0.  1.
        1   -1    0    0  501    0  0.00000000000E+00  0.00000000000E+00 -0.18548129802E+04  0.18548129802E+04  0.50400001928E-02 0. -1.
    10030    2    1    2    0    0  0.00000000000E+00  0.00000000000E+00 -0.18212983964E+04  0.18883275644E+04  0.49865132293E+03 0.  0.
        3    1    3    3  502    0  0.19204832367E+03 -0.82352792580E+02 -0.39559685987E+03  0.44739403975E+03  0.10100000352E+00 0.  1.
       -3    1    3    3    0  502 -0.19204832367E+03  0.82352792580E+02 -0.14257015365E+04  0.14409335247E+04  0.10100000352E+00 0. -1.
</event>
<event>
 5   0  0.1683148E-01  0.4972184E+03  0.7818609E-02  0.1014508E+00
        2   -1    0    0  501    0  0.00000000000E+00  0.00000000000E+00  0.15749595305E+04  0.15749595305E+04  0.25500000920E-02 0.  1.
       -2   -1    0    0    0  501  0.00000000000E+00  0.00000000000E+00 -0.39243245280E+02  0.39243245363E+02  0.25500000920E-02 0. -1.
    10030    2    1    2    0    0  0.00000000000E+00  0.00000000000E+00  0.15357162852E+04  0.16142027759E+04  0.49721835538E+03 0.  0.
        2    1    3    3  502    0 -0.12272623305E+03 -0.20290089149E+03  0.52543547704E+03  0.57646590583E+03  0.25500000920E-02 0. -1.
       -2    1    3    3    0  502  0.12272623305E+03  0.20290089149E+03  0.10102808082E+04  0.10377368701E+04  0.25500000920E-02 0.  1.
</event>
<event>
 5   0  0.1068522E-01  0.4930759E+03  0.7818609E-02  0.1015602E+00
       -1   -1    0    0    0  501  0.00000000000E+00  0.00000000000E+00  0.10532510045E+04  0.10532510045E+04  0.50400001928E-02 0. -1.
        1   -1    0    0  501    0  0.00000000000E+00  0.00000000000E+00 -0.57707960637E+02  0.57707960858E+02  0.50400001928E-02 0.  1.
    10030    2    1    2    0    0  0.00000000000E+00  0.00000000000E+00  0.99554304385E+03  0.11109589654E+04  0.49307592777E+03 0.  0.
        2    1    3    3  502    0 -0.22609178067E+03  0.33413109128E+02  0.70607285397E+03  0.74214069035E+03  0.25500000920E-02 0. -1.
       -2    1    3    3    0  502  0.22609178067E+03 -0.33413109128E+02  0.28947018987E+03  0.36881827501E+03  0.25500000920E-02 0.  1.
</event>
<event>
 5   0  0.1068522E-01  0.4949693E+03  0.7818609E-02  0.1015100E+00
       -1   -1    0    0    0  501  0.00000000000E+00  0.00000000000E+00  0.32053857656E+03  0.32053857660E+03  0.50400001928E-02 0. -1.
        1   -1    0    0  501    0  0.00000000000E+00  0.00000000000E+00 -0.19108046778E+03  0.19108046785E+03  0.50400001928E-02 0.  1.
    10030    2    1    2    0    0  0.00000000000E+00  0.00000000000E+00  0.12945810878E+03  0.51161904444E+03  0.49496933714E+03 0.  0.
        2    1    3    3  502    0 -0.22457369036E+01 -0.24639448155E+03  0.88600882013E+02  0.26184995737E+03  0.25500000920E-02 0. -1.
       -2    1    3    3    0  502  0.22457369036E+01  0.24639448155E+03  0.40857226765E+02  0.24976908708E+03  0.25500000920E-02 0.  1.
</event>
<event>
 5   0  0.1068522E-01  0.5018517E+03  0.7818609E-02  0.1013297E+00
       -1   -1    0    0    0  501  0.00000000000E+00  0.00000000000E+00  0.57037013830E+03  0.57037013833E+03  0.50400001928E-02 0. -1.
        1   -1    0    0  501    0  0.00000000000E+00  0.00000000000E+00 -0.11039111016E+03  0.11039111028E+03  0.50400001928E-02 0.  1.
    10030    2    1    2    0    0  0.00000000000E+00  0.00000000000E+00  0.45997902814E+03  0.68076124860E+03  0.50185174232E+03 0.  0.
        2    1    3    3  502    0 -0.76242257203E+02 -0.83345132740E+02 -0.73952482825E+02  0.13501208338E+03  0.25500000920E-02 0.  1.
       -2    1    3    3    0  502  0.76242257203E+02  0.83345132740E+02  0.53393151097E+03  0.54574916523E+03  0.25500000920E-02 0. -1.
</event>
<event>
 5   0  0.1683148E-01  0.5008169E+03  0.7818609E-02  0.1013566E+00
       -2   -1    0    0    0  501  0.00000000000E+00  0.00000000000E+00  0.28460425456E+02  0.28460425570E+02  0.25500000920E-02 0. -1.
        2   -1    0    0  501    0  0.00000000000E+00  0.00000000000E+00 -0.22032137188E+04  0.22032137188E+04  0.25500000920E-02 0.  1.
    10030    2    1    2    0    0  0.00000000000E+00  0.00000000000E+00 -0.21747532933E+04  0.22316741444E+04  0.50081693237E+03 0.  0.
        2    1    3    3  502    0  0.71874664211E+02 -0.13819717481E+03 -0.19610383875E+04  0.19672152866E+04  0.25500000920E-02 0.  1.
       -2    1    3    3    0  502 -0.71874664211E+02  0.13819717481E+03 -0.21371490583E+03  0.26445885778E+03  0.25500000920E-02 0. -1.
</event>
<event>
 5   0  0.1123271E-01  0.5026702E+03  0.7818609E-02  0.1013084E+00
       -1   -1    0    0    0  501  0.00000000000E+00  0.00000000000E+00  0.45312186322E+03  0.45312186325E+03  0.50400001928E-02 0.  1.
        1   -1    0    0  501    0  0.00000000000E+00  0.00000000000E+00 -0.13940911967E+03  0.13940911977E+03  0.50400001928E-02 0. -1.
    10030    2    1    2    0    0  0.00000000000E+00  0.00000000000E+00  0.31371274355E+03  0.59253098302E+03  0.50267015066E+03 0.  0.
        5    1    3    3  502    0  0.11002644242E+03 -0.19899455201E+03  0.28294907412E+03  0.36302468002E+03  0.46999998093E+01 0.  1.
       -5    1    3    3    0  502 -0.11002644242E+03  0.19899455201E+03  0.30763669427E+02  0.22950630300E+03  0.46999998093E+01 0. -1.
</event>
<event>
 5   0  0.1760649E-01  0.4946765E+03  0.7818609E-02  0.1015178E+00
       -2   -1    0    0    0  501  0.00000000000E+00  0.00000000000E+00  0.17695411661E+03  0.17695411663E+03  0.25500000920E-02 0.  1.
        2   -1    0    0  501    0  0.00000000000E+00  0.00000000000E+00 -0.34571789135E+03  0.34571789136E+03  0.25500000920E-02 0. -1.
    10030    2    1    2    0    0  0.00000000000E+00  0.00000000000E+00 -0.16876377474E+03  0.52267200799E+03  0.49467647637E+03 0.  0.
        5    1    3    3  502    0  0.68443937871E+02  0.23397748303E+03 -0.12825379796E+03  0.27550165496E+03  0.46999998093E+01 0.  1.
       -5    1    3    3    0  502 -0.68443937871E+02 -0.23397748303E+03 -0.40509976775E+02  0.24717035303E+03  0.46999998093E+01 0. -1.
</event>
<event>
 5   0  0.1760649E-01  0.5178545E+03  0.7818609E-02  0.1009221E+00
       -2   -1    0    0    0  501  0.00000000000E+00  0.00000000000E+00  0.62480191541E+02  0.62480191593E+02  0.25500000920E-02 0. -1.
        2   -1    0    0  501    0  0.00000000000E+00  0.00000000000E+00 -0.10730333222E+04  0.10730333222E+04  0.25500000920E-02 0.  1.
    10030    2    1    2    0    0  0.00000000000E+00  0.00000000000E+00 -0.10105531306E+04  0.11355135138E+04  0.51785452602E+03 0.  0.
        5    1    3    3  502    0 -0.21201390440E+03 -0.12030985052E+03 -0.69639483895E+03  0.73784294908E+03  0.46999998093E+01 0.  1.
       -5    1    3    3    0  502  0.21201390440E+03  0.12030985052E+03 -0.31415829166E+03  0.39767056467E+03  0.46999998093E+01 0. -1.
</event>
<event>
 5   0  0.1709372E-01  0.4987579E+03  0.7818609E-02  0.1014104E+00
       -2   -1    0    0    0  501  0.00000000000E+00  0.00000000000E+00  0.37710828975E+03  0.37710828976E+03  0.25500000920E-02 0. -1.
        2   -1    0    0  501    0  0.00000000000E+00  0.00000000000E+00 -0.16491248830E+03  0.16491248832E+03  0.25500000920E-02 0.  1.
    10030    2    1    2    0    0  0.00000000000E+00  0.00000000000E+00  0.21219580145E+03  0.54202077809E+03  0.49875792297E+03 0.  0.
        4    1    3    3  502    0 -0.20531654684E+03  0.73707597208E+02  0.23741185303E+03  0.32241850932E+03  0.12699999809E+01 0. -1.
       -4    1    3    3    0  502  0.20531654684E+03 -0.73707597208E+02 -0.25216051582E+02  0.21960226877E+03  0.12699999809E+01 0.  1.
</event>
<event>
 5   0  0.1074281E-01  0.4992195E+03  0.7818609E-02  0.1013983E+00
        1   -1    0    0  501    0  0.00000000000E+00  0.00000000000E+00  0.44130890951E+03  0.44130890954E+03  0.50400001928E-02 0. -1.
       -1   -1    0    0    0  501  0.00000000000E+00  0.00000000000E+00 -0.14118232340E+03  0.14118232349E+03  0.50400001928E-02 0.  1.
    10030    2    1    2    0    0  0.00000000000E+00  0.00000000000E+00  0.30012658611E+03  0.58249123302E+03  0.49921945961E+03 0.  0.
        4    1    3    3  502    0  0.14924753049E+03  0.19213044864E+03  0.21517962672E+03  0.32479658143E+03  0.12699999809E+01 0. -1.
       -4    1    3    3    0  502 -0.14924753049E+03 -0.19213044864E+03  0.84946959387E+02  0.25769465159E+03  0.12699999809E+01 0.  1.
</event>
<event>
 5   0  0.7220250E-02  0.4844160E+03  0.7818609E-02  0.1017929E+00
       -4   -1    0    0    0  501  0.00000000000E+00  0.00000000000E+00  0.27621020338E+03  0.27621312306E+03  0.12699999809E+01 0.  1.
        4   -1    0    0  501    0  0.00000000000E+00  0.00000000000E+00 -0.21238558063E+03  0.21238937770E+03  0.12699999809E+01 0. -1.
    10030    2    1    2    0    0  0.00000000000E+00  0.00000000000E+00  0.63824622746E+02  0.48860250076E+03  0.48441595894E+03 0.  0.
        1    1    3    3  502    0 -0.91939368667E+02 -0.20577006299E+03 -0.57570470998E+02  0.23261239324E+03  0.50400001928E-02 0. -1.
       -1    1    3    3    0  502  0.91939368667E+02  0.20577006299E+03  0.12139509374E+03  0.25599010751E+03  0.50400001928E-02 0.  1.
</event>
<event>
 5   0  0.7220250E-02  0.4990881E+03  0.7818609E-02  0.1014017E+00
       -3   -1    0    0    0  501  0.00000000000E+00  0.00000000000E+00  0.23575015736E+03  0.23575017900E+03  0.10100000352E+00 0.  1.
        3   -1    0    0  501    0  0.00000000000E+00  0.00000000000E+00 -0.26414494898E+03  0.26414496829E+03  0.10100000352E+00 0. -1.
    10030    2    1    2    0    0  0.00000000000E+00  0.00000000000E+00 -0.28394791617E+02  0.49989514729E+03  0.49908806246E+03 0.  0.
        4    1    3    3  502    0  0.11295432560E+03  0.13928953443E+03 -0.18800136399E+03  0.25981989884E+03  0.12699999809E+01 0. -1.
       -4    1    3    3    0  502 -0.11295432560E+03 -0.13928953443E+03  0.15960657237E+03  0.24007524845E+03  0.12699999809E+01 0.  1.
</event>
<event>
 5   0  0.1683148E-01  0.4970628E+03  0.7818609E-02  0.1014548E+00
        2   -1    0    0  501    0  0.00000000000E+00  0.00000000000E+00  0.61810883911E+03  0.61810883911E+03  0.25500000920E-02 0. -1.
       -2   -1    0    0    0  501  0.00000000000E+00  0.00000000000E+00 -0.99930395962E+02  0.99930395995E+02  0.25500000920E-02 0.  1.
    10030    2    1    2    0    0  0.00000000000E+00  0.00000000000E+00  0.51817844315E+03  0.71803923511E+03  0.49706281717E+03 0.  0.
        2    1    3    3  502    0 -0.13009653009E+03 -0.20283635590E+03  0.34696062039E+03  0.42243267691E+03  0.25500000920E-02 0. -1.
       -2    1    3    3    0  502  0.13009653009E+03  0.20283635590E+03  0.17121782276E+03  0.29560655820E+03  0.25500000920E-02 0.  1.
</event>
<event>
 5   0  0.1068522E-01  0.4993846E+03  0.7818609E-02  0.1013940E+00
       -1   -1    0    0    0  501  0.00000000000E+00  0.00000000000E+00  0.68022320448E+02  0.68022320635E+02  0.50400001928E-02 0.  1.
        1   -1    0    0  501    0  0.00000000000E+00  0.00000000000E+00 -0.91655584477E+03  0.91655584478E+03  0.50400001928E-02 0. -1.
    10030    2    1    2    0    0  0.00000000000E+00  0.00000000000E+00 -0.84853352432E+03  0.98457816541E+03  0.49938464326E+03 0.  0.
        2    1    3    3  502    0  0.35185560805E+02 -0.74792666726E+02  0.40267132187E+02  0.91942420167E+02  0.25500000920E-02 0.  1.
       -2    1    3    3    0  502 -0.35185560805E+02  0.74792666726E+02 -0.88880065650E+03  0.89263574525E+03  0.25500000920E-02 0. -1.
</event>
<event>
 5   0  0.1782124E-01  0.4956864E+03  0.7818609E-02  0.1014911E+00
       -2   -1    0    0    0  501  0.00000000000E+00  0.00000000000E+00  0.38992919847E+02  0.38992919930E+02  0.25500000920E-02 0.  1.
        2   -1    0    0  501    0  0.00000000000E+00  0.00000000000E+00 -0.15753181977E+04  0.15753181977E+04  0.25500000920E-02 0. -1.
    10030    2    1    2    0    0  0.00000000000E+00  0.00000000000E+00 -0.15363252779E+04  0.16143111176E+04  0.49568641815E+03 0.  0.
        3    1    3    3  502    0 -0.12239948624E+03 -0.21209915092E+03 -0.64378489624E+03  0.68878638697E+03  0.10100000352E+00 0.  1.
       -3    1    3    3    0  502  0.12239948624E+03  0.21209915092E+03 -0.89254038162E+03  0.92552473067E+03  0.10100000352E+00 0. -1.
</event>
<event>
 5   0  0.1760649E-01  0.5020511E+03  0.7818609E-02  0.1013245E+00
       -2   -1    0    0    0  501  0.00000000000E+00  0.00000000000E+00  0.10932765693E+03  0.10932765696E+03  0.25500000920E-02 0. -1.
        2   -1    0    0  501    0  0.00000000000E+00  0.00000000000E+00 -0.57637593058E+03  0.57637593059E+03  0.25500000920E-02 0.  1.
    10030    2    1    2    0    0  0.00000000000E+00  0.00000000000E+00 -0.46704827365E+03  0.68570358755E+03  0.50205111299E+03 0.  0.
        5    1    3    3  502    0  0.10024483393E+03  0.20791343886E+03 -0.98906015736E+02  0.25116033671E+03  0.46999998093E+01 0. -1.
       -5    1    3    3    0  502 -0.10024483393E+03 -0.20791343886E+03 -0.36814225792E+03  0.43454325084E+03  0.46999998093E+01 0.  1.
</event>
<event>
 5   0  0.1123271E-01  0.5021965E+03  0.7818609E-02  0.1013207E+00
       -1   -1    0    0    0  501  0.00000000000E+00  0.00000000000E+00  0.16082426162E+03  0.16082426170E+03  0.50400001928E-02 0.  1.
        1   -1    0    0  501    0  0.00000000000E+00  0.00000000000E+00 -0.39204484852E+03  0.39204484856E+03  0.50400001928E-02 0. -1.
    10030    2    1    2    0    0  0.00000000000E+00  0.00000000000E+00 -0.23122058690E+03  0.55286911026E+03  0.50219646879E+03 0.  0.
        5    1    3    3  502    0  0.38638137103E+02  0.20248137266E+03  0.42155617588E+02  0.21045379066E+03  0.46999998093E+01 0.  1.
       -5    1    3    3    0  502 -0.38638137103E+02 -0.20248137266E+03 -0.27337620449E+03  0.34241531959E+03  0.46999998093E+01 0. -1.
</event>
<event>
 5   0  0.1141970E-01  0.5146598E+03  0.7818609E-02  0.1010022E+00
       -1   -1    0    0    0  501  0.00000000000E+00  0.00000000000E+00  0.30325202435E+03  0.30325202440E+03  0.50400001928E-02 0. -1.
        1   -1    0    0  501    0  0.00000000000E+00  0.00000000000E+00 -0.21836187646E+03  0.21836187652E+03  0.50400001928E-02 0.  1.
    10030    2    1    2    0    0  0.00000000000E+00  0.00000000000E+00  0.84890147895E+02  0.52161390091E+03  0.51465981426E+03 0.  0.
        3    1    3    3  502    0 -0.21279378786E+03  0.14067850071E+03  0.81195575680E+01  0.25522063813E+03  0.10100000352E+00 0.  1.
       -3    1    3    3    0  502  0.21279378786E+03 -0.14067850071E+03  0.76770590327E+02  0.26639326278E+03  0.10100000352E+00 0. -1.
</event>
<event>
 5   0  0.1782124E-01  0.4641140E+03  0.7818609E-02  0.1023595E+00
        2   -1    0    0  501    0  0.00000000000E+00  0.00000000000E+00  0.22042860649E+03  0.22042860650E+03  0.25500000920E-02 0.  1.
       -2   -1    0    0    0  501  0.00000000000E+00  0.00000000000E+00 -0.24429880498E+03  0.24429880499E+03  0.25500000920E-02 0. -1.
    10030    2    1    2    0    0  0.00000000000E+00  0.00000000000E+00 -0.23870198490E+02  0.46472741149E+03  0.46411397374E+03 0.  0.
        3    1    3    3  502    0  0.17372041671E+03 -0.72101462900E+01 -0.16582514088E+03  0.24026809389E+03  0.10100000352E+00 0. -1.
       -3    1    3    3    0  502 -0.17372041671E+03  0.72101462900E+01  0.14195494239E+03  0.22445931761E+03  0.10100000352E+00 0.  1.
</event>
<event>
 5   0  0.1709372E-01  0.5007884E+03  0.7818609E-02  0.1013573E+00
        2   -1    0    0  501    0  0.00000000000E+00  0.00000000000E+00  0.10425492308E+04  0.10425492308E+04  0.25500000920E-02 0.  1.
       -2   -1    0    0    0  501  0.00000000000E+00  0.00000000000E+00 -0.60138419765E+02  0.60138419819E+02  0.25500000920E-02 0. -1.
    10030    2    1    2    0    0  0.00000000000E+00  0.00000000000E+00  0.98241081102E+03  0.11026876506E+04  0.50078843157E+03 0.  0.
        4    1    3    3  502    0  0.15107615984E+03 -0.16405005229E+02  0.92939255247E+03  0.94173523867E+03  0.12699999809E+01 0.  1.
       -4    1    3    3    0  502 -0.15107615984E+03  0.16405005229E+02  0.53018258548E+02  0.16095241193E+03  0.12699999809E+01 0. -1.
</event>
<event>
 5   0  0.1827698E-01  0.4507805E+03  0.7818609E-02  0.1027490E+00
        2   -1    0    0  501    0  0.00000000000E+00  0.00000000000E+00  0.11804113628E+04  0.11804113628E+04  0.25500000920E-02 0. -1.
       -2   -1    0    0    0  501  0.00000000000E+00  0.00000000000E+00 -0.43036491350E+02  0.43036491425E+02  0.25500000920E-02 0.  1.
    10030    2    1    2    0    0  0.00000000000E+00  0.00000000000E+00  0.11373748715E+04  0.12234478542E+04  0.45078049405E+03 0.  0.
        1    1    3    3  502    0 -0.15557328062E+03 -0.23039381539E+02  0.13049479414E+03  0.20435936501E+03  0.50400001928E-02 0.  1.
       -1    1    3    3    0  502  0.15557328062E+03  0.23039381539E+02  0.10068800773E+04  0.10190884892E+04  0.50400001928E-02 0. -1.
</event>
<event>
 5   0  0.1683148E-01  0.4985461E+03  0.7818609E-02  0.1014159E+00
        2   -1    0    0  501    0  0.00000000000E+00  0.00000000000E+00  0.16110160250E+04  0.16110160250E+04  0.25500000920E-02 0. -1.
       -2   -1    0    0    0  501  0.00000000000E+00  0.00000000000E+00 -0.38570101402E+02  0.38570101486E+02  0.25500000920E-02 0.  1.
    10030    2    1    2    0    0  0.00000000000E+00  0.00000000000E+00  0.15724459236E+04  0.16495861265E+04  0.49854609221E+03 0.  0.
        2    1    3    3  502    0 -0.97735408317E+02 -0.18361734324E+03  0.33170607669E+03  0.39153091844E+03  0.25500000920E-02 0. -1.
       -2    1    3    3    0  502  0.97735408317E+02  0.18361734324E+03  0.12407398469E+04  0.12580552080E+04  0.25500000920E-02 0.  1.
</event>
<event>
 5   0  0.1074281E-01  0.4985463E+03  0.7818609E-02  0.1014159E+00
       -1   -1    0    0    0  501  0.00000000000E+00  0.00000000000E+00  0.67550307753E+02  0.67550307941E+02  0.50400001928E-02 0. -1.
        1   -1    0    0  501    0  0.00000000000E+00  0.00000000000E+00 -0.91986405866E+03  0.91986405867E+03  0.50400001928E-02 0.  1.
    10030    2    1    2    0    0  0.00000000000E+00  0.00000000000E+00 -0.85231375091E+03  0.98741436661E+03  0.49854628813E+03 0.  0.
        4    1    3    3  502    0 -0.12310566336E+03 -0.14075235432E+03 -0.99694720930E+02  0.21191243446E+03  0.12699999809E+01 0. -1.
       -4    1    3    3    0  502  0.12310566336E+03  0.14075235432E+03 -0.75261902998E+03  0.77550193216E+03  0.12699999809E+01 0.  1.
</event>
<event>
 5   0  0.1709372E-01  0.4964182E+03  0.7818609E-02  0.1014718E+00
        2   -1    0    0  501    0  0.00000000000E+00  0.00000000000E+00  0.17027833643E+04  0.17027833643E+04  0.25500000920E-02 0.  1.
       -2   -1    0    0    0  501  0.00000000000E+00  0.00000000000E+00 -0.36180618491E+02  0.36180618581E+02  0.25500000920E-02 0. -1.
    10030    2    1    2    0    0  0.00000000000E+00  0.00000000000E+00  0.16666027459E+04  0.17389639829E+04  0.49641819209E+03 0.  0.
        4    1    3    3  502    0  0.21556390807E+03 -0.58431689418E+01  0.40278290901E+03  0.45687813011E+03  0.12699999809E+01 0. -1.
       -4    1    3    3    0  502 -0.21556390807E+03  0.58431689418E+01  0.12638198368E+04  0.12820858528E+04  0.12699999809E+01 0.  1.
</event>
<event>
 5   0  0.1709372E-01  0.4871577E+03  0.7818609E-02  0.1017186E+00
        2   -1    0    0  501    0  0.00000000000E+00  0.00000000000E+00  0.12083898448E+03  0.12083898451E+03  0.25500000920E-02 0.  1.
       -2   -1    0    0    0  501  0.00000000000E+00  0.00000000000E+00 -0.49098942431E+03  0.49098942432E+03  0.25500000920E-02 0. -1.
    10030    2    1    2    0    0  0.00000000000E+00  0.00000000000E+00 -0.37015043983E+03  0.61182840883E+03  0.48715772983E+03 0.  0.
        4    1    3    3  502    0  0.11375254021E+03 -0.18585728370E+03 -0.32177087403E+03  0.38861379103E+03  0.12699999809E+01 0. -1.
       -4    1    3    3    0  502 -0.11375254021E+03  0.18585728370E+03 -0.48379565804E+02  0.22321461779E+03  0.12699999809E+01 0.  1.
</event>
<event>
 5   0  0.1782124E-01  0.5044297E+03  0.7818609E-02  0.1012629E+00
       -2   -1    0    0    0  501  0.00000000000E+00  0.00000000000E+00  0.75928852229E+02  0.75928852272E+02  0.25500000920E-02 0.  1.
        2   -1    0    0  501    0  0.00000000000E+00  0.00000000000E+00 -0.83778872400E+03  0.83778872400E+03  0.25500000920E-02 0. -1.
    10030    2    1    2    0    0  0.00000000000E+00  0.00000000000E+00 -0.76185987177E+03  0.91371757627E+03  0.50442972254E+03 0.  0.
        3    1    3    3  502    0 -0.34155798276E+02 -0.23049953110E+03 -0.20609893521E+03  0.31108428712E+03  0.10100000352E+00 0.  1.
       -3    1    3    3    0  502  0.34155798276E+02  0.23049953110E+03 -0.55576093655E+03  0.60263328915E+03  0.10100000352E+00 0. -1.
</event>
<event>
 5   0  0.1141970E-01  0.4900779E+03  0.7818609E-02  0.1016402E+00
        1   -1    0    0  501    0  0.00000000000E+00  0.00000000000E+00  0.49888437430E+03  0.49888437432E+03  0.50400001928E-02 0.  1.
       -1   -1    0    0    0  501  0.00000000000E+00  0.00000000000E+00 -0.12035673470E+03  0.12035673481E+03  0.50400001928E-02 0. -1.
    10030    2    1    2    0    0  0.00000000000E+00  0.00000000000E+00  0.37852763959E+03  0.61924110913E+03  0.49007792982E+03 0.  0.
        3    1    3    3  502    0 -0.36124345693E+02  0.10047333560E+03 -0.89419052130E+02  0.13926821821E+03  0.10100000352E+00 0. -1.
       -3    1    3    3    0  502  0.36124345693E+02 -0.10047333560E+03  0.46794669172E+03  0.47997289092E+03  0.10100000352E+00 0.  1.
</event>
<event>
 5   0  0.7220250E-02  0.5064120E+03  0.7818609E-02  0.1012119E+00
        4   -1    0    0  501    0  0.00000000000E+00  0.00000000000E+00  0.31378695138E+03  0.31378952143E+03  0.12699999809E+01 0.  1.
       -4   -1    0    0    0  501  0.00000000000E+00  0.00000000000E+00 -0.20431567383E+03  0.20431962087E+03  0.12699999809E+01 0. -1.
    10030    2    1    2    0    0  0.00000000000E+00  0.00000000000E+00  0.10947127755E+03  0.51810914230E+03  0.50641200887E+03 0.  0.
        2    1    3    3  502    0 -0.38833043766E+02 -0.15258154294E+03 -0.14814795149E+03  0.21618729859E+03  0.25500000920E-02 0. -1.
       -2    1    3    3    0  502  0.38833043766E+02  0.15258154294E+03  0.25761922904E+03  0.30192184372E+03  0.25500000920E-02 0.  1.
</event>
<event>
 5   0  0.1827698E-01  0.5004114E+03  0.7818609E-02  0.1013672E+00
        2   -1    0    0  501    0  0.00000000000E+00  0.00000000000E+00  0.17421562144E+04  0.17421562144E+04  0.25500000920E-02 0.  1.
       -2   -1    0    0    0  501  0.00000000000E+00  0.00000000000E+00 -0.35934137088E+02  0.35934137179E+02  0.25500000920E-02 0. -1.
    10030    2    1    2    0    0  0.00000000000E+00  0.00000000000E+00  0.17062220773E+04  0.17780903515E+04  0.50041135206E+03 0.  0.
        1    1    3    3  502    0  0.68170002539E+02  0.17850272991E+02  0.17061674044E+04  0.17076220288E+04  0.50400001928E-02 0.  1.
       -1    1    3    3    0  502 -0.68170002539E+02 -0.17850272991E+02  0.54672880375E-01  0.70468322717E+02  0.50400001928E-02 0. -1.
</event>
<event>
 5   0  0.1709372E-01  0.4997815E+03  0.7818609E-02  0.1013836E+00
       -2   -1    0    0    0  501  0.00000000000E+00  0.00000000000E+00  0.10752683803E+03  0.10752683806E+03  0.25500000920E-02 0.  1.
        2   -1    0    0  501    0  0.00000000000E+00  0.00000000000E+00 -0.58074227229E+03  0.58074227230E+03  0.25500000920E-02 0. -1.
    10030    2    1    2    0    0  0.00000000000E+00  0.00000000000E+00 -0.47321543426E+03  0.68826911036E+03  0.49978147330E+03 0.  0.
        4    1    3    3  502    0  0.24862739259E+02 -0.15667816296E+03  0.29282214767E+02  0.16132347490E+03  0.12699999809E+01 0.  1.
       -4    1    3    3    0  502 -0.24862739259E+02  0.15667816296E+03 -0.50249764902E+03  0.52694563546E+03  0.12699999809E+01 0. -1.
</event>
<event>
 5   0  0.1782124E-01  0.5154545E+03  0.7818609E-02  0.1009822E+00
       -2   -1    0    0    0  501  0.00000000000E+00  0.00000000000E+00  0.39323006380E+03  0.39323006381E+03  0.25500000920E-02 0. -1.
        2   -1    0    0  501    0  0.00000000000E+00  0.00000000000E+00 -0.16891722066E+03  0.16891722068E+03  0.25500000920E-02 0.  1.
    10030    2    1    2    0    0  0.00000000000E+00  0.00000000000E+00  0.22431284314E+03  0.56214728449E+03  0.51545447700E+03 0.  0.
        3    1    3    3  502    0 -0.96705656940E+02 -0.25177301127E+02 -0.14692928190E+03  0.17769103707E+03  0.10100000352E+00 0.  1.
       -3    1    3    3    0  502  0.96705656940E+02  0.25177301127E+02  0.37124212503E+03  0.38445624741E+03  0.10100000352E+00 0. -1.
</event>
<event>
 5   0  0.1147245E-01  0.5013758E+03  0.7818609E-02  0.1013420E+00
        1   -1    0    0  501    0  0.00000000000E+00  0.00000000000E+00  0.51785314830E+03  0.51785314833E+03  0.50400001928E-02 0. -1.
       -1   -1    0    0    0  501  0.00000000000E+00  0.00000000000E+00 -0.12135568741E+03  0.12135568752E+03  0.50400001928E-02 0.  1.
    10030    2    1    2    0    0  0.00000000000E+00  0.00000000000E+00  0.39649746089E+03  0.63920883584E+03  0.50137580649E+03 0.  0.
        1    1    3    3  502    0 -0.23651459366E+02  0.12716060925E+02  0.51601425502E+03  0.51671249370E+03  0.50400001928E-02 0. -1.
       -1    1    3    3    0  502  0.23651459366E+02 -0.12716060925E+02 -0.11951679413E+03  0.12249634215E+03  0.50400001928E-02 0.  1.
</event>
<event>
 5   0  0.1683148E-01  0.5077401E+03  0.7818609E-02  0.1011778E+00
       -2   -1    0    0    0  501  0.00000000000E+00  0.00000000000E+00  0.14311681444E+03  0.14311681446E+03  0.25500000920E-02 0.  1.
        2   -1    0    0  501    0  0.00000000000E+00  0.00000000000E+00 -0.45033140855E+03  0.45033140855E+03  0.25500000920E-02 0. -1.
    10030    2    1    2    0    0  0.00000000000E+00  0.00000000000E+00 -0.30721459411E+03  0.59344822302E+03  0.50774007776E+03 0.  0.
        2    1    3    3  502    0  0.19302765172E+03 -0.16187183712E+03 -0.11687207766E+03  0.27770712725E+03  0.25500000920E-02 0.  1.
       -2    1    3    3    0  502 -0.19302765172E+03  0.16187183712E+03 -0.19034251645E+03  0.31574109577E+03  0.25500000920E-02 0. -1.
</event>
<event>
 5   0  0.1074281E-01  0.4999203E+03  0.7818609E-02  0.1013800E+00
       -1   -1    0    0    0  501  0.00000000000E+00  0.00000000000E+00  0.39155218319E+03  0.39155218322E+03  0.50400001928E-02 0. -1.
        1   -1    0    0  501    0  0.00000000000E+00  0.00000000000E+00 -0.15957023976E+03  0.15957023983E+03  0.50400001928E-02 0.  1.
    10030    2    1    2    0    0  0.00000000000E+00  0.00000000000E+00  0.23198194344E+03  0.55112242306E+03  0.49992029676E+03 0.  0.
        4    1    3    3  502    0 -0.31409129300E+02  0.18240276982E+03 -0.69206364099E+02  0.19760677512E+03  0.12699999809E+01 0.  1.
       -4    1    3    3    0  502  0.31409129300E+02 -0.18240276982E+03  0.30118830753E+03  0.35351564794E+03  0.12699999809E+01 0. -1.
</event>
<event>
 5   0  0.1068522E-01  0.5080749E+03  0.7818609E-02  0.1011692E+00
        1   -1    0    0  501    0  0.00000000000E+00  0.00000000000E+00  0.67284491964E+03  0.67284491965E+03  0.50400001928E-02 0.  1.
       -1   -1    0    0    0  501  0.00000000000E+00  0.00000000000E+00 -0.95913672766E+02  0.95913672899E+02  0.50400001928E-02 0. -1.
    10030    2    1    2    0    0  0.00000000000E+00  0.00000000000E+00  0.57693124687E+03  0.76875859255E+03  0.50807490590E+03 0.  0.
        2    1    3    3  502    0  0.38693895003E+02  0.24489592354E+03  0.37221704822E+03  0.44723233545E+03  0.25500000920E-02 0.  1.
       -2    1    3    3    0  502 -0.38693895003E+02 -0.24489592354E+03  0.20471419864E+03  0.32152625711E+03  0.25500000920E-02 0. -1.
</event>
<event>
 5   0  0.1760649E-01  0.5026079E+03  0.7818609E-02  0.1013100E+00
        2   -1    0    0  501    0  0.00000000000E+00  0.00000000000E+00  0.16652217993E+03  0.16652217995E+03  0.25500000920E-02 0. -1.
       -2   -1    0    0    0  501  0.00000000000E+00  0.00000000000E+00 -0.37925079681E+03  0.37925079682E+03  0.25500000920E-02 0.  1.
    10030    2    1    2    0    0  0.00000000000E+00  0.00000000000E+00 -0.21272861688E+03  0.54577297677E+03  0.50260787671E+03 0.  0.
        5    1    3    3  502    0 -0.22875723413E+01 -0.76593572366E+02 -0.36620522636E+03  0.37416596067E+03  0.46999998093E+01 0.  1.
       -5    1    3    3    0  502  0.22875723413E+01  0.76593572366E+02  0.15347660948E+03  0.17160701609E+03  0.46999998093E+01 0. -1.
</event>
<event>
 5   0  0.1147245E-01  0.5057571E+03  0.7818609E-02  0.1012287E+00
        1   -1    0    0  501    0  0.00000000000E+00  0.00000000000E+00  0.24385811326E+03  0.24385811331E+03  0.50400001928E-02 0. -1.
       -1   -1    0    0    0  501  0.00000000000E+00  0.00000000000E+00 -0.26223264712E+03  0.26223264717E+03  0.50400001928E-02 0.  1.
    10030    2    1    2    0    0  0.00000000000E+00  0.00000000000E+00 -0.18374533862E+02  0.50609076048E+03  0.50575709026E+03 0.  0.
        1    1    3    3  502    0 -0.43188600016E+02 -0.47011554241E+02 -0.25403669800E+03  0.26193507852E+03  0.50400001928E-02 0.  1.
       -1    1    3    3    0  502  0.43188600016E+02  0.47011554241E+02  0.23566216413E+03  0.24415568196E+03  0.50400001928E-02 0. -1.
</event>
<event>
 5   0  0.1709372E-01  0.5291556E+03  0.7818609E-02  0.1006437E+00
       -2   -1    0    0    0  501  0.00000000000E+00  0.00000000000E+00  0.25411430940E+03  0.25411430941E+03  0.25500000920E-02 0. -1.
        2   -1    0    0  501    0  0.00000000000E+00  0.00000000000E+00 -0.27547215844E+03  0.27547215845E+03  0.25500000920E-02 0.  1.
    10030    2    1    2    0    0  0.00000000000E+00  0.00000000000E+00 -0.21357849038E+02  0.52958646786E+03  0.52915561910E+03 0.  0.
        4    1    3    3  502    0 -0.42842646060E+02 -0.14295927905E+03 -0.22932180386E+03  0.27361094717E+03  0.12699999809E+01 0.  1.
       -4    1    3    3    0  502  0.42842646060E+02  0.14295927905E+03  0.20796395482E+03  0.25597552069E+03  0.12699999809E+01 0. -1.
</event>
<event>
 5   0  0.1123271E-01  0.4996673E+03  0.7818609E-02  0.1013866E+00
        1   -1    0    0  501    0  0.00000000000E+00  0.00000000000E+00  0.79911800060E+02  0.79911800219E+02  0.50400001928E-02 0. -1.
       -1   -1    0    0    0  501  0.00000000000E+00  0.00000000000E+00 -0.78107177752E+03  0.78107177754E+03  0.50400001928E-02 0.  1.
    10030    2    1    2    0    0  0.00000000000E+00  0.00000000000E+00 -0.70115997746E+03  0.86098357776E+03  0.49966729648E+03 0.  0.
        5    1    3    3  502    0  0.67024967192E+02  0.21108954253E+03 -0.15153521223E+03  0.26839551363E+03  0.46999998093E+01 0. -1.
       -5    1    3    3    0  502 -0.67024967192E+02 -0.21108954253E+03 -0.54962476523E+03  0.59258806413E+03  0.46999998093E+01 0.  1.
</event>
<event>
 5   0  0.1782124E-01  0.4773741E+03  0.7818609E-02  0.1019859E+00
        2   -1    0    0  501    0  0.00000000000E+00  0.00000000000E+00  0.19097422895E+04  0.19097422895E+04  0.25500000920E-02 0.  1.
       -2   -1    0    0    0  501  0.00000000000E+00  0.00000000000E+00 -0.29832044234E+02  0.29832044343E+02  0.25500000920E-02 0. -1.
    10030    2    1    2    0    0  0.00000000000E+00  0.00000000000E+00  0.18799102453E+04  0.19395743339E+04  0.47737413656E+03 0.  0.
        3    1    3    3  502    0 -0.65623095484E+02  0.11481733732E+01  0.18723580499E+04  0.18735080428E+04  0.10100000352E+00 0.  1.
       -3    1    3    3    0  502  0.65623095484E+02 -0.11481733732E+01  0.75521953458E+01  0.66066291091E+02  0.10100000352E+00 0. -1.
</event>
<event>
 5   0  0.1782124E-01  0.4992287E+03  0.7818609E-02  0.1013980E+00
       -2   -1    0    0    0  501  0.00000000000E+00  0.00000000000E+00  0.73856608220E+02  0.73856608264E+02  0.25500000920E-02 0. -1.
        2   -1    0    0  501    0  0.00000000000E+00  0.00000000000E+00 -0.84362548630E+03  0.84362548630E+03  0.25500000920E-02 0.  1.
    10030    2    1    2    0    0  0.00000000000E+00  0.00000000000E+00 -0.76976887808E+03  0.91748209457E+03  0.49922867325E+03 0.  0.
        3    1    3    3  502    0  0.71521894962E+02  0.22668097680E+02 -0.82241223790E+03  0.82582753851E+03  0.10100000352E+00 0.  1.
       -3    1    3    3    0  502 -0.71521894962E+02 -0.22668097680E+02  0.52643359822E+02  0.91654556056E+02  0.10100000352E+00 0. -1.
</event>
<event>
 5   0  0.1141970E-01  0.4985730E+03  0.7818609E-02  0.1014152E+00
        1   -1    0    0  501    0  0.00000000000E+00  0.00000000000E+00  0.59380890920E+03  0.59380890922E+03  0.50400001928E-02 0. -1.
       -1   -1    0    0    0  501  0.00000000000E+00  0.00000000000E+00 -0.10465280527E+03  0.10465280539E+03  0.50400001928E-02 0.  1.
    10030    2    1    2    0    0  0.00000000000E+00  0.00000000000E+00  0.48915610394E+03  0.69846171461E+03  0.49857303654E+03 0.  0.
        3    1    3    3  502    0 -0.23303519005E+01  0.90004883776E+02 -0.81079560710E+02  0.12116193713E+03  0.10100000352E+00 0.  1.
       -3    1    3    3    0  502  0.23303519005E+01 -0.90004883776E+02  0.57023566465E+03  0.57729977748E+03  0.10100000352E+00 0. -1.
</event>
<event>
 5   0  0.1683148E-01  0.5040780E+03  0.7818609E-02  0.1012720E+00
        2   -1    0    0  501    0  0.00000000000E+00  0.00000000000E+00  0.68237826773E+03  0.68237826773E+03  0.25500000920E-02 0. -1.
       -2   -1    0    0    0  501  0.00000000000E+00  0.00000000000E+00 -0.93091569540E+02  0.93091569575E+02  0.25500000920E-02 0.  1.
    10030    2    1    2    0    0  0.00000000000E+00  0.00000000000E+00  0.58928669819E+03  0.77546983731E+03  0.50407802562E+03 0.  0.
        2    1    3    3  502    0 -0.15717939042E+03  0.70222574517E+02  0.57783751573E+03  0.60293678387E+03  0.25500000920E-02 0. -1.
       -2    1    3    3    0  502  0.15717939042E+03 -0.70222574517E+02  0.11449182458E+02  0.17253305344E+03  0.25500000920E-02 0.  1.
</event>
<event>
 5   0  0.1709372E-01  0.4978965E+03  0.7818609E-02  0.1014329E+00
        2   -1    0    0  501    0  0.00000000000E+00  0.00000000000E+00  0.97813411919E+03  0.97813411920E+03  0.25500000920E-02 0. -1.
       -2   -1    0    0    0  501  0.00000000000E+00  0.00000000000E+00 -0.63360655486E+02  0.63360655537E+02  0.25500000920E-02 0.  1.
    10030    2    1    2    0    0  0.00000000000E+00  0.00000000000E+00  0.91477346371E+03  0.10414947747E+04  0.49789645098E+03 0.  0.
        4    1    3    3  502    0 -0.12721714026E+02 -0.12940454006E+03  0.13324666263E+02  0.13071547967E+03  0.12699999809E+01 0.  1.
       -4    1    3    3    0  502  0.12721714026E+02  0.12940454006E+03  0.90144879744E+03  0.91077929506E+03  0.12699999809E+01 0. -1.
</event>
<event>
 5   0  0.1709372E-01  0.4970475E+03  0.7818609E-02  0.1014552E+00
       -2   -1    0    0    0  501  0.00000000000E+00  0.00000000000E+00  0.99146731902E+02  0.99146731935E+02  0.25500000920E-02 0. -1.
        2   -1    0    0  501    0  0.00000000000E+00  0.00000000000E+00 -0.62295614534E+03  0.62295614534E+03  0.25500000920E-02 0.  1.
    10030    2    1    2    0    0  0.00000000000E+00  0.00000000000E+00 -0.52380941343E+03  0.72210287728E+03  0.49704754679E+03 0.  0.
        4    1    3    3  502    0  0.17419606999E+03  0.24090451870E+02 -0.51702385862E+03  0.54611345337E+03  0.12699999809E+01 0.  1.
       -4    1    3    3    0  502 -0.17419606999E+03 -0.24090451870E+02 -0.67855548132E+01  0.17598942390E+03  0.12699999809E+01 0. -1.
</event>
<event>
 5   0  0.1068522E-01  0.4944648E+03  0.7818609E-02  0.1015234E+00
        1   -1    0    0  501    0  0.00000000000E+00  0.00000000000E+00  0.81310180648E+03  0.81310180649E+03  0.50400001928E-02 0. -1.
       -1   -1    0    0    0  501  0.00000000000E+00  0.00000000000E+00 -0.75173689755E+02  0.75173689924E+02  0.50400001928E-02 0.  1.
    10030    2    1    2    0    0  0.00000000000E+00  0.00000000000E+00  0.73792811672E+03  0.88827549642E+03  0.49446481380E+03 0.  0.
        2    1    3    3  502    0  0.19200818241E+03 -0.14130391415E+03  0.48662630229E+03  0.54188476298E+03  0.25500000920E-02 0. -1.
       -2    1    3    3    0  502 -0.19200818241E+03  0.14130391415E+03  0.25130181443E+03  0.34639073344E+03  0.25500000920E-02 0.  1.
</event>
<event>
 5   0  0.1141970E-01  0.4947061E+03  0.7818609E-02  0.1015170E+00
        1   -1    0    0  501    0  0.00000000000E+00  0.00000000000E+00  0.11724024458E+03  0.11724024469E+03  0.50400001928E-02 0.  1.
       -1   -1    0    0    0  501  0.00000000000E+00  0.00000000000E+00 -0.52186453839E+03  0.52186453842E+03  0.50400001928E-02 0. -1.
    10030    2    1    2    0    0  0.00000000000E+00  0.00000000000E+00 -0.40462429381E+03  0.63910478311E+03  0.49470607905E+03 0.  0.
        3    1    3    3  502    0  0.15893172923E+03  0.39865482752E+02  0.37070752753E+02  0.16799643503E+03  0.10100000352E+00 0.  1.
       -3    1    3    3    0  502 -0.15893172923E+03 -0.39865482752E+02 -0.44169504656E+03  0.47110834808E+03  0.10100000352E+00 0. -1.
</event>
<event>
 5   0  0.1074281E-01  0.5132723E+03  0.7818609E-02  0.1010372E+00
        1   -1    0    0  501    0  0.00000000000E+00  0.00000000000E+00  0.60359774868E+03  0.60359774870E+03  0.50400001928E-02 0. -1.
       -1   -1    0    0    0  501  0.00000000000E+00  0.00000000000E+00 -0.10911590625E+03  0.10911590636E+03  0.50400001928E-02 0.  1.
    10030    2    1    2    0    0  0.00000000000E+00  0.00000000000E+00  0.49448184244E+03  0.71271365507E+03  0.51327230747E+03 0.  0.
        4    1    3    3  502    0 -0.63088849754E+02  0.16946778171E+03 -0.56195030845E+01  0.18092187185E+03  0.12699999809E+01 0.  1.
       -4    1    3    3    0  502  0.63088849754E+02 -0.16946778171E+03  0.50010134552E+03  0.53179178321E+03  0.12699999809E+01 0. -1.
</event>
<event>
 5   0  0.1068522E-01  0.5015025E+03  0.7818609E-02  0.1013387E+00
       -1   -1    0    0    0  501  0.00000000000E+00  0.00000000000E+00  0.66958880007E+02  0.66958880196E+02  0.50400001928E-02 0. -1.
        1   -1    0    0  501    0  0.00000000000E+00  0.00000000000E+00 -0.93902701015E+03  0.93902701016E+03  0.50400001928E-02 0.  1.
    10030    2    1    2    0    0  0.00000000000E+00  0.00000000000E+00 -0.87206813014E+03  0.10059858904E+04  0.50150253039E+03 0.  0.
        2    1    3    3  502    0  0.24285061695E+02  0.14118206686E+03 -0.84885932975E+03  0.86086253371E+03  0.25500000920E-02 0.  1.
       -2    1    3    3    0  502 -0.24285061695E+02 -0.14118206686E+03 -0.23208800387E+02  0.14512335665E+03  0.25500000920E-02 0. -1.
</event>
<event>
 5   0  0.1147245E-01  0.4817164E+03  0.7818609E-02  0.1018665E+00
        1   -1    0    0  501    0  0.00000000000E+00  0.00000000000E+00  0.27236500077E+03  0.27236500081E+03  0.50400001928E-02 0. -1.
       -1   -1    0    0    0  501  0.00000000000E+00  0.00000000000E+00 -0.21299610281E+03  0.21299610287E+03  0.50400001928E-02 0.  1.
    10030    2    1    2    0    0  0.00000000000E+00  0.00000000000E+00  0.59368897954E+02  0.48536110369E+03  0.48171644660E+03 0.  0.
        1    1    3    3  502    0  0.66020560809E+02  0.12638082702E+03  0.22527129217E+03  0.26660454420E+03  0.50400001928E-02 0. -1.
       -1    1    3    3    0  502 -0.66020560809E+02 -0.12638082702E+03 -0.16590239421E+03  0.21875655949E+03  0.50400001928E-02 0.  1.
</event>
<event>
 5   0  0.1683148E-01  0.4865579E+03  0.7818609E-02  0.1017348E+00
       -2   -1    0    0    0  501  0.00000000000E+00  0.00000000000E+00  0.40360866987E+02  0.40360867067E+02  0.25500000920E-02 0.  1.
        2   -1    0    0  501    0  0.00000000000E+00  0.00000000000E+00 -0.14663871164E+04  0.14663871164E+04  0.25500000920E-02 0. -1.
    10030    2    1    2    0    0  0.00000000000E+00  0.00000000000E+00 -0.14260262494E+04  0.15067479835E+04  0.48655793250E+03 0.  0.
        2    1    3    3  502    0  0.68270471033E+02  0.39316982831E+02 -0.23603735273E+00  0.78782853935E+02  0.25500000920E-02 0.  1.
       -2    1    3    3    0  502 -0.68270471033E+02 -0.39316982831E+02 -0.14257902121E+04  0.14279651296E+04  0.25500000920E-02 0. -1.
</event>
<event>
 5   0  0.1068522E-01  0.4803209E+03  0.7818609E-02  0.1019047E+00
        1   -1    0    0  501    0  0.00000000000E+00  0.00000000000E+00  0.30749321527E+03  0.30749321531E+03  0.50400001928E-02 0. -1.
       -1   -1    0    0    0  501  0.00000000000E+00  0.00000000000E+00 -0.18757176874E+03  0.18757176880E+03  0.50400001928E-02 0.  1.
    10030    2    1    2    0    0  0.00000000000E+00  0.00000000000E+00  0.11992144654E+03  0.49506498412E+03  0.48032091893E+03 0.  0.
        2    1    3    3  502    0  0.15818770731E+03 -0.18070188327E+03  0.60707479785E+02  0.24771338169E+03  0.25500000920E-02 0.  1.
       -2    1    3    3    0  502 -0.15818770731E+03  0.18070188327E+03  0.59213966752E+02  0.24735160243E+03  0.25500000920E-02 0. -1.
</event>
<event>
 5   0  0.1683148E-01  0.4959769E+03  0.7818609E-02  0.1014834E+00
       -2   -1    0    0    0  501  0.00000000000E+00  0.00000000000E+00  0.15142694102E+03  0.15142694104E+03  0.25500000920E-02 0.  1.
        2   -1    0    0  501    0  0.00000000000E+00  0.00000000000E+00 -0.40612507503E+03  0.40612507503E+03  0.25500000920E-02 0. -1.
    10030    2    1    2    0    0  0.00000000000E+00  0.00000000000E+00 -0.25469813400E+03  0.55755201608E+03  0.49597692604E+03 0.  0.
        2    1    3    3  502    0 -0.12316217941E+03 -0.11345539118E+03  0.78272614358E+02  0.18484493606E+03  0.25500000920E-02 0.  1.
       -2    1    3    3    0  502  0.12316217941E+03  0.11345539118E+03 -0.33297074836E+03  0.37270708002E+03  0.25500000920E-02 0. -1.
</event>
<event>
 5   0  0.1074281E-01  0.5032446E+03  0.7818609E-02  0.1012935E+00
        1   -1    0    0  501    0  0.00000000000E+00  0.00000000000E+00  0.13060456434E+04  0.13060456434E+04  0.50400001928E-02 0. -1.
       -1   -1    0    0    0  501  0.00000000000E+00  0.00000000000E+00 -0.48477465364E+02  0.48477465626E+02  0.50400001928E-02 0.  1.
    10030    2    1    2    0    0  0.00000000000E+00  0.00000000000E+00  0.12575681780E+04  0.13545231090E+04  0.50324460304E+03 0.  0.
        4    1    3    3  502    0  0.18858113810E+01  0.72478547196E+02 -0.19744131403E+02  0.75154106428E+02  0.12699999809E+01 0.  1.
       -4    1    3    3    0  502 -0.18858113810E+01 -0.72478547196E+02  0.12773123094E+04  0.12793690026E+04  0.12699999809E+01 0. -1.
</event>
<event>
 5   0  0.1141970E-01  0.4902411E+03  0.7818609E-02  0.1016358E+00
        1   -1    0    0  501    0  0.00000000000E+00  0.00000000000E+00  0.23459119376E+03  0.23459119381E+03  0.50400001928E-02 0. -1.
       -1   -1    0    0    0  501  0.00000000000E+00  0.00000000000E+00 -0.25612248198E+03  0.25612248203E+03  0.50400001928E-02 0.  1.
    10030    2    1    2    0    0  0.00000000000E+00  0.00000000000E+00 -0.21531288227E+02  0.49071367585E+03  0.49024107875E+03 0.  0.
        3    1    3    3  502    0 -0.80976239229E+02 -0.18866279305E+03  0.12327860295E+03  0.23947531177E+03  0.10100000352E+00 0. -1.
       -3    1    3    3    0  502  0.80976239229E+02  0.18866279305E+03 -0.14480989118E+03  0.25123836408E+03  0.10100000352E+00 0.  1.
</event>
<event>
 5   0  0.1683148E-01  0.5035367E+03  0.7818609E-02  0.1012860E+00
        2   -1    0    0  501    0  0.00000000000E+00  0.00000000000E+00  0.97596175906E+03  0.97596175906E+03  0.25500000920E-02 0. -1.
       -2   -1    0    0    0  501  0.00000000000E+00  0.00000000000E+00 -0.64948544961E+02  0.64948545011E+02  0.25500000920E-02 0.  1.
    10030    2    1    2    0    0  0.00000000000E+00  0.00000000000E+00  0.91101321410E+03  0.10409103041E+04  0.50353667678E+03 0.  0.
        2    1    3    3  502    0  0.11473673323E+03  0.77865893672E+02  0.88991195320E+03  0.90065026498E+03  0.25500000920E-02 0. -1.
       -2    1    3    3    0  502 -0.11473673323E+03 -0.77865893672E+02  0.21101260901E+02  0.14026003910E+03  0.25500000920E-02 0.  1.
</event>
<event>
 5   0  0.1827698E-01  0.4899760E+03  0.7818609E-02  0.1016429E+00
        2   -1    0    0  501    0  0.00000000000E+00  0.00000000000E+00  0.13557707465E+04  0.13557707465E+04  0.25500000920E-02 0.  1.
       -2   -1    0    0    0  501  0.00000000000E+00  0.00000000000E+00 -0.44269364638E+02  0.44269364711E+02  0.25500000920E-02 0. -1.
    10030    2    1    2    0    0  0.00000000000E+00  0.00000000000E+00  0.13115013818E+04  0.14000401112E+04  0.48997595694E+03 0.  0.
        1    1    3    3  502    0 -0.92461524382E+02 -0.23654824183E+02  0.11033765773E+02  0.96075117542E+02  0.50400001928E-02 0. -1.
       -1    1    3    3    0  502  0.92461524382E+02  0.23654824183E+02  0.13004676161E+04  0.13039649937E+04  0.50400001928E-02 0.  1.
</event>
<event>
 5   0  0.1760649E-01  0.4970286E+03  0.7818609E-02  0.1014557E+00
        2   -1    0    0  501    0  0.00000000000E+00  0.00000000000E+00  0.95294809274E+03  0.95294809274E+03  0.25500000920E-02 0. -1.
       -2   -1    0    0    0  501  0.00000000000E+00  0.00000000000E+00 -0.64808730880E+02  0.64808730930E+02  0.25500000920E-02 0.  1.
    10030    2    1    2    0    0  0.00000000000E+00  0.00000000000E+00  0.88813936186E+03  0.10177568237E+04  0.49702859681E+03 0.  0.
        5    1    3    3  502    0 -0.23550859829E+03 -0.72597855275E+02  0.37923479558E+03  0.45230063966E+03  0.46999998093E+01 0.  1.
       -5    1    3    3    0  502  0.23550859829E+03  0.72597855275E+02  0.50890456628E+03  0.56545618401E+03  0.46999998093E+01 0. -1.
</event>
<event>
 5   0  0.1068522E-01  0.5066243E+03  0.7818609E-02  0.1012064E+00
       -1   -1    0    0    0  501  0.00000000000E+00  0.00000000000E+00  0.27824096487E+03  0.27824096492E+03  0.50400001928E-02 0. -1.
        1   -1    0    0  501    0  0.00000000000E+00  0.00000000000E+00 -0.23061682638E+03  0.23061682644E+03  0.50400001928E-02 0.  1.
    10030    2    1    2    0    0  0.00000000000E+00  0.00000000000E+00  0.47624138492E+02  0.50885779135E+03  0.50662431175E+03 0.  0.
        2    1    3    3  502    0 -0.14847550669E+03  0.13708860200E+03  0.17722306353E+03  0.26878667218E+03  0.25500000920E-02 0. -1.
       -2    1    3    3    0  502  0.14847550669E+03 -0.13708860200E+03 -0.12959892504E+03  0.24007111918E+03  0.25500000920E-02 0.  1.
</event>
<event>
 5   0  0.1147245E-01  0.5062776E+03  0.7818609E-02  0.1012153E+00
        1   -1    0    0  501    0  0.00000000000E+00  0.00000000000E+00  0.66984846530E+02  0.66984846720E+02  0.50400001928E-02 0. -1.
       -1   -1    0    0    0  501  0.00000000000E+00  0.00000000000E+00 -0.95662328681E+03  0.95662328682E+03  0.50400001928E-02 0.  1.
    10030    2    1    2    0    0  0.00000000000E+00  0.00000000000E+00 -0.88963844028E+03  0.10236081335E+04  0.50627764777E+03 0.  0.
        1    1    3    3  502    0  0.23037761265E+03 -0.27452302419E+02 -0.64953194656E+03  0.68972401941E+03  0.50400001928E-02 0.  1.
       -1    1    3    3    0  502 -0.23037761265E+03  0.27452302419E+02 -0.24010649372E+03  0.33388411413E+03  0.50400001928E-02 0. -1.
</event>
<event>
 5   0  0.1141970E-01  0.5006841E+03  0.7818609E-02  0.1013601E+00
       -1   -1    0    0    0  501  0.00000000000E+00  0.00000000000E+00  0.17596734514E+03  0.17596734522E+03  0.50400001928E-02 0. -1.
        1   -1    0    0  501    0  0.00000000000E+00  0.00000000000E+00 -0.35615214073E+03  0.35615214077E+03  0.50400001928E-02 0.  1.
    10030    2    1    2    0    0  0.00000000000E+00  0.00000000000E+00 -0.18018479559E+03  0.53211948598E+03  0.50068411878E+03 0.  0.
        3    1    3    3  502    0  0.35734261927E+02  0.15393505748E+03  0.11625815520E+03  0.19618590227E+03  0.10100000352E+00 0. -1.
       -3    1    3    3    0  502 -0.35734261927E+02 -0.15393505748E+03 -0.29644295079E+03  0.33593358372E+03  0.10100000352E+00 0.  1.
</event>
<event>
 5   0  0.1782124E-01  0.5095214E+03  0.7818609E-02  0.1011323E+00
       -2   -1    0    0    0  501  0.00000000000E+00  0.00000000000E+00  0.36550607943E+02  0.36550608032E+02  0.25500000920E-02 0.  1.
        2   -1    0    0  501    0  0.00000000000E+00  0.00000000000E+00 -0.17757024787E+04  0.17757024787E+04  0.25500000920E-02 0. -1.
    10030    2    1    2    0    0  0.00000000000E+00  0.00000000000E+00 -0.17391518707E+04  0.18122530867E+04  0.50952136444E+03 0.  0.
        3    1    3    3  502    0 -0.11656151037E+03  0.18734418242E+03 -0.41661298187E+03  0.47143484730E+03  0.10100000352E+00 0.  1.
       -3    1    3    3    0  502  0.11656151037E+03 -0.18734418242E+03 -0.13225388889E+04  0.13408182394E+04  0.10100000352E+00 0. -1.
</event>
<event>
 5   0  0.1683148E-01  0.4951028E+03  0.7818609E-02  0.1015065E+00
        2   -1    0    0  501    0  0.00000000000E+00  0.00000000000E+00  0.10759424158E+03  0.10759424161E+03  0.25500000920E-02 0. -1.
       -2   -1    0    0    0  501  0.00000000000E+00  0.00000000000E+00 -0.56956293539E+03  0.56956293539E+03  0.25500000920E-02 0.  1.
    10030    2    1    2    0    0  0.00000000000E+00  0.00000000000E+00 -0.46196869380E+03  0.67715717701E+03  0.49510278561E+03 0.  0.
        2    1    3    3  502    0 -0.23619723157E+03  0.73204565545E+02 -0.24679613426E+03  0.34936567162E+03  0.25500000920E-02 0.  1.
       -2    1    3    3    0  502  0.23619723157E+03 -0.73204565545E+02 -0.21517255955E+03  0.32779150539E+03  0.25500000920E-02 0. -1.
</event>
<event>
 5   0  0.7220250E-02  0.5076258E+03  0.7818609E-02  0.1011807E+00
       -4   -1    0    0    0  501  0.00000000000E+00  0.00000000000E+00  0.57713925109E+03  0.57714064841E+03  0.12699999809E+01 0. -1.
        4   -1    0    0  501    0  0.00000000000E+00  0.00000000000E+00 -0.11161608867E+03  0.11162331365E+03  0.12699999809E+01 0.  1.
    10030    2    1    2    0    0  0.00000000000E+00  0.00000000000E+00  0.46552316242E+03  0.68876396207E+03  0.50762582745E+03 0.  0.
        2    1    3    3  502    0  0.53364011370E+01 -0.15114625712E+03 -0.43804075227E+02  0.15745623275E+03  0.25500000920E-02 0.  1.
       -2    1    3    3    0  502 -0.53364011370E+01  0.15114625712E+03  0.50932723764E+03  0.53130772932E+03  0.25500000920E-02 0. -1.
</event>
<event>
 5   0  0.7220250E-02  0.4932582E+03  0.7818609E-02  0.1015554E+00
       -4   -1    0    0    0  501  0.00000000000E+00  0.00000000000E+00  0.11080183645E+04  0.11080190923E+04  0.12699999809E+01 0. -1.
        4   -1    0    0  501    0  0.00000000000E+00  0.00000000000E+00 -0.54888026358E+02  0.54902717031E+02  0.12699999809E+01 0.  1.
    10030    2    1    2    0    0  0.00000000000E+00  0.00000000000E+00  0.10531303381E+04  0.11629218093E+04  0.49325817334E+03 0.  0.
        1    1    3    3  502    0 -0.19471464466E+02  0.74405255653E+02  0.10790297293E+04  0.10817672747E+04  0.50400001928E-02 0. -1.
       -1    1    3    3    0  502  0.19471464466E+02 -0.74405255653E+02 -0.25899391167E+02  0.81154534596E+02  0.50400001928E-02 0.  1.
</event>
<event>
 5   0  0.1709372E-01  0.5039636E+03  0.7818609E-02  0.1012750E+00
       -2   -1    0    0    0  501  0.00000000000E+00  0.00000000000E+00  0.34129972116E+02  0.34129972211E+02  0.25500000920E-02 0. -1.
        2   -1    0    0  501    0  0.00000000000E+00  0.00000000000E+00 -0.18603830285E+04  0.18603830285E+04  0.25500000920E-02 0.  1.
    10030    2    1    2    0    0  0.00000000000E+00  0.00000000000E+00 -0.18262530563E+04  0.18945130007E+04  0.50396357400E+03 0.  0.
        4    1    3    3  502    0  0.68490133741E+02 -0.24070545575E+03 -0.10235731548E+04  0.10537236977E+04  0.12699999809E+01 0. -1.
       -4    1    3    3    0  502 -0.68490133741E+02  0.24070545575E+03 -0.80267990153E+03  0.84078930301E+03  0.12699999809E+01 0.  1.
</event>
<event>
 5   0  0.1147245E-01  0.4998078E+03  0.7818609E-02  0.1013829E+00
        1   -1    0    0  501    0  0.00000000000E+00  0.00000000000E+00  0.23195562218E+03  0.23195562223E+03  0.50400001928E-02 0. -1.
       -1   -1    0    0    0  501  0.00000000000E+00  0.00000000000E+00 -0.26924094531E+03  0.26924094536E+03  0.50400001928E-02 0.  1.
    10030    2    1    2    0    0  0.00000000000E+00  0.00000000000E+00 -0.37285323138E+02  0.50119656759E+03  0.49980776709E+03 0.  0.
        1    1    3    3  502    0  0.13059845218E+03 -0.10034382493E+03  0.16983468338E+03  0.23657696129E+03  0.50400001928E-02 0. -1.
       -1    1    3    3    0  502 -0.13059845218E+03  0.10034382493E+03 -0.20712000651E+03  0.26461960630E+03  0.50400001928E-02 0.  1.
</event>
<event>
 5   0  0.1827698E-01  0.4959297E+03  0.7818609E-02  0.1014847E+00
       -2   -1    0    0    0  501  0.00000000000E+00  0.00000000000E+00  0.21218936048E+03  0.21218936049E+03  0.25500000920E-02 0. -1.
        2   -1    0    0  501    0  0.00000000000E+00  0.00000000000E+00 -0.28977217229E+03  0.28977217230E+03  0.25500000920E-02 0.  1.
    10030    2    1    2    0    0  0.00000000000E+00  0.00000000000E+00 -0.77582811814E+02  0.50196153279E+03  0.49592972054E+03 0.  0.
        1    1    3    3  502    0 -0.23762020782E+02 -0.90058511507E+02  0.19381097327E+03  0.21502991074E+03  0.50400001928E-02 0. -1.
       -1    1    3    3    0  502  0.23762020782E+02  0.90058511507E+02 -0.27139378508E+03  0.28693162205E+03  0.50400001928E-02 0.  1.
</event>
<event>
 5   0  0.7220250E-02  0.4551626E+03  0.7818609E-02  0.1026194E+00
        4   -1    0    0  501    0  0.00000000000E+00  0.00000000000E+00  0.47326694798E+03  0.47326865198E+03  0.12699999809E+01 0.  1.
       -4   -1    0    0    0  501  0.00000000000E+00  0.00000000000E+00 -0.10943211961E+03  0.10943948877E+03  0.12699999809E+01 0. -1.
    10030    2    1    2    0    0  0.00000000000E+00  0.00000000000E+00  0.36383482837E+03  0.58270814075E+03  0.45516260277E+03 0.  0.
        4    1    3    3  502    0 -0.60584145096E+02 -0.12322599966E+03 -0.50422362600E+02  0.14628435726E+03  0.12699999809E+01 0. -1.
       -4    1    3    3    0  502  0.60584145096E+02  0.12322599966E+03  0.41425719097E+03  0.43642378350E+03  0.12699999809E+01 0.  1.
</event>
<event>
 5   0  0.1068522E-01  0.5139035E+03  0.7818609E-02  0.1010212E+00
       -1   -1    0    0    0  501  0.00000000000E+00  0.00000000000E+00  0.14385582968E+03  0.14385582977E+03  0.50400001928E-02 0.  1.
        1   -1    0    0  501    0  0.00000000000E+00  0.00000000000E+00 -0.45896084936E+03  0.45896084938E+03  0.50400001928E-02 0. -1.
    10030    2    1    2    0    0  0.00000000000E+00  0.00000000000E+00 -0.31510501967E+03  0.60281667916E+03  0.51390346880E+03 0.  0.
        2    1    3    3  502    0  0.15759755541E+02  0.22916954878E+03 -0.22491913730E+02  0.23080931128E+03  0.25500000920E-02 0. -1.
       -2    1    3    3    0  502 -0.15759755541E+02 -0.22916954878E+03 -0.29261310594E+03  0.37200736788E+03  0.25500000920E-02 0.  1.
</event>
<event>
 5   0  0.1709372E-01  0.5359278E+03  0.7818609E-02  0.1004805E+00
       -2   -1    0    0    0  501  0.00000000000E+00  0.00000000000E+00  0.14477052948E+03  0.14477052950E+03  0.25500000920E-02 0. -1.
        2   -1    0    0  501    0  0.00000000000E+00  0.00000000000E+00 -0.49598941405E+03  0.49598941406E+03  0.25500000920E-02 0.  1.
    10030    2    1    2    0    0  0.00000000000E+00  0.00000000000E+00 -0.35121888457E+03  0.64075994356E+03  0.53592779401E+03 0.  0.
        4    1    3    3  502    0  0.15571053409E+03 -0.19733328692E+03 -0.64624744359E+02  0.25954607883E+03  0.12699999809E+01 0. -1.
       -4    1    3    3    0  502 -0.15571053409E+03  0.19733328692E+03 -0.28659414021E+03  0.38121386472E+03  0.12699999809E+01 0.  1.
</event>
<event>
 5   0  0.1683148E-01  0.5000724E+03  0.7818609E-02  0.1013760E+00
        2   -1    0    0  501    0  0.00000000000E+00  0.00000000000E+00  0.15647841491E+04  0.15647841491E+04  0.25500000920E-02 0. -1.
       -2   -1    0    0    0  501  0.00000000000E+00  0.00000000000E+00 -0.39953178745E+02  0.39953178827E+02  0.25500000920E-02 0.  1.
    10030    2    1    2    0    0  0.00000000000E+00  0.00000000000E+00  0.15248309703E+04  0.16047373279E+04  0.50007239825E+03 0.  0.
        2    1    3    3  502    0 -0.23685922037E+03  0.73874805904E+02  0.66307479498E+03  0.70797454824E+03  0.25500000920E-02 0. -1.
       -2    1    3    3    0  502  0.23685922037E+03 -0.73874805904E+02  0.86175617537E+03  0.89676277968E+03  0.25500000920E-02 0.  1.
</event>
<event>
 5   0  0.1123271E-01  0.5083304E+03  0.7818609E-02  0.1011627E+00
        1   -1    0    0  501    0  0.00000000000E+00  0.00000000000E+00  0.62165540996E+03  0.62165540998E+03  0.50400001928E-02 0.  1.
       -1   -1    0    0    0  501  0.00000000000E+00  0.00000000000E+00 -0.10391599618E+03  0.10391599630E+03  0.50400001928E-02 0. -1.
    10030    2    1    2    0    0  0.00000000000E+00  0.00000000000E+00  0.51773941378E+03  0.72557140629E+03  0.50833036997E+03 0.  0.
        5    1    3    3  502    0 -0.88391857788E+02 -0.13477250316E+03 -0.21566419885E+02  0.16267743727E+03  0.46999998093E+01 0. -1.
       -5    1    3    3    0  502  0.88391857788E+02  0.13477250316E+03  0.53930583366E+03  0.56289396902E+03  0.46999998093E+01 0.  1.
</event>
<event>
 5   0  0.1760649E-01  0.4981466E+03  0.7818609E-02  0.1014264E+00
       -2   -1    0    0    0  501  0.00000000000E+00  0.00000000000E+00  0.12107148992E+03  0.12107148995E+03  0.25500000920E-02 0. -1.
        2   -1    0    0  501    0  0.00000000000E+00  0.00000000000E+00 -0.51240399299E+03  0.51240399300E+03  0.25500000920E-02 0.  1.
    10030    2    1    2    0    0  0.00000000000E+00  0.00000000000E+00 -0.39133250307E+03  0.63347548295E+03  0.49814662454E+03 0.  0.
        5    1    3    3  502    0 -0.88195101285E+02  0.18479862289E+03 -0.15437137314E+02  0.20540034596E+03  0.46999998093E+01 0. -1.
       -5    1    3    3    0  502  0.88195101285E+02 -0.18479862289E+03 -0.37589536576E+03  0.42807513699E+03  0.46999998093E+01 0.  1.
</event>
<event>
 5   0  0.1683148E-01  0.4982793E+03  0.7818609E-02  0.1014229E+00
        2   -1    0    0  501    0  0.00000000000E+00  0.00000000000E+00  0.14051800222E+04  0.14051800222E+04  0.25500000920E-02 0. -1.
       -2   -1    0    0    0  501  0.00000000000E+00  0.00000000000E+00 -0.44172681503E+02  0.44172681577E+02  0.25500000920E-02 0.  1.
    10030    2    1    2    0    0  0.00000000000E+00  0.00000000000E+00  0.13610073407E+04  0.14493527037E+04  0.49827931777E+03 0.  0.
        2    1    3    3  502    0  0.13963036387E+03  0.11015948734E+03  0.17302812482E+03  0.24813400240E+03  0.25500000920E-02 0.  1.
       -2    1    3    3    0  502 -0.13963036387E+03 -0.11015948734E+03  0.11879792158E+04  0.12012187013E+04  0.25500000920E-02 0. -1.
</event>
<event>
 5   0  0.1760649E-01  0.5035370E+03  0.7818609E-02  0.1012860E+00
       -2   -1    0    0    0  501  0.00000000000E+00  0.00000000000E+00  0.75126964587E+02  0.75126964631E+02  0.25500000920E-02 0. -1.
        2   -1    0    0  501    0  0.00000000000E+00  0.00000000000E+00 -0.84373656564E+03  0.84373656565E+03  0.25500000920E-02 0.  1.
    10030    2    1    2    0    0  0.00000000000E+00  0.00000000000E+00 -0.76860960106E+03  0.91886353028E+03  0.50353695837E+03 0.  0.
        5    1    3    3  502    0  0.64331422034E+02 -0.19346160491E+03 -0.11487758592E+03  0.23406168884E+03  0.46999998093E+01 0. -1.
       -5    1    3    3    0  502 -0.64331422034E+02  0.19346160491E+03 -0.65373201513E+03  0.68480184144E+03  0.46999998093E+01 0.  1.
</event>
<event>
 5   0  0.1141970E-01  0.5023024E+03  0.7818609E-02  0.1013180E+00
        1   -1    0    0  501    0  0.00000000000E+00  0.00000000000E+00  0.91661717882E+03  0.91661717883E+03  0.50400001928E-02 0. -1.
       -1   -1    0    0    0  501  0.00000000000E+00  0.00000000000E+00 -0.68814908723E+02  0.68814908908E+02  0.50400001928E-02 0.  1.
    10030    2    1    2    0    0  0.00000000000E+00  0.00000000000E+00  0.84780227010E+03  0.98543208774E+03  0.50230240928E+03 0.  0.
        3    1    3    3  502    0 -0.86770350251E+01  0.22903695453E+03  0.62534681437E+03  0.66602692582E+03  0.10100000352E+00 0. -1.
       -3    1    3    3    0  502  0.86770350251E+01 -0.22903695453E+03  0.22245545572E+03  0.31940516192E+03  0.10100000352E+00 0.  1.
</event>
<event>
 5   0  0.1827698E-01  0.5007773E+03  0.7818609E-02  0.1013576E+00
       -2   -1    0    0    0  501  0.00000000000E+00  0.00000000000E+00  0.16828034468E+03  0.16828034470E+03  0.25500000920E-02 0. -1.
        2   -1    0    0  501    0  0.00000000000E+00  0.00000000000E+00 -0.37255964536E+03  0.37255964537E+03  0.25500000920E-02 0.  1.
    10030    2    1    2    0    0  0.00000000000E+00  0.00000000000E+00 -0.20427930068E+03  0.54083999007E+03  0.50077725804E+03 0.  0.
        1    1    3    3  502    0 -0.12740339433E+02  0.52507931956E+02  0.16190917005E+03  0.17068678490E+03  0.50400001928E-02 0. -1.
       -1    1    3    3    0  502  0.12740339433E+02 -0.52507931956E+02 -0.36618847074E+03  0.37015320516E+03  0.50400001928E-02 0.  1.
</event>
<event>
 5   0  0.1141970E-01  0.5056933E+03  0.7818609E-02  0.1012303E+00
       -1   -1    0    0    0  501  0.00000000000E+00  0.00000000000E+00  0.17965703840E+04  0.17965703840E+04  0.50400001928E-02 0.  1.
        1   -1    0    0  501    0  0.00000000000E+00  0.00000000000E+00 -0.35585261096E+02  0.35585261452E+02  0.50400001928E-02 0. -1.
    10030    2    1    2    0    0  0.00000000000E+00  0.00000000000E+00  0.17609851229E+04  0.18321556455E+04  0.50569329252E+03 0.  0.
        3    1    3    3  502    0 -0.25120468562E+03 -0.28003574361E+02  0.85661827315E+03  0.89313093684E+03  0.10100000352E+00 0. -1.
       -3    1    3    3    0  502  0.25120468562E+03  0.28003574361E+02  0.90436684980E+03  0.93902470866E+03  0.10100000352E+00 0.  1.
</event>
<event>
 5   0  0.1683148E-01  0.5027493E+03  0.7818609E-02  0.1013064E+00
        2   -1    0    0  501    0  0.00000000000E+00  0.00000000000E+00  0.25303518991E+04  0.25303518991E+04  0.25500000920E-02 0. -1.
       -2   -1    0    0    0  501  0.00000000000E+00  0.00000000000E+00 -0.24972499986E+02  0.24972500116E+02  0.25500000920E-02 0.  1.
    10030    2    1    2    0    0  0.00000000000E+00  0.00000000000E+00  0.25053793991E+04  0.25553243992E+04  0.50274929312E+03 0.  0.
        2    1    3    3  502    0 -0.13283144402E+03  0.58769078557E+02  0.22954639740E+04  0.23000549674E+04  0.25500000920E-02 0. -1.
       -2    1    3    3    0  502  0.13283144402E+03 -0.58769078557E+02  0.20991542514E+03  0.25526943184E+03  0.25500000920E-02 0.  1.
</event>
<event>
 5   0  0.1782124E-01  0.5165870E+03  0.7818609E-02  0.1009538E+00
        2   -1    0    0  501    0  0.00000000000E+00  0.00000000000E+00  0.11739332938E+04  0.11739332938E+04  0.25500000920E-02 0.  1.
       -2   -1    0    0    0  501  0.00000000000E+00  0.00000000000E+00 -0.56830779936E+02  0.56830779993E+02  0.25500000920E-02 0. -1.
    10030    2    1    2    0    0  0.00000000000E+00  0.00000000000E+00  0.11171025139E+04  0.12307640738E+04  0.51658704869E+03 0.  0.
        3    1    3    3  502    0  0.12264566940E+03  0.16591819223E+03  0.18834610909E+03  0.27936548417E+03  0.10100000352E+00 0. -1.
       -3    1    3    3    0  502 -0.12264566940E+03 -0.16591819223E+03  0.92875640482E+03  0.95139858967E+03  0.10100000352E+00 0.  1.
</event>
<event>
 5   0  0.1827698E-01  0.4941289E+03  0.7818609E-02  0.1015323E+00
        2   -1    0    0  501    0  0.00000000000E+00  0.00000000000E+00  0.31489983818E+03  0.31489983819E+03  0.25500000920E-02 0.  1.
       -2   -1    0    0    0  501  0.00000000000E+00  0.00000000000E+00 -0.19384205983E+03  0.19384205984E+03  0.25500000920E-02 0. -1.
    10030    2    1    2    0    0  0.00000000000E+00  0.00000000000E+00  0.12105777835E+03  0.50874189803E+03  0.49412886286E+03 0.  0.
        1    1    3    3  502    0 -0.14739674607E+03  0.18904505344E+03 -0.10478617814E+01  0.23971844114E+03  0.50400001928E-02 0.  1.
       -1    1    3    3    0  502  0.14739674607E+03 -0.18904505344E+03  0.12210564013E+03  0.26902345690E+03  0.50400001928E-02 0. -1.
</event>
<event>
 5   0  0.1760649E-01  0.5051811E+03  0.7818609E-02  0.1012435E+00
        2   -1    0    0  501    0  0.00000000000E+00  0.00000000000E+00  0.53203322668E+02  0.53203322729E+02  0.25500000920E-02 0.  1.
       -2   -1    0    0    0  501  0.00000000000E+00  0.00000000000E+00 -0.11992104897E+04  0.11992104897E+04  0.25500000920E-02 0. -1.
    10030    2    1    2    0    0  0.00000000000E+00  0.00000000000E+00 -0.11460071670E+04  0.12524138124E+04  0.50518108701E+03 0.  0.
        5    1    3    3  502    0  0.85550213466E+02 -0.22081895556E+02 -0.11595356743E+04  0.11629064963E+04  0.46999998093E+01 0. -1.
       -5    1    3    3    0  502 -0.85550213466E+02  0.22081895556E+02  0.13528507272E+02  0.89507316140E+02  0.46999998093E+01 0.  1.
</event>
<event>
 5   0  0.1068522E-01  0.4914157E+03  0.7818609E-02  0.1016044E+00
       -1   -1    0    0    0  501  0.00000000000E+00  0.00000000000E+00  0.60766863965E+02  0.60766864174E+02  0.50400001928E-02 0.  1.
        1   -1    0    0  501    0  0.00000000000E+00  0.00000000000E+00 -0.99350774276E+03  0.99350774277E+03  0.50400001928E-02 0. -1.
    10030    2    1    2    0    0  0.00000000000E+00  0.00000000000E+00 -0.93274087879E+03  0.10542746069E+04  0.49141570984E+03 0.  0.
        2    1    3    3  502    0  0.79708973861E+02  0.13054748478E+03 -0.53830735193E+02  0.16215398347E+03  0.25500000920E-02 0.  1.
       -2    1    3    3    0  502 -0.79708973861E+02 -0.13054748478E+03 -0.87891014360E+03  0.89212062347E+03  0.25500000920E-02 0. -1.
</event>
<event>
 5   0  0.1141970E-01  0.4981920E+03  0.7818609E-02  0.1014252E+00
       -1   -1    0    0    0  501  0.00000000000E+00  0.00000000000E+00  0.12685276174E+03  0.12685276184E+03  0.50400001928E-02 0. -1.
        1   -1    0    0  501    0  0.00000000000E+00  0.00000000000E+00 -0.48914046154E+03  0.48914046157E+03  0.50400001928E-02 0.  1.
    10030    2    1    2    0    0  0.00000000000E+00  0.00000000000E+00 -0.36228769980E+03  0.61599322341E+03  0.49819200502E+03 0.  0.
        3    1    3    3  502    0 -0.30321331416E+02 -0.17629117376E+03 -0.39548597921E+03  0.43405890273E+03  0.10100000352E+00 0.  1.
       -3    1    3    3    0  502  0.30321331416E+02  0.17629117376E+03  0.33198279410E+02  0.18193432068E+03  0.10100000352E+00 0. -1.
</event>
<event>
 5   0  0.7220250E-02  0.5064971E+03  0.7818609E-02  0.1012097E+00
       -3   -1    0    0    0  501  0.00000000000E+00  0.00000000000E+00  0.81588243311E+02  0.81588305826E+02  0.10100000352E+00 0.  1.
        3   -1    0    0  501    0  0.00000000000E+00  0.00000000000E+00 -0.78607891693E+03  0.78607892342E+03  0.10100000352E+00 0. -1.
    10030    2    1    2    0    0  0.00000000000E+00  0.00000000000E+00 -0.70449067362E+03  0.86766722925E+03  0.50649709919E+03 0.  0.
        2    1    3    3  502    0 -0.20383001300E+03 -0.10107726543E+03 -0.54278619450E+03  0.58854068741E+03  0.25500000920E-02 0. -1.
       -2    1    3    3    0  502  0.20383001300E+03  0.10107726543E+03 -0.16170447912E+03  0.27912654184E+03  0.25500000920E-02 0.  1.
</event>
<event>
 5   0  0.1709372E-01  0.5061750E+03  0.7818609E-02  0.1012180E+00
        2   -1    0    0  501    0  0.00000000000E+00  0.00000000000E+00  0.11139448680E+03  0.11139448683E+03  0.25500000920E-02 0.  1.
       -2   -1    0    0    0  501  0.00000000000E+00  0.00000000000E+00 -0.57501295183E+03  0.57501295183E+03  0.25500000920E-02 0. -1.
    10030    2    1    2    0    0  0.00000000000E+00  0.00000000000E+00 -0.46361846503E+03  0.68640743866E+03  0.50617496059E+03 0.  0.
        4    1    3    3  502    0  0.14690899763E+03  0.18836174712E+03 -0.34517889999E+03  0.41977671119E+03  0.12699999809E+01 0. -1.
       -4    1    3    3    0  502 -0.14690899763E+03 -0.18836174712E+03 -0.11843956504E+03  0.26663072747E+03  0.12699999809E+01 0.  1.
</event>
<event>
 5   0  0.1074281E-01  0.4945637E+03  0.7818609E-02  0.1015208E+00
        1   -1    0    0  501    0  0.00000000000E+00  0.00000000000E+00  0.86327758668E+03  0.86327758670E+03  0.50400001928E-02 0. -1.
       -1   -1    0    0    0  501  0.00000000000E+00  0.00000000000E+00 -0.70832744322E+02  0.70832744501E+02  0.50400001928E-02 0.  1.
    10030    2    1    2    0    0  0.00000000000E+00  0.00000000000E+00  0.79244484236E+03  0.93411033120E+03  0.49456372963E+03 0.  0.
        4    1    3    3  502    0  0.15752720129E+03 -0.15742614236E+03  0.19324571933E+03  0.29486154443E+03  0.12699999809E+01 0.  1.
       -4    1    3    3    0  502 -0.15752720129E+03  0.15742614236E+03  0.59919912303E+03  0.63924878677E+03  0.12699999809E+01 0. -1.
</event>
<event>
 5   0  0.7220250E-02  0.4937466E+03  0.7818609E-02  0.1015424E+00
        3   -1    0    0  501    0  0.00000000000E+00  0.00000000000E+00  0.97490868949E+03  0.97490869472E+03  0.10100000352E+00 0. -1.
       -3   -1    0    0    0  501  0.00000000000E+00  0.00000000000E+00 -0.62514963475E+02  0.62515045063E+02  0.10100000352E+00 0.  1.
    10030    2    1    2    0    0  0.00000000000E+00  0.00000000000E+00  0.91239372601E+03  0.10374237398E+04  0.49374659958E+03 0.  0.
        2    1    3    3  502    0  0.12665845165E+03 -0.21102240323E+03  0.49680940836E+03  0.55442980284E+03  0.25500000920E-02 0. -1.
       -2    1    3    3    0  502 -0.12665845165E+03  0.21102240323E+03  0.41558431766E+03  0.48299393694E+03  0.25500000920E-02 0.  1.
</event>
<event>
 5   0  0.1147245E-01  0.4642185E+03  0.7818609E-02  0.1023565E+00
        1   -1    0    0  501    0  0.00000000000E+00  0.00000000000E+00  0.12883447444E+04  0.12883447444E+04  0.50400001928E-02 0. -1.
       -1   -1    0    0    0  501  0.00000000000E+00  0.00000000000E+00 -0.41816992435E+02  0.41816992739E+02  0.50400001928E-02 0.  1.
    10030    2    1    2    0    0  0.00000000000E+00  0.00000000000E+00  0.12465277520E+04  0.13301617372E+04  0.46421849441E+03 0.  0.
        1    1    3    3  502    0  0.22948172744E+02  0.23034655190E+03  0.67193737389E+03  0.71069401789E+03  0.50400001928E-02 0.  1.
       -1    1    3    3    0  502 -0.22948172744E+02 -0.23034655190E+03  0.57459037808E+03  0.61946771927E+03  0.50400001928E-02 0. -1.
</event>
<event>
 5   0  0.1827698E-01  0.4636388E+03  0.7818609E-02  0.1023731E+00
       -2   -1    0    0    0  501  0.00000000000E+00  0.00000000000E+00  0.23928577820E+03  0.23928577821E+03  0.25500000920E-02 0.  1.
        2   -1    0    0  501    0  0.00000000000E+00  0.00000000000E+00 -0.22458595159E+03  0.22458595160E+03  0.25500000920E-02 0. -1.
    10030    2    1    2    0    0  0.00000000000E+00  0.00000000000E+00  0.14699826615E+02  0.46387172981E+03  0.46363875681E+03 0.  0.
        1    1    3    3  502    0  0.13992152418E+03  0.18440278694E+03  0.19918208652E+02  0.23233414691E+03  0.50400001928E-02 0.  1.
       -1    1    3    3    0  502 -0.13992152418E+03 -0.18440278694E+03 -0.52183820372E+01  0.23153758290E+03  0.50400001928E-02 0. -1.
</event>
<event>
 5   0  0.1141970E-01  0.5143131E+03  0.7818609E-02  0.1010109E+00
        1   -1    0    0  501    0  0.00000000000E+00  0.00000000000E+00  0.17206446790E+03  0.17206446798E+03  0.50400001928E-02 0. -1.
       -1   -1    0    0    0  501  0.00000000000E+00  0.00000000000E+00 -0.38432967793E+03  0.38432967796E+03  0.50400001928E-02 0.  1.
    10030    2    1    2    0    0  0.00000000000E+00  0.00000000000E+00 -0.21226521002E+03  0.55639414594E+03  0.51431306249E+03 0.  0.
        3    1    3    3  502    0 -0.11796793076E+03 -0.12389119879E+03  0.10157685762E+03  0.19895559814E+03  0.10100000352E+00 0. -1.
       -3    1    3    3    0  502  0.11796793076E+03  0.12389119879E+03 -0.31384206765E+03  0.35743854780E+03  0.10100000352E+00 0.  1.
</event>
<event>
 5   0  0.1709372E-01  0.5126763E+03  0.7818609E-02  0.1010522E+00
       -2   -1    0    0    0  501  0.00000000000E+00  0.00000000000E+00  0.43839471402E+03  0.43839471403E+03  0.25500000920E-02 0. -1.
        2   -1    0    0  501    0  0.00000000000E+00  0.00000000000E+00 -0.14988605259E+03  0.14988605261E+03  0.25500000920E-02 0.  1.
    10030    2    1    2    0    0  0.00000000000E+00  0.00000000000E+00  0.28850866143E+03  0.58828076664E+03  0.51267632350E+03 0.  0.
        4    1    3    3  502    0  0.94589627511E+02 -0.33411738314E+02  0.41493107452E+03  0.42688751609E+03  0.12699999809E+01 0. -1.
       -4    1    3    3    0  502 -0.94589627511E+02  0.33411738314E+02 -0.12642241310E+03  0.16139325055E+03  0.12699999809E+01 0.  1.
</event>
<event>
 5   0  0.1827698E-01  0.4880211E+03  0.7818609E-02  0.1016954E+00
       -2   -1    0    0    0  501  0.00000000000E+00  0.00000000000E+00  0.28438944123E+03  0.28438944124E+03  0.25500000920E-02 0. -1.
        2   -1    0    0  501    0  0.00000000000E+00  0.00000000000E+00 -0.20936483406E+03  0.20936483408E+03  0.25500000920E-02 0.  1.
    10030    2    1    2    0    0  0.00000000000E+00  0.00000000000E+00  0.75024607167E+02  0.49375427532E+03  0.48802109863E+03 0.  0.
        1    1    3    3  502    0 -0.20688927608E+03 -0.19759385004E+02  0.16687185645E+03  0.26653296673E+03  0.50400001928E-02 0. -1.
       -1    1    3    3    0  502  0.20688927608E+03  0.19759385004E+02 -0.91847249285E+02  0.22722130859E+03  0.50400001928E-02 0.  1.
</event>
<event>
 5   0  0.1782124E-01  0.4766425E+03  0.7818609E-02  0.1020062E+00
       -2   -1    0    0    0  501  0.00000000000E+00  0.00000000000E+00  0.37266190161E+02  0.37266190248E+02  0.25500000920E-02 0.  1.
        2   -1    0    0  501    0  0.00000000000E+00  0.00000000000E+00 -0.15240895272E+04  0.15240895272E+04  0.25500000920E-02 0. -1.
    10030    2    1    2    0    0  0.00000000000E+00  0.00000000000E+00 -0.14868233371E+04  0.15613557175E+04  0.47664246649E+03 0.  0.
        3    1    3    3  502    0 -0.16712654285E+03  0.26651881086E+02 -0.19375697083E+03  0.25726130303E+03  0.10100000352E+00 0.  1.
       -3    1    3    3    0  502  0.16712654285E+03 -0.26651881086E+02 -0.12930663663E+04  0.13040944145E+04  0.10100000352E+00 0. -1.
</event>
<event>
 5   0  0.1683148E-01  0.5005861E+03  0.7818609E-02  0.1013626E+00
       -2   -1    0    0    0  501  0.00000000000E+00  0.00000000000E+00  0.63617632607E+02  0.63617632658E+02  0.25500000920E-02 0. -1.
        2   -1    0    0  501    0  0.00000000000E+00  0.00000000000E+00 -0.98473678427E+03  0.98473678428E+03  0.25500000920E-02 0.  1.
    10030    2    1    2    0    0  0.00000000000E+00  0.00000000000E+00 -0.92111915167E+03  0.10483544169E+04  0.50058614837E+03 0.  0.
        2    1    3    3  502    0 -0.60857970897E+02 -0.22383935428E+03 -0.26366771275E+03  0.35118145153E+03  0.25500000920E-02 0. -1.
       -2    1    3    3    0  502  0.60857970897E+02  0.22383935428E+03 -0.65745143892E+03  0.69717296540E+03  0.25500000920E-02 0.  1.
</event>
<event>
 5   0  0.1827698E-01  0.5407037E+03  0.7818609E-02  0.1003669E+00
        2   -1    0    0  501    0  0.00000000000E+00  0.00000000000E+00  0.49988336863E+03  0.49988336863E+03  0.25500000920E-02 0. -1.
       -2   -1    0    0    0  501  0.00000000000E+00  0.00000000000E+00 -0.14621433765E+03  0.14621433767E+03  0.25500000920E-02 0.  1.
    10030    2    1    2    0    0  0.00000000000E+00  0.00000000000E+00  0.35366903098E+03  0.64609770630E+03  0.54070367357E+03 0.  0.
        1    1    3    3  502    0 -0.14068941718E+03 -0.17341707915E+02  0.45191506721E+03  0.47362588077E+03  0.50400001928E-02 0. -1.
       -1    1    3    3    0  502  0.14068941718E+03  0.17341707915E+02 -0.98246036228E+02  0.17247182553E+03  0.50400001928E-02 0.  1.
</event>
<event>
 5   0  0.1782124E-01  0.4982645E+03  0.7818609E-02  0.1014233E+00
       -2   -1    0    0    0  501  0.00000000000E+00  0.00000000000E+00  0.68235769331E+02  0.68235769379E+02  0.25500000920E-02 0.  1.
        2   -1    0    0  501    0  0.00000000000E+00  0.00000000000E+00 -0.90959461857E+03  0.90959461857E+03  0.25500000920E-02 0. -1.
    10030    2    1    2    0    0  0.00000000000E+00  0.00000000000E+00 -0.84135884924E+03  0.97783038795E+03  0.49826454260E+03 0.  0.
        3    1    3    3  502    0 -0.20766469170E+02 -0.16033510070E+03 -0.79266132268E+03  0.80898119473E+03  0.10100000352E+00 0. -1.
       -3    1    3    3    0  502  0.20766469170E+02  0.16033510070E+03 -0.48697526559E+02  0.16884919322E+03  0.10100000352E+00 0.  1.
</event>
<event>
 5   0  0.7220250E-02  0.5072495E+03  0.7818609E-02  0.1011904E+00
        3   -1    0    0  501    0  0.00000000000E+00  0.00000000000E+00  0.85819809031E+03  0.85819809625E+03  0.10100000352E+00 0. -1.
       -3   -1    0    0    0  501  0.00000000000E+00  0.00000000000E+00 -0.74954122475E+02  0.74954190524E+02  0.10100000352E+00 0.  1.
    10030    2    1    2    0    0  0.00000000000E+00  0.00000000000E+00  0.78324396784E+03  0.93315228678E+03  0.50724952161E+03 0.  0.
        1    1    3    3  502    0 -0.11998268887E+03  0.22327404854E+03  0.40790796033E+03  0.48024582300E+03  0.50400001928E-02 0. -1.
       -1    1    3    3    0  502  0.11998268887E+03 -0.22327404854E+03  0.37533600751E+03  0.45290646378E+03  0.50400001928E-02 0.  1.
</event>
<event>
 5   0  0.1683148E-01  0.4958677E+03  0.7818609E-02  0.1014863E+00
        2   -1    0    0  501    0  0.00000000000E+00  0.00000000000E+00  0.29026159714E+03  0.29026159715E+03  0.25500000920E-02 0.  1.
       -2   -1    0    0    0  501  0.00000000000E+00  0.00000000000E+00 -0.21177857505E+03  0.21177857507E+03  0.25500000920E-02 0. -1.
    10030    2    1    2    0    0  0.00000000000E+00  0.00000000000E+00  0.78483022082E+02  0.50204017222E+03  0.49586767364E+03 0.  0.
        2    1    3    3  502    0  0.25990230555E+02  0.81705069821E+02 -0.19629133199E+03  0.21419966746E+03  0.25500000920E-02 0. -1.
       -2    1    3    3    0  502 -0.25990230555E+02 -0.81705069821E+02  0.27477435407E+03  0.28784050476E+03  0.25500000920E-02 0.  1.
</event>
<event>
 5   0  0.1141970E-01  0.4983456E+03  0.7818609E-02  0.1014212E+00
        1   -1    0    0  501    0  0.00000000000E+00  0.00000000000E+00  0.49759858435E+03  0.49759858438E+03  0.50400001928E-02 0. -1.
       -1   -1    0    0    0  501  0.00000000000E+00  0.00000000000E+00 -0.12477344298E+03  0.12477344309E+03  0.50400001928E-02 0.  1.
    10030    2    1    2    0    0  0.00000000000E+00  0.00000000000E+00  0.37282514137E+03  0.62237202746E+03  0.49834561755E+03 0.  0.
        3    1    3    3  502    0  0.29062483648E+02  0.76959185576E+02 -0.10732497655E+03  0.13522575566E+03  0.10100000352E+00 0.  1.
       -3    1    3    3    0  502 -0.29062483648E+02 -0.76959185576E+02  0.48015011792E+03  0.48714627181E+03  0.10100000352E+00 0. -1.
</event>
<event>
 5   0  0.1147245E-01  0.5001100E+03  0.7818609E-02  0.1013750E+00
        1   -1    0    0  501    0  0.00000000000E+00  0.00000000000E+00  0.15571021720E+03  0.15571021728E+03  0.50400001928E-02 0. -1.
       -1   -1    0    0    0  501  0.00000000000E+00  0.00000000000E+00 -0.40156321391E+03  0.40156321394E+03  0.50400001928E-02 0.  1.
    10030    2    1    2    0    0  0.00000000000E+00  0.00000000000E+00 -0.24585299671E+03  0.55727343122E+03  0.50010996906E+03 0.  0.
        1    1    3    3  502    0  0.58904917839E+02  0.13687370188E+03  0.10083266847E+03  0.17992061213E+03  0.50400001928E-02 0. -1.
       -1    1    3    3    0  502 -0.58904917839E+02 -0.13687370188E+03 -0.34668566518E+03  0.37735281909E+03  0.50400001928E-02 0.  1.
</event>
<event>
 5   0  0.1683148E-01  0.4767705E+03  0.7818609E-02  0.1020027E+00
       -2   -1    0    0    0  501  0.00000000000E+00  0.00000000000E+00  0.33199988323E+02  0.33199988421E+02  0.25500000920E-02 0.  1.
        2   -1    0    0  501    0  0.00000000000E+00  0.00000000000E+00 -0.17116734345E+04  0.17116734345E+04  0.25500000920E-02 0. -1.
    10030    2    1    2    0    0  0.00000000000E+00  0.00000000000E+00 -0.16784734462E+04  0.17448734229E+04  0.47677054492E+03 0.  0.
        2    1    3    3  502    0 -0.72050371568E+01  0.23672580201E+03 -0.93855904171E+03  0.96797938650E+03  0.25500000920E-02 0. -1.
       -2    1    3    3    0  502  0.72050371568E+01 -0.23672580201E+03 -0.73991440449E+03  0.77689403645E+03  0.25500000920E-02 0.  1.
</event>
<event>
 5   0  0.1760649E-01  0.5021758E+03  0.7818609E-02  0.1013213E+00
       -2   -1    0    0    0  501  0.00000000000E+00  0.00000000000E+00  0.46309250978E+03  0.46309250979E+03  0.25500000920E-02 0. -1.
        2   -1    0    0  501    0  0.00000000000E+00  0.00000000000E+00 -0.13613941907E+03  0.13613941910E+03  0.25500000920E-02 0.  1.
    10030    2    1    2    0    0  0.00000000000E+00  0.00000000000E+00  0.32695309071E+03  0.59923192889E+03  0.50217584677E+03 0.  0.
        5    1    3    3  502    0 -0.79718847261E+02 -0.57500393483E+02  0.43912388986E+03  0.45001474476E+03  0.46999998093E+01 0. -1.
       -5    1    3    3    0  502  0.79718847261E+02  0.57500393483E+02 -0.11217079915E+03  0.14921718413E+03  0.46999998093E+01 0.  1.
</event>
<event>
 5   0  0.1760649E-01  0.4924667E+03  0.7818609E-02  0.1015764E+00
       -2   -1    0    0    0  501  0.00000000000E+00  0.00000000000E+00  0.37658472282E+02  0.37658472368E+02  0.25500000920E-02 0. -1.
        2   -1    0    0  501    0  0.00000000000E+00  0.00000000000E+00 -0.16100195010E+04  0.16100195010E+04  0.25500000920E-02 0.  1.
    10030    2    1    2    0    0  0.00000000000E+00  0.00000000000E+00 -0.15723610287E+04  0.16476779734E+04  0.49246674944E+03 0.  0.
        5    1    3    3  502    0 -0.91280195434E+02 -0.16705512530E+03 -0.13084767712E+04  0.13222605793E+04  0.46999998093E+01 0.  1.
       -5    1    3    3    0  502  0.91280195434E+02  0.16705512530E+03 -0.26388425759E+03  0.32541739408E+03  0.46999998093E+01 0. -1.
</event>
<event>
 5   0  0.1068522E-01  0.4783161E+03  0.7818609E-02  0.1019599E+00
       -1   -1    0    0    0  501  0.00000000000E+00  0.00000000000E+00  0.42763515978E+02  0.42763516275E+02  0.50400001928E-02 0.  1.
        1   -1    0    0  501    0  0.00000000000E+00  0.00000000000E+00 -0.13375088066E+04  0.13375088066E+04  0.50400001928E-02 0. -1.
    10030    2    1    2    0    0  0.00000000000E+00  0.00000000000E+00 -0.12947452906E+04  0.13802723229E+04  0.47831612740E+03 0.  0.
        2    1    3    3  502    0  0.12791294950E+03 -0.64003675525E+02 -0.94264831835E+02  0.17130105562E+03  0.25500000920E-02 0.  1.
       -2    1    3    3    0  502 -0.12791294950E+03  0.64003675525E+02 -0.12004804588E+04  0.12089712673E+04  0.25500000920E-02 0. -1.
</event>
<event>
 5   0  0.1123271E-01  0.5121745E+03  0.7818609E-02  0.1010649E+00
        1   -1    0    0  501    0  0.00000000000E+00  0.00000000000E+00  0.10209283056E+04  0.10209283057E+04  0.50400001928E-02 0.  1.
       -1   -1    0    0    0  501  0.00000000000E+00  0.00000000000E+00 -0.64236315380E+02  0.64236315577E+02  0.50400001928E-02 0. -1.
    10030    2    1    2    0    0  0.00000000000E+00  0.00000000000E+00  0.95669199027E+03  0.10851646212E+04  0.51217447315E+03 0.  0.
        5    1    3    3  502    0 -0.43562981496E+02 -0.87053155218E+02  0.98010105089E+03  0.98493458927E+03  0.46999998093E+01 0.  1.
       -5    1    3    3    0  502  0.43562981496E+02  0.87053155218E+02 -0.23409060622E+02  0.10023003197E+03  0.46999998093E+01 0. -1.
</event>
<event>
 5   0  0.1827698E-01  0.5014236E+03  0.7818609E-02  0.1013408E+00
        2   -1    0    0  501    0  0.00000000000E+00  0.00000000000E+00  0.14560920409E+04  0.14560920409E+04  0.25500000920E-02 0. -1.
       -2   -1    0    0    0  501  0.00000000000E+00  0.00000000000E+00 -0.43167883559E+02  0.43167883635E+02  0.25500000920E-02 0.  1.
    10030    2    1    2    0    0  0.00000000000E+00  0.00000000000E+00  0.14129241573E+04  0.14992599245E+04  0.50142362023E+03 0.  0.
        1    1    3    3  502    0  0.13417970048E+03  0.26917041672E+02  0.78363582496E+02  0.15770088852E+03  0.50400001928E-02 0.  1.
       -1    1    3    3    0  502 -0.13417970048E+03 -0.26917041672E+02  0.13345605748E+04  0.13415590360E+04  0.50400001928E-02 0. -1.
</event>
<event>
 5   0  0.1709372E-01  0.5092230E+03  0.7818609E-02  0.1011399E+00
        2   -1    0    0  501    0  0.00000000000E+00  0.00000000000E+00  0.55925304900E+03  0.55925304901E+03  0.25500000920E-02 0.  1.
       -2   -1    0    0    0  501  0.00000000000E+00  0.00000000000E+00 -0.11591714036E+03  0.11591714039E+03  0.25500000920E-02 0. -1.
    10030    2    1    2    0    0  0.00000000000E+00  0.00000000000E+00  0.44333590865E+03  0.67517018939E+03  0.50922299315E+03 0.  0.
        4    1    3    3  502    0  0.18298847465E+03  0.79994964242E+02  0.43106275120E+03  0.47507966125E+03  0.12699999809E+01 0.  1.
       -4    1    3    3    0  502 -0.18298847465E+03 -0.79994964242E+02  0.12273157447E+02  0.20009052815E+03  0.12699999809E+01 0. -1.
</event>
<event>
 5   0  0.1683148E-01  0.4883297E+03  0.7818609E-02  0.1016871E+00
        2   -1    0    0  501    0  0.00000000000E+00  0.00000000000E+00  0.15157800439E+03  0.15157800441E+03  0.25500000920E-02 0.  1.
       -2   -1    0    0    0  501  0.00000000000E+00  0.00000000000E+00 -0.39330554326E+03  0.39330554327E+03  0.25500000920E-02 0. -1.
    10030    2    1    2    0    0  0.00000000000E+00  0.00000000000E+00 -0.24172753887E+03  0.54488354768E+03  0.48832968115E+03 0.  0.
        2    1    3    3  502    0 -0.16915568475E+03  0.17312234014E+03 -0.15669987225E+03  0.28833980008E+03  0.25500000920E-02 0. -1.
       -2    1    3    3    0  502  0.16915568475E+03 -0.17312234014E+03 -0.85027666615E+02  0.25654374760E+03  0.25500000920E-02 0.  1.
</event>
<event>
 5   0  0.1683148E-01  0.5026517E+03  0.7818609E-02  0.1013089E+00
        2   -1    0    0  501    0  0.00000000000E+00  0.00000000000E+00  0.13865651281E+04  0.13865651281E+04  0.25500000920E-02 0. -1.
       -2   -1    0    0    0  501  0.00000000000E+00  0.00000000000E+00 -0.45554782624E+02  0.45554782696E+02  0.25500000920E-02 0.  1.
    10030    2    1    2    0    0  0.00000000000E+00  0.00000000000E+00  0.13410103454E+04  0.14321199108E+04  0.50265166092E+03 0.  0.
        2    1    3    3  502    0  0.11644792496E+03 -0.76212764470E+02  0.74252527012E+02  0.15774011053E+03  0.25500000920E-02 0.  1.
       -2    1    3    3    0  502 -0.11644792496E+03  0.76212764470E+02  0.12667578184E+04  0.12743798002E+04  0.25500000920E-02 0. -1.
</event>
<event>
 5   0  0.7220250E-02  0.4740762E+03  0.7818609E-02  0.1020776E+00
        4   -1    0    0  501    0  0.00000000000E+00  0.00000000000E+00  0.54373347297E+03  0.54373495614E+03  0.12699999809E+01 0.  1.
       -4   -1    0    0    0  501  0.00000000000E+00  0.00000000000E+00 -0.10333013883E+03  0.10333794313E+03  0.12699999809E+01 0. -1.
    10030    2    1    2    0    0  0.00000000000E+00  0.00000000000E+00  0.44040333414E+03  0.64707289927E+03  0.47407619666E+03 0.  0.
        2    1    3    3  502    0  0.16192067855E+03  0.13966405747E+03  0.35981505001E+03  0.41855850883E+03  0.25500000920E-02 0.  1.
       -2    1    3    3    0  502 -0.16192067855E+03 -0.13966405747E+03  0.80588284131E+02  0.22851439044E+03  0.25500000920E-02 0. -1.
</event>
<event>
 5   0  0.1147245E-01  0.4996081E+03  0.7818609E-02  0.1013881E+00
        1   -1    0    0  501    0  0.00000000000E+00  0.00000000000E+00  0.74207371926E+03  0.74207371928E+03  0.50400001928E-02 0. -1.
       -1   -1    0    0    0  501  0.00000000000E+00  0.00000000000E+00 -0.84091456472E+02  0.84091456623E+02  0.50400001928E-02 0.  1.
    10030    2    1    2    0    0  0.00000000000E+00  0.00000000000E+00  0.65798226279E+03  0.82616517590E+03  0.49960808613E+03 0.  0.
        1    1    3    3  502    0  0.33136424813E+02  0.24095732085E+02  0.73647984473E+03  0.73761859296E+03  0.50400001928E-02 0. -1.
       -1    1    3    3    0  502 -0.33136424813E+02 -0.24095732085E+02 -0.78497581945E+02  0.88546582942E+02  0.50400001928E-02 0.  1.
</event>
<event>
 5   0  0.1760649E-01  0.4970357E+03  0.7818609E-02  0.1014556E+00
       -2   -1    0    0    0  501  0.00000000000E+00  0.00000000000E+00  0.35006078412E+02  0.35006078505E+02  0.25500000920E-02 0. -1.
        2   -1    0    0  501    0  0.00000000000E+00  0.00000000000E+00 -0.17642970522E+04  0.17642970522E+04  0.25500000920E-02 0.  1.
    10030    2    1    2    0    0  0.00000000000E+00  0.00000000000E+00 -0.17292909738E+04  0.17993031307E+04  0.49703569706E+03 0.  0.
        5    1    3    3  502    0  0.40352877037E+02 -0.23165561549E+03 -0.57399318384E+03  0.62030874890E+03  0.46999998093E+01 0.  1.
       -5    1    3    3    0  502 -0.40352877037E+02  0.23165561549E+03 -0.11552977899E+04  0.11789943818E+04  0.46999998093E+01 0. -1.
</event>
<event>
 5   0  0.1827698E-01  0.4970581E+03  0.7818609E-02  0.1014550E+00
       -2   -1    0    0    0  501  0.00000000000E+00  0.00000000000E+00  0.23900041227E+02  0.23900041364E+02  0.25500000920E-02 0.  1.
        2   -1    0    0  501    0  0.00000000000E+00  0.00000000000E+00 -0.25843763129E+04  0.25843763129E+04  0.25500000920E-02 0. -1.
    10030    2    1    2    0    0  0.00000000000E+00  0.00000000000E+00 -0.25604762717E+04  0.26082763543E+04  0.49705814793E+03 0.  0.
        1    1    3    3  502    0 -0.99720777585E+02  0.22378719173E+03 -0.10612399321E+04  0.10891534025E+04  0.50400001928E-02 0.  1.
       -1    1    3    3    0  502  0.99720777585E+02 -0.22378719173E+03 -0.14992363396E+04  0.15191229518E+04  0.50400001928E-02 0. -1.
</event>
<event>
 5   0  0.1074281E-01  0.4969493E+03  0.7818609E-02  0.1014578E+00
       -1   -1    0    0    0  501  0.00000000000E+00  0.00000000000E+00  0.94175867009E+02  0.94175867144E+02  0.50400001928E-02 0.  1.
        1   -1    0    0  501    0  0.00000000000E+00  0.00000000000E+00 -0.65557826373E+03  0.65557826375E+03  0.50400001928E-02 0. -1.
    10030    2    1    2    0    0  0.00000000000E+00  0.00000000000E+00 -0.56140239672E+03  0.74975413089E+03  0.49694929897E+03 0.  0.
        4    1    3    3  502    0 -0.51527343053E+01 -0.24755749322E+03 -0.24953337441E+03  0.35153915993E+03  0.12699999809E+01 0. -1.
       -4    1    3    3    0  502  0.51527343053E+01  0.24755749322E+03 -0.31186902230E+03  0.39821497096E+03  0.12699999809E+01 0.  1.
</event>
<event>
 5   0  0.1141970E-01  0.5184935E+03  0.7818609E-02  0.1009061E+00
       -1   -1    0    0    0  501  0.00000000000E+00  0.00000000000E+00  0.80183866303E+02  0.80183866461E+02  0.50400001928E-02 0.  1.
        1   -1    0    0  501    0  0.00000000000E+00  0.00000000000E+00 -0.83818440921E+03  0.83818440922E+03  0.50400001928E-02 0. -1.
    10030    2    1    2    0    0  0.00000000000E+00  0.00000000000E+00 -0.75800054291E+03  0.91836827569E+03  0.51849345872E+03 0.  0.
        3    1    3    3  502    0 -0.47207790356E+02 -0.89171484007E+02  0.43980311689E+02  0.11006546710E+03  0.10100000352E+00 0.  1.
       -3    1    3    3    0  502  0.47207790356E+02  0.89171484007E+02 -0.80198085460E+03  0.80830280859E+03  0.10100000352E+00 0. -1.
</event>
<event>
 5   0  0.1760649E-01  0.4743177E+03  0.7818609E-02  0.1020709E+00
        2   -1    0    0  501    0  0.00000000000E+00  0.00000000000E+00  0.24364440404E+03  0.24364440405E+03  0.25500000920E-02 0. -1.
       -2   -1    0    0    0  501  0.00000000000E+00  0.00000000000E+00 -0.23084592069E+03  0.23084592070E+03  0.25500000920E-02 0.  1.
    10030    2    1    2    0    0  0.00000000000E+00  0.00000000000E+00  0.12798483349E+02  0.47449032475E+03  0.47431768584E+03 0.  0.
        5    1    3    3  502    0  0.10554293669E+03  0.14449818472E+03 -0.14923112726E+03  0.23304732612E+03  0.46999998093E+01 0.  1.
       -5    1    3    3    0  502 -0.10554293669E+03 -0.14449818472E+03  0.16202961061E+03  0.24144299862E+03  0.46999998093E+01 0. -1.
</event>
<event>
 5   0  0.1760649E-01  0.4997257E+03  0.7818609E-02  0.1013851E+00
       -2   -1    0    0    0  501  0.00000000000E+00  0.00000000000E+00  0.76706460091E+02  0.76706460133E+02  0.25500000920E-02 0.  1.
        2   -1    0    0  501    0  0.00000000000E+00  0.00000000000E+00 -0.81390071408E+03  0.81390071408E+03  0.25500000920E-02 0. -1.
    10030    2    1    2    0    0  0.00000000000E+00  0.00000000000E+00 -0.73719425399E+03  0.89060717421E+03  0.49972569541E+03 0.  0.
        5    1    3    3  502    0  0.13170003181E+03 -0.20559065220E+03 -0.27434396496E+03  0.36728614970E+03  0.46999998093E+01 0.  1.
       -5    1    3    3    0  502 -0.13170003181E+03  0.20559065220E+03 -0.46285028902E+03  0.52332102452E+03  0.46999998093E+01 0. -1.
</event>
<event>
 5   0  0.1683148E-01  0.4292546E+03  0.7818609E-02  0.1034096E+00
        2   -1    0    0  501    0  0.00000000000E+00  0.00000000000E+00  0.58341137714E+02  0.58341137770E+02  0.25500000920E-02 0.  1.
       -2   -1    0    0    0  501  0.00000000000E+00  0.00000000000E+00 -0.78957807650E+03  0.78957807651E+03  0.25500000920E-02 0. -1.
    10030    2    1    2    0    0  0.00000000000E+00  0.00000000000E+00 -0.73123693879E+03  0.84791921428E+03  0.42925462524E+03 0.  0.
        2    1    3    3  502    0 -0.18761117851E+02  0.75481376226E+02 -0.76076068498E+03  0.76472625006E+03  0.25500000920E-02 0. -1.
       -2    1    3    3    0  502  0.18761117851E+02 -0.75481376226E+02  0.29523746195E+02  0.83192964222E+02  0.25500000920E-02 0.  1.
</event>
<event>
 5   0  0.1709372E-01  0.4978067E+03  0.7818609E-02  0.1014353E+00
        2   -1    0    0  501    0  0.00000000000E+00  0.00000000000E+00  0.61382247935E+03  0.61382247936E+03  0.25500000920E-02 0.  1.
       -2   -1    0    0    0  501  0.00000000000E+00  0.00000000000E+00 -0.10092964620E+03  0.10092964623E+03  0.25500000920E-02 0. -1.
    10030    2    1    2    0    0  0.00000000000E+00  0.00000000000E+00  0.51289283316E+03  0.71475212559E+03  0.49780673231E+03 0.  0.
        4    1    3    3  502    0  0.18695734491E+03 -0.16107128517E+03  0.30306612965E+03  0.39082950191E+03  0.12699999809E+01 0.  1.
       -4    1    3    3    0  502 -0.18695734491E+03  0.16107128517E+03  0.20982670351E+03  0.32392262368E+03  0.12699999809E+01 0. -1.
</event>
<event>
 5   0  0.1147245E-01  0.5026287E+03  0.7818609E-02  0.1013095E+00
        1   -1    0    0  501    0  0.00000000000E+00  0.00000000000E+00  0.54879442043E+03  0.54879442045E+03  0.50400001928E-02 0. -1.
       -1   -1    0    0    0  501  0.00000000000E+00  0.00000000000E+00 -0.11508663983E+03  0.11508663994E+03  0.50400001928E-02 0.  1.
    10030    2    1    2    0    0  0.00000000000E+00  0.00000000000E+00  0.43370778060E+03  0.66388106039E+03  0.50262871326E+03 0.  0.
        1    1    3    3  502    0  0.21509344930E+03 -0.12580460657E+03  0.17371113614E+03  0.30375574037E+03  0.50400001928E-02 0. -1.
       -1    1    3    3    0  502 -0.21509344930E+03  0.12580460657E+03  0.25999664445E+03  0.36012532002E+03  0.50400001928E-02 0.  1.
</event>
<event>
 5   0  0.1147245E-01  0.5138929E+03  0.7818609E-02  0.1010215E+00
        1   -1    0    0  501    0  0.00000000000E+00  0.00000000000E+00  0.46526201156E+03  0.46526201159E+03  0.50400001928E-02 0. -1.
       -1   -1    0    0    0  501  0.00000000000E+00  0.00000000000E+00 -0.14190168983E+03  0.14190168992E+03  0.50400001928E-02 0.  1.
    10030    2    1    2    0    0  0.00000000000E+00  0.00000000000E+00  0.32336032174E+03  0.60716370151E+03  0.51389285143E+03 0.  0.
        1    1    3    3  502    0  0.99862593391E+02  0.68026196768E+02  0.42960009179E+03  0.44626935801E+03  0.50400001928E-02 0. -1.
       -1    1    3    3    0  502 -0.99862593391E+02 -0.68026196768E+02 -0.10623977005E+03  0.16089434350E+03  0.50400001928E-02 0.  1.
</event>
<event>
 5   0  0.1141970E-01  0.5004741E+03  0.7818609E-02  0.1013655E+00
       -1   -1    0    0    0  501  0.00000000000E+00  0.00000000000E+00  0.63405204354E+02  0.63405204554E+02  0.50400001928E-02 0.  1.
        1   -1    0    0  501    0  0.00000000000E+00  0.00000000000E+00 -0.98759364428E+03  0.98759364429E+03  0.50400001928E-02 0. -1.
    10030    2    1    2    0    0  0.00000000000E+00  0.00000000000E+00 -0.92418843993E+03  0.10509988488E+04  0.50047408303E+03 0.  0.
        3    1    3    3  502    0  0.15667373410E+03  0.17056668723E+03 -0.26310363464E+03  0.35051845388E+03  0.10100000352E+00 0. -1.
       -3    1    3    3    0  502 -0.15667373410E+03 -0.17056668723E+03 -0.66108480529E+03  0.70048039497E+03  0.10100000352E+00 0.  1.
</event>
<event>
 5   0  0.1827698E-01  0.5047434E+03  0.7818609E-02  0.1012548E+00
       -2   -1    0    0    0  501  0.00000000000E+00  0.00000000000E+00  0.95536842274E+02  0.95536842308E+02  0.25500000920E-02 0.  1.
        2   -1    0    0  501    0  0.00000000000E+00  0.00000000000E+00 -0.66666916376E+03  0.66666916377E+03  0.25500000920E-02 0. -1.
    10030    2    1    2    0    0  0.00000000000E+00  0.00000000000E+00 -0.57113232149E+03  0.76220600608E+03  0.50474336751E+03 0.  0.
        1    1    3    3  502    0 -0.18857763633E+03 -0.12253360415E+03 -0.11262695076E+03  0.25151707523E+03  0.50400001928E-02 0.  1.
       -1    1    3    3    0  502  0.18857763633E+03  0.12253360415E+03 -0.45850537073E+03  0.51068893084E+03  0.50400001928E-02 0. -1.
</event>
<event>
 5   0  0.1123271E-01  0.4906716E+03  0.7818609E-02  0.1016243E+00
        1   -1    0    0  501    0  0.00000000000E+00  0.00000000000E+00  0.14230860514E+04  0.14230860515E+04  0.50400001928E-02 0. -1.
       -1   -1    0    0    0  501  0.00000000000E+00  0.00000000000E+00 -0.42295166498E+02  0.42295166798E+02  0.50400001928E-02 0.  1.
    10030    2    1    2    0    0  0.00000000000E+00  0.00000000000E+00  0.13807908849E+04  0.14653812183E+04  0.49067162834E+03 0.  0.
        5    1    3    3  502    0  0.19075644174E+03  0.43261147351E+02  0.11324351529E+04  0.11492132145E+04  0.46999998093E+01 0. -1.
       -5    1    3    3    0  502 -0.19075644174E+03 -0.43261147351E+02  0.24835573203E+03  0.31616800371E+03  0.46999998093E+01 0.  1.
</event>
<event>
 5   0  0.1683148E-01  0.5061558E+03  0.7818609E-02  0.1012185E+00
       -2   -1    0    0    0  501  0.00000000000E+00  0.00000000000E+00  0.14638799574E+03  0.14638799577E+03  0.25500000920E-02 0.  1.
        2   -1    0    0  501    0  0.00000000000E+00  0.00000000000E+00 -0.43752510769E+03  0.43752510770E+03  0.25500000920E-02 0. -1.
    10030    2    1    2    0    0  0.00000000000E+00  0.00000000000E+00 -0.29113711195E+03  0.58391310347E+03  0.50615580057E+03 0.  0.
        2    1    3    3  502    0 -0.18113687226E+03 -0.72820981253E+02 -0.33135191438E+03  0.38458751017E+03  0.25500000920E-02 0. -1.
       -2    1    3    3    0  502  0.18113687226E+03  0.72820981253E+02  0.40214802434E+02  0.19932559330E+03  0.25500000920E-02 0.  1.
</event>
<event>
 5   0  0.1074281E-01  0.5022698E+03  0.7818609E-02  0.1013188E+00
        1   -1    0    0  501    0  0.00000000000E+00  0.00000000000E+00  0.96452481136E+03  0.96452481138E+03  0.50400001928E-02 0. -1.
       -1   -1    0    0    0  501  0.00000000000E+00  0.00000000000E+00 -0.65388406504E+02  0.65388406698E+02  0.50400001928E-02 0.  1.
    10030    2    1    2    0    0  0.00000000000E+00  0.00000000000E+00  0.89913640486E+03  0.10299132181E+04  0.50226981018E+03 0.  0.
        4    1    3    3  502    0 -0.16128330635E+03 -0.19022057025E+03  0.51008305980E+03  0.56778738190E+03  0.12699999809E+01 0. -1.
       -4    1    3    3    0  502  0.16128330635E+03  0.19022057025E+03  0.38905334506E+03  0.46212583617E+03  0.12699999809E+01 0.  1.
</event>
<event>
 5   0  0.1123271E-01  0.5061057E+03  0.7818609E-02  0.1012197E+00
        1   -1    0    0  501    0  0.00000000000E+00  0.00000000000E+00  0.75369077145E+03  0.75369077146E+03  0.50400001928E-02 0. -1.
       -1   -1    0    0    0  501  0.00000000000E+00  0.00000000000E+00 -0.84962891968E+02  0.84962892117E+02  0.50400001928E-02 0.  1.
    10030    2    1    2    0    0  0.00000000000E+00  0.00000000000E+00  0.66872787948E+03  0.83865366358E+03  0.50610571094E+03 0.  0.
        5    1    3    3  502    0 -0.15669313787E+03  0.16273052293E+03  0.52315162267E+03  0.56986285442E+03  0.46999998093E+01 0. -1.
       -5    1    3    3    0  502  0.15669313787E+03 -0.16273052293E+03  0.14557625681E+03  0.26879080917E+03  0.46999998093E+01 0.  1.
</event>
<event>
 5   0  0.1827698E-01  0.4924418E+03  0.7818609E-02  0.1015771E+00
        2   -1    0    0  501    0  0.00000000000E+00  0.00000000000E+00  0.29057799178E+03  0.29057799179E+03  0.25500000920E-02 0. -1.
       -2   -1    0    0    0  501  0.00000000000E+00  0.00000000000E+00 -0.20863499680E+03  0.20863499682E+03  0.25500000920E-02 0.  1.
    10030    2    1    2    0    0  0.00000000000E+00  0.00000000000E+00  0.81942994971E+02  0.49921298861E+03  0.49244182760E+03 0.  0.
        1    1    3    3  502    0 -0.28361028820E+02 -0.15826303383E+03  0.23001131395E+03  0.28063631340E+03  0.50400001928E-02 0. -1.
       -1    1    3    3    0  502  0.28361028820E+02  0.15826303383E+03 -0.14806831898E+03  0.21857667520E+03  0.50400001928E-02 0.  1.
</event>
<event>
 5   0  0.1141970E-01  0.4910541E+03  0.7818609E-02  0.1016141E+00
       -1   -1    0    0    0  501  0.00000000000E+00  0.00000000000E+00  0.87303896167E+02  0.87303896312E+02  0.50400001928E-02 0.  1.
        1   -1    0    0  501    0  0.00000000000E+00  0.00000000000E+00 -0.69050216980E+03  0.69050216982E+03  0.50400001928E-02 0. -1.
    10030    2    1    2    0    0  0.00000000000E+00  0.00000000000E+00 -0.60319827363E+03  0.77780606613E+03  0.49105408989E+03 0.  0.
        3    1    3    3  502    0 -0.20165102987E+03 -0.11616634294E+03 -0.42557069832E+03  0.48504452017E+03  0.10100000352E+00 0. -1.
       -3    1    3    3    0  502  0.20165102987E+03  0.11616634294E+03 -0.17762757531E+03  0.29276154596E+03  0.10100000352E+00 0.  1.
</event>
<event>
 5   0  0.1683148E-01  0.5075020E+03  0.7818609E-02  0.1011839E+00
       -2   -1    0    0    0  501  0.00000000000E+00  0.00000000000E+00  0.61175126565E+03  0.61175126566E+03  0.25500000920E-02 0. -1.
        2   -1    0    0  501    0  0.00000000000E+00  0.00000000000E+00 -0.10525449609E+03  0.10525449612E+03  0.25500000920E-02 0.  1.
    10030    2    1    2    0    0  0.00000000000E+00  0.00000000000E+00  0.50649676957E+03  0.71700576178E+03  0.50750200476E+03 0.  0.
        2    1    3    3  502    0  0.16306170173E+03  0.22993234546E+02 -0.19507956386E+02  0.16582631810E+03  0.25500000920E-02 0.  1.
       -2    1    3    3    0  502 -0.16306170173E+03 -0.22993234546E+02  0.52600472595E+03  0.55117944368E+03  0.25500000920E-02 0. -1.
</event>
<event>
 5   0  0.1683148E-01  0.5110461E+03  0.7818609E-02  0.1010935E+00
        2   -1    0    0  501    0  0.00000000000E+00  0.00000000000E+00  0.10788818084E+04  0.10788818084E+04  0.25500000920E-02 0.  1.
       -2   -1    0    0    0  501  0.00000000000E+00  0.00000000000E+00 -0.60518243267E+02  0.60518243321E+02  0.25500000920E-02 0. -1.
    10030    2    1    2    0    0  0.00000000000E+00  0.00000000000E+00  0.10183635651E+04  0.11394000517E+04  0.51104611052E+03 0.  0.
        2    1    3    3  502    0 -0.16355493707E+03  0.13980596129E+03  0.20189176166E+03  0.29505288964E+03  0.25500000920E-02 0. -1.
       -2    1    3    3    0  502  0.16355493707E+03 -0.13980596129E+03  0.81647180348E+03  0.84434716209E+03  0.25500000920E-02 0.  1.
</event>
<event>
 5   0  0.1683148E-01  0.5038772E+03  0.7818609E-02  0.1012772E+00
       -2   -1    0    0    0  501  0.00000000000E+00  0.00000000000E+00  0.60427732964E+02  0.60427733017E+02  0.25500000920E-02 0.  1.
        2   -1    0    0  501    0  0.00000000000E+00  0.00000000000E+00 -0.10503961926E+04  0.10503961926E+04  0.25500000920E-02 0. -1.
    10030    2    1    2    0    0  0.00000000000E+00  0.00000000000E+00 -0.98996845962E+03  0.11108239256E+04  0.50387720990E+03 0.  0.
        2    1    3    3  502    0  0.44030043396E+02 -0.22458513579E+03 -0.72720572486E+03  0.76236821433E+03  0.25500000920E-02 0. -1.
       -2    1    3    3    0  502 -0.44030043396E+02  0.22458513579E+03 -0.26276273476E+03  0.34845571128E+03  0.25500000920E-02 0.  1.
</event>
<event>
 5   0  0.1782124E-01  0.4704575E+03  0.7818609E-02  0.1021791E+00
        2   -1    0    0  501    0  0.00000000000E+00  0.00000000000E+00  0.84778242829E+03  0.84778242830E+03  0.25500000920E-02 0. -1.
       -2   -1    0    0    0  501  0.00000000000E+00  0.00000000000E+00 -0.65267406814E+02  0.65267406864E+02  0.25500000920E-02 0.  1.
    10030    2    1    2    0    0  0.00000000000E+00  0.00000000000E+00  0.78251502148E+03  0.91304983516E+03  0.47045748230E+03 0.  0.
        3    1    3    3  502    0 -0.70096169491E+02  0.17595240510E+03  0.66199201449E+03  0.68855367205E+03  0.10100000352E+00 0. -1.
       -3    1    3    3    0  502  0.70096169491E+02 -0.17595240510E+03  0.12052300699E+03  0.22449616312E+03  0.10100000352E+00 0.  1.
</event>
<event>
 5   0  0.1827698E-01  0.5018964E+03  0.7818609E-02  0.1013285E+00
        2   -1    0    0  501    0  0.00000000000E+00  0.00000000000E+00  0.33180286992E+03  0.33180286993E+03  0.25500000920E-02 0.  1.
       -2   -1    0    0    0  501  0.00000000000E+00  0.00000000000E+00 -0.18979643705E+03  0.18979643707E+03  0.25500000920E-02 0. -1.
    10030    2    1    2    0    0  0.00000000000E+00  0.00000000000E+00  0.14200643287E+03  0.52159930699E+03  0.50189641369E+03 0.  0.
        1    1    3    3  502    0 -0.19839961615E+03 -0.96534020861E+02  0.19525322401E+03  0.29462696140E+03  0.50400001928E-02 0.  1.
       -1    1    3    3    0  502  0.19839961615E+03  0.96534020861E+02 -0.53246791145E+02  0.22697234559E+03  0.50400001928E-02 0. -1.
</event>
<event>
 5   0  0.1760649E-01  0.5022873E+03  0.7818609E-02  0.1013184E+00
        2   -1    0    0  501    0  0.00000000000E+00  0.00000000000E+00  0.10483938872E+04  0.10483938872E+04  0.25500000920E-02 0.  1.
       -2   -1    0    0    0  501  0.00000000000E+00  0.00000000000E+00 -0.60161672730E+02  0.60161672784E+02  0.25500000920E-02 0. -1.
    10030    2    1    2    0    0  0.00000000000E+00  0.00000000000E+00  0.98823221445E+03  0.11085555600E+04  0.50228728817E+03 0.  0.
        5    1    3    3  502    0 -0.11255157863E+03  0.13686554941E+03  0.10147205852E+03  0.20425157313E+03  0.46999998093E+01 0. -1.
       -5    1    3    3    0  502  0.11255157863E+03 -0.13686554941E+03  0.88676015593E+03  0.90430398684E+03  0.46999998093E+01 0.  1.
</event>
<event>
 5   0  0.1068522E-01  0.5253069E+03  0.7818609E-02  0.1007377E+00
       -1   -1    0    0    0  501  0.00000000000E+00  0.00000000000E+00  0.10809546707E+03  0.10809546719E+03  0.50400001928E-02 0. -1.
        1   -1    0    0  501    0  0.00000000000E+00  0.00000000000E+00 -0.63820279802E+03  0.63820279804E+03  0.50400001928E-02 0.  1.
    10030    2    1    2    0    0  0.00000000000E+00  0.00000000000E+00 -0.53010733095E+03  0.74629826523E+03  0.52530688018E+03 0.  0.
        2    1    3    3  502    0 -0.50240430520E+02 -0.15074833117E+03  0.32063102221E+02  0.16210244520E+03  0.25500000920E-02 0. -1.
       -2    1    3    3    0  502  0.50240430520E+02  0.15074833117E+03 -0.56217043317E+03  0.58419582003E+03  0.25500000920E-02 0.  1.
</event>
<event>
 5   0  0.1141970E-01  0.4972579E+03  0.7818609E-02  0.1014497E+00
        1   -1    0    0  501    0  0.00000000000E+00  0.00000000000E+00  0.97951995678E+02  0.97951995807E+02  0.50400001928E-02 0. -1.
       -1   -1    0    0    0  501  0.00000000000E+00  0.00000000000E+00 -0.63108822998E+03  0.63108823000E+03  0.50400001928E-02 0.  1.
    10030    2    1    2    0    0  0.00000000000E+00  0.00000000000E+00 -0.53313623430E+03  0.72904022580E+03  0.49725788734E+03 0.  0.
        3    1    3    3  502    0 -0.11929490686E+03  0.19024712694E+03 -0.11009036727E+03  0.25009027026E+03  0.10100000352E+00 0. -1.
       -3    1    3    3    0  502  0.11929490686E+03 -0.19024712694E+03 -0.42304586702E+03  0.47894995555E+03  0.10100000352E+00 0.  1.
</event>
<event>
 5   0  0.1709372E-01  0.4235490E+03  0.7818609E-02  0.1035917E+00
        2   -1    0    0  501    0  0.00000000000E+00  0.00000000000E+00  0.14407452293E+04  0.14407452293E+04  0.25500000920E-02 0.  1.
       -2   -1    0    0    0  501  0.00000000000E+00  0.00000000000E+00 -0.31128633926E+02  0.31128634031E+02  0.25500000920E-02 0. -1.
    10030    2    1    2    0    0  0.00000000000E+00  0.00000000000E+00  0.14096165954E+04  0.14718738633E+04  0.42354896247E+03 0.  0.
        4    1    3    3  502    0 -0.16663375638E+03  0.73209250846E+02  0.32859125716E+03  0.37563310605E+03  0.12699999809E+01 0. -1.
       -4    1    3    3    0  502  0.16663375638E+03 -0.73209250846E+02  0.10810253382E+04  0.10962407573E+04  0.12699999809E+01 0.  1.
</event>
<event>
 5   0  0.1683148E-01  0.4988645E+03  0.7818609E-02  0.1014076E+00
       -2   -1    0    0    0  501  0.00000000000E+00  0.00000000000E+00  0.63956075504E+03  0.63956075504E+03  0.25500000920E-02 0. -1.
        2   -1    0    0  501    0  0.00000000000E+00  0.00000000000E+00 -0.97279950150E+02  0.97279950184E+02  0.25500000920E-02 0.  1.
    10030    2    1    2    0    0  0.00000000000E+00  0.00000000000E+00  0.54228080489E+03  0.73684070523E+03  0.49886446409E+03 0.  0.
        2    1    3    3  502    0  0.16556502041E+03  0.18086660484E+03  0.33869656832E+03  0.41813857766E+03  0.25500000920E-02 0. -1.
       -2    1    3    3    0  502 -0.16556502041E+03 -0.18086660484E+03  0.20358423657E+03  0.31870212757E+03  0.25500000920E-02 0.  1.
</event>
<event>
 5   0  0.1123271E-01  0.5025413E+03  0.7818609E-02  0.1013118E+00
       -1   -1    0    0    0  501  0.00000000000E+00  0.00000000000E+00  0.12738325761E+03  0.12738325771E+03  0.50400001928E-02 0.  1.
        1   -1    0    0  501    0  0.00000000000E+00  0.00000000000E+00 -0.49564546137E+03  0.49564546140E+03  0.50400001928E-02 0. -1.
    10030    2    1    2    0    0  0.00000000000E+00  0.00000000000E+00 -0.36826220377E+03  0.62302871911E+03  0.50254127603E+03 0.  0.
        5    1    3    3  502    0 -0.40775949422E+02 -0.26534500311E+02  0.12143320795E+03  0.13090023587E+03  0.46999998093E+01 0.  1.
       -5    1    3    3    0  502  0.40775949422E+02  0.26534500311E+02 -0.48969541172E+03  0.49212848324E+03  0.46999998093E+01 0. -1.
</event>
<event>
 5   0  0.1068522E-01  0.4850489E+03  0.7818609E-02  0.1017757E+00
       -1   -1    0    0    0  501  0.00000000000E+00  0.00000000000E+00  0.10941335634E+03  0.10941335646E+03  0.50400001928E-02 0.  1.
        1   -1    0    0  501    0  0.00000000000E+00  0.00000000000E+00 -0.53757708508E+03  0.53757708511E+03  0.50400001928E-02 0. -1.
    10030    2    1    2    0    0  0.00000000000E+00  0.00000000000E+00 -0.42816372874E+03  0.64699044156E+03  0.48504891802E+03 0.  0.
        2    1    3    3  502    0 -0.10810128282E+03 -0.56230266651E+02 -0.49378185290E+03  0.50859438504E+03  0.25500000920E-02 0. -1.
       -2    1    3    3    0  502  0.10810128282E+03  0.56230266651E+02  0.65618124165E+02  0.13839605652E+03  0.25500000920E-02 0.  1.
</event>
<event>
 5   0  0.1760649E-01  0.4911265E+03  0.7818609E-02  0.1016121E+00
       -2   -1    0    0    0  501  0.00000000000E+00  0.00000000000E+00  0.44213912923E+02  0.44213912997E+02  0.25500000920E-02 0.  1.
        2   -1    0    0  501    0  0.00000000000E+00  0.00000000000E+00 -0.13638538357E+04  0.13638538357E+04  0.25500000920E-02 0. -1.
    10030    2    1    2    0    0  0.00000000000E+00  0.00000000000E+00 -0.13196399228E+04  0.14080677487E+04  0.49112652050E+03 0.  0.
        5    1    3    3  502    0  0.63801787456E+02 -0.21759777425E+03 -0.38995824724E+03  0.45111970034E+03  0.46999998093E+01 0.  1.
       -5    1    3    3    0  502 -0.63801787456E+02  0.21759777425E+03 -0.92968167551E+03  0.95694804834E+03  0.46999998093E+01 0. -1.
</event>
<event>
 5   0  0.7220250E-02  0.4926987E+03  0.7818609E-02  0.1015702E+00
       -4   -1    0    0    0  501  0.00000000000E+00  0.00000000000E+00  0.84143839500E+02  0.84153423137E+02  0.12699999809E+01 0.  1.
        4   -1    0    0  501    0  0.00000000000E+00  0.00000000000E+00 -0.72119007817E+03  0.72119119640E+03  0.12699999809E+01 0. -1.
    10030    2    1    2    0    0  0.00000000000E+00  0.00000000000E+00 -0.63704623868E+03  0.80534461953E+03  0.49269873757E+03 0.  0.
        3    1    3    3  502    0 -0.21209080563E+03  0.56180966594E+02 -0.50163147700E+03  0.54751525984E+03  0.10100000352E+00 0. -1.
       -3    1    3    3    0  502  0.21209080563E+03 -0.56180966594E+02 -0.13541476168E+03  0.25782935969E+03  0.10100000352E+00 0.  1.
</event>
<event>
 5   0  0.1147245E-01  0.4964963E+03  0.7818609E-02  0.1014698E+00
        1   -1    0    0  501    0  0.00000000000E+00  0.00000000000E+00  0.84203698348E+03  0.84203698349E+03  0.50400001928E-02 0. -1.
       -1   -1    0    0    0  501  0.00000000000E+00  0.00000000000E+00 -0.73188161128E+02  0.73188161302E+02  0.50400001928E-02 0.  1.
    10030    2    1    2    0    0  0.00000000000E+00  0.00000000000E+00  0.76884882235E+03  0.91522514479E+03  0.49649627797E+03 0.  0.
        1    1    3    3  502    0 -0.12083184902E+03  0.94079618583E+01  0.78379455258E+03  0.79310954235E+03  0.50400001928E-02 0. -1.
       -1    1    3    3    0  502  0.12083184902E+03 -0.94079618583E+01 -0.14945730232E+02  0.12211560245E+03  0.50400001928E-02 0.  1.
</event>
<event>
 5   0  0.1074281E-01  0.5103908E+03  0.7818609E-02  0.1011102E+00
        1   -1    0    0  501    0  0.00000000000E+00  0.00000000000E+00  0.16552453988E+03  0.16552453996E+03  0.50400001928E-02 0. -1.
       -1   -1    0    0    0  501  0.00000000000E+00  0.00000000000E+00 -0.39344426651E+03  0.39344426655E+03  0.50400001928E-02 0.  1.
    10030    2    1    2    0    0  0.00000000000E+00  0.00000000000E+00 -0.22791972663E+03  0.55896880650E+03  0.51039075702E+03 0.  0.
        4    1    3    3  502    0 -0.13652121752E+03  0.29924924643E+02 -0.34779905564E+03  0.37483241583E+03  0.12699999809E+01 0.  1.
       -4    1    3    3    0  502  0.13652121752E+03 -0.29924924643E+02  0.11987932901E+03  0.18413639068E+03  0.12699999809E+01 0. -1.
</event>
<event>
 5   0  0.1827698E-01  0.4940254E+03  0.7818609E-02  0.1015350E+00
        2   -1    0    0  501    0  0.00000000000E+00  0.00000000000E+00  0.60892188454E+03  0.60892188454E+03  0.25500000920E-02 0.  1.
       -2   -1    0    0    0  501  0.00000000000E+00  0.00000000000E+00 -0.10020212567E+03  0.10020212570E+03  0.25500000920E-02 0. -1.
    10030    2    1    2    0    0  0.00000000000E+00  0.00000000000E+00  0.50871975887E+03  0.70912401025E+03  0.49402537268E+03 0.  0.
        1    1    3    3  502    0 -0.18974122276E+03  0.12020678834E+03  0.10682852529E+03  0.24872421960E+03  0.50400001928E-02 0. -1.
       -1    1    3    3    0  502  0.18974122276E+03 -0.12020678834E+03  0.40189123358E+03  0.46039979065E+03  0.50400001928E-02 0.  1.
</event>
<event>
 5   0  0.1123271E-01  0.5002558E+03  0.7818609E-02  0.1013712E+00
       -1   -1    0    0    0  501  0.00000000000E+00  0.00000000000E+00  0.72055240546E+02  0.72055240722E+02  0.50400001928E-02 0. -1.
        1   -1    0    0  501    0  0.00000000000E+00  0.00000000000E+00 -0.86827779117E+03  0.86827779118E+03  0.50400001928E-02 0.  1.
    10030    2    1    2    0    0  0.00000000000E+00  0.00000000000E+00 -0.79622255062E+03  0.94033303191E+03  0.50025579534E+03 0.  0.
        5    1    3    3  502    0 -0.26444300271E+00 -0.21137230722E+02  0.70289881443E+02  0.73550050198E+02  0.46999998093E+01 0. -1.
       -5    1    3    3    0  502  0.26444300271E+00  0.21137230722E+02 -0.86651243207E+03  0.86678298171E+03  0.46999998093E+01 0.  1.
</event>
<event>
 5   0  0.1782124E-01  0.5047884E+03  0.7818609E-02  0.1012537E+00
       -2   -1    0    0    0  501  0.00000000000E+00  0.00000000000E+00  0.10570187117E+04  0.10570187117E+04  0.25500000920E-02 0.  1.
        2   -1    0    0  501    0  0.00000000000E+00  0.00000000000E+00 -0.60266511779E+02  0.60266511833E+02  0.25500000920E-02 0. -1.
    10030    2    1    2    0    0  0.00000000000E+00  0.00000000000E+00  0.99675219990E+03  0.11172852235E+04  0.50478839396E+03 0.  0.
        3    1    3    3  502    0 -0.43460864477E+02  0.17830194319E+03  0.88188666350E+03  0.90077995490E+03  0.10100000352E+00 0.  1.
       -3    1    3    3    0  502  0.43460864477E+02 -0.17830194319E+03  0.11486553640E+03  0.21650526862E+03  0.10100000352E+00 0. -1.
</event>
<event>
 5   0  0.1760649E-01  0.5078258E+03  0.7818609E-02  0.1011756E+00
        2   -1    0    0  501    0  0.00000000000E+00  0.00000000000E+00  0.82761858748E+03  0.82761858748E+03  0.25500000920E-02 0.  1.
       -2   -1    0    0    0  501  0.00000000000E+00  0.00000000000E+00 -0.77900321466E+02  0.77900321508E+02  0.25500000920E-02 0. -1.
    10030    2    1    2    0    0  0.00000000000E+00  0.00000000000E+00  0.74971826601E+03  0.90551890899E+03  0.50782577342E+03 0.  0.
        5    1    3    3  502    0 -0.10219811150E+03  0.22590648389E+03  0.27765863223E+03  0.37228295624E+03  0.46999998093E+01 0. -1.
       -5    1    3    3    0  502  0.10219811150E+03 -0.22590648389E+03  0.47205963379E+03  0.53323595275E+03  0.46999998093E+01 0.  1.
</event>
<event>
 5   0  0.1709372E-01  0.4950397E+03  0.7818609E-02  0.1015082E+00
        2   -1    0    0  501    0  0.00000000000E+00  0.00000000000E+00  0.38151560940E+03  0.38151560941E+03  0.25500000920E-02 0. -1.
       -2   -1    0    0    0  501  0.00000000000E+00  0.00000000000E+00 -0.16058600392E+03  0.16058600394E+03  0.25500000920E-02 0.  1.
    10030    2    1    2    0    0  0.00000000000E+00  0.00000000000E+00  0.22092960548E+03  0.54210161335E+03  0.49503966368E+03 0.  0.
        4    1    3    3  502    0  0.12820271913E+03 -0.23958269177E+02 -0.11990179710E+03  0.17716655921E+03  0.12699999809E+01 0.  1.
       -4    1    3    3    0  502 -0.12820271913E+03  0.23958269177E+02  0.34083140258E+03  0.36493505414E+03  0.12699999809E+01 0. -1.
</event>
<event>
 5   0  0.1827698E-01  0.5082270E+03  0.7818609E-02  0.1011654E+00
       -2   -1    0    0    0  501  0.00000000000E+00  0.00000000000E+00  0.19436346584E+03  0.19436346586E+03  0.25500000920E-02 0.  1.
        2   -1    0    0  501    0  0.00000000000E+00  0.00000000000E+00 -0.33223154549E+03  0.33223154550E+03  0.25500000920E-02 0. -1.
    10030    2    1    2    0    0  0.00000000000E+00  0.00000000000E+00 -0.13786807964E+03  0.52659501136E+03  0.50822701483E+03 0.  0.
        1    1    3    3  502    0  0.16052254523E+03 -0.41208077400E+02  0.13066260881E+03  0.21104101624E+03  0.50400001928E-02 0.  1.
       -1    1    3    3    0  502 -0.16052254523E+03  0.41208077400E+02 -0.26853068845E+03  0.31555399512E+03  0.50400001928E-02 0. -1.
</event>
<event>
 5   0  0.1068522E-01  0.4876348E+03  0.7818609E-02  0.1017058E+00
        1   -1    0    0  501    0  0.00000000000E+00  0.00000000000E+00  0.12811248546E+04  0.12811248546E+04  0.50400001928E-02 0.  1.
       -1   -1    0    0    0  501  0.00000000000E+00  0.00000000000E+00 -0.46402137057E+02  0.46402137330E+02  0.50400001928E-02 0. -1.
    10030    2    1    2    0    0  0.00000000000E+00  0.00000000000E+00  0.12347227176E+04  0.13275269920E+04  0.48763482763E+03 0.  0.
        2    1    3    3  502    0 -0.13523349624E+03 -0.19058428060E+02  0.67497272827E+02  0.15233910867E+03  0.25500000920E-02 0. -1.
       -2    1    3    3    0  502  0.13523349624E+03  0.19058428060E+02  0.11672254447E+04  0.11751878833E+04  0.25500000920E-02 0.  1.
</event>
<event>
 5   0  0.1141970E-01  0.4444049E+03  0.7818609E-02  0.1029404E+00
       -1   -1    0    0    0  501  0.00000000000E+00  0.00000000000E+00  0.67297657801E+03  0.67297657803E+03  0.50400001928E-02 0. -1.
        1   -1    0    0  501    0  0.00000000000E+00  0.00000000000E+00 -0.73366500777E+02  0.73366500950E+02  0.50400001928E-02 0.  1.
    10030    2    1    2    0    0  0.00000000000E+00  0.00000000000E+00  0.59961007723E+03  0.74634307898E+03  0.44440493564E+03 0.  0.
        3    1    3    3  502    0 -0.21683281943E+03 -0.11669748666E+02  0.37895678408E+03  0.43676184473E+03  0.10100000352E+00 0.  1.
       -3    1    3    3    0  502  0.21683281943E+03  0.11669748666E+02  0.22065329315E+03  0.30958123425E+03  0.10100000352E+00 0. -1.
</event>
<event>
 5   0  0.7220250E-02  0.5020933E+03  0.7818609E-02  0.1013234E+00
        3   -1    0    0  501    0  0.00000000000E+00  0.00000000000E+00  0.35853072447E+03  0.35853073869E+03  0.10100000352E+00 0.  1.
       -3   -1    0    0    0  501  0.00000000000E+00  0.00000000000E+00 -0.17578522993E+03  0.17578525895E+03  0.10100000352E+00 0. -1.
    10030    2    1    2    0    0  0.00000000000E+00  0.00000000000E+00  0.18274549453E+03  0.53431599764E+03  0.50209328771E+03 0.  0.
        4    1    3    3  502    0 -0.22974815434E+03 -0.39065184721E+02 -0.79583407667E+01  0.23318501488E+03  0.12699999809E+01 0. -1.
       -4    1    3    3    0  502  0.22974815434E+03  0.39065184721E+02  0.19070383530E+03  0.30113098276E+03  0.12699999809E+01 0.  1.
</event>
<event>
 5   0  0.1782124E-01  0.4617834E+03  0.7818609E-02  0.1024265E+00
        2   -1    0    0  501    0  0.00000000000E+00  0.00000000000E+00  0.64268808750E+03  0.64268808751E+03  0.25500000920E-02 0.  1.
       -2   -1    0    0    0  501  0.00000000000E+00  0.00000000000E+00 -0.82949983862E+02  0.82949983901E+02  0.25500000920E-02 0. -1.
    10030    2    1    2    0    0  0.00000000000E+00  0.00000000000E+00  0.55973810364E+03  0.72563807141E+03  0.46178335398E+03 0.  0.
        3    1    3    3  502    0  0.14657534681E+02  0.13954118550E+03 -0.82744753274E+01  0.14055270512E+03  0.10100000352E+00 0. -1.
       -3    1    3    3    0  502 -0.14657534681E+02 -0.13954118550E+03  0.56801257897E+03  0.58508536628E+03  0.10100000352E+00 0.  1.
</event>
<event>
 5   0  0.1782124E-01  0.4856769E+03  0.7818609E-02  0.1017587E+00
        2   -1    0    0  501    0  0.00000000000E+00  0.00000000000E+00  0.75681356581E+03  0.75681356581E+03  0.25500000920E-02 0. -1.
       -2   -1    0    0    0  501  0.00000000000E+00  0.00000000000E+00 -0.77919463107E+02  0.77919463149E+02  0.25500000920E-02 0.  1.
    10030    2    1    2    0    0  0.00000000000E+00  0.00000000000E+00  0.67889410270E+03  0.83473302896E+03  0.48567687505E+03 0.  0.
        3    1    3    3  502    0  0.23341198616E+03  0.46882606338E+02  0.42171810720E+03  0.48427812898E+03  0.10100000352E+00 0. -1.
       -3    1    3    3    0  502 -0.23341198616E+03 -0.46882606338E+02  0.25717599550E+03  0.35045489999E+03  0.10100000352E+00 0.  1.
</event>
<event>
 5   0  0.1068522E-01  0.4971240E+03  0.7818609E-02  0.1014532E+00
        1   -1    0    0  501    0  0.00000000000E+00  0.00000000000E+00  0.34731533377E+03  0.34731533380E+03  0.50400001928E-02 0. -1.
       -1   -1    0    0    0  501  0.00000000000E+00  0.00000000000E+00 -0.17788754117E+03  0.17788754124E+03  0.50400001928E-02 0.  1.
    10030    2    1    2    0    0  0.00000000000E+00  0.00000000000E+00  0.16942779260E+03  0.52520287505E+03  0.49712401174E+03 0.  0.
        2    1    3    3  502    0 -0.22358172862E+03  0.39336807468E+02 -0.22230624485E+02  0.22810167572E+03  0.25500000920E-02 0.  1.
       -2    1    3    3    0  502  0.22358172862E+03 -0.39336807468E+02  0.19165841708E+03  0.29710119933E+03  0.25500000920E-02 0. -1.
</event>
<event>
 5   0  0.1147245E-01  0.5209345E+03  0.7818609E-02  0.1008455E+00
       -1   -1    0    0    0  501  0.00000000000E+00  0.00000000000E+00  0.29253311328E+03  0.29253311332E+03  0.50400001928E-02 0. -1.
        1   -1    0    0  501    0  0.00000000000E+00  0.00000000000E+00 -0.23191624202E+03  0.23191624208E+03  0.50400001928E-02 0.  1.
    10030    2    1    2    0    0  0.00000000000E+00  0.00000000000E+00  0.60616871259E+02  0.52444935540E+03  0.52093446929E+03 0.  0.
        1    1    3    3  502    0  0.20499438289E+03 -0.41760977761E+02 -0.12590456485E+03  0.24416927685E+03  0.50400001928E-02 0.  1.
       -1    1    3    3    0  502 -0.20499438289E+03  0.41760977761E+02  0.18652143611E+03  0.28028007855E+03  0.50400001928E-02 0. -1.
</event>
<event>
 5   0  0.1760649E-01  0.5076942E+03  0.7818609E-02  0.1011790E+00
       -2   -1    0    0    0  501  0.00000000000E+00  0.00000000000E+00  0.82389079244E+02  0.82389079284E+02  0.25500000920E-02 0.  1.
        2   -1    0    0  501    0  0.00000000000E+00  0.00000000000E+00 -0.78212236149E+03  0.78212236150E+03  0.25500000920E-02 0. -1.
    10030    2    1    2    0    0  0.00000000000E+00  0.00000000000E+00 -0.69973328225E+03  0.86451144078E+03  0.50769416478E+03 0.  0.
        5    1    3    3  502    0  0.26853550165E+02  0.14057925691E+03  0.70461221921E+01  0.14337147020E+03  0.46999998093E+01 0.  1.
       -5    1    3    3    0  502 -0.26853550165E+02 -0.14057925691E+03 -0.70677940444E+03  0.72113997058E+03  0.46999998093E+01 0. -1.
</event>
<event>
 5   0  0.7220250E-02  0.5051029E+03  0.7818609E-02  0.1012455E+00
       -3   -1    0    0    0  501  0.00000000000E+00  0.00000000000E+00  0.25993369923E+03  0.25993371885E+03  0.10100000352E+00 0. -1.
        3   -1    0    0  501    0  0.00000000000E+00  0.00000000000E+00 -0.24537884384E+03  0.24537886462E+03  0.10100000352E+00 0.  1.
    10030    2    1    2    0    0  0.00000000000E+00  0.00000000000E+00  0.14554855390E+02  0.50531258347E+03  0.50510292337E+03 0.  0.
        3    1    3    3  502    0 -0.43048290013E+02  0.49637587428E+02  0.25123349253E+03  0.25968312099E+03  0.10100000352E+00 0. -1.
       -3    1    3    3    0  502  0.43048290013E+02 -0.49637587428E+02 -0.23667863714E+03  0.24562946248E+03  0.10100000352E+00 0.  1.
</event>
<event>
 5   0  0.1074281E-01  0.5046275E+03  0.7818609E-02  0.1012578E+00
        1   -1    0    0  501    0  0.00000000000E+00  0.00000000000E+00  0.65893301427E+02  0.65893301620E+02  0.50400001928E-02 0. -1.
       -1   -1    0    0    0  501  0.00000000000E+00  0.00000000000E+00 -0.96614121750E+03  0.96614121751E+03  0.50400001928E-02 0.  1.
    10030    2    1    2    0    0  0.00000000000E+00  0.00000000000E+00 -0.90024791607E+03  0.10320345191E+04  0.50462752431E+03 0.  0.
        4    1    3    3  502    0  0.43175323429E+02 -0.65993782265E+02 -0.94028133893E+03  0.94358354007E+03  0.12699999809E+01 0.  1.
       -4    1    3    3    0  502 -0.43175323429E+02  0.65993782265E+02  0.40033422860E+02  0.88450979060E+02  0.12699999809E+01 0. -1.
</event>
<event>
 5   0  0.1074281E-01  0.5126482E+03  0.7818609E-02  0.1010529E+00
       -1   -1    0    0    0  501  0.00000000000E+00  0.00000000000E+00  0.90261428633E+02  0.90261428774E+02  0.50400001928E-02 0. -1.
        1   -1    0    0  501    0  0.00000000000E+00  0.00000000000E+00 -0.72790834630E+03  0.72790834632E+03  0.50400001928E-02 0.  1.
    10030    2    1    2    0    0  0.00000000000E+00  0.00000000000E+00 -0.63764691767E+03  0.81816977509E+03  0.51264821200E+03 0.  0.
        4    1    3    3  502    0  0.20488067624E+03 -0.13533808125E+02 -0.56369487286E+03  0.59992731064E+03  0.12699999809E+01 0.  1.
       -4    1    3    3    0  502 -0.20488067624E+03  0.13533808125E+02 -0.73952044812E+02  0.21824246446E+03  0.12699999809E+01 0. -1.
</event>
<event>
 5   0  0.1709372E-01  0.5007782E+03  0.7818609E-02  0.1013576E+00
        2   -1    0    0  501    0  0.00000000000E+00  0.00000000000E+00  0.16369781306E+04  0.16369781306E+04  0.25500000920E-02 0.  1.
       -2   -1    0    0    0  501  0.00000000000E+00  0.00000000000E+00 -0.38299045761E+02  0.38299045846E+02  0.25500000920E-02 0. -1.
    10030    2    1    2    0    0  0.00000000000E+00  0.00000000000E+00  0.15986790848E+04  0.16752771764E+04  0.50077819604E+03 0.  0.
        4    1    3    3  502    0  0.39598813657E+02 -0.26588468667E+02 -0.22949876194E+02  0.52946410893E+02  0.12699999809E+01 0. -1.
       -4    1    3    3    0  502 -0.39598813657E+02  0.26588468667E+02  0.16216289610E+04  0.16223307656E+04  0.12699999809E+01 0.  1.
</event>
<event>
 5   0  0.1147245E-01  0.5065980E+03  0.7818609E-02  0.1012071E+00
        1   -1    0    0  501    0  0.00000000000E+00  0.00000000000E+00  0.29883573801E+03  0.29883573805E+03  0.50400001928E-02 0.  1.
       -1   -1    0    0    0  501  0.00000000000E+00  0.00000000000E+00 -0.21470115344E+03  0.21470115350E+03  0.50400001928E-02 0. -1.
    10030    2    1    2    0    0  0.00000000000E+00  0.00000000000E+00  0.84134584568E+02  0.51353689155E+03  0.50659797736E+03 0.  0.
        1    1    3    3  502    0 -0.18932014167E+03  0.47866362563E+02 -0.12147152817E+03  0.22997529625E+03  0.50400001928E-02 0. -1.
       -1    1    3    3    0  502  0.18932014167E+03 -0.47866362563E+02  0.20560611273E+03  0.28356159529E+03  0.50400001928E-02 0.  1.
</event>
<event>
 5   0  0.1147245E-01  0.5005710E+03  0.7818609E-02  0.1013630E+00
        1   -1    0    0  501    0  0.00000000000E+00  0.00000000000E+00  0.44148608769E+03  0.44148608772E+03  0.50400001928E-02 0.  1.
       -1   -1    0    0    0  501  0.00000000000E+00  0.00000000000E+00 -0.14189085274E+03  0.14189085283E+03  0.50400001928E-02 0. -1.
    10030    2    1    2    0    0  0.00000000000E+00  0.00000000000E+00  0.29959523495E+03  0.58337694054E+03  0.50057102388E+03 0.  0.
        1    1    3    3  502    0  0.18505386694E+03  0.16752452062E+03  0.12851663821E+03  0.28075955015E+03  0.50400001928E-02 0. -1.
       -1    1    3    3    0  502 -0.18505386694E+03 -0.16752452062E+03  0.17107859674E+03  0.30261739039E+03  0.50400001928E-02 0.  1.
</event>
<event>
 5   0  0.1147245E-01  0.5166279E+03  0.7818609E-02  0.1009528E+00
        1   -1    0    0  501    0  0.00000000000E+00  0.00000000000E+00  0.86044075443E+02  0.86044075590E+02  0.50400001928E-02 0.  1.
       -1   -1    0    0    0  501  0.00000000000E+00  0.00000000000E+00 -0.77548738325E+03  0.77548738327E+03  0.50400001928E-02 0. -1.
    10030    2    1    2    0    0  0.00000000000E+00  0.00000000000E+00 -0.68944330781E+03  0.86153145886E+03  0.51662789309E+03 0.  0.
        1    1    3    3  502    0 -0.29652015007E+02  0.16521557943E+03 -0.67214468798E+03  0.69278706057E+03  0.50400001928E-02 0. -1.
       -1    1    3    3    0  502  0.29652015007E+02 -0.16521557943E+03 -0.17298619829E+02  0.16874439829E+03  0.50400001928E-02 0.  1.
</event>
<event>
 5   0  0.1123271E-01  0.4750083E+03  0.7818609E-02  0.1020516E+00
        1   -1    0    0  501    0  0.00000000000E+00  0.00000000000E+00  0.97713978021E+02  0.97713978151E+02  0.50400001928E-02 0. -1.
       -1   -1    0    0    0  501  0.00000000000E+00  0.00000000000E+00 -0.57727889025E+03  0.57727889027E+03  0.50400001928E-02 0.  1.
    10030    2    1    2    0    0  0.00000000000E+00  0.00000000000E+00 -0.47956491223E+03  0.67499286842E+03  0.47500828138E+03 0.  0.
        5    1    3    3  502    0  0.19848660066E+03 -0.13016206308E+03 -0.24952790479E+03  0.34442032253E+03  0.46999998093E+01 0.  1.
       -5    1    3    3    0  502 -0.19848660066E+03  0.13016206308E+03 -0.23003700744E+03  0.33057254589E+03  0.46999998093E+01 0. -1.
</event>
<event>
 5   0  0.1141970E-01  0.4986487E+03  0.7818609E-02  0.1014132E+00
        1   -1    0    0  501    0  0.00000000000E+00  0.00000000000E+00  0.76756781671E+03  0.76756781673E+03  0.50400001928E-02 0. -1.
       -1   -1    0    0    0  501  0.00000000000E+00  0.00000000000E+00 -0.80986513529E+02  0.80986513686E+02  0.50400001928E-02 0.  1.
    10030    2    1    2    0    0  0.00000000000E+00  0.00000000000E+00  0.68658130318E+03  0.84855433041E+03  0.49864873988E+03 0.  0.
        3    1    3    3  502    0 -0.12536719534E+03  0.21096989077E+03  0.26838839774E+03  0.36367233978E+03  0.10100000352E+00 0. -1.
       -3    1    3    3    0  502  0.12536719534E+03 -0.21096989077E+03  0.41819290544E+03  0.48488199064E+03  0.10100000352E+00 0.  1.
</event>
<event>
 5   0  0.1068522E-01  0.4979111E+03  0.7818609E-02  0.1014326E+00
       -1   -1    0    0    0  501  0.00000000000E+00  0.00000000000E+00  0.58762354446E+03  0.58762354448E+03  0.50400001928E-02 0.  1.
        1   -1    0    0  501    0  0.00000000000E+00  0.00000000000E+00 -0.10547374306E+03  0.10547374318E+03  0.50400001928E-02 0. -1.
    10030    2    1    2    0    0  0.00000000000E+00  0.00000000000E+00  0.48214980140E+03  0.69309728766E+03  0.49791105549E+03 0.  0.
        2    1    3    3  502    0 -0.62647628053E+01 -0.18579628661E+03  0.10574870243E+02  0.18620240401E+03  0.25500000920E-02 0. -1.
       -2    1    3    3    0  502  0.62647628053E+01  0.18579628661E+03  0.47157493115E+03  0.50689488365E+03  0.25500000920E-02 0.  1.
</event>
<event>
 5   0  0.1068522E-01  0.4965296E+03  0.7818609E-02  0.1014689E+00
        1   -1    0    0  501    0  0.00000000000E+00  0.00000000000E+00  0.34803252035E+03  0.34803252039E+03  0.50400001928E-02 0. -1.
       -1   -1    0    0    0  501  0.00000000000E+00  0.00000000000E+00 -0.17709668866E+03  0.17709668873E+03  0.50400001928E-02 0.  1.
    10030    2    1    2    0    0  0.00000000000E+00  0.00000000000E+00  0.17093583169E+03  0.52512920912E+03  0.49652958392E+03 0.  0.
        2    1    3    3  502    0  0.15002191352E+03  0.18827807468E+03  0.21309047301E+02  0.24168012629E+03  0.25500000920E-02 0.  1.
       -2    1    3    3    0  502 -0.15002191352E+03 -0.18827807468E+03  0.14962678439E+03  0.28344908282E+03  0.25500000920E-02 0. -1.
</event>
<event>
 5   0  0.7220250E-02  0.4987747E+03  0.7818609E-02  0.1014099E+00
        4   -1    0    0  501    0  0.00000000000E+00  0.00000000000E+00  0.42651532135E+02  0.42670435824E+02  0.12699999809E+01 0. -1.
       -4   -1    0    0    0  501  0.00000000000E+00  0.00000000000E+00 -0.14578481512E+04  0.14578487044E+04  0.12699999809E+01 0.  1.
    10030    2    1    2    0    0  0.00000000000E+00  0.00000000000E+00 -0.14151966191E+04  0.15005191402E+04  0.49877471818E+03 0.  0.
        5    1    3    3  502    0 -0.10375978350E+02 -0.11404070464E+03 -0.13739393292E+04  0.13787111060E+04  0.46999998093E+01 0.  1.
       -5    1    3    3    0  502  0.10375978350E+02  0.11404070464E+03 -0.41257289803E+02  0.12180803423E+03  0.46999998093E+01 0. -1.
</event>
<event>
 5   0  0.1760649E-01  0.4973620E+03  0.7818609E-02  0.1014470E+00
        2   -1    0    0  501    0  0.00000000000E+00  0.00000000000E+00  0.18545492459E+04  0.18545492459E+04  0.25500000920E-02 0.  1.
       -2   -1    0    0    0  501  0.00000000000E+00  0.00000000000E+00 -0.33346238909E+02  0.33346239007E+02  0.25500000920E-02 0. -1.
    10030    2    1    2    0    0  0.00000000000E+00  0.00000000000E+00  0.18212030069E+04  0.18878954849E+04  0.49736201027E+03 0.  0.
        5    1    3    3  502    0  0.57769585198E+02  0.40260624542E+02  0.18157421290E+04  0.18171130432E+04  0.46999998093E+01 0.  1.
       -5    1    3    3    0  502 -0.57769585198E+02 -0.40260624542E+02  0.54608779874E+01  0.70782441672E+02  0.46999998093E+01 0. -1.
</event>
<event>
 5   0  0.1147245E-01  0.4979726E+03  0.7818609E-02  0.1014309E+00
       -1   -1    0    0    0  501  0.00000000000E+00  0.00000000000E+00  0.17012726846E+03  0.17012726854E+03  0.50400001928E-02 0.  1.
        1   -1    0    0  501    0  0.00000000000E+00  0.00000000000E+00 -0.36439879072E+03  0.36439879076E+03  0.50400001928E-02 0. -1.
    10030    2    1    2    0    0  0.00000000000E+00  0.00000000000E+00 -0.19427152226E+03  0.53452605930E+03  0.49797257325E+03 0.  0.
        1    1    3    3  502    0  0.10798899246E+03 -0.21351805246E+03 -0.17105734012E+03  0.29412955454E+03  0.50400001928E-02 0. -1.
       -1    1    3    3    0  502 -0.10798899246E+03  0.21351805246E+03 -0.23214182135E+02  0.24039650475E+03  0.50400001928E-02 0.  1.
</event>
<event>
 5   0  0.1123271E-01  0.4997005E+03  0.7818609E-02  0.1013857E+00
        1   -1    0    0  501    0  0.00000000000E+00  0.00000000000E+00  0.32016237152E+04  0.32016237152E+04  0.50400001928E-02 0.  1.
       -1   -1    0    0    0  501  0.00000000000E+00  0.00000000000E+00 -0.19497968329E+02  0.19497968981E+02  0.50400001928E-02 0. -1.
    10030    2    1    2    0    0  0.00000000000E+00  0.00000000000E+00  0.31821257468E+04  0.32211216841E+04  0.49970054575E+03 0.  0.
        5    1    3    3  502    0  0.83866450176E+02 -0.23394170113E+03  0.14278901096E+04  0.14493635003E+04  0.46999998093E+01 0. -1.
       -5    1    3    3    0  502 -0.83866450176E+02  0.23394170113E+03  0.17542356373E+04  0.17717581839E+04  0.46999998093E+01 0.  1.
</event>
<event>
 5   0  0.1782124E-01  0.4978537E+03  0.7818609E-02  0.1014341E+00
        2   -1    0    0  501    0  0.00000000000E+00  0.00000000000E+00  0.14334171378E+03  0.14334171380E+03  0.25500000920E-02 0. -1.
       -2   -1    0    0    0  501  0.00000000000E+00  0.00000000000E+00 -0.43228575735E+03  0.43228575735E+03  0.25500000920E-02 0.  1.
    10030    2    1    2    0    0  0.00000000000E+00  0.00000000000E+00 -0.28894404356E+03  0.57562747116E+03  0.49785371872E+03 0.  0.
        3    1    3    3  502    0 -0.10993642679E+03 -0.23771704333E+02 -0.40122913892E+03  0.41669646505E+03  0.10100000352E+00 0.  1.
       -3    1    3    3    0  502  0.10993642679E+03  0.23771704333E+02  0.11228509536E+03  0.15893100611E+03  0.10100000352E+00 0. -1.
</event>
<event>
 5   0  0.1074281E-01  0.4494469E+03  0.7818609E-02  0.1027887E+00
        1   -1    0    0  501    0  0.00000000000E+00  0.00000000000E+00  0.21316186756E+03  0.21316186762E+03  0.50400001928E-02 0. -1.
       -1   -1    0    0    0  501  0.00000000000E+00  0.00000000000E+00 -0.23691216581E+03  0.23691216587E+03  0.50400001928E-02 0.  1.
    10030    2    1    2    0    0  0.00000000000E+00  0.00000000000E+00 -0.23750298253E+02  0.45007403349E+03  0.44944694788E+03 0.  0.
        4    1    3    3  502    0 -0.46170888371E+02  0.14658393120E+03 -0.17605641648E+03  0.23370082265E+03  0.12699999809E+01 0.  1.
       -4    1    3    3    0  502  0.46170888371E+02 -0.14658393120E+03  0.15230611823E+03  0.21637321084E+03  0.12699999809E+01 0. -1.
</event>
<event>
 5   0  0.1709372E-01  0.5001402E+03  0.7818609E-02  0.1013742E+00
       -2   -1    0    0    0  501  0.00000000000E+00  0.00000000000E+00  0.10799303144E+03  0.10799303147E+03  0.25500000920E-02 0.  1.
        2   -1    0    0  501    0  0.00000000000E+00  0.00000000000E+00 -0.57906562425E+03  0.57906562425E+03  0.25500000920E-02 0. -1.
    10030    2    1    2    0    0  0.00000000000E+00  0.00000000000E+00 -0.47107259281E+03  0.68705865573E+03  0.50014018906E+03 0.  0.
        4    1    3    3  502    0  0.18671469405E+03 -0.15299322800E+03 -0.32524147356E+03  0.40503448472E+03  0.12699999809E+01 0. -1.
       -4    1    3    3    0  502 -0.18671469405E+03  0.15299322800E+03 -0.14583111925E+03  0.28202417101E+03  0.12699999809E+01 0.  1.
</event>
<event>
 5   0  0.1827698E-01  0.4908306E+03  0.7818609E-02  0.1016200E+00
       -2   -1    0    0    0  501  0.00000000000E+00  0.00000000000E+00  0.23178351422E+03  0.23178351424E+03  0.25500000920E-02 0.  1.
        2   -1    0    0  501    0  0.00000000000E+00  0.00000000000E+00 -0.25984883798E+03  0.25984883799E+03  0.25500000920E-02 0. -1.
    10030    2    1    2    0    0  0.00000000000E+00  0.00000000000E+00 -0.28065323757E+02  0.49163235223E+03  0.49083063002E+03 0.  0.
        1    1    3    3  502    0 -0.56636380578E+02 -0.29826380995E+02 -0.25134027627E+03  0.25936311825E+03  0.50400001928E-02 0. -1.
       -1    1    3    3    0  502  0.56636380578E+02  0.29826380995E+02  0.22327495251E+03  0.23226923398E+03  0.50400001928E-02 0.  1.
</event>
<event>
 5   0  0.1147245E-01  0.5019122E+03  0.7818609E-02  0.1013281E+00
       -1   -1    0    0    0  501  0.00000000000E+00  0.00000000000E+00  0.43937900315E+03  0.43937900318E+03  0.50400001928E-02 0.  1.
        1   -1    0    0  501    0  0.00000000000E+00  0.00000000000E+00 -0.14333632609E+03  0.14333632618E+03  0.50400001928E-02 0. -1.
    10030    2    1    2    0    0  0.00000000000E+00  0.00000000000E+00  0.29604267706E+03  0.58271532936E+03  0.50191223180E+03 0.  0.
        1    1    3    3  502    0  0.33554579090E+01 -0.19746278989E+03 -0.31749181099E+02  0.20002705571E+03  0.50400001928E-02 0. -1.
       -1    1    3    3    0  502 -0.33554579090E+01  0.19746278989E+03  0.32779185816E+03  0.38268827365E+03  0.50400001928E-02 0.  1.
</event>
<event>
 5   0  0.1782124E-01  0.4961289E+03  0.7818609E-02  0.1014794E+00
        2   -1    0    0  501    0  0.00000000000E+00  0.00000000000E+00  0.82834717328E+03  0.82834717329E+03  0.25500000920E-02 0. -1.
       -2   -1    0    0    0  501  0.00000000000E+00  0.00000000000E+00 -0.74287644239E+02  0.74287644283E+02  0.25500000920E-02 0.  1.
    10030    2    1    2    0    0  0.00000000000E+00  0.00000000000E+00  0.75405952904E+03  0.90263481757E+03  0.49612885478E+03 0.  0.
        3    1    3    3  502    0 -0.13722315818E+03 -0.40292612417E+02  0.82689549610E+01  0.14325528114E+03  0.10100000352E+00 0.  1.
       -3    1    3    3    0  502  0.13722315818E+03  0.40292612417E+02  0.74579057408E+03  0.75937953643E+03  0.10100000352E+00 0. -1.
</event>
<event>
 5   0  0.1074281E-01  0.4975501E+03  0.7818609E-02  0.1014420E+00
       -1   -1    0    0    0  501  0.00000000000E+00  0.00000000000E+00  0.96164011791E+02  0.96164011923E+02  0.50400001928E-02 0. -1.
        1   -1    0    0  501    0  0.00000000000E+00  0.00000000000E+00 -0.64357783717E+03  0.64357783719E+03  0.50400001928E-02 0.  1.
    10030    2    1    2    0    0  0.00000000000E+00  0.00000000000E+00 -0.54741382538E+03  0.73974184912E+03  0.49755010513E+03 0.  0.
        4    1    3    3  502    0  0.93360746383E+02  0.71470463719E+02 -0.59965581019E+03  0.61107524884E+03  0.12699999809E+01 0. -1.
       -4    1    3    3    0  502 -0.93360746383E+02 -0.71470463719E+02  0.52241984810E+02  0.12866660028E+03  0.12699999809E+01 0.  1.
</event>
<event>
 5   0  0.1683148E-01  0.5487898E+03  0.7818609E-02  0.1001774E+00
        2   -1    0    0  501    0  0.00000000000E+00  0.00000000000E+00  0.50919723187E+03  0.50919723188E+03  0.25500000920E-02 0.  1.
       -2   -1    0    0    0  501  0.00000000000E+00  0.00000000000E+00 -0.14786522844E+03  0.14786522847E+03  0.25500000920E-02 0. -1.
    10030    2    1    2    0    0  0.00000000000E+00  0.00000000000E+00  0.36133200343E+03  0.65706246034E+03  0.54878981413E+03 0.  0.
        2    1    3    3  502    0  0.20060177602E+03 -0.18225591928E+03  0.12938783090E+03  0.30033232168E+03  0.25500000920E-02 0. -1.
       -2    1    3    3    0  502 -0.20060177602E+03  0.18225591928E+03  0.23194417253E+03  0.35673013866E+03  0.25500000920E-02 0.  1.
</event>
<event>
 5   0  0.1074281E-01  0.4985045E+03  0.7818609E-02  0.1014170E+00
        1   -1    0    0  501    0  0.00000000000E+00  0.00000000000E+00  0.93675593275E+03  0.93675593276E+03  0.50400001928E-02 0. -1.
       -1   -1    0    0    0  501  0.00000000000E+00  0.00000000000E+00 -0.66321106379E+02  0.66321106570E+02  0.50400001928E-02 0.  1.
    10030    2    1    2    0    0  0.00000000000E+00  0.00000000000E+00  0.87043482637E+03  0.10030770393E+04  0.49850452343E+03 0.  0.
        4    1    3    3  502    0  0.18598315258E+03 -0.15911286874E+03  0.52999135288E+03  0.58377999715E+03  0.12699999809E+01 0. -1.
       -4    1    3    3    0  502 -0.18598315258E+03  0.15911286874E+03  0.34044347349E+03  0.41929704218E+03  0.12699999809E+01 0.  1.
</event>
<event>
 5   0  0.1074281E-01  0.4830559E+03  0.7818609E-02  0.1018299E+00
        1   -1    0    0  501    0  0.00000000000E+00  0.00000000000E+00  0.16776259650E+03  0.16776259658E+03  0.50400001928E-02 0. -1.
       -1   -1    0    0    0  501  0.00000000000E+00  0.00000000000E+00 -0.34772798912E+03  0.34772798915E+03  0.50400001928E-02 0.  1.
    10030    2    1    2    0    0  0.00000000000E+00  0.00000000000E+00 -0.17996539261E+03  0.51549058573E+03  0.48305589888E+03 0.  0.
        4    1    3    3  502    0 -0.61081795541E+02  0.70418721726E+02 -0.32775336883E+03  0.34075455359E+03  0.12699999809E+01 0.  1.
       -4    1    3    3    0  502  0.61081795541E+02 -0.70418721726E+02  0.14778797621E+03  0.17473603214E+03  0.12699999809E+01 0. -1.
</event>
<event>
 5   0  0.7220250E-02  0.5055030E+03  0.7818609E-02  0.1012352E+00
        4   -1    0    0  501    0  0.00000000000E+00  0.00000000000E+00  0.32414793571E+03  0.32415042360E+03  0.12699999809E+01 0.  1.
       -4   -1    0    0    0  501  0.00000000000E+00  0.00000000000E+00 -0.19707544547E+03  0.19707953752E+03  0.12699999809E+01 0. -1.
    10030    2    1    2    0    0  0.00000000000E+00  0.00000000000E+00  0.12707249023E+03  0.52122996112E+03  0.50550297190E+03 0.  0.
        3    1    3    3  502    0 -0.84458299723E+02  0.13724747831E+03 -0.13723478354E+03  0.21166830351E+03  0.10100000352E+00 0. -1.
       -3    1    3    3    0  502  0.84458299723E+02 -0.13724747831E+03  0.26430727378E+03  0.30956165762E+03  0.10100000352E+00 0.  1.
</event>
<event>
 5   0  0.1683148E-01  0.4994659E+03  0.7818609E-02  0.1013918E+00
        2   -1    0    0  501    0  0.00000000000E+00  0.00000000000E+00  0.14391730766E+03  0.14391730768E+03  0.25500000920E-02 0. -1.
       -2   -1    0    0    0  501  0.00000000000E+00  0.00000000000E+00 -0.43334989794E+03  0.43334989794E+03  0.25500000920E-02 0.  1.
    10030    2    1    2    0    0  0.00000000000E+00  0.00000000000E+00 -0.28943259028E+03  0.57726720563E+03  0.49946591713E+03 0.  0.
        2    1    3    3  502    0 -0.85822173940E+01 -0.20464378666E+02  0.14277552625E+03  0.14448977871E+03  0.25500000920E-02 0. -1.
       -2    1    3    3    0  502  0.85822173940E+01  0.20464378666E+02 -0.43220811653E+03  0.43277742692E+03  0.25500000920E-02 0.  1.
</event>
<event>
 5   0  0.1827698E-01  0.5022854E+03  0.7818609E-02  0.1013184E+00
       -2   -1    0    0    0  501  0.00000000000E+00  0.00000000000E+00  0.52191511148E+02  0.52191511210E+02  0.25500000920E-02 0.  1.
        2   -1    0    0  501    0  0.00000000000E+00  0.00000000000E+00 -0.12084848791E+04  0.12084848791E+04  0.25500000920E-02 0. -1.
    10030    2    1    2    0    0  0.00000000000E+00  0.00000000000E+00 -0.11562933679E+04  0.12606763903E+04  0.50228538533E+03 0.  0.
        1    1    3    3  502    0  0.23452858705E+03 -0.60505964074E+02 -0.41150833072E+03  0.47749736765E+03  0.50400001928E-02 0.  1.
       -1    1    3    3    0  502 -0.23452858705E+03  0.60505964074E+02 -0.74478503722E+03  0.78317902266E+03  0.50400001928E-02 0. -1.
</event>
<event>
 5   0  0.1760649E-01  0.5023352E+03  0.7818609E-02  0.1013171E+00
        2   -1    0    0  501    0  0.00000000000E+00  0.00000000000E+00  0.12971243406E+04  0.12971243406E+04  0.25500000920E-02 0.  1.
       -2   -1    0    0    0  501  0.00000000000E+00  0.00000000000E+00 -0.48634637193E+02  0.48634637260E+02  0.25500000920E-02 0. -1.
    10030    2    1    2    0    0  0.00000000000E+00  0.00000000000E+00  0.12484897034E+04  0.13457589778E+04  0.50233523366E+03 0.  0.
        5    1    3    3  502    0  0.19540552126E+03 -0.10210846969E+03  0.30216613436E+03  0.37408009847E+03  0.46999998093E+01 0. -1.
       -5    1    3    3    0  502 -0.19540552126E+03  0.10210846969E+03  0.94632356903E+03  0.97167887937E+03  0.46999998093E+01 0.  1.
</event>
<event>
 5   0  0.1827698E-01  0.4964128E+03  0.7818609E-02  0.1014719E+00
       -2   -1    0    0    0  501  0.00000000000E+00  0.00000000000E+00  0.29163589053E+03  0.29163589054E+03  0.25500000920E-02 0.  1.
        2   -1    0    0  501    0  0.00000000000E+00  0.00000000000E+00 -0.21124429399E+03  0.21124429400E+03  0.25500000920E-02 0. -1.
    10030    2    1    2    0    0  0.00000000000E+00  0.00000000000E+00  0.80391596538E+02  0.50288018454E+03  0.49641280323E+03 0.  0.
        1    1    3    3  502    0  0.22679010654E+03  0.95964420675E+02  0.87511780984E+01  0.24641328212E+03  0.50400001928E-02 0.  1.
       -1    1    3    3    0  502 -0.22679010654E+03 -0.95964420675E+02  0.71640418440E+02  0.25646690242E+03  0.50400001928E-02 0. -1.
</event>
<event>
 5   0  0.1147245E-01  0.4792251E+03  0.7818609E-02  0.1019348E+00
        1   -1    0    0  501    0  0.00000000000E+00  0.00000000000E+00  0.82224299400E+03  0.82224299401E+03  0.50400001928E-02 0.  1.
       -1   -1    0    0    0  501  0.00000000000E+00  0.00000000000E+00 -0.69826278695E+02  0.69826278877E+02  0.50400001928E-02 0. -1.
    10030    2    1    2    0    0  0.00000000000E+00  0.00000000000E+00  0.75241671530E+03  0.89206927289E+03  0.47922507673E+03 0.  0.
        1    1    3    3  502    0  0.23552882939E+03  0.37804490979E+02  0.33412239494E+03  0.41053718934E+03  0.50400001928E-02 0. -1.
       -1    1    3    3    0  502 -0.23552882939E+03 -0.37804490979E+02  0.41829432037E+03  0.48153208355E+03  0.50400001928E-02 0.  1.
</event>
<event>
 5   0  0.1760649E-01  0.4987214E+03  0.7818609E-02  0.1014113E+00
        2   -1    0    0  501    0  0.00000000000E+00  0.00000000000E+00  0.16031882515E+04  0.16031882515E+04  0.25500000920E-02 0.  1.
       -2   -1    0    0    0  501  0.00000000000E+00  0.00000000000E+00 -0.38785684062E+02  0.38785684146E+02  0.25500000920E-02 0. -1.
    10030    2    1    2    0    0  0.00000000000E+00  0.00000000000E+00  0.15644025674E+04  0.16419739357E+04  0.49872137747E+03 0.  0.
        5    1    3    3  502    0 -0.10601549569E+02 -0.24864562656E+03  0.83121473936E+03  0.86768489291E+03  0.46999998093E+01 0. -1.
       -5    1    3    3    0  502  0.10601549569E+02  0.24864562656E+03  0.73318782809E+03  0.77428904275E+03  0.46999998093E+01 0.  1.
</event>
<event>
 5   0  0.1123271E-01  0.4965199E+03  0.7818609E-02  0.1014691E+00
       -1   -1    0    0    0  501  0.00000000000E+00  0.00000000000E+00  0.45031448674E+03  0.45031448676E+03  0.50400001928E-02 0. -1.
        1   -1    0    0  501    0  0.00000000000E+00  0.00000000000E+00 -0.13686655966E+03  0.13686655975E+03  0.50400001928E-02 0.  1.
    10030    2    1    2    0    0  0.00000000000E+00  0.00000000000E+00  0.31344792708E+03  0.58718104652E+03  0.49651986708E+03 0.  0.
        5    1    3    3  502    0 -0.17054998855E+03  0.95670224200E+02 -0.24065168461E+02  0.19708199493E+03  0.46999998093E+01 0.  1.
       -5    1    3    3    0  502  0.17054998855E+03 -0.95670224200E+02  0.33751309554E+03  0.39009905159E+03  0.46999998093E+01 0. -1.
</event>
<event>
 5   0  0.1709372E-01  0.5011833E+03  0.7818609E-02  0.1013471E+00
        2   -1    0    0  501    0  0.00000000000E+00  0.00000000000E+00  0.13531602131E+04  0.13531602131E+04  0.25500000920E-02 0.  1.
       -2   -1    0    0    0  501  0.00000000000E+00  0.00000000000E+00 -0.46407042205E+02  0.46407042275E+02  0.25500000920E-02 0. -1.
    10030    2    1    2    0    0  0.00000000000E+00  0.00000000000E+00  0.13067531709E+04  0.13995672553E+04  0.50118325259E+03 0.  0.
        4    1    3    3  502    0  0.20626767705E+03  0.99852447975E+02  0.93647983837E+03  0.96411252794E+03  0.12699999809E+01 0.  1.
       -4    1    3    3    0  502 -0.20626767705E+03 -0.99852447975E+02  0.37027333250E+03  0.43545472741E+03  0.12699999809E+01 0. -1.
</event>
<event>
 5   0  0.1709372E-01  0.4952046E+03  0.7818609E-02  0.1015038E+00
       -2   -1    0    0    0  501  0.00000000000E+00  0.00000000000E+00  0.58858672735E+02  0.58858672791E+02  0.25500000920E-02 0. -1.
        2   -1    0    0  501    0  0.00000000000E+00  0.00000000000E+00 -0.10415948334E+04  0.10415948334E+04  0.25500000920E-02 0.  1.
    10030    2    1    2    0    0  0.00000000000E+00  0.00000000000E+00 -0.98273616069E+03  0.11004535062E+04  0.49520456159E+03 0.  0.
        4    1    3    3  502    0 -0.14838283006E+03 -0.18201244276E+03 -0.31696580738E+03  0.39448058194E+03  0.12699999809E+01 0.  1.
       -4    1    3    3    0  502  0.14838283006E+03  0.18201244276E+03 -0.66577035331E+03  0.70597292428E+03  0.12699999809E+01 0. -1.
</event>
<event>
 5   0  0.7220250E-02  0.5000757E+03  0.7818609E-02  0.1013759E+00
        4   -1    0    0  501    0  0.00000000000E+00  0.00000000000E+00  0.20190338138E+03  0.20190737558E+03  0.12699999809E+01 0. -1.
       -4   -1    0    0    0  501  0.00000000000E+00  0.00000000000E+00 -0.30963943696E+03  0.30964204143E+03  0.12699999809E+01 0.  1.
    10030    2    1    2    0    0  0.00000000000E+00  0.00000000000E+00 -0.10773605558E+03  0.51154941701E+03  0.50007574264E+03 0.  0.
        1    1    3    3  502    0 -0.14183017025E+02  0.16114200134E+03  0.14116591157E+03  0.21469913177E+03  0.50400001928E-02 0. -1.
       -1    1    3    3    0  502  0.14183017025E+02 -0.16114200134E+03 -0.24890196715E+03  0.29685028524E+03  0.50400001928E-02 0.  1.
</event>
<event>
 5   0  0.7220250E-02  0.5037626E+03  0.7818609E-02  0.1012801E+00
       -3   -1    0    0    0  501  0.00000000000E+00  0.00000000000E+00  0.34897676392E+03  0.34897677853E+03  0.10100000352E+00 0. -1.
        3   -1    0    0  501    0  0.00000000000E+00  0.00000000000E+00 -0.18180055619E+03  0.18180058425E+03  0.10100000352E+00 0.  1.
    10030    2    1    2    0    0  0.00000000000E+00  0.00000000000E+00  0.16717620772E+03  0.53077736278E+03  0.50376256750E+03 0.  0.
        1    1    3    3  502    0  0.14643312824E+03 -0.45445879360E+02  0.29414517203E+03  0.33170675491E+03  0.50400001928E-02 0. -1.
       -1    1    3    3    0  502 -0.14643312824E+03  0.45445879360E+02 -0.12696896431E+03  0.19907060788E+03  0.50400001928E-02 0.  1.
</event>
<event>
 5   0  0.1147245E-01  0.5022863E+03  0.7818609E-02  0.1013184E+00
       -1   -1    0    0    0  501  0.00000000000E+00  0.00000000000E+00  0.17980783987E+03  0.17980783994E+03  0.50400001928E-02 0. -1.
        1   -1    0    0  501    0  0.00000000000E+00  0.00000000000E+00 -0.35077933468E+03  0.35077933472E+03  0.50400001928E-02 0.  1.
    10030    2    1    2    0    0  0.00000000000E+00  0.00000000000E+00 -0.17097149481E+03  0.53058717466E+03  0.50228627084E+03 0.  0.
        1    1    3    3  502    0  0.18076693052E+03  0.80690912661E+02  0.77770417278E+02  0.21268743354E+03  0.50400001928E-02 0.  1.
       -1    1    3    3    0  502 -0.18076693052E+03 -0.80690912661E+02 -0.24874191208E+03  0.31789974113E+03  0.50400001928E-02 0. -1.
</event>
<event>
 5   0  0.1123271E-01  0.4960238E+03  0.7818609E-02  0.1014822E+00
        1   -1    0    0  501    0  0.00000000000E+00  0.00000000000E+00  0.44479261244E+03  0.44479261247E+03  0.50400001928E-02 0. -1.
       -1   -1    0    0    0  501  0.00000000000E+00  0.00000000000E+00 -0.13828894646E+03  0.13828894655E+03  0.50400001928E-02 0.  1.
    10030    2    1    2    0    0  0.00000000000E+00  0.00000000000E+00  0.30650366599E+03  0.58308155902E+03  0.49602379702E+03 0.  0.
        5    1    3    3  502    0 -0.13524437463E+03 -0.20781987523E+03  0.14999619839E+03  0.28982941697E+03  0.46999998093E+01 0. -1.
       -5    1    3    3    0  502  0.13524437463E+03  0.20781987523E+03  0.15650746759E+03  0.29325214205E+03  0.46999998093E+01 0.  1.
</event>
<event>
 5   0  0.1709372E-01  0.5002271E+03  0.7818609E-02  0.1013720E+00
       -2   -1    0    0    0  501  0.00000000000E+00  0.00000000000E+00  0.40410250787E+03  0.40410250788E+03  0.25500000920E-02 0.  1.
        2   -1    0    0  501    0  0.00000000000E+00  0.00000000000E+00 -0.15480424163E+03  0.15480424165E+03  0.25500000920E-02 0. -1.
    10030    2    1    2    0    0  0.00000000000E+00  0.00000000000E+00  0.24929826625E+03  0.55890674953E+03  0.50022707755E+03 0.  0.
        4    1    3    3  502    0  0.15577047285E+03 -0.51788429361E+02  0.33548774216E+03  0.37349714814E+03  0.12699999809E+01 0.  1.
       -4    1    3    3    0  502 -0.15577047285E+03  0.51788429361E+02 -0.86189475914E+02  0.18540960139E+03  0.12699999809E+01 0. -1.
</event>
<event>
 5   0  0.1760649E-01  0.4903163E+03  0.7818609E-02  0.1016338E+00
        2   -1    0    0  501    0  0.00000000000E+00  0.00000000000E+00  0.50559319205E+03  0.50559319206E+03  0.25500000920E-02 0.  1.
       -2   -1    0    0    0  501  0.00000000000E+00  0.00000000000E+00 -0.11887527003E+03  0.11887527006E+03  0.25500000920E-02 0. -1.
    10030    2    1    2    0    0  0.00000000000E+00  0.00000000000E+00  0.38671792202E+03  0.62446846212E+03  0.49031633561E+03 0.  0.
        5    1    3    3  502    0 -0.71879694897E+02  0.21875500390E+03  0.30037191267E+03  0.37850471357E+03  0.46999998093E+01 0. -1.
       -5    1    3    3    0  502  0.71879694897E+02 -0.21875500390E+03  0.86346009350E+02  0.24596374855E+03  0.46999998093E+01 0.  1.
</event>
<event>
 5   0  0.1827698E-01  0.5301459E+03  0.7818609E-02  0.1006197E+00
       -2   -1    0    0    0  501  0.00000000000E+00  0.00000000000E+00  0.35414254521E+02  0.35414254613E+02  0.25500000920E-02 0.  1.
        2   -1    0    0  501    0  0.00000000000E+00  0.00000000000E+00 -0.19840504472E+04  0.19840504472E+04  0.25500000920E-02 0. -1.
    10030    2    1    2    0    0  0.00000000000E+00  0.00000000000E+00 -0.19486361926E+04  0.20194647018E+04  0.53014589544E+03 0.  0.
        1    1    3    3  502    0  0.89899104218E+02 -0.15982476274E+03 -0.24518647131E+03  0.30617349569E+03  0.50400001928E-02 0.  1.
       -1    1    3    3    0  502 -0.89899104218E+02  0.15982476274E+03 -0.17034497213E+04  0.17132912061E+04  0.50400001928E-02 0. -1.
</event>
<event>
 5   0  0.1827698E-01  0.4940572E+03  0.7818609E-02  0.1015342E+00
        2   -1    0    0  501    0  0.00000000000E+00  0.00000000000E+00  0.71311128264E+03  0.71311128264E+03  0.25500000920E-02 0. -1.
       -2   -1    0    0    0  501  0.00000000000E+00  0.00000000000E+00 -0.85573078772E+02  0.85573078810E+02  0.25500000920E-02 0.  1.
    10030    2    1    2    0    0  0.00000000000E+00  0.00000000000E+00  0.62753820386E+03  0.79868436145E+03  0.49405719499E+03 0.  0.
        1    1    3    3  502    0  0.20148593648E+03  0.11675307679E+03  0.44702950815E+03  0.50404686758E+03  0.50400001928E-02 0. -1.
       -1    1    3    3    0  502 -0.20148593648E+03 -0.11675307679E+03  0.18050869571E+03  0.29463749387E+03  0.50400001928E-02 0.  1.
</event>
<event>
 5   0  0.1123271E-01  0.5146551E+03  0.7818609E-02  0.1010023E+00
        1   -1    0    0  501    0  0.00000000000E+00  0.00000000000E+00  0.71475554880E+02  0.71475555058E+02  0.50400001928E-02 0.  1.
       -1   -1    0    0    0  501  0.00000000000E+00  0.00000000000E+00 -0.92643504017E+03  0.92643504018E+03  0.50400001928E-02 0. -1.
    10030    2    1    2    0    0  0.00000000000E+00  0.00000000000E+00 -0.85495948529E+03  0.99791059524E+03  0.51465506371E+03 0.  0.
        5    1    3    3  502    0  0.13921437199E+03  0.15174741703E+03 -0.72653353627E+03  0.75516951029E+03  0.46999998093E+01 0. -1.
       -5    1    3    3    0  502 -0.13921437199E+03 -0.15174741703E+03 -0.12842594902E+03  0.24274108495E+03  0.46999998093E+01 0.  1.
</event>
<event>
 5   0  0.1123271E-01  0.5004067E+03  0.7818609E-02  0.1013673E+00
        1   -1    0    0  501    0  0.00000000000E+00  0.00000000000E+00  0.52059926949E+03  0.52059926951E+03  0.50400001928E-02 0.  1.
       -1   -1    0    0    0  501  0.00000000000E+00  0.00000000000E+00 -0.12024935821E+03  0.12024935832E+03  0.50400001928E-02 0. -1.
    10030    2    1    2    0    0  0.00000000000E+00  0.00000000000E+00  0.40034991128E+03  0.64084862783E+03  0.50040674689E+03 0.  0.
        5    1    3    3  502    0  0.11245448690E+03  0.21469413307E+03  0.12081506453E+03  0.27084673196E+03  0.46999998093E+01 0. -1.
       -5    1    3    3    0  502 -0.11245448690E+03 -0.21469413307E+03  0.27953484675E+03  0.37000189587E+03  0.46999998093E+01 0.  1.
</event>
<event>
 5   0  0.1709372E-01  0.4942439E+03  0.7818609E-02  0.1015292E+00
       -2   -1    0    0    0  501  0.00000000000E+00  0.00000000000E+00  0.75735692141E+02  0.75735692184E+02  0.25500000920E-02 0.  1.
        2   -1    0    0  501    0  0.00000000000E+00  0.00000000000E+00 -0.80634702061E+03  0.80634702061E+03  0.25500000920E-02 0. -1.
    10030    2    1    2    0    0  0.00000000000E+00  0.00000000000E+00 -0.73061132847E+03  0.88208271279E+03  0.49424386585E+03 0.  0.
        4    1    3    3  502    0  0.78530249519E+00 -0.80650316641E+02  0.51578442757E+02  0.95744654846E+02  0.12699999809E+01 0.  1.
       -4    1    3    3    0  502 -0.78530249519E+00  0.80650316641E+02 -0.78218977122E+03  0.78633805795E+03  0.12699999809E+01 0. -1.
</event>
<event>
 5   0  0.1074281E-01  0.4655442E+03  0.7818609E-02  0.1023185E+00
        1   -1    0    0  501    0  0.00000000000E+00  0.00000000000E+00  0.21444661686E+03  0.21444661692E+03  0.50400001928E-02 0. -1.
       -1   -1    0    0    0  501  0.00000000000E+00  0.00000000000E+00 -0.25266360248E+03  0.25266360253E+03  0.50400001928E-02 0.  1.
    10030    2    1    2    0    0  0.00000000000E+00  0.00000000000E+00 -0.38216985623E+02  0.46711021945E+03  0.46554421823E+03 0.  0.
        4    1    3    3  502    0  0.40729264699E+02  0.70865235574E+02  0.19957070088E+03  0.21566370154E+03  0.12699999809E+01 0. -1.
       -4    1    3    3    0  502 -0.40729264699E+02 -0.70865235574E+02 -0.23778768650E+03  0.25144651790E+03  0.12699999809E+01 0.  1.
</event>
<event>
 5   0  0.1709372E-01  0.5381832E+03  0.7818609E-02  0.1004267E+00
        2   -1    0    0  501    0  0.00000000000E+00  0.00000000000E+00  0.46432067351E+03  0.46432067352E+03  0.25500000920E-02 0. -1.
       -2   -1    0    0    0  501  0.00000000000E+00  0.00000000000E+00 -0.15594886953E+03  0.15594886955E+03  0.25500000920E-02 0.  1.
    10030    2    1    2    0    0  0.00000000000E+00  0.00000000000E+00  0.30837180398E+03  0.62026954307E+03  0.53818318124E+03 0.  0.
        4    1    3    3  502    0 -0.95151361101E+02 -0.56938124784E+02  0.43676128076E+03  0.45061930811E+03  0.12699999809E+01 0. -1.
       -4    1    3    3    0  502  0.95151361101E+02  0.56938124784E+02 -0.12838947678E+03  0.16965023496E+03  0.12699999809E+01 0.  1.
</event>
<event>
 5   0  0.1141970E-01  0.4971039E+03  0.7818609E-02  0.1014538E+00
       -1   -1    0    0    0  501  0.00000000000E+00  0.00000000000E+00  0.14398432126E+03  0.14398432135E+03  0.50400001928E-02 0. -1.
        1   -1    0    0  501    0  0.00000000000E+00  0.00000000000E+00 -0.42906117731E+03  0.42906117734E+03  0.50400001928E-02 0.  1.
    10030    2    1    2    0    0  0.00000000000E+00  0.00000000000E+00 -0.28507685604E+03  0.57304549868E+03  0.49710394256E+03 0.  0.
        3    1    3    3  502    0 -0.15687367127E+03  0.12488519784E+03  0.26774936281E+02  0.20229327421E+03  0.10100000352E+00 0. -1.
       -3    1    3    3    0  502  0.15687367127E+03 -0.12488519784E+03 -0.31185179233E+03  0.37075222448E+03  0.10100000352E+00 0.  1.
</event>
<event>
 5   0  0.1074281E-01  0.4876834E+03  0.7818609E-02  0.1017045E+00
        1   -1    0    0  501    0  0.00000000000E+00  0.00000000000E+00  0.15458848038E+04  0.15458848038E+04  0.50400001928E-02 0.  1.
       -1   -1    0    0    0  501  0.00000000000E+00  0.00000000000E+00 -0.38462621339E+02  0.38462621669E+02  0.50400001928E-02 0. -1.
    10030    2    1    2    0    0  0.00000000000E+00  0.00000000000E+00  0.15074221825E+04  0.15843474255E+04  0.48768343056E+03 0.  0.
        4    1    3    3  502    0  0.14881019014E+03  0.17097051044E+03  0.10457669772E+04  0.10700493314E+04  0.12699999809E+01 0.  1.
       -4    1    3    3    0  502 -0.14881019014E+03 -0.17097051044E+03  0.46165520528E+03  0.51429809410E+03  0.12699999809E+01 0. -1.
</event>
<event>
 5   0  0.1068522E-01  0.4989602E+03  0.7818609E-02  0.1014051E+00
       -1   -1    0    0    0  501  0.00000000000E+00  0.00000000000E+00  0.16610363094E+03  0.16610363102E+03  0.50400001928E-02 0.  1.
        1   -1    0    0  501    0  0.00000000000E+00  0.00000000000E+00 -0.37470776050E+03  0.37470776053E+03  0.50400001928E-02 0. -1.
    10030    2    1    2    0    0  0.00000000000E+00  0.00000000000E+00 -0.20860412955E+03  0.54081139155E+03  0.49896019718E+03 0.  0.
        2    1    3    3  502    0  0.88273985090E+02  0.20432795994E+03 -0.22643967980E+03  0.31751714954E+03  0.25500000920E-02 0. -1.
       -2    1    3    3    0  502 -0.88273985090E+02 -0.20432795994E+03  0.17835550244E+02  0.22329424201E+03  0.25500000920E-02 0.  1.
</event>
<event>
 5   0  0.1827698E-01  0.4968421E+03  0.7818609E-02  0.1014606E+00
        2   -1    0    0  501    0  0.00000000000E+00  0.00000000000E+00  0.65861451252E+03  0.65861451252E+03  0.25500000920E-02 0.  1.
       -2   -1    0    0    0  501  0.00000000000E+00  0.00000000000E+00 -0.93701271711E+02  0.93701271746E+02  0.25500000920E-02 0. -1.
    10030    2    1    2    0    0  0.00000000000E+00  0.00000000000E+00  0.56491324081E+03  0.75231578427E+03  0.49684209727E+03 0.  0.
        1    1    3    3  502    0 -0.16631372105E+03 -0.85948042728E+02  0.35194117147E+02  0.19048870246E+03  0.50400001928E-02 0. -1.
       -1    1    3    3    0  502  0.16631372105E+03  0.85948042728E+02  0.52971912366E+03  0.56182708181E+03  0.50400001928E-02 0.  1.
</event>
<event>
 5   0  0.1147245E-01  0.5031788E+03  0.7818609E-02  0.1012953E+00
       -1   -1    0    0    0  501  0.00000000000E+00  0.00000000000E+00  0.64789467097E+03  0.64789467099E+03  0.50400001928E-02 0.  1.
        1   -1    0    0  501    0  0.00000000000E+00  0.00000000000E+00 -0.97696778913E+02  0.97696779043E+02  0.50400001928E-02 0. -1.
    10030    2    1    2    0    0  0.00000000000E+00  0.00000000000E+00  0.55019789206E+03  0.74559145004E+03  0.50317878526E+03 0.  0.
        1    1    3    3  502    0 -0.23434141551E+03 -0.90641294880E+02  0.29416014290E+03  0.38686164589E+03  0.50400001928E-02 0. -1.
       -1    1    3    3    0  502  0.23434141551E+03  0.90641294880E+02  0.25603774916E+03  0.35872980415E+03  0.50400001928E-02 0.  1.
</event>
<event>
 5   0  0.1827698E-01  0.5100454E+03  0.7818609E-02  0.1011190E+00
        2   -1    0    0  501    0  0.00000000000E+00  0.00000000000E+00  0.60851348167E+03  0.60851348167E+03  0.25500000920E-02 0.  1.
       -2   -1    0    0    0  501  0.00000000000E+00  0.00000000000E+00 -0.10687777185E+03  0.10687777189E+03  0.25500000920E-02 0. -1.
    10030    2    1    2    0    0  0.00000000000E+00  0.00000000000E+00  0.50163570981E+03  0.71539125356E+03  0.51004535123E+03 0.  0.
        1    1    3    3  502    0  0.15847638531E+03 -0.83327928454E+02  0.50552942890E+03  0.53630057978E+03  0.50400001928E-02 0.  1.
       -1    1    3    3    0  502 -0.15847638531E+03  0.83327928454E+02 -0.38937190930E+01  0.17909067378E+03  0.50400001928E-02 0. -1.
</event>
<event>
 5   0  0.1683148E-01  0.4996759E+03  0.7818609E-02  0.1013864E+00
        2   -1    0    0  501    0  0.00000000000E+00  0.00000000000E+00  0.16324942076E+04  0.16324942076E+04  0.25500000920E-02 0.  1.
       -2   -1    0    0    0  501  0.00000000000E+00  0.00000000000E+00 -0.38235355352E+02  0.38235355437E+02  0.25500000920E-02 0. -1.
    10030    2    1    2    0    0  0.00000000000E+00  0.00000000000E+00  0.15942588523E+04  0.16707295630E+04  0.49967587979E+03 0.  0.
        2    1    3    3  502    0 -0.63245469848E+02 -0.45942145407E+02  0.37077158706E+01  0.78258656674E+02  0.25500000920E-02 0. -1.
       -2    1    3    3    0  502  0.63245469848E+02  0.45942145407E+02  0.15905511364E+04  0.15924709064E+04  0.25500000920E-02 0.  1.
</event>
<event>
 5   0  0.1709372E-01  0.5087597E+03  0.7818609E-02  0.1011517E+00
       -2   -1    0    0    0  501  0.00000000000E+00  0.00000000000E+00  0.85337522763E+02  0.85337522801E+02  0.25500000920E-02 0. -1.
        2   -1    0    0  501    0  0.00000000000E+00  0.00000000000E+00 -0.75827259879E+03  0.75827259879E+03  0.25500000920E-02 0.  1.
    10030    2    1    2    0    0  0.00000000000E+00  0.00000000000E+00 -0.67293507602E+03  0.84361012159E+03  0.50875968857E+03 0.  0.
        4    1    3    3  502    0 -0.20620082814E+03 -0.19894540670E+02 -0.58125365395E+03  0.61706725517E+03  0.12699999809E+01 0.  1.
       -4    1    3    3    0  502  0.20620082814E+03  0.19894540670E+02 -0.91681422073E+02  0.22654286642E+03  0.12699999809E+01 0. -1.
</event>
<event>
 5   0  0.1068522E-01  0.4923285E+03  0.7818609E-02  0.1015801E+00
        1   -1    0    0  501    0  0.00000000000E+00  0.00000000000E+00  0.16220567774E+03  0.16220567781E+03  0.50400001928E-02 0.  1.
       -1   -1    0    0    0  501  0.00000000000E+00  0.00000000000E+00 -0.37358023987E+03  0.37358023991E+03  0.50400001928E-02 0. -1.
    10030    2    1    2    0    0  0.00000000000E+00  0.00000000000E+00 -0.21137456214E+03  0.53578591772E+03  0.49232849208E+03 0.  0.
        2    1    3    3  502    0  0.12616952379E+03  0.17628770293E+03 -0.23260360470E+03  0.31796311085E+03  0.25500000920E-02 0. -1.
       -2    1    3    3    0  502 -0.12616952379E+03 -0.17628770293E+03  0.21229042561E+02  0.21782280687E+03  0.25500000920E-02 0.  1.
</event>
<event>
 5   0  0.1147245E-01  0.5097117E+03  0.7818609E-02  0.1011275E+00
        1   -1    0    0  501    0  0.00000000000E+00  0.00000000000E+00  0.30336626552E+03  0.30336626556E+03  0.50400001928E-02 0. -1.
       -1   -1    0    0    0  501  0.00000000000E+00  0.00000000000E+00 -0.21410258315E+03  0.21410258321E+03  0.50400001928E-02 0.  1.
    10030    2    1    2    0    0  0.00000000000E+00  0.00000000000E+00  0.89263682371E+02  0.51746884877E+03  0.50971168758E+03 0.  0.
        1    1    3    3  502    0 -0.50411919781E+02 -0.14976975792E+02  0.29779781509E+03  0.30240570457E+03  0.50400001928E-02 0. -1.
       -1    1    3    3    0  502  0.50411919781E+02  0.14976975792E+02 -0.20853413272E+03  0.21506314420E+03  0.50400001928E-02 0.  1.
</event>
<event>
 5   0  0.1709372E-01  0.5008281E+03  0.7818609E-02  0.1013563E+00
       -2   -1    0    0    0  501  0.00000000000E+00  0.00000000000E+00  0.30156624475E+03  0.30156624476E+03  0.25500000920E-02 0. -1.
        2   -1    0    0  501    0  0.00000000000E+00  0.00000000000E+00 -0.20793835388E+03  0.20793835390E+03  0.25500000920E-02 0.  1.
    10030    2    1    2    0    0  0.00000000000E+00  0.00000000000E+00  0.93627890865E+02  0.50950459866E+03  0.50082806841E+03 0.  0.
        4    1    3    3  502    0  0.60545509453E+02 -0.24177315916E+03  0.71431438359E+02  0.25927607389E+03  0.12699999809E+01 0. -1.
       -4    1    3    3    0  502 -0.60545509453E+02  0.24177315916E+03  0.22196452505E+02  0.25022852477E+03  0.12699999809E+01 0.  1.
</event>
<event>
 5   0  0.1782124E-01  0.5071193E+03  0.7818609E-02  0.1011937E+00
       -2   -1    0    0    0  501  0.00000000000E+00  0.00000000000E+00  0.57809867195E+02  0.57809867252E+02  0.25500000920E-02 0.  1.
        2   -1    0    0  501    0  0.00000000000E+00  0.00000000000E+00 -0.11121369600E+04  0.11121369600E+04  0.25500000920E-02 0. -1.
    10030    2    1    2    0    0  0.00000000000E+00  0.00000000000E+00 -0.10543270928E+04  0.11699468272E+04  0.50711927588E+03 0.  0.
        3    1    3    3  502    0 -0.14150106993E+02 -0.25207791094E+03 -0.47310869287E+03  0.53626051894E+03  0.10100000352E+00 0. -1.
       -3    1    3    3    0  502  0.14150106993E+02  0.25207791094E+03 -0.58121839991E+03  0.63368630828E+03  0.10100000352E+00 0.  1.
</event>
<event>
 5   0  0.7220250E-02  0.5054434E+03  0.7818609E-02  0.1012368E+00
        4   -1    0    0  501    0  0.00000000000E+00  0.00000000000E+00  0.69648806988E+03  0.69648922776E+03  0.12699999809E+01 0. -1.
       -4   -1    0    0    0  501  0.00000000000E+00  0.00000000000E+00 -0.91694786992E+02  0.91703581508E+02  0.12699999809E+01 0.  1.
    10030    2    1    2    0    0  0.00000000000E+00  0.00000000000E+00  0.60479328289E+03  0.78819280927E+03  0.50544335939E+03 0.  0.
        4    1    3    3  502    0 -0.22086238423E+03 -0.74240715656E+02  0.14980741435E+03  0.27701218552E+03  0.12699999809E+01 0.  1.
       -4    1    3    3    0  502  0.22086238423E+03  0.74240715656E+02  0.45498586854E+03  0.51118062375E+03  0.12699999809E+01 0. -1.
</event>
<event>
 5   0  0.7220250E-02  0.4940813E+03  0.7818609E-02  0.1015335E+00
       -3   -1    0    0    0  501  0.00000000000E+00  0.00000000000E+00  0.10748528563E+04  0.10748528610E+04  0.10100000352E+00 0. -1.
        3   -1    0    0  501    0  0.00000000000E+00  0.00000000000E+00 -0.56778966171E+02  0.56779056002E+02  0.10100000352E+00 0.  1.
    10030    2    1    2    0    0  0.00000000000E+00  0.00000000000E+00  0.10180738901E+04  0.11316319170E+04  0.49408131913E+03 0.  0.
        2    1    3    3  502    0  0.25436373837E+02  0.15281528637E+03  0.94977552573E+03  0.96232690399E+03  0.25500000920E-02 0. -1.
       -2    1    3    3    0  502 -0.25436373837E+02 -0.15281528637E+03  0.68298364404E+02  0.16930501306E+03  0.25500000920E-02 0.  1.
</event>
<event>
 5   0  0.1141970E-01  0.4983710E+03  0.7818609E-02  0.1014205E+00
        1   -1    0    0  501    0  0.00000000000E+00  0.00000000000E+00  0.11529416538E+03  0.11529416549E+03  0.50400001928E-02 0.  1.
       -1   -1    0    0    0  501  0.00000000000E+00  0.00000000000E+00 -0.53856500498E+03  0.53856500501E+03  0.50400001928E-02 0. -1.
    10030    2    1    2    0    0  0.00000000000E+00  0.00000000000E+00 -0.42327083960E+03  0.65385917050E+03  0.49837095741E+03 0.  0.
        3    1    3    3  502    0  0.15541601843E+03  0.90641980331E+02  0.14557964084E+02  0.18050499135E+03  0.10100000352E+00 0.  1.
       -3    1    3    3    0  502 -0.15541601843E+03 -0.90641980331E+02 -0.43782880368E+03  0.47335417915E+03  0.10100000352E+00 0. -1.
</event>
<event>
 5   0  0.1683148E-01  0.4819790E+03  0.7818609E-02  0.1018593E+00
       -2   -1    0    0    0  501  0.00000000000E+00  0.00000000000E+00  0.29231980944E+03  0.29231980945E+03  0.25500000920E-02 0.  1.
        2   -1    0    0  501    0  0.00000000000E+00  0.00000000000E+00 -0.19867257689E+03  0.19867257691E+03  0.25500000920E-02 0. -1.
    10030    2    1    2    0    0  0.00000000000E+00  0.00000000000E+00  0.93647232545E+02  0.49099238636E+03  0.48197896147E+03 0.  0.
        2    1    3    3  502    0  0.50283388028E+02  0.15219889136E+03  0.23014168400E+03  0.28046054333E+03  0.25500000920E-02 0.  1.
       -2    1    3    3    0  502 -0.50283388028E+02 -0.15219889136E+03 -0.13649445146E+03  0.21053184303E+03  0.25500000920E-02 0. -1.
</event>
<event>
 5   0  0.1709372E-01  0.5063848E+03  0.7818609E-02  0.1012126E+00
        2   -1    0    0  501    0  0.00000000000E+00  0.00000000000E+00  0.63072692718E+03  0.63072692719E+03  0.25500000920E-02 0.  1.
       -2   -1    0    0    0  501  0.00000000000E+00  0.00000000000E+00 -0.10163888443E+03  0.10163888446E+03  0.25500000920E-02 0. -1.
    10030    2    1    2    0    0  0.00000000000E+00  0.00000000000E+00  0.52908804275E+03  0.73236581165E+03  0.50638475993E+03 0.  0.
        4    1    3    3  502    0  0.18394759583E+03 -0.16115195345E+03  0.35936088937E+03  0.43468210433E+03  0.12699999809E+01 0.  1.
       -4    1    3    3    0  502 -0.18394759583E+03  0.16115195345E+03  0.16972715338E+03  0.29768370732E+03  0.12699999809E+01 0. -1.
</event>
<event>
 5   0  0.1147245E-01  0.5025483E+03  0.7818609E-02  0.1013116E+00
        1   -1    0    0  501    0  0.00000000000E+00  0.00000000000E+00  0.53746035537E+03  0.53746035539E+03  0.50400001928E-02 0.  1.
       -1   -1    0    0    0  501  0.00000000000E+00  0.00000000000E+00 -0.11747599509E+03  0.11747599520E+03  0.50400001928E-02 0. -1.
    10030    2    1    2    0    0  0.00000000000E+00  0.00000000000E+00  0.41998436027E+03  0.65493635059E+03  0.50254826678E+03 0.  0.
        1    1    3    3  502    0  0.16479951946E+03 -0.18487180687E+03  0.15466664293E+03  0.29199013177E+03  0.50400001928E-02 0. -1.
       -1    1    3    3    0  502 -0.16479951946E+03  0.18487180687E+03  0.26531771734E+03  0.36294621881E+03  0.50400001928E-02 0.  1.
</event>
<event>
 5   0  0.1147245E-01  0.4985861E+03  0.7818609E-02  0.1014149E+00
       -1   -1    0    0    0  501  0.00000000000E+00  0.00000000000E+00  0.16977538353E+03  0.16977538360E+03  0.50400001928E-02 0.  1.
        1   -1    0    0  501    0  0.00000000000E+00  0.00000000000E+00 -0.36605442433E+03  0.36605442437E+03  0.50400001928E-02 0. -1.
    10030    2    1    2    0    0  0.00000000000E+00  0.00000000000E+00 -0.19627904081E+03  0.53582980797E+03  0.49858612220E+03 0.  0.
        1    1    3    3  502    0 -0.15792490527E+03 -0.18947778581E+03 -0.13696163351E+03  0.28213577600E+03  0.50400001928E-02 0. -1.
       -1    1    3    3    0  502  0.15792490527E+03  0.18947778581E+03 -0.59317407296E+02  0.25369403197E+03  0.50400001928E-02 0.  1.
</event>
<event>
 5   0  0.1782124E-01  0.5510038E+03  0.7818609E-02  0.1001262E+00
        2   -1    0    0  501    0  0.00000000000E+00  0.00000000000E+00  0.77149323557E+03  0.77149323557E+03  0.25500000920E-02 0.  1.
       -2   -1    0    0    0  501  0.00000000000E+00  0.00000000000E+00 -0.98382315699E+02  0.98382315732E+02  0.25500000920E-02 0. -1.
    10030    2    1    2    0    0  0.00000000000E+00  0.00000000000E+00  0.67311091987E+03  0.86987555130E+03  0.55100377885E+03 0.  0.
        3    1    3    3  502    0  0.25576749064E+03  0.38802642335E+02  0.48614716134E+03  0.55069204370E+03  0.10100000352E+00 0.  1.
       -3    1    3    3    0  502 -0.25576749064E+03 -0.38802642335E+02  0.18696375853E+03  0.31918350760E+03  0.10100000352E+00 0. -1.
</event>
<event>
 5   0  0.1074281E-01  0.5362616E+03  0.7818609E-02  0.1004725E+00
       -1   -1    0    0    0  501  0.00000000000E+00  0.00000000000E+00  0.10254760471E+03  0.10254760484E+03  0.50400001928E-02 0. -1.
        1   -1    0    0  501    0  0.00000000000E+00  0.00000000000E+00 -0.70108057963E+03  0.70108057964E+03  0.50400001928E-02 0.  1.
    10030    2    1    2    0    0  0.00000000000E+00  0.00000000000E+00 -0.59853297491E+03  0.80362818448E+03  0.53626163095E+03 0.  0.
        4    1    3    3  502    0  0.26663341606E+03  0.22806290661E+02 -0.32429833336E+03  0.42045752149E+03  0.12699999809E+01 0.  1.
       -4    1    3    3    0  502 -0.26663341606E+03 -0.22806290661E+02 -0.27423464155E+03  0.38317066299E+03  0.12699999809E+01 0. -1.
</event>
<event>
 5   0  0.1147245E-01  0.4994717E+03  0.7818609E-02  0.1013917E+00
       -1   -1    0    0    0  501  0.00000000000E+00  0.00000000000E+00  0.73417746905E+02  0.73417747078E+02  0.50400001928E-02 0.  1.
        1   -1    0    0  501    0  0.00000000000E+00  0.00000000000E+00 -0.84949475768E+03  0.84949475769E+03  0.50400001928E-02 0. -1.
    10030    2    1    2    0    0  0.00000000000E+00  0.00000000000E+00 -0.77607701077E+03  0.92291250477E+03  0.49947168570E+03 0.  0.
        1    1    3    3  502    0  0.11691559446E+03 -0.19326003799E+03 -0.58488788679E+03  0.62698687279E+03  0.50400001928E-02 0. -1.
       -1    1    3    3    0  502 -0.11691559446E+03  0.19326003799E+03 -0.19118912398E+03  0.29592563198E+03  0.50400001928E-02 0.  1.
</event>
<event>
 5   0  0.7220250E-02  0.5017777E+03  0.7818609E-02  0.1013316E+00
       -3   -1    0    0    0  501  0.00000000000E+00  0.00000000000E+00  0.25245802334E+03  0.25245804354E+03  0.10100000352E+00 0.  1.
        3   -1    0    0  501    0  0.00000000000E+00  0.00000000000E+00 -0.24932938301E+03  0.24932940346E+03  0.10100000352E+00 0. -1.
    10030    2    1    2    0    0  0.00000000000E+00  0.00000000000E+00  0.31286403278E+01  0.50178744700E+03  0.50177769339E+03 0.  0.
        2    1    3    3  502    0  0.75598080713E+02 -0.74165145284E+02  0.22901032668E+03  0.25231184736E+03  0.25500000920E-02 0.  1.
       -2    1    3    3    0  502 -0.75598080713E+02  0.74165145284E+02 -0.22588168635E+03  0.24947559965E+03  0.25500000920E-02 0. -1.
</event>
<event>
 5   0  0.1147245E-01  0.4883138E+03  0.7818609E-02  0.1016875E+00
       -1   -1    0    0    0  501  0.00000000000E+00  0.00000000000E+00  0.91658652976E+02  0.91658653114E+02  0.50400001928E-02 0. -1.
        1   -1    0    0  501    0  0.00000000000E+00  0.00000000000E+00 -0.65037596361E+03  0.65037596363E+03  0.50400001928E-02 0.  1.
    10030    2    1    2    0    0  0.00000000000E+00  0.00000000000E+00 -0.55871731064E+03  0.74203461675E+03  0.48831377130E+03 0.  0.
        1    1    3    3  502    0 -0.11928964604E+03 -0.19232986609E+03 -0.14015442321E+03  0.26620304171E+03  0.50400001928E-02 0.  1.
       -1    1    3    3    0  502  0.11928964604E+03  0.19232986609E+03 -0.41856288743E+03  0.47583157504E+03  0.50400001928E-02 0. -1.
</event>
<event>
 5   0  0.1147245E-01  0.5839214E+03  0.7818609E-02  0.9939337E-01
       -1   -1    0    0    0  501  0.00000000000E+00  0.00000000000E+00  0.97139622620E+02  0.97139622751E+02  0.50400001928E-02 0.  1.
        1   -1    0    0  501    0  0.00000000000E+00  0.00000000000E+00 -0.87751071867E+03  0.87751071868E+03  0.50400001928E-02 0. -1.
    10030    2    1    2    0    0  0.00000000000E+00  0.00000000000E+00 -0.78037109605E+03  0.97465034143E+03  0.58392143351E+03 0.  0.
        1    1    3    3  502    0  0.88813660002E+02  0.18666253163E+03 -0.73433055465E+03  0.76287097890E+03  0.50400001928E-02 0. -1.
       -1    1    3    3    0  502 -0.88813660002E+02 -0.18666253163E+03 -0.46040541393E+02  0.21177936254E+03  0.50400001928E-02 0.  1.
</event>
<event>
 5   0  0.1760649E-01  0.4976101E+03  0.7818609E-02  0.1014405E+00
        2   -1    0    0  501    0  0.00000000000E+00  0.00000000000E+00  0.11442130112E+04  0.11442130112E+04  0.25500000920E-02 0. -1.
       -2   -1    0    0    0  501  0.00000000000E+00  0.00000000000E+00 -0.54101780086E+02  0.54101780146E+02  0.25500000920E-02 0.  1.
    10030    2    1    2    0    0  0.00000000000E+00  0.00000000000E+00  0.10901112311E+04  0.11983147914E+04  0.49761013150E+03 0.  0.
        5    1    3    3  502    0 -0.13512547407E+03  0.19837533128E+03  0.38769136952E+03  0.45600258091E+03  0.46999998093E+01 0. -1.
       -5    1    3    3    0  502  0.13512547407E+03 -0.19837533128E+03  0.70241986161E+03  0.74231221045E+03  0.46999998093E+01 0.  1.
</event>
<event>
 5   0  0.1074281E-01  0.5003832E+03  0.7818609E-02  0.1013679E+00
        1   -1    0    0  501    0  0.00000000000E+00  0.00000000000E+00  0.20891587002E+03  0.20891587008E+03  0.50400001928E-02 0. -1.
       -1   -1    0    0    0  501  0.00000000000E+00  0.00000000000E+00 -0.29962221664E+03  0.29962221668E+03  0.50400001928E-02 0.  1.
    10030    2    1    2    0    0  0.00000000000E+00  0.00000000000E+00 -0.90706346625E+02  0.50853808676E+03  0.50038319753E+03 0.  0.
        4    1    3    3  502    0 -0.10608230995E+02 -0.18910640397E+03 -0.21148112271E+03  0.28390076567E+03  0.12699999809E+01 0.  1.
       -4    1    3    3    0  502  0.10608230995E+02  0.18910640397E+03  0.12077477608E+03  0.22463732109E+03  0.12699999809E+01 0. -1.
</event>
<event>
 5   0  0.1074281E-01  0.5014235E+03  0.7818609E-02  0.1013408E+00
        1   -1    0    0  501    0  0.00000000000E+00  0.00000000000E+00  0.56128283127E+03  0.56128283130E+03  0.50400001928E-02 0.  1.
       -1   -1    0    0    0  501  0.00000000000E+00  0.00000000000E+00 -0.11198700334E+03  0.11198700346E+03  0.50400001928E-02 0. -1.
    10030    2    1    2    0    0  0.00000000000E+00  0.00000000000E+00  0.44929582793E+03  0.67326983475E+03  0.50142350303E+03 0.  0.
        4    1    3    3  502    0  0.58729279909E+01  0.12585565331E+03 -0.66386201547E+02  0.14241796730E+03  0.12699999809E+01 0. -1.
       -4    1    3    3    0  502 -0.58729279909E+01 -0.12585565331E+03  0.51568202948E+03  0.53085186745E+03  0.12699999809E+01 0.  1.
</event>
<event>
 5   0  0.1147245E-01  0.4739691E+03  0.7818609E-02  0.1020806E+00
       -1   -1    0    0    0  501  0.00000000000E+00  0.00000000000E+00  0.69778278853E+03  0.69778278855E+03  0.50400001928E-02 0. -1.
        1   -1    0    0  501    0  0.00000000000E+00  0.00000000000E+00 -0.80485901353E+02  0.80485901511E+02  0.50400001928E-02 0.  1.
    10030    2    1    2    0    0  0.00000000000E+00  0.00000000000E+00  0.61729688718E+03  0.77826869006E+03  0.47396909921E+03 0.  0.
        1    1    3    3  502    0  0.15566779427E+03 -0.55441245030E+02  0.58757746551E+03  0.61037158504E+03  0.50400001928E-02 0. -1.
       -1    1    3    3    0  502 -0.15566779427E+03  0.55441245030E+02  0.29719421667E+02  0.16789710502E+03  0.50400001928E-02 0.  1.
</event>
<event>
 5   0  0.1760649E-01  0.5056183E+03  0.7818609E-02  0.1012323E+00
       -2   -1    0    0    0  501  0.00000000000E+00  0.00000000000E+00  0.51628819314E+03  0.51628819314E+03  0.25500000920E-02 0.  1.
        2   -1    0    0  501    0  0.00000000000E+00  0.00000000000E+00 -0.12379221128E+03  0.12379221130E+03  0.25500000920E-02 0. -1.
    10030    2    1    2    0    0  0.00000000000E+00  0.00000000000E+00  0.39249598186E+03  0.64008040444E+03  0.50561826349E+03 0.  0.
        5    1    3    3  502    0  0.24427817336E+03 -0.63944605501E+02  0.21066124697E+03  0.32887838105E+03  0.46999998093E+01 0. -1.
       -5    1    3    3    0  502 -0.24427817336E+03  0.63944605501E+02  0.18183473489E+03  0.31120202339E+03  0.46999998093E+01 0.  1.
</event>
<event>
 5   0  0.7220250E-02  0.4900643E+03  0.7818609E-02  0.1016405E+00
        3   -1    0    0  501    0  0.00000000000E+00  0.00000000000E+00  0.96362114240E+02  0.96362167171E+02  0.10100000352E+00 0.  1.
       -3   -1    0    0    0  501  0.00000000000E+00  0.00000000000E+00 -0.62307415135E+03  0.62307415954E+03  0.10100000352E+00 0. -1.
    10030    2    1    2    0    0  0.00000000000E+00  0.00000000000E+00 -0.52671203711E+03  0.71943632671E+03  0.49006434083E+03 0.  0.
        3    1    3    3  502    0 -0.20317883139E+03  0.55706649776E+02 -0.44704287648E+03  0.49419855521E+03  0.10100000352E+00 0. -1.
       -3    1    3    3    0  502  0.20317883139E+03 -0.55706649776E+02 -0.79669160626E+02  0.22523777150E+03  0.10100000352E+00 0.  1.
</event>
<event>
 5   0  0.1709372E-01  0.4925330E+03  0.7818609E-02  0.1015747E+00
        2   -1    0    0  501    0  0.00000000000E+00  0.00000000000E+00  0.27651892301E+03  0.27651892302E+03  0.25500000920E-02 0.  1.
       -2   -1    0    0    0  501  0.00000000000E+00  0.00000000000E+00 -0.21932378766E+03  0.21932378768E+03  0.25500000920E-02 0. -1.
    10030    2    1    2    0    0  0.00000000000E+00  0.00000000000E+00  0.57195135344E+02  0.49584271069E+03  0.49253295346E+03 0.  0.
        4    1    3    3  502    0  0.16396461118E+03 -0.15940801187E+03  0.12059136655E+03  0.25853278043E+03  0.12699999809E+01 0.  1.
       -4    1    3    3    0  502 -0.16396461118E+03  0.15940801187E+03 -0.63396231208E+02  0.23730993026E+03  0.12699999809E+01 0. -1.
</event>
<event>
 5   0  0.1123271E-01  0.4997589E+03  0.7818609E-02  0.1013842E+00
        1   -1    0    0  501    0  0.00000000000E+00  0.00000000000E+00  0.12375894891E+04  0.12375894891E+04  0.50400001928E-02 0.  1.
       -1   -1    0    0    0  501  0.00000000000E+00  0.00000000000E+00 -0.50452706003E+02  0.50452706255E+02  0.50400001928E-02 0. -1.
    10030    2    1    2    0    0  0.00000000000E+00  0.00000000000E+00  0.11871367831E+04  0.12880421954E+04  0.49975889713E+03 0.  0.
        5    1    3    3  502    0 -0.23446661355E+02  0.18483628634E+03  0.16458894431E+03  0.24864796251E+03  0.46999998093E+01 0. -1.
       -5    1    3    3    0  502  0.23446661355E+02 -0.18483628634E+03  0.10225478388E+04  0.10393942329E+04  0.46999998093E+01 0.  1.
</event>
<event>
 5   0  0.1709372E-01  0.5180774E+03  0.7818609E-02  0.1009165E+00
       -2   -1    0    0    0  501  0.00000000000E+00  0.00000000000E+00  0.72509616720E+02  0.72509616765E+02  0.25500000920E-02 0.  1.
        2   -1    0    0  501    0  0.00000000000E+00  0.00000000000E+00 -0.92540907857E+03  0.92540907858E+03  0.25500000920E-02 0. -1.
    10030    2    1    2    0    0  0.00000000000E+00  0.00000000000E+00 -0.85289946185E+03  0.99791869534E+03  0.51807743676E+03 0.  0.
        4    1    3    3  502    0 -0.14841367169E+03  0.19691671862E+03 -0.57929593618E+03  0.62959368373E+03  0.12699999809E+01 0. -1.
       -4    1    3    3    0  502  0.14841367169E+03 -0.19691671862E+03 -0.27360352567E+03  0.36832501161E+03  0.12699999809E+01 0.  1.
</event>
<event>
 5   0  0.1141970E-01  0.4903814E+03  0.7818609E-02  0.1016320E+00
        1   -1    0    0  501    0  0.00000000000E+00  0.00000000000E+00  0.51121364061E+03  0.51121364064E+03  0.50400001928E-02 0.  1.
       -1   -1    0    0    0  501  0.00000000000E+00  0.00000000000E+00 -0.11759949966E+03  0.11759949977E+03  0.50400001928E-02 0. -1.
    10030    2    1    2    0    0  0.00000000000E+00  0.00000000000E+00  0.39361414095E+03  0.62881314041E+03  0.49038135527E+03 0.  0.
        3    1    3    3  502    0  0.17171985797E+03 -0.12072538332E+03  0.34324005639E+02  0.21269808501E+03  0.10100000352E+00 0. -1.
       -3    1    3    3    0  502 -0.17171985797E+03  0.12072538332E+03  0.35929013531E+03  0.41611505540E+03  0.10100000352E+00 0.  1.
</event>
<event>
 5   0  0.1683148E-01  0.5005877E+03  0.7818609E-02  0.1013626E+00
       -2   -1    0    0    0  501  0.00000000000E+00  0.00000000000E+00  0.45406735505E+03  0.45406735506E+03  0.25500000920E-02 0. -1.
        2   -1    0    0  501    0  0.00000000000E+00  0.00000000000E+00 -0.13796853959E+03  0.13796853961E+03  0.25500000920E-02 0.  1.
    10030    2    1    2    0    0  0.00000000000E+00  0.00000000000E+00  0.31609881546E+03  0.59203589467E+03  0.50058769406E+03 0.  0.
        2    1    3    3  502    0 -0.11603778945E+03  0.13110486727E+03  0.36959329329E+03  0.40896510518E+03  0.25500000920E-02 0. -1.
       -2    1    3    3    0  502  0.11603778945E+03 -0.13110486727E+03 -0.53494477827E+02  0.18307078950E+03  0.25500000920E-02 0.  1.
</event>
<event>
 5   0  0.1827698E-01  0.5021871E+03  0.7818609E-02  0.1013210E+00
       -2   -1    0    0    0  501  0.00000000000E+00  0.00000000000E+00  0.27759639460E+02  0.27759639577E+02  0.25500000920E-02 0. -1.
        2   -1    0    0  501    0  0.00000000000E+00  0.00000000000E+00 -0.22712104163E+04  0.22712104163E+04  0.25500000920E-02 0.  1.
    10030    2    1    2    0    0  0.00000000000E+00  0.00000000000E+00 -0.22434507769E+04  0.22989700559E+04  0.50218714612E+03 0.  0.
        1    1    3    3  502    0 -0.20740196200E+03  0.11274495598E+03 -0.73002641334E+03  0.76724543866E+03  0.50400001928E-02 0. -1.
       -1    1    3    3    0  502  0.20740196200E+03 -0.11274495598E+03 -0.15134243635E+04  0.15317246173E+04  0.50400001928E-02 0.  1.
</event>
<event>
 5   0  0.7220250E-02  0.4733620E+03  0.7818609E-02  0.1020976E+00
       -3   -1    0    0    0  501  0.00000000000E+00  0.00000000000E+00  0.19525978016E+03  0.19525980628E+03  0.10100000352E+00 0.  1.
        3   -1    0    0  501    0  0.00000000000E+00  0.00000000000E+00 -0.28688900744E+03  0.28688902522E+03  0.10100000352E+00 0. -1.
    10030    2    1    2    0    0  0.00000000000E+00  0.00000000000E+00 -0.91629227287E+02  0.48214883150E+03  0.47336199723E+03 0.  0.
        1    1    3    3  502    0  0.22773703831E+03  0.16299893158E+01 -0.11143945408E+03  0.25354598682E+03  0.50400001928E-02 0. -1.
       -1    1    3    3    0  502 -0.22773703831E+03 -0.16299893158E+01  0.19810226792E+02  0.22860284468E+03  0.50400001928E-02 0.  1.
</event>
<event>
 5   0  0.1068522E-01  0.4961615E+03  0.7818609E-02  0.1014786E+00
        1   -1    0    0  501    0  0.00000000000E+00  0.00000000000E+00  0.50462045465E+03  0.50462045468E+03  0.50400001928E-02 0. -1.
       -1   -1    0    0    0  501  0.00000000000E+00  0.00000000000E+00 -0.12196108325E+03  0.12196108335E+03  0.50400001928E-02 0.  1.
    10030    2    1    2    0    0  0.00000000000E+00  0.00000000000E+00  0.38265937140E+03  0.62658153803E+03  0.49616149516E+03 0.  0.
        2    1    3    3  502    0  0.37866327681E+02  0.92404781993E+02 -0.95457438656E+02  0.13814711401E+03  0.25500000920E-02 0.  1.
       -2    1    3    3    0  502 -0.37866327681E+02 -0.92404781993E+02  0.47811681006E+03  0.48843442403E+03  0.25500000920E-02 0. -1.
</event>
<event>
 5   0  0.1827698E-01  0.5025186E+03  0.7818609E-02  0.1013124E+00
        2   -1    0    0  501    0  0.00000000000E+00  0.00000000000E+00  0.40463763377E+03  0.40463763378E+03  0.25500000920E-02 0. -1.
       -2   -1    0    0    0  501  0.00000000000E+00  0.00000000000E+00 -0.15601919922E+03  0.15601919924E+03  0.25500000920E-02 0.  1.
    10030    2    1    2    0    0  0.00000000000E+00  0.00000000000E+00  0.24861843454E+03  0.56065683302E+03  0.50251861500E+03 0.  0.
        1    1    3    3  502    0  0.46537378912E+02 -0.17204645921E+02 -0.15049931751E+03  0.15846694316E+03  0.50400001928E-02 0.  1.
       -1    1    3    3    0  502 -0.46537378912E+02  0.17204645921E+02  0.39911775205E+03  0.40218988986E+03  0.50400001928E-02 0. -1.
</event>
<event>
 5   0  0.7220250E-02  0.5008879E+03  0.7818609E-02  0.1013547E+00
       -4   -1    0    0    0  501  0.00000000000E+00  0.00000000000E+00  0.76245134633E+02  0.76255710968E+02  0.12699999809E+01 0. -1.
        4   -1    0    0  501    0  0.00000000000E+00  0.00000000000E+00 -0.82257030683E+03  0.82257128723E+03  0.12699999809E+01 0.  1.
    10030    2    1    2    0    0  0.00000000000E+00  0.00000000000E+00 -0.74632517219E+03  0.89882699820E+03  0.50088792163E+03 0.  0.
        2    1    3    3  502    0 -0.67388431773E+02  0.57547185781E+02 -0.79350213348E+03  0.79843504129E+03  0.25500000920E-02 0.  1.
       -2    1    3    3    0  502  0.67388431773E+02 -0.57547185781E+02  0.47176961283E+02  0.10039195690E+03  0.25500000920E-02 0. -1.
</event>
<event>
 5   0  0.1709372E-01  0.4987122E+03  0.7818609E-02  0.1014116E+00
        2   -1    0    0  501    0  0.00000000000E+00  0.00000000000E+00  0.12414660847E+04  0.12414660847E+04  0.25500000920E-02 0.  1.
       -2   -1    0    0    0  501  0.00000000000E+00  0.00000000000E+00 -0.50084699923E+02  0.50084699988E+02  0.25500000920E-02 0. -1.
    10030    2    1    2    0    0  0.00000000000E+00  0.00000000000E+00  0.11913813848E+04  0.12915507847E+04  0.49871216693E+03 0.  0.
        4    1    3    3  502    0  0.93849441930E+02 -0.20672901585E+02  0.11915732847E+04  0.11954428436E+04  0.12699999809E+01 0.  1.
       -4    1    3    3    0  502 -0.93849441930E+02  0.20672901585E+02 -0.19189994389E+00  0.96107941067E+02  0.12699999809E+01 0. -1.
</event>
<event>
 5   0  0.1782124E-01  0.4946801E+03  0.7818609E-02  0.1015177E+00
        2   -1    0    0  501    0  0.00000000000E+00  0.00000000000E+00  0.12740419328E+03  0.12740419330E+03  0.25500000920E-02 0. -1.
       -2   -1    0    0    0  501  0.00000000000E+00  0.00000000000E+00 -0.48018124701E+03  0.48018124702E+03  0.25500000920E-02 0.  1.
    10030    2    1    2    0    0  0.00000000000E+00  0.00000000000E+00 -0.35277705373E+03  0.60758544032E+03  0.49468011649E+03 0.  0.
        3    1    3    3  502    0  0.18761185599E+02 -0.18364984557E+03 -0.37857415974E+03  0.42118600700E+03  0.10100000352E+00 0.  1.
       -3    1    3    3    0  502 -0.18761185599E+02  0.18364984557E+03  0.25797106008E+02  0.18639943332E+03  0.10100000352E+00 0. -1.
</event>
<event>
 5   0  0.1068522E-01  0.4964500E+03  0.7818609E-02  0.1014710E+00
        1   -1    0    0  501    0  0.00000000000E+00  0.00000000000E+00  0.72061606065E+03  0.72061606067E+03  0.50400001928E-02 0. -1.
       -1   -1    0    0    0  501  0.00000000000E+00  0.00000000000E+00 -0.85504119104E+02  0.85504119253E+02  0.50400001928E-02 0.  1.
    10030    2    1    2    0    0  0.00000000000E+00  0.00000000000E+00  0.63511194155E+03  0.80612017992E+03  0.49644996342E+03 0.  0.
        2    1    3    3  502    0  0.21724427232E+03  0.11963602772E+03  0.33441414877E+03  0.41634201792E+03  0.25500000920E-02 0. -1.
       -2    1    3    3    0  502 -0.21724427232E+03 -0.11963602772E+03  0.30069779278E+03  0.38977816200E+03  0.25500000920E-02 0.  1.
</event>
<event>
 5   0  0.1074281E-01  0.4997438E+03  0.7818609E-02  0.1013846E+00
        1   -1    0    0  501    0  0.00000000000E+00  0.00000000000E+00  0.16485991852E+03  0.16485991860E+03  0.50400001928E-02 0. -1.
       -1   -1    0    0    0  501  0.00000000000E+00  0.00000000000E+00 -0.37872127381E+03  0.37872127385E+03  0.50400001928E-02 0.  1.
    10030    2    1    2    0    0  0.00000000000E+00  0.00000000000E+00 -0.21386135529E+03  0.54358119245E+03  0.49974376784E+03 0.  0.
        4    1    3    3  502    0  0.22731226069E+03 -0.18350078925E+02 -0.21799936646E+03  0.31548839271E+03  0.12699999809E+01 0.  1.
       -4    1    3    3    0  502 -0.22731226069E+03  0.18350078925E+02  0.41380111768E+01  0.22809279974E+03  0.12699999809E+01 0. -1.
</event>
<event>
 5   0  0.1141970E-01  0.4976861E+03  0.7818609E-02  0.1014385E+00
       -1   -1    0    0    0  501  0.00000000000E+00  0.00000000000E+00  0.86699071395E+02  0.86699071542E+02  0.50400001928E-02 0.  1.
        1   -1    0    0  501    0  0.00000000000E+00  0.00000000000E+00 -0.71422739100E+03  0.71422739102E+03  0.50400001928E-02 0. -1.
    10030    2    1    2    0    0  0.00000000000E+00  0.00000000000E+00 -0.62752831961E+03  0.80092646256E+03  0.49768605217E+03 0.  0.
        3    1    3    3  502    0 -0.10613542495E+03  0.18652943863E+02 -0.67472917484E+03  0.68328041852E+03  0.10100000352E+00 0. -1.
       -3    1    3    3    0  502  0.10613542495E+03 -0.18652943863E+02  0.47200855234E+02  0.11764604405E+03  0.10100000352E+00 0.  1.
</event>
<event>
 5   0  0.1141970E-01  0.5040393E+03  0.7818609E-02  0.1012730E+00
       -1   -1    0    0    0  501  0.00000000000E+00  0.00000000000E+00  0.69587103268E+02  0.69587103450E+02  0.50400001928E-02 0.  1.
        1   -1    0    0  501    0  0.00000000000E+00  0.00000000000E+00 -0.91272524683E+03  0.91272524684E+03  0.50400001928E-02 0. -1.
    10030    2    1    2    0    0  0.00000000000E+00  0.00000000000E+00 -0.84313814356E+03  0.98231235029E+03  0.50403930840E+03 0.  0.
        3    1    3    3  502    0  0.45463331670E+02 -0.13873331087E+03 -0.21217369708E+02  0.14752638086E+03  0.10100000352E+00 0.  1.
       -3    1    3    3    0  502 -0.45463331670E+02  0.13873331087E+03 -0.82192077385E+03  0.83478596943E+03  0.10100000352E+00 0. -1.
</event>
<event>
 5   0  0.1827698E-01  0.5074257E+03  0.7818609E-02  0.1011859E+00
       -2   -1    0    0    0  501  0.00000000000E+00  0.00000000000E+00  0.21059624264E+03  0.21059624265E+03  0.25500000920E-02 0.  1.
        2   -1    0    0  501    0  0.00000000000E+00  0.00000000000E+00 -0.30565695405E+03  0.30565695406E+03  0.25500000920E-02 0. -1.
    10030    2    1    2    0    0  0.00000000000E+00  0.00000000000E+00 -0.95060711413E+02  0.51625319671E+03  0.50742568349E+03 0.  0.
        1    1    3    3  502    0 -0.89825537416E+01  0.26091322111E+02  0.20906499460E+03  0.21087820028E+03  0.50400001928E-02 0.  1.
       -1    1    3    3    0  502  0.89825537416E+01 -0.26091322111E+02 -0.30412570601E+03  0.30537499643E+03  0.50400001928E-02 0. -1.
</event>
<event>
 5   0  0.1760649E-01  0.4951188E+03  0.7818609E-02  0.1015061E+00
       -2   -1    0    0    0  501  0.00000000000E+00  0.00000000000E+00  0.57084362184E+03  0.57084362184E+03  0.25500000920E-02 0. -1.
        2   -1    0    0  501    0  0.00000000000E+00  0.00000000000E+00 -0.10735981555E+03  0.10735981558E+03  0.25500000920E-02 0.  1.
    10030    2    1    2    0    0  0.00000000000E+00  0.00000000000E+00  0.46348380629E+03  0.67820343742E+03  0.49511883809E+03 0.  0.
        5    1    3    3  502    0 -0.14069816242E+03  0.13692634841E+03  0.25278528506E+02  0.19800477721E+03  0.46999998093E+01 0.  1.
       -5    1    3    3    0  502  0.14069816242E+03 -0.13692634841E+03  0.43820527779E+03  0.48019866022E+03  0.46999998093E+01 0. -1.
</event>
<event>
 5   0  0.1683148E-01  0.4995723E+03  0.7818609E-02  0.1013891E+00
       -2   -1    0    0    0  501  0.00000000000E+00  0.00000000000E+00  0.10289608348E+03  0.10289608351E+03  0.25500000920E-02 0. -1.
        2   -1    0    0  501    0  0.00000000000E+00  0.00000000000E+00 -0.60637025427E+03  0.60637025428E+03  0.25500000920E-02 0.  1.
    10030    2    1    2    0    0  0.00000000000E+00  0.00000000000E+00 -0.50347417079E+03  0.70926633779E+03  0.49957231435E+03 0.  0.
        2    1    3    3  502    0  0.23552952480E+03  0.34449864609E+02 -0.14424643967E+03  0.27833071262E+03  0.25500000920E-02 0. -1.
       -2    1    3    3    0  502 -0.23552952480E+03 -0.34449864609E+02 -0.35922773112E+03  0.43093562517E+03  0.25500000920E-02 0.  1.
</event>
<event>
 5   0  0.1147245E-01  0.4709439E+03  0.7818609E-02  0.1021654E+00
       -1   -1    0    0    0  501  0.00000000000E+00  0.00000000000E+00  0.38590857377E+02  0.38590857707E+02  0.50400001928E-02 0. -1.
        1   -1    0    0  501    0  0.00000000000E+00  0.00000000000E+00 -0.14367920509E+04  0.14367920509E+04  0.50400001928E-02 0.  1.
    10030    2    1    2    0    0  0.00000000000E+00  0.00000000000E+00 -0.13982011935E+04  0.14753829086E+04  0.47094389206E+03 0.  0.
        1    1    3    3  502    0 -0.21743423292E+03 -0.84150548251E+02 -0.80243986452E+03  0.83562473433E+03  0.50400001928E-02 0. -1.
       -1    1    3    3    0  502  0.21743423292E+03  0.84150548251E+02 -0.59576132902E+03  0.63975817431E+03  0.50400001928E-02 0.  1.
</event>
<event>
 5   0  0.1683148E-01  0.5008092E+03  0.7818609E-02  0.1013568E+00
       -2   -1    0    0    0  501  0.00000000000E+00  0.00000000000E+00  0.55976835118E+02  0.55976835176E+02  0.25500000920E-02 0.  1.
        2   -1    0    0  501    0  0.00000000000E+00  0.00000000000E+00 -0.11201503492E+04  0.11201503492E+04  0.25500000920E-02 0. -1.
    10030    2    1    2    0    0  0.00000000000E+00  0.00000000000E+00 -0.10641735141E+04  0.11761271844E+04  0.50080923090E+03 0.  0.
        2    1    3    3  502    0  0.13734043049E+03  0.11407977356E+03 -0.11976170282E+03  0.21498710206E+03  0.25500000920E-02 0.  1.
       -2    1    3    3    0  502 -0.13734043049E+03 -0.11407977356E+03 -0.94441181124E+03  0.96114008229E+03  0.25500000920E-02 0. -1.
</event>
<event>
 5   0  0.1147245E-01  0.5070175E+03  0.7818609E-02  0.1011963E+00
       -1   -1    0    0    0  501  0.00000000000E+00  0.00000000000E+00  0.60033868780E+02  0.60033868992E+02  0.50400001928E-02 0. -1.
        1   -1    0    0  501    0  0.00000000000E+00  0.00000000000E+00 -0.10705069581E+04  0.10705069581E+04  0.50400001928E-02 0.  1.
    10030    2    1    2    0    0  0.00000000000E+00  0.00000000000E+00 -0.10104730893E+04  0.11305408271E+04  0.50701745286E+03 0.  0.
        1    1    3    3  502    0 -0.49687433595E+02 -0.30728706960E+02  0.44818823361E+02  0.73633018691E+02  0.50400001928E-02 0. -1.
       -1    1    3    3    0  502  0.49687433595E+02  0.30728706960E+02 -0.10552919126E+04  0.10569078084E+04  0.50400001928E-02 0.  1.
</event>
<event>
 5   0  0.1123271E-01  0.5113611E+03  0.7818609E-02  0.1010855E+00
        1   -1    0    0  501    0  0.00000000000E+00  0.00000000000E+00  0.14225676963E+04  0.14225676963E+04  0.50400001928E-02 0. -1.
       -1   -1    0    0    0  501  0.00000000000E+00  0.00000000000E+00 -0.45953907246E+02  0.45953907523E+02  0.50400001928E-02 0.  1.
    10030    2    1    2    0    0  0.00000000000E+00  0.00000000000E+00  0.13766137891E+04  0.14685216039E+04  0.51136110207E+03 0.  0.
        5    1    3    3  502    0  0.70598109008E+02 -0.24564533123E+03  0.70258879639E+03  0.74764886716E+03  0.46999998093E+01 0.  1.
       -5    1    3    3    0  502 -0.70598109008E+02  0.24564533123E+03  0.67402499269E+03  0.72087273670E+03  0.46999998093E+01 0. -1.
</event>
<event>
 5   0  0.1709372E-01  0.3728614E+03  0.7818609E-02  0.1053604E+00
        2   -1    0    0  501    0  0.00000000000E+00  0.00000000000E+00  0.68418703386E+02  0.68418703434E+02  0.25500000920E-02 0. -1.
       -2   -1    0    0    0  501  0.00000000000E+00  0.00000000000E+00 -0.50799575675E+03  0.50799575676E+03  0.25500000920E-02 0.  1.
    10030    2    1    2    0    0  0.00000000000E+00  0.00000000000E+00 -0.43957705336E+03  0.57641446019E+03  0.37286142744E+03 0.  0.
        4    1    3    3  502    0 -0.12442764057E+03  0.44234002668E+02 -0.16360815977E+02  0.13307206292E+03  0.12699999809E+01 0. -1.
       -4    1    3    3    0  502  0.12442764057E+03 -0.44234002668E+02 -0.42321623739E+03  0.44334239727E+03  0.12699999809E+01 0.  1.
</event>
<event>
 5   0  0.1147245E-01  0.4742013E+03  0.7818609E-02  0.1020741E+00
       -1   -1    0    0    0  501  0.00000000000E+00  0.00000000000E+00  0.51324407349E+02  0.51324407597E+02  0.50400001928E-02 0. -1.
        1   -1    0    0  501    0  0.00000000000E+00  0.00000000000E+00 -0.10953214709E+04  0.10953214709E+04  0.50400001928E-02 0.  1.
    10030    2    1    2    0    0  0.00000000000E+00  0.00000000000E+00 -0.10439970636E+04  0.11466458785E+04  0.47420133066E+03 0.  0.
        1    1    3    3  502    0  0.78618932294E+02  0.13511611193E+02  0.17901280493E+02  0.81755464776E+02  0.50400001928E-02 0. -1.
       -1    1    3    3    0  502 -0.78618932294E+02 -0.13511611193E+02 -0.10618983441E+04  0.10648904137E+04  0.50400001928E-02 0.  1.
</event>
<event>
 5   0  0.1123271E-01  0.5019085E+03  0.7818609E-02  0.1013282E+00
       -1   -1    0    0    0  501  0.00000000000E+00  0.00000000000E+00  0.22378818432E+03  0.22378818438E+03  0.50400001928E-02 0.  1.
        1   -1    0    0  501    0  0.00000000000E+00  0.00000000000E+00 -0.28141800370E+03  0.28141800375E+03  0.50400001928E-02 0. -1.
    10030    2    1    2    0    0  0.00000000000E+00  0.00000000000E+00 -0.57629819383E+02  0.50520618812E+03  0.50190845424E+03 0.  0.
        5    1    3    3  502    0 -0.12165276505E+03  0.17527332611E+03 -0.16172718418E+03  0.26776464701E+03  0.46999998093E+01 0. -1.
       -5    1    3    3    0  502  0.12165276505E+03 -0.17527332611E+03  0.10409736480E+03  0.23744154111E+03  0.46999998093E+01 0.  1.
</event>
<event>
 5   0  0.1147245E-01  0.4856051E+03  0.7818609E-02  0.1017606E+00
       -1   -1    0    0    0  501  0.00000000000E+00  0.00000000000E+00  0.57746259030E+03  0.57746259032E+03  0.50400001928E-02 0.  1.
        1   -1    0    0  501    0  0.00000000000E+00  0.00000000000E+00 -0.10208986458E+03  0.10208986470E+03  0.50400001928E-02 0. -1.
    10030    2    1    2    0    0  0.00000000000E+00  0.00000000000E+00  0.47537272572E+03  0.67955245503E+03  0.48560509756E+03 0.  0.
        1    1    3    3  502    0 -0.46350814512E+02  0.17577764096E+03  0.12445346586E+02  0.18221159058E+03  0.50400001928E-02 0. -1.
       -1    1    3    3    0  502  0.46350814512E+02 -0.17577764096E+03  0.46292737914E+03  0.49734086444E+03  0.50400001928E-02 0.  1.
</event>
<event>
 5   0  0.1068522E-01  0.4919129E+03  0.7818609E-02  0.1015912E+00
       -1   -1    0    0    0  501  0.00000000000E+00  0.00000000000E+00  0.18576252207E+03  0.18576252214E+03  0.50400001928E-02 0.  1.
        1   -1    0    0  501    0  0.00000000000E+00  0.00000000000E+00 -0.32565544742E+03  0.32565544746E+03  0.50400001928E-02 0. -1.
    10030    2    1    2    0    0  0.00000000000E+00  0.00000000000E+00 -0.13989292535E+03  0.51141796960E+03  0.49191290801E+03 0.  0.
        2    1    3    3  502    0  0.67256235215E+02  0.35482178641E+02  0.17323463735E+03  0.18918939125E+03  0.25500000920E-02 0.  1.
       -2    1    3    3    0  502 -0.67256235215E+02 -0.35482178641E+02 -0.31312756270E+03  0.32222857835E+03  0.25500000920E-02 0. -1.
</event>
<event>
 5   0  0.1068522E-01  0.5001809E+03  0.7818609E-02  0.1013732E+00
       -1   -1    0    0    0  501  0.00000000000E+00  0.00000000000E+00  0.54810561434E+02  0.54810561666E+02  0.50400001928E-02 0.  1.
        1   -1    0    0  501    0  0.00000000000E+00  0.00000000000E+00 -0.11411163471E+04  0.11411163472E+04  0.50400001928E-02 0. -1.
    10030    2    1    2    0    0  0.00000000000E+00  0.00000000000E+00 -0.10863057857E+04  0.11959269088E+04  0.50018087846E+03 0.  0.
        2    1    3    3  502    0 -0.14139106082E+03 -0.39984884190E+02 -0.10270255072E+04  0.10374833085E+04  0.25500000920E-02 0. -1.
       -2    1    3    3    0  502  0.14139106082E+03  0.39984884190E+02 -0.59280278499E+02  0.15844360028E+03  0.25500000920E-02 0.  1.
</event>
<event>
 5   0  0.7220250E-02  0.3921282E+03  0.7818609E-02  0.1046540E+00
       -3   -1    0    0    0  501  0.00000000000E+00  0.00000000000E+00  0.10018386459E+04  0.10018386510E+04  0.10100000352E+00 0. -1.
        3   -1    0    0  501    0  0.00000000000E+00  0.00000000000E+00 -0.38370501495E+02  0.38370634423E+02  0.10100000352E+00 0.  1.
    10030    2    1    2    0    0  0.00000000000E+00  0.00000000000E+00  0.96346814437E+03  0.10402092854E+04  0.39212815784E+03 0.  0.
        1    1    3    3  502    0  0.17706643380E+03 -0.15171528258E+02  0.70142135546E+03  0.72358455979E+03  0.50400001928E-02 0. -1.
       -1    1    3    3    0  502 -0.17706643380E+03  0.15171528258E+02  0.26204678891E+03  0.31662472559E+03  0.50400001928E-02 0.  1.
</event>
<event>
 5   0  0.7220250E-02  0.5077399E+03  0.7818609E-02  0.1011778E+00
       -3   -1    0    0    0  501  0.00000000000E+00  0.00000000000E+00  0.40640937043E+03  0.40640938298E+03  0.10100000352E+00 0. -1.
        3   -1    0    0  501    0  0.00000000000E+00  0.00000000000E+00 -0.15858379591E+03  0.15858382807E+03  0.10100000352E+00 0.  1.
    10030    2    1    2    0    0  0.00000000000E+00  0.00000000000E+00  0.24782557452E+03  0.56499321106E+03  0.50773990699E+03 0.  0.
        3    1    3    3  502    0 -0.45687136150E+02 -0.23459980077E+03  0.21915345007E+03  0.32427245613E+03  0.10100000352E+00 0. -1.
       -3    1    3    3    0  502  0.45687136150E+02  0.23459980077E+03  0.28672124457E+02  0.24072075493E+03  0.10100000352E+00 0.  1.
</event>
<event>
 5   0  0.1123271E-01  0.5068537E+03  0.7818609E-02  0.1012005E+00
        1   -1    0    0  501    0  0.00000000000E+00  0.00000000000E+00  0.13678702860E+03  0.13678702869E+03  0.50400001928E-02 0. -1.
       -1   -1    0    0    0  501  0.00000000000E+00  0.00000000000E+00 -0.46952674496E+03  0.46952674499E+03  0.50400001928E-02 0.  1.
    10030    2    1    2    0    0  0.00000000000E+00  0.00000000000E+00 -0.33273971637E+03  0.60631377368E+03  0.50685370011E+03 0.  0.
        5    1    3    3  502    0 -0.13429438213E+03 -0.17585457857E+03 -0.31406078134E+03  0.38420837868E+03  0.46999998093E+01 0.  1.
       -5    1    3    3    0  502  0.13429438213E+03  0.17585457857E+03 -0.18678935025E+02  0.22210539500E+03  0.46999998093E+01 0. -1.
</event>
<event>
 5   0  0.1827698E-01  0.4994812E+03  0.7818609E-02  0.1013914E+00
       -2   -1    0    0    0  501  0.00000000000E+00  0.00000000000E+00  0.86033599064E+02  0.86033599101E+02  0.25500000920E-02 0. -1.
        2   -1    0    0  501    0  0.00000000000E+00  0.00000000000E+00 -0.72495350636E+03  0.72495350636E+03  0.25500000920E-02 0.  1.
    10030    2    1    2    0    0  0.00000000000E+00  0.00000000000E+00 -0.63891990729E+03  0.81098710546E+03  0.49948116811E+03 0.  0.
        1    1    3    3  502    0  0.23613721628E+03  0.77282564481E+02 -0.27848130843E+03  0.37320934991E+03  0.50400001928E-02 0. -1.
       -1    1    3    3    0  502 -0.23613721628E+03 -0.77282564481E+02 -0.36043859886E+03  0.43777775556E+03  0.50400001928E-02 0.  1.
</event>
<event>
 5   0  0.7220250E-02  0.5127635E+03  0.7818609E-02  0.1010500E+00
       -4   -1    0    0    0  501  0.00000000000E+00  0.00000000000E+00  0.14070935771E+03  0.14071508891E+03  0.12699999809E+01 0. -1.
        4   -1    0    0  501    0  0.00000000000E+00  0.00000000000E+00 -0.46712847189E+03  0.46713019828E+03  0.12699999809E+01 0.  1.
    10030    2    1    2    0    0  0.00000000000E+00  0.00000000000E+00 -0.32641911417E+03  0.60784528720E+03  0.51276354694E+03 0.  0.
        5    1    3    3  502    0  0.69687709810E+02  0.85572689265E+02  0.11105924236E+03  0.15663750304E+03  0.46999998093E+01 0. -1.
       -5    1    3    3    0  502 -0.69687709810E+02 -0.85572689265E+02 -0.43747835654E+03  0.45120778416E+03  0.46999998093E+01 0.  1.
</event>
<event>
 5   0  0.1782124E-01  0.5016081E+03  0.7818609E-02  0.1013360E+00
        2   -1    0    0  501    0  0.00000000000E+00  0.00000000000E+00  0.75590775194E+03  0.75590775195E+03  0.25500000920E-02 0. -1.
       -2   -1    0    0    0  501  0.00000000000E+00  0.00000000000E+00 -0.83214738954E+02  0.83214738993E+02  0.25500000920E-02 0.  1.
    10030    2    1    2    0    0  0.00000000000E+00  0.00000000000E+00  0.67269301299E+03  0.83912249094E+03  0.50160807916E+03 0.  0.
        3    1    3    3  502    0 -0.17217252469E+03  0.86360049684E+02  0.67638283693E+02  0.20414794650E+03  0.10100000352E+00 0.  1.
       -3    1    3    3    0  502  0.17217252469E+03 -0.86360049684E+02  0.60505472930E+03  0.63497454444E+03  0.10100000352E+00 0. -1.
</event>
<event>
 5   0  0.1074281E-01  0.4993194E+03  0.7818609E-02  0.1013957E+00
       -1   -1    0    0    0  501  0.00000000000E+00  0.00000000000E+00  0.10667526747E+03  0.10667526759E+03  0.50400001928E-02 0. -1.
        1   -1    0    0  501    0  0.00000000000E+00  0.00000000000E+00 -0.58429634020E+03  0.58429634022E+03  0.50400001928E-02 0.  1.
    10030    2    1    2    0    0  0.00000000000E+00  0.00000000000E+00 -0.47762107273E+03  0.69097160781E+03  0.49931941048E+03 0.  0.
        4    1    3    3  502    0  0.14624855629E+02  0.11648330641E+03  0.66090544721E+02  0.13472869062E+03  0.12699999809E+01 0. -1.
       -4    1    3    3    0  502 -0.14624855629E+02 -0.11648330641E+03 -0.54371161745E+03  0.55624291719E+03  0.12699999809E+01 0.  1.
</event>
<event>
 5   0  0.1827698E-01  0.5006006E+03  0.7818609E-02  0.1013622E+00
       -2   -1    0    0    0  501  0.00000000000E+00  0.00000000000E+00  0.98844073039E+02  0.98844073072E+02  0.25500000920E-02 0. -1.
        2   -1    0    0  501    0  0.00000000000E+00  0.00000000000E+00 -0.63382896575E+03  0.63382896575E+03  0.25500000920E-02 0.  1.
    10030    2    1    2    0    0  0.00000000000E+00  0.00000000000E+00 -0.53498489271E+03  0.73267303882E+03  0.50060058569E+03 0.  0.
        1    1    3    3  502    0  0.13346691951E+03  0.21169506702E+03 -0.27435986747E+03  0.37135098883E+03  0.50400001928E-02 0.  1.
       -1    1    3    3    0  502 -0.13346691951E+03 -0.21169506702E+03 -0.26062502524E+03  0.36132204999E+03  0.50400001928E-02 0. -1.
</event>
<event>
 5   0  0.1147245E-01  0.4985872E+03  0.7818609E-02  0.1014148E+00
        1   -1    0    0  501    0  0.00000000000E+00  0.00000000000E+00  0.21520132770E+03  0.21520132775E+03  0.50400001928E-02 0.  1.
       -1   -1    0    0    0  501  0.00000000000E+00  0.00000000000E+00 -0.28878682400E+03  0.28878682404E+03  0.50400001928E-02 0. -1.
    10030    2    1    2    0    0  0.00000000000E+00  0.00000000000E+00 -0.73585496302E+02  0.50398815180E+03  0.49858723598E+03 0.  0.
        1    1    3    3  502    0 -0.65772986423E+02 -0.33600184611E+02 -0.27747330997E+03  0.28713497857E+03  0.50400001928E-02 0. -1.
       -1    1    3    3    0  502  0.65772986423E+02  0.33600184611E+02  0.20388781367E+03  0.21685317322E+03  0.50400001928E-02 0.  1.
</event>
<event>
 5   0  0.1709372E-01  0.4554699E+03  0.7818609E-02  0.1026103E+00
       -2   -1    0    0    0  501  0.00000000000E+00  0.00000000000E+00  0.40320294922E+02  0.40320295002E+02  0.25500000920E-02 0. -1.
        2   -1    0    0  501    0  0.00000000000E+00  0.00000000000E+00 -0.12862802671E+04  0.12862802671E+04  0.25500000920E-02 0.  1.
    10030    2    1    2    0    0  0.00000000000E+00  0.00000000000E+00 -0.12459599722E+04  0.13266005621E+04  0.45546986630E+03 0.  0.
        4    1    3    3  502    0  0.11431786386E+03 -0.13268739487E+03 -0.19902869818E+03  0.26511988676E+03  0.12699999809E+01 0.  1.
       -4    1    3    3    0  502 -0.11431786386E+03  0.13268739487E+03 -0.10469312740E+04  0.10614806754E+04  0.12699999809E+01 0. -1.
</event>
<event>
 5   0  0.1123271E-01  0.4920891E+03  0.7818609E-02  0.1015865E+00
       -1   -1    0    0    0  501  0.00000000000E+00  0.00000000000E+00  0.25978564148E+03  0.25978564153E+03  0.50400001928E-02 0.  1.
        1   -1    0    0  501    0  0.00000000000E+00  0.00000000000E+00 -0.23303025404E+03  0.23303025410E+03  0.50400001928E-02 0. -1.
    10030    2    1    2    0    0  0.00000000000E+00  0.00000000000E+00  0.26755387436E+02  0.49281589562E+03  0.49208907346E+03 0.  0.
        5    1    3    3  502    0  0.18028516923E+03 -0.47079605392E+02  0.17422809836E+03  0.25514065090E+03  0.46999998093E+01 0.  1.
       -5    1    3    3    0  502 -0.18028516923E+03  0.47079605392E+02 -0.14747271093E+03  0.23767524472E+03  0.46999998093E+01 0. -1.
</event>
<event>
 5   0  0.1683148E-01  0.4982262E+03  0.7818609E-02  0.1014243E+00
       -2   -1    0    0    0  501  0.00000000000E+00  0.00000000000E+00  0.44948824746E+02  0.44948824818E+02  0.25500000920E-02 0. -1.
        2   -1    0    0  501    0  0.00000000000E+00  0.00000000000E+00 -0.13806218760E+04  0.13806218760E+04  0.25500000920E-02 0.  1.
    10030    2    1    2    0    0  0.00000000000E+00  0.00000000000E+00 -0.13356730512E+04  0.14255707008E+04  0.49822617674E+03 0.  0.
        2    1    3    3  502    0  0.23316424697E+03  0.75341296590E+02 -0.53938222826E+03  0.59243148566E+03  0.25500000920E-02 0.  1.
       -2    1    3    3    0  502 -0.23316424697E+03 -0.75341296590E+02 -0.79629082299E+03  0.83313921515E+03  0.25500000920E-02 0. -1.
</event>
<event>
 5   0  0.1760649E-01  0.5001446E+03  0.7818609E-02  0.1013741E+00
       -2   -1    0    0    0  501  0.00000000000E+00  0.00000000000E+00  0.20233931821E+03  0.20233931822E+03  0.25500000920E-02 0.  1.
        2   -1    0    0  501    0  0.00000000000E+00  0.00000000000E+00 -0.30906581767E+03  0.30906581769E+03  0.25500000920E-02 0. -1.
    10030    2    1    2    0    0  0.00000000000E+00  0.00000000000E+00 -0.10672649947E+03  0.51140513591E+03  0.50014464642E+03 0.  0.
        5    1    3    3  502    0 -0.95056542300E+02  0.15535385440E+03  0.12179294259E+03  0.21914875581E+03  0.46999998093E+01 0.  1.
       -5    1    3    3    0  502  0.95056542300E+02 -0.15535385440E+03 -0.22851944206E+03  0.29225638010E+03  0.46999998093E+01 0. -1.
</event>
<event>
 5   0  0.1683148E-01  0.4979230E+03  0.7818609E-02  0.1014322E+00
        2   -1    0    0  501    0  0.00000000000E+00  0.00000000000E+00  0.17460861054E+03  0.17460861056E+03  0.25500000920E-02 0. -1.
       -2   -1    0    0    0  501  0.00000000000E+00  0.00000000000E+00 -0.35497582441E+03  0.35497582442E+03  0.25500000920E-02 0.  1.
    10030    2    1    2    0    0  0.00000000000E+00  0.00000000000E+00 -0.18036721387E+03  0.52958443498E+03  0.49792302812E+03 0.  0.
        2    1    3    3  502    0 -0.85413419807E+02  0.13504232984E+03 -0.29324225133E+03  0.33395044708E+03  0.25500000920E-02 0.  1.
       -2    1    3    3    0  502  0.85413419807E+02 -0.13504232984E+03  0.11287503746E+03  0.19563398790E+03  0.25500000920E-02 0. -1.
</event>
<event>
 5   0  0.1782124E-01  0.4572419E+03  0.7818609E-02  0.1025584E+00
        2   -1    0    0  501    0  0.00000000000E+00  0.00000000000E+00  0.47032005047E+03  0.47032005047E+03  0.25500000920E-02 0.  1.
       -2   -1    0    0    0  501  0.00000000000E+00  0.00000000000E+00 -0.11113183857E+03  0.11113183860E+03  0.25500000920E-02 0. -1.
    10030    2    1    2    0    0  0.00000000000E+00  0.00000000000E+00  0.35918821190E+03  0.58145188907E+03  0.45724187007E+03 0.  0.
        3    1    3    3  502    0  0.12099372476E+03  0.16926340028E+03  0.30008554249E+03  0.36515876427E+03  0.10100000352E+00 0. -1.
       -3    1    3    3    0  502 -0.12099372476E+03 -0.16926340028E+03  0.59102669404E+02  0.21629312481E+03  0.10100000352E+00 0.  1.
</event>
<event>
 5   0  0.1782124E-01  0.5021886E+03  0.7818609E-02  0.1013209E+00
        2   -1    0    0  501    0  0.00000000000E+00  0.00000000000E+00  0.25114077900E+03  0.25114077901E+03  0.25500000920E-02 0.  1.
       -2   -1    0    0    0  501  0.00000000000E+00  0.00000000000E+00 -0.25104778643E+03  0.25104778645E+03  0.25500000920E-02 0. -1.
    10030    2    1    2    0    0  0.00000000000E+00  0.00000000000E+00  0.92992567928E-01  0.50218856546E+03  0.50218855685E+03 0.  0.
        3    1    3    3  502    0 -0.23895727637E+03  0.66211046464E+02 -0.39498970062E+02  0.25108695991E+03  0.10100000352E+00 0. -1.
       -3    1    3    3    0  502  0.23895727637E+03 -0.66211046464E+02  0.39591962630E+02  0.25110160555E+03  0.10100000352E+00 0.  1.
</event>
<event>
 5   0  0.1683148E-01  0.4925645E+03  0.7818609E-02  0.1015738E+00
        2   -1    0    0  501    0  0.00000000000E+00  0.00000000000E+00  0.21686120853E+04  0.21686120853E+04  0.25500000920E-02 0. -1.
       -2   -1    0    0    0  501  0.00000000000E+00  0.00000000000E+00 -0.27969479324E+02  0.27969479440E+02  0.25500000920E-02 0.  1.
    10030    2    1    2    0    0  0.00000000000E+00  0.00000000000E+00  0.21406426060E+04  0.21965815647E+04  0.49256451764E+03 0.  0.
        2    1    3    3  502    0  0.34520585551E+02  0.71266681000E+02  0.21102920975E+04  0.21117772959E+04  0.25500000920E-02 0. -1.
       -2    1    3    3    0  502 -0.34520585551E+02 -0.71266681000E+02  0.30350508503E+02  0.84804268881E+02  0.25500000920E-02 0.  1.
</event>
<event>
 5   0  0.1123271E-01  0.4977918E+03  0.7818609E-02  0.1014357E+00
       -1   -1    0    0    0  501  0.00000000000E+00  0.00000000000E+00  0.15506159682E+04  0.15506159682E+04  0.50400001928E-02 0.  1.
        1   -1    0    0  501    0  0.00000000000E+00  0.00000000000E+00 -0.39951329090E+02  0.39951329408E+02  0.50400001928E-02 0. -1.
    10030    2    1    2    0    0  0.00000000000E+00  0.00000000000E+00  0.15106646391E+04  0.15905672976E+04  0.49779180025E+03 0.  0.
        5    1    3    3  502    0 -0.10546573592E+03 -0.29358813531E+02  0.14693973868E+04  0.14734774283E+04  0.46999998093E+01 0.  1.
       -5    1    3    3    0  502  0.10546573592E+03  0.29358813531E+02  0.41267252320E+02  0.11708986932E+03  0.46999998093E+01 0. -1.
</event>
<event>
 5   0  0.1760649E-01  0.4940260E+03  0.7818609E-02  0.1015350E+00
       -2   -1    0    0    0  501  0.00000000000E+00  0.00000000000E+00  0.53875451082E+03  0.53875451083E+03  0.25500000920E-02 0.  1.
        2   -1    0    0  501    0  0.00000000000E+00  0.00000000000E+00 -0.11325272944E+03  0.11325272947E+03  0.25500000920E-02 0. -1.
    10030    2    1    2    0    0  0.00000000000E+00  0.00000000000E+00  0.42550178138E+03  0.65200724030E+03  0.49402598660E+03 0.  0.
        5    1    3    3  502    0  0.19278499782E+03  0.42592872534E+01  0.91055841606E+01  0.19310411330E+03  0.46999998093E+01 0. -1.
       -5    1    3    3    0  502 -0.19278499782E+03 -0.42592872534E+01  0.41639619722E+03  0.45890312700E+03  0.46999998093E+01 0.  1.
</event>
<event>
 5   0  0.1782124E-01  0.4971412E+03  0.7818609E-02  0.1014528E+00
        2   -1    0    0  501    0  0.00000000000E+00  0.00000000000E+00  0.55171411264E+03  0.55171411265E+03  0.25500000920E-02 0.  1.
       -2   -1    0    0    0  501  0.00000000000E+00  0.00000000000E+00 -0.11199157581E+03  0.11199157584E+03  0.25500000920E-02 0. -1.
    10030    2    1    2    0    0  0.00000000000E+00  0.00000000000E+00  0.43972253683E+03  0.66370568848E+03  0.49714115855E+03 0.  0.
        3    1    3    3  502    0 -0.12329465355E+03  0.48106122224E+02  0.50076544325E+03  0.51795927441E+03  0.10100000352E+00 0.  1.
       -3    1    3    3    0  502  0.12329465355E+03 -0.48106122224E+02 -0.61042906421E+02  0.14574641407E+03  0.10100000352E+00 0. -1.
</event>
<event>
 5   0  0.1074281E-01  0.4949952E+03  0.7818609E-02  0.1015094E+00
        1   -1    0    0  501    0  0.00000000000E+00  0.00000000000E+00  0.12413367728E+03  0.12413367739E+03  0.50400001928E-02 0.  1.
       -1   -1    0    0    0  501  0.00000000000E+00  0.00000000000E+00 -0.49346054260E+03  0.49346054263E+03  0.50400001928E-02 0. -1.
    10030    2    1    2    0    0  0.00000000000E+00  0.00000000000E+00 -0.36932686532E+03  0.61759422001E+03  0.49499523952E+03 0.  0.
        4    1    3    3  502    0 -0.19710875021E+03  0.11121796180E+01 -0.37140015178E+03  0.42046733760E+03  0.12699999809E+01 0. -1.
       -4    1    3    3    0  502  0.19710875021E+03 -0.11121796180E+01  0.20732864593E+01  0.19712688241E+03  0.12699999809E+01 0.  1.
</event>
<event>
 5   0  0.1827698E-01  0.5093115E+03  0.7818609E-02  0.1011377E+00
       -2   -1    0    0    0  501  0.00000000000E+00  0.00000000000E+00  0.13569663642E+03  0.13569663644E+03  0.25500000920E-02 0. -1.
        2   -1    0    0  501    0  0.00000000000E+00  0.00000000000E+00 -0.47790091061E+03  0.47790091062E+03  0.25500000920E-02 0.  1.
    10030    2    1    2    0    0  0.00000000000E+00  0.00000000000E+00 -0.34220427420E+03  0.61359754706E+03  0.50931148080E+03 0.  0.
        1    1    3    3  502    0 -0.23928056991E+03 -0.85518110892E+02 -0.15090642215E+03  0.29553559295E+03  0.50400001928E-02 0. -1.
       -1    1    3    3    0  502  0.23928056991E+03  0.85518110892E+02 -0.19129785204E+03  0.31806195411E+03  0.50400001928E-02 0.  1.
</event>
<event>
 5   0  0.1683148E-01  0.5271219E+03  0.7818609E-02  0.1006933E+00
        2   -1    0    0  501    0  0.00000000000E+00  0.00000000000E+00  0.42422147779E+03  0.42422147780E+03  0.25500000920E-02 0.  1.
       -2   -1    0    0    0  501  0.00000000000E+00  0.00000000000E+00 -0.16374552330E+03  0.16374552332E+03  0.25500000920E-02 0. -1.
    10030    2    1    2    0    0  0.00000000000E+00  0.00000000000E+00  0.26047595449E+03  0.58796700112E+03  0.52712187541E+03 0.  0.
        2    1    3    3  502    0  0.39853995446E+02  0.18866228117E+03 -0.70175058949E+02  0.20519828507E+03  0.25500000920E-02 0. -1.
       -2    1    3    3    0  502 -0.39853995446E+02 -0.18866228117E+03  0.33065101344E+03  0.38276871605E+03  0.25500000920E-02 0.  1.
</event>
<event>
 5   0  0.1068522E-01  0.5035849E+03  0.7818609E-02  0.1012847E+00
       -1   -1    0    0    0  501  0.00000000000E+00  0.00000000000E+00  0.91634379217E+02  0.91634379355E+02  0.50400001928E-02 0.  1.
        1   -1    0    0  501    0  0.00000000000E+00  0.00000000000E+00 -0.69187400792E+03  0.69187400794E+03  0.50400001928E-02 0. -1.
    10030    2    1    2    0    0  0.00000000000E+00  0.00000000000E+00 -0.60023962871E+03  0.78350838730E+03  0.50358492938E+03 0.  0.
        2    1    3    3  502    0  0.10050361471E+03 -0.20752093532E+03 -0.14272744945E+03  0.27117713768E+03  0.25500000920E-02 0.  1.
       -2    1    3    3    0  502 -0.10050361471E+03  0.20752093532E+03 -0.45751217925E+03  0.51233124962E+03  0.25500000920E-02 0. -1.
</event>
<event>
 5   0  0.1760649E-01  0.4987686E+03  0.7818609E-02  0.1014101E+00
        2   -1    0    0  501    0  0.00000000000E+00  0.00000000000E+00  0.91793421566E+03  0.91793421567E+03  0.25500000920E-02 0.  1.
       -2   -1    0    0    0  501  0.00000000000E+00  0.00000000000E+00 -0.67752698636E+02  0.67752698684E+02  0.25500000920E-02 0. -1.
    10030    2    1    2    0    0  0.00000000000E+00  0.00000000000E+00  0.85018151703E+03  0.98568691435E+03  0.49876856480E+03 0.  0.
        5    1    3    3  502    0 -0.67853264878E+02  0.74521808384E+02  0.87579879772E+03  0.88159128261E+03  0.46999998093E+01 0.  1.
       -5    1    3    3    0  502  0.67853264878E+02 -0.74521808384E+02 -0.25617280696E+02  0.10409563174E+03  0.46999998093E+01 0. -1.
</event>
<event>
 5   0  0.1141970E-01  0.5017290E+03  0.7818609E-02  0.1013329E+00
       -1   -1    0    0    0  501  0.00000000000E+00  0.00000000000E+00  0.51723923380E+02  0.51723923626E+02  0.50400001928E-02 0. -1.
        1   -1    0    0  501    0  0.00000000000E+00  0.00000000000E+00 -0.12167094790E+04  0.12167094790E+04  0.50400001928E-02 0.  1.
    10030    2    1    2    0    0  0.00000000000E+00  0.00000000000E+00 -0.11649855556E+04  0.12684334026E+04  0.50172896281E+03 0.  0.
        3    1    3    3  502    0  0.11690959615E+03  0.77394990765E+02 -0.11084104166E+04  0.11172428116E+04  0.10100000352E+00 0.  1.
       -3    1    3    3    0  502 -0.11690959615E+03 -0.77394990765E+02 -0.56575139063E+02  0.15119059107E+03  0.10100000352E+00 0. -1.
</event>
<event>
 5   0  0.1141970E-01  0.5030252E+03  0.7818609E-02  0.1012992E+00
       -1   -1    0    0    0  501  0.00000000000E+00  0.00000000000E+00  0.11136607429E+03  0.11136607440E+03  0.50400001928E-02 0.  1.
        1   -1    0    0  501    0  0.00000000000E+00  0.00000000000E+00 -0.56802380112E+03  0.56802380114E+03  0.50400001928E-02 0. -1.
    10030    2    1    2    0    0  0.00000000000E+00  0.00000000000E+00 -0.45665772683E+03  0.67938987554E+03  0.50302517185E+03 0.  0.
        3    1    3    3  502    0  0.64602681238E+02 -0.23096011279E+03 -0.33067689564E+03  0.40848904470E+03  0.10100000352E+00 0. -1.
       -3    1    3    3    0  502 -0.64602681238E+02  0.23096011279E+03 -0.12598083119E+03  0.27090083084E+03  0.10100000352E+00 0.  1.
</event>
<event>
 5   0  0.1068522E-01  0.4573081E+03  0.7818609E-02  0.1025565E+00
        1   -1    0    0  501    0  0.00000000000E+00  0.00000000000E+00  0.20329859444E+03  0.20329859450E+03  0.50400001928E-02 0. -1.
       -1   -1    0    0    0  501  0.00000000000E+00  0.00000000000E+00 -0.25717187635E+03  0.25717187639E+03  0.50400001928E-02 0.  1.
    10030    2    1    2    0    0  0.00000000000E+00  0.00000000000E+00 -0.53873281910E+02  0.46047047089E+03  0.45730812814E+03 0.  0.
        2    1    3    3  502    0  0.56769687650E+02  0.13835273506E+03 -0.20110211956E+03  0.25061192955E+03  0.25500000920E-02 0.  1.
       -2    1    3    3    0  502 -0.56769687650E+02 -0.13835273506E+03  0.14722883765E+03  0.20985854135E+03  0.25500000920E-02 0. -1.
</event>
<event>
 5   0  0.1709372E-01  0.4920105E+03  0.7818609E-02  0.1015886E+00
        2   -1    0    0  501    0  0.00000000000E+00  0.00000000000E+00  0.26207882763E+03  0.26207882765E+03  0.25500000920E-02 0.  1.
       -2   -1    0    0    0  501  0.00000000000E+00  0.00000000000E+00 -0.23091747320E+03  0.23091747321E+03  0.25500000920E-02 0. -1.
    10030    2    1    2    0    0  0.00000000000E+00  0.00000000000E+00  0.31161354437E+02  0.49299630086E+03  0.49201049039E+03 0.  0.
        4    1    3    3  502    0  0.10351875651E+03 -0.31492745488E+02 -0.20578966622E+03  0.23250575389E+03  0.12699999809E+01 0. -1.
       -4    1    3    3    0  502 -0.10351875651E+03  0.31492745488E+02  0.23695102066E+03  0.26049054697E+03  0.12699999809E+01 0.  1.
</event>
<event>
 5   0  0.1683148E-01  0.5186998E+03  0.7818609E-02  0.1009010E+00
       -2   -1    0    0    0  501  0.00000000000E+00  0.00000000000E+00  0.25662679995E+03  0.25662679996E+03  0.25500000920E-02 0.  1.
        2   -1    0    0  501    0  0.00000000000E+00  0.00000000000E+00 -0.26210188300E+03  0.26210188301E+03  0.25500000920E-02 0. -1.
    10030    2    1    2    0    0  0.00000000000E+00  0.00000000000E+00 -0.54750830456E+01  0.51872868297E+03  0.51869978793E+03 0.  0.
        2    1    3    3  502    0  0.45603364224E+02  0.24319642654E+03 -0.80447718066E+02  0.26018455769E+03  0.25500000920E-02 0. -1.
       -2    1    3    3    0  502 -0.45603364224E+02 -0.24319642654E+03  0.74972635020E+02  0.25854412528E+03  0.25500000920E-02 0.  1.
</event>
<event>
 5   0  0.1709372E-01  0.4868211E+03  0.7818609E-02  0.1017277E+00
       -2   -1    0    0    0  501  0.00000000000E+00  0.00000000000E+00  0.27170848826E+03  0.27170848828E+03  0.25500000920E-02 0. -1.
        2   -1    0    0  501    0  0.00000000000E+00  0.00000000000E+00 -0.21805980512E+03  0.21805980514E+03  0.25500000920E-02 0.  1.
    10030    2    1    2    0    0  0.00000000000E+00  0.00000000000E+00  0.53648683139E+02  0.48976829342E+03  0.48682111708E+03 0.  0.
        4    1    3    3  502    0 -0.60173087216E+02 -0.10925187677E+03 -0.18346334407E+03  0.22184946364E+03  0.12699999809E+01 0.  1.
       -4    1    3    3    0  502  0.60173087216E+02  0.10925187677E+03  0.23711202721E+03  0.26791882977E+03  0.12699999809E+01 0. -1.
</event>
<event>
 5   0  0.1827698E-01  0.5010854E+03  0.7818609E-02  0.1013496E+00
       -2   -1    0    0    0  501  0.00000000000E+00  0.00000000000E+00  0.32385333586E+02  0.32385333687E+02  0.25500000920E-02 0.  1.
        2   -1    0    0  501    0  0.00000000000E+00  0.00000000000E+00 -0.19382739503E+04  0.19382739503E+04  0.25500000920E-02 0. -1.
    10030    2    1    2    0    0  0.00000000000E+00  0.00000000000E+00 -0.19058886168E+04  0.19706592840E+04  0.50108541613E+03 0.  0.
        1    1    3    3  502    0 -0.22233446933E+03  0.81622321128E+02 -0.12742991940E+04  0.12961223921E+04  0.50400001928E-02 0. -1.
       -1    1    3    3    0  502  0.22233446933E+03 -0.81622321128E+02 -0.63158942280E+03  0.67453689193E+03  0.50400001928E-02 0.  1.
</event>
<event>
 5   0  0.1782124E-01  0.5021156E+03  0.7818609E-02  0.1013228E+00
        2   -1    0    0  501    0  0.00000000000E+00  0.00000000000E+00  0.26803475130E+03  0.26803475131E+03  0.25500000920E-02 0.  1.
       -2   -1    0    0    0  501  0.00000000000E+00  0.00000000000E+00 -0.23515615760E+03  0.23515615761E+03  0.25500000920E-02 0. -1.
    10030    2    1    2    0    0  0.00000000000E+00  0.00000000000E+00  0.32878593702E+02  0.50319090892E+03  0.50211561308E+03 0.  0.
        3    1    3    3  502    0 -0.10003476444E+03 -0.21384452831E+03  0.10202462220E+03  0.25718761658E+03  0.10100000352E+00 0.  1.
       -3    1    3    3    0  502  0.10003476444E+03  0.21384452831E+03 -0.69146028502E+02  0.24600329234E+03  0.10100000352E+00 0. -1.
</event>
<event>
 5   0  0.1147245E-01  0.5371644E+03  0.7818609E-02  0.1004509E+00
       -1   -1    0    0    0  501  0.00000000000E+00  0.00000000000E+00  0.54004194688E+03  0.54004194691E+03  0.50400001928E-02 0.  1.
        1   -1    0    0  501    0  0.00000000000E+00  0.00000000000E+00 -0.13357553383E+03  0.13357553392E+03  0.50400001928E-02 0. -1.
    10030    2    1    2    0    0  0.00000000000E+00  0.00000000000E+00  0.40646641306E+03  0.67361748083E+03  0.53716437479E+03 0.  0.
        1    1    3    3  502    0  0.23091129079E+03  0.88227332671E+02  0.33494943142E+03  0.41628741043E+03  0.50400001928E-02 0.  1.
       -1    1    3    3    0  502 -0.23091129079E+03 -0.88227332671E+02  0.71516981636E+02  0.25733007040E+03  0.50400001928E-02 0. -1.
</event>
<event>
 5   0  0.1683148E-01  0.4969698E+03  0.7818609E-02  0.1014573E+00
       -2   -1    0    0    0  501  0.00000000000E+00  0.00000000000E+00  0.17139956732E+03  0.17139956734E+03  0.25500000920E-02 0.  1.
        2   -1    0    0  501    0  0.00000000000E+00  0.00000000000E+00 -0.36023864633E+03  0.36023864634E+03  0.25500000920E-02 0. -1.
    10030    2    1    2    0    0  0.00000000000E+00  0.00000000000E+00 -0.18883907902E+03  0.53163821368E+03  0.49696981043E+03 0.  0.
        2    1    3    3  502    0 -0.21468368650E+03 -0.10692699409E+03 -0.24907546746E+02  0.24112829200E+03  0.25500000920E-02 0.  1.
       -2    1    3    3    0  502  0.21468368650E+03  0.10692699409E+03 -0.16393153227E+03  0.29050992168E+03  0.25500000920E-02 0. -1.
</event>
<event>
 5   0  0.1068522E-01  0.4970649E+03  0.7818609E-02  0.1014548E+00
       -1   -1    0    0    0  501  0.00000000000E+00  0.00000000000E+00  0.42070809494E+02  0.42070809796E+02  0.50400001928E-02 0. -1.
        1   -1    0    0  501    0  0.00000000000E+00  0.00000000000E+00 -0.14682000863E+04  0.14682000863E+04  0.50400001928E-02 0.  1.
    10030    2    1    2    0    0  0.00000000000E+00  0.00000000000E+00 -0.14261292768E+04  0.15102708961E+04  0.49706485036E+03 0.  0.
        2    1    3    3  502    0  0.19140596982E+03  0.10920697177E+03 -0.10622264694E+04  0.10848444498E+04  0.25500000920E-02 0.  1.
       -2    1    3    3    0  502 -0.19140596982E+03 -0.10920697177E+03 -0.36390280740E+03  0.42542644629E+03  0.25500000920E-02 0. -1.
</event>
<event>
 5   0  0.1683148E-01  0.5070753E+03  0.7818609E-02  0.1011948E+00
       -2   -1    0    0    0  501  0.00000000000E+00  0.00000000000E+00  0.44729854322E+02  0.44729854395E+02  0.25500000920E-02 0. -1.
        2   -1    0    0  501    0  0.00000000000E+00  0.00000000000E+00 -0.14371012819E+04  0.14371012819E+04  0.25500000920E-02 0.  1.
    10030    2    1    2    0    0  0.00000000000E+00  0.00000000000E+00 -0.13923714275E+04  0.14818311363E+04  0.50707526479E+03 0.  0.
        2    1    3    3  502    0 -0.17860251762E+03 -0.17750098663E+03 -0.78267184740E+03  0.82218044265E+03  0.25500000920E-02 0. -1.
       -2    1    3    3    0  502  0.17860251762E+03  0.17750098663E+03 -0.60969958015E+03  0.65965069362E+03  0.25500000920E-02 0.  1.
</event>
<event>
 5   0  0.1709372E-01  0.4785031E+03  0.7818609E-02  0.1019547E+00
       -2   -1    0    0    0  501  0.00000000000E+00  0.00000000000E+00  0.64298930581E+02  0.64298930632E+02  0.25500000920E-02 0.  1.
        2   -1    0    0  501    0  0.00000000000E+00  0.00000000000E+00 -0.89023719248E+03  0.89023719249E+03  0.25500000920E-02 0. -1.
    10030    2    1    2    0    0  0.00000000000E+00  0.00000000000E+00 -0.82593826190E+03  0.95453612312E+03  0.47850308031E+03 0.  0.
        4    1    3    3  502    0 -0.22735470374E+02 -0.99407322242E+02  0.18769158940E+02  0.10369480004E+03  0.12699999809E+01 0.  1.
       -4    1    3    3    0  502  0.22735470374E+02  0.99407322242E+02 -0.84470742084E+03  0.85084132308E+03  0.12699999809E+01 0. -1.
</event>
<event>
 5   0  0.1074281E-01  0.4969507E+03  0.7818609E-02  0.1014578E+00
       -1   -1    0    0    0  501  0.00000000000E+00  0.00000000000E+00  0.16274897186E+03  0.16274897194E+03  0.50400001928E-02 0. -1.
        1   -1    0    0  501    0  0.00000000000E+00  0.00000000000E+00 -0.37935724048E+03  0.37935724051E+03  0.50400001928E-02 0.  1.
    10030    2    1    2    0    0  0.00000000000E+00  0.00000000000E+00 -0.21660826862E+03  0.54210621245E+03  0.49695070535E+03 0.  0.
        4    1    3    3  502    0 -0.15806299824E+03 -0.18878593092E+03 -0.71889021491E+02  0.25650279421E+03  0.12699999809E+01 0. -1.
       -4    1    3    3    0  502  0.15806299824E+03  0.18878593092E+03 -0.14471924713E+03  0.28560341824E+03  0.12699999809E+01 0.  1.
</event>
<event>
 5   0  0.1141970E-01  0.5009514E+03  0.7818609E-02  0.1013531E+00
        1   -1    0    0  501    0  0.00000000000E+00  0.00000000000E+00  0.47897400746E+03  0.47897400748E+03  0.50400001928E-02 0.  1.
       -1   -1    0    0    0  501  0.00000000000E+00  0.00000000000E+00 -0.13098431584E+03  0.13098431594E+03  0.50400001928E-02 0. -1.
    10030    2    1    2    0    0  0.00000000000E+00  0.00000000000E+00  0.34798969161E+03  0.60995832342E+03  0.50095142564E+03 0.  0.
        3    1    3    3  502    0  0.94564849889E+02 -0.17667848231E+03  0.35696032775E+03  0.40936350928E+03  0.10100000352E+00 0.  1.
       -3    1    3    3    0  502 -0.94564849889E+02  0.17667848231E+03 -0.89706361327E+01  0.20059481414E+03  0.10100000352E+00 0. -1.
</event>
<event>
 5   0  0.1782124E-01  0.4984493E+03  0.7818609E-02  0.1014184E+00
        2   -1    0    0  501    0  0.00000000000E+00  0.00000000000E+00  0.68608640591E+02  0.68608640638E+02  0.25500000920E-02 0. -1.
       -2   -1    0    0    0  501  0.00000000000E+00  0.00000000000E+00 -0.90532214414E+03  0.90532214414E+03  0.25500000920E-02 0.  1.
    10030    2    1    2    0    0  0.00000000000E+00  0.00000000000E+00 -0.83671350355E+03  0.97393078478E+03  0.49844928180E+03 0.  0.
        3    1    3    3  502    0 -0.17844851112E+03 -0.12625440250E+03 -0.65224749398E+03  0.68790322639E+03  0.10100000352E+00 0. -1.
       -3    1    3    3    0  502  0.17844851112E+03  0.12625440250E+03 -0.18446600957E+03  0.28602755839E+03  0.10100000352E+00 0.  1.
</event>
<event>
 5   0  0.1123271E-01  0.4980191E+03  0.7818609E-02  0.1014297E+00
        1   -1    0    0  501    0  0.00000000000E+00  0.00000000000E+00  0.89284469314E+02  0.89284469457E+02  0.50400001928E-02 0. -1.
       -1   -1    0    0    0  501  0.00000000000E+00  0.00000000000E+00 -0.69447408262E+03  0.69447408264E+03  0.50400001928E-02 0.  1.
    10030    2    1    2    0    0  0.00000000000E+00  0.00000000000E+00 -0.60518961330E+03  0.78375855209E+03  0.49801907587E+03 0.  0.
        5    1    3    3  502    0 -0.74395806422E+02 -0.10998408733E+03 -0.63402723384E+03  0.64779924261E+03  0.46999998093E+01 0.  1.
       -5    1    3    3    0  502  0.74395806422E+02  0.10998408733E+03  0.28837620535E+02  0.13595930948E+03  0.46999998093E+01 0. -1.
</event>
<event>
 5   0  0.1074281E-01  0.5325727E+03  0.7818609E-02  0.1005610E+00
       -1   -1    0    0    0  501  0.00000000000E+00  0.00000000000E+00  0.23833088307E+03  0.23833088313E+03  0.50400001928E-02 0. -1.
        1   -1    0    0  501    0  0.00000000000E+00  0.00000000000E+00 -0.29752086766E+03  0.29752086770E+03  0.50400001928E-02 0.  1.
    10030    2    1    2    0    0  0.00000000000E+00  0.00000000000E+00 -0.59189984586E+02  0.53585175083E+03  0.53257266602E+03 0.  0.
        4    1    3    3  502    0  0.19105115699E+02 -0.10512318112E+03 -0.27500433140E+03  0.29503369950E+03  0.12699999809E+01 0.  1.
       -4    1    3    3    0  502 -0.19105115699E+02  0.10512318112E+03  0.21581434681E+03  0.24081805132E+03  0.12699999809E+01 0. -1.
</event>
<event>
 5   0  0.7220250E-02  0.4953056E+03  0.7818609E-02  0.1015012E+00
        3   -1    0    0  501    0  0.00000000000E+00  0.00000000000E+00  0.13960387704E+03  0.13960391357E+03  0.10100000352E+00 0.  1.
       -3   -1    0    0    0  501  0.00000000000E+00  0.00000000000E+00 -0.43932799398E+03  0.43932800559E+03  0.10100000352E+00 0. -1.
    10030    2    1    2    0    0  0.00000000000E+00  0.00000000000E+00 -0.29972411694E+03  0.57893191916E+03  0.49530558320E+03 0.  0.
        5    1    3    3  502    0  0.15415399111E+03  0.85844651813E+02  0.53183138143E+02  0.18434558145E+03  0.46999998093E+01 0.  1.
       -5    1    3    3    0  502 -0.15415399111E+03 -0.85844651813E+02 -0.35290725509E+03  0.39458633771E+03  0.46999998093E+01 0. -1.
</event>
<event>
 5   0  0.1709372E-01  0.5169253E+03  0.7818609E-02  0.1009453E+00
        2   -1    0    0  501    0  0.00000000000E+00  0.00000000000E+00  0.10598153857E+04  0.10598153857E+04  0.25500000920E-02 0. -1.
       -2   -1    0    0    0  501  0.00000000000E+00  0.00000000000E+00 -0.63032620677E+02  0.63032620728E+02  0.25500000920E-02 0.  1.
    10030    2    1    2    0    0  0.00000000000E+00  0.00000000000E+00  0.99678276506E+03  0.11228480065E+04  0.51692529916E+03 0.  0.
        4    1    3    3  502    0  0.14873258089E+03 -0.14468914591E+03  0.83310953073E+03  0.85856242211E+03  0.12699999809E+01 0. -1.
       -4    1    3    3    0  502 -0.14873258089E+03  0.14468914591E+03  0.16367323432E+03  0.26428558435E+03  0.12699999809E+01 0.  1.
</event>
<event>
 5   0  0.1827698E-01  0.4928545E+03  0.7818609E-02  0.1015661E+00
        2   -1    0    0  501    0  0.00000000000E+00  0.00000000000E+00  0.38152341198E+03  0.38152341199E+03  0.25500000920E-02 0. -1.
       -2   -1    0    0    0  501  0.00000000000E+00  0.00000000000E+00 -0.15916817921E+03  0.15916817923E+03  0.25500000920E-02 0.  1.
    10030    2    1    2    0    0  0.00000000000E+00  0.00000000000E+00  0.22235523277E+03  0.54069159122E+03  0.49285448895E+03 0.  0.
        1    1    3    3  502    0 -0.62808094628E+02 -0.22638444405E+03  0.19277135152E+03  0.30390058777E+03  0.50400001928E-02 0. -1.
       -1    1    3    3    0  502  0.62808094628E+02  0.22638444405E+03  0.29583881250E+02  0.23679100345E+03  0.50400001928E-02 0.  1.
</event>
<event>
 5   0  0.1068522E-01  0.5479536E+03  0.7818609E-02  0.1001969E+00
       -1   -1    0    0    0  501  0.00000000000E+00  0.00000000000E+00  0.17930370293E+03  0.17930370301E+03  0.50400001928E-02 0.  1.
        1   -1    0    0  501    0  0.00000000000E+00  0.00000000000E+00 -0.41863764540E+03  0.41863764543E+03  0.50400001928E-02 0. -1.
    10030    2    1    2    0    0  0.00000000000E+00  0.00000000000E+00 -0.23933394247E+03  0.59794134844E+03  0.54795357482E+03 0.  0.
        2    1    3    3  502    0  0.78327556951E+02 -0.66071061564E+02  0.15760478034E+03  0.18798898411E+03  0.25500000920E-02 0.  1.
       -2    1    3    3    0  502 -0.78327556951E+02  0.66071061564E+02 -0.39693872280E+03  0.40995236433E+03  0.25500000920E-02 0. -1.
</event>
<event>
 5   0  0.1683148E-01  0.5064001E+03  0.7818609E-02  0.1012122E+00
       -2   -1    0    0    0  501  0.00000000000E+00  0.00000000000E+00  0.92213163158E+02  0.92213163194E+02  0.25500000920E-02 0.  1.
        2   -1    0    0  501    0  0.00000000000E+00  0.00000000000E+00 -0.69523981342E+03  0.69523981342E+03  0.25500000920E-02 0. -1.
    10030    2    1    2    0    0  0.00000000000E+00  0.00000000000E+00 -0.60302665026E+03  0.78745297662E+03  0.50640008833E+03 0.  0.
        2    1    3    3  502    0 -0.87429163708E+02  0.18238963841E+03 -0.64660367385E+02  0.21234594883E+03  0.25500000920E-02 0.  1.
       -2    1    3    3    0  502  0.87429163708E+02 -0.18238963841E+03 -0.53836628287E+03  0.57510702779E+03  0.25500000920E-02 0. -1.
</event>
<event>
 5   0  0.7220250E-02  0.4997171E+03  0.7818609E-02  0.1013853E+00
        3   -1    0    0  501    0  0.00000000000E+00  0.00000000000E+00  0.57333700231E+02  0.57333789193E+02  0.10100000352E+00 0.  1.
       -3   -1    0    0    0  501  0.00000000000E+00  0.00000000000E+00 -0.10888753138E+04  0.10888753184E+04  0.10100000352E+00 0. -1.
    10030    2    1    2    0    0  0.00000000000E+00  0.00000000000E+00 -0.10315416135E+04  0.11462091076E+04  0.49971713798E+03 0.  0.
        4    1    3    3  502    0 -0.14000389193E+03  0.29823477302E+02 -0.46050722784E+02  0.15037556824E+03  0.12699999809E+01 0.  1.
       -4    1    3    3    0  502  0.14000389193E+03 -0.29823477302E+02 -0.98549089075E+03  0.99583353941E+03  0.12699999809E+01 0. -1.
</event>
<event>
 5   0  0.1827698E-01  0.5019878E+03  0.7818609E-02  0.1013261E+00
        2   -1    0    0  501    0  0.00000000000E+00  0.00000000000E+00  0.12623523228E+04  0.12623523228E+04  0.25500000920E-02 0.  1.
       -2   -1    0    0    0  501  0.00000000000E+00  0.00000000000E+00 -0.49905197456E+02  0.49905197521E+02  0.25500000920E-02 0. -1.
    10030    2    1    2    0    0  0.00000000000E+00  0.00000000000E+00  0.12124471254E+04  0.13122575203E+04  0.50198781648E+03 0.  0.
        1    1    3    3  502    0 -0.16195275572E+03  0.61040410935E+02  0.13103311757E+03  0.21708133218E+03  0.50400001928E-02 0. -1.
       -1    1    3    3    0  502  0.16195275572E+03 -0.61040410935E+02  0.10814140078E+04  0.10951761882E+04  0.50400001928E-02 0.  1.
</event>
<event>
 5   0  0.1782124E-01  0.5155675E+03  0.7818609E-02  0.1009794E+00
       -2   -1    0    0    0  501  0.00000000000E+00  0.00000000000E+00  0.41070977697E+02  0.41070977777E+02  0.25500000920E-02 0.  1.
        2   -1    0    0  501    0  0.00000000000E+00  0.00000000000E+00 -0.16179907025E+04  0.16179907025E+04  0.25500000920E-02 0. -1.
    10030    2    1    2    0    0  0.00000000000E+00  0.00000000000E+00 -0.15769197248E+04  0.16590616803E+04  0.51556749365E+03 0.  0.
        3    1    3    3  502    0  0.14829492503E+03  0.14748995078E+03 -0.12733734347E+04  0.12904358119E+04  0.10100000352E+00 0. -1.
       -3    1    3    3    0  502 -0.14829492503E+03 -0.14748995078E+03 -0.30354629018E+03  0.36862586840E+03  0.10100000352E+00 0.  1.
</event>
<event>
 5   0  0.1683148E-01  0.4962727E+03  0.7818609E-02  0.1014756E+00
       -2   -1    0    0    0  501  0.00000000000E+00  0.00000000000E+00  0.18265447701E+03  0.18265447703E+03  0.25500000920E-02 0.  1.
        2   -1    0    0  501    0  0.00000000000E+00  0.00000000000E+00 -0.33709351563E+03  0.33709351564E+03  0.25500000920E-02 0. -1.
    10030    2    1    2    0    0  0.00000000000E+00  0.00000000000E+00 -0.15443903862E+03  0.51974799267E+03  0.49627266622E+03 0.  0.
        2    1    3    3  502    0  0.14239246715E+03  0.47650844695E+02  0.12967370579E+03  0.19839729756E+03  0.25500000920E-02 0.  1.
       -2    1    3    3    0  502 -0.14239246715E+03 -0.47650844695E+02 -0.28411274441E+03  0.32135069511E+03  0.25500000920E-02 0. -1.
</event>
<event>
 5   0  0.1123271E-01  0.5099853E+03  0.7818609E-02  0.1011205E+00
        1   -1    0    0  501    0  0.00000000000E+00  0.00000000000E+00  0.35288212949E+03  0.35288212952E+03  0.50400001928E-02 0.  1.
       -1   -1    0    0    0  501  0.00000000000E+00  0.00000000000E+00 -0.18425770727E+03  0.18425770734E+03  0.50400001928E-02 0. -1.
    10030    2    1    2    0    0  0.00000000000E+00  0.00000000000E+00  0.16862442222E+03  0.53713983686E+03  0.50998530232E+03 0.  0.
        5    1    3    3  502    0  0.87129750680E+02 -0.63045014276E+02  0.32777581974E+03  0.34500050041E+03  0.46999998093E+01 0.  1.
       -5    1    3    3    0  502 -0.87129750680E+02  0.63045014276E+02 -0.15915139753E+03  0.19213933645E+03  0.46999998093E+01 0. -1.
</event>
<event>
 5   0  0.1709372E-01  0.4982499E+03  0.7818609E-02  0.1014237E+00
       -2   -1    0    0    0  501  0.00000000000E+00  0.00000000000E+00  0.10277022156E+03  0.10277022159E+03  0.25500000920E-02 0.  1.
        2   -1    0    0  501    0  0.00000000000E+00  0.00000000000E+00 -0.60390306644E+03  0.60390306645E+03  0.25500000920E-02 0. -1.
    10030    2    1    2    0    0  0.00000000000E+00  0.00000000000E+00 -0.50113284489E+03  0.70667328804E+03  0.49824994511E+03 0.  0.
        4    1    3    3  502    0  0.20885043947E+03  0.29163606998E+02 -0.43868714582E+03  0.48674125246E+03  0.12699999809E+01 0. -1.
       -4    1    3    3    0  502 -0.20885043947E+03 -0.29163606998E+02 -0.62445699067E+02  0.21993203558E+03  0.12699999809E+01 0.  1.
</event>
<event>
 5   0  0.1147245E-01  0.4952973E+03  0.7818609E-02  0.1015014E+00
       -1   -1    0    0    0  501  0.00000000000E+00  0.00000000000E+00  0.14971479086E+03  0.14971479095E+03  0.50400001928E-02 0. -1.
        1   -1    0    0  501    0  0.00000000000E+00  0.00000000000E+00 -0.40964466485E+03  0.40964466488E+03  0.50400001928E-02 0.  1.
    10030    2    1    2    0    0  0.00000000000E+00  0.00000000000E+00 -0.25992987399E+03  0.55935945583E+03  0.49529734648E+03 0.  0.
        1    1    3    3  502    0  0.88793994735E+02  0.17481296351E+02  0.13037172575E+03  0.15870335889E+03  0.50400001928E-02 0. -1.
       -1    1    3    3    0  502 -0.88793994735E+02 -0.17481296351E+02 -0.39030159974E+03  0.40065609693E+03  0.50400001928E-02 0.  1.
</event>
<event>
 5   0  0.1147245E-01  0.5042731E+03  0.7818609E-02  0.1012670E+00
       -1   -1    0    0    0  501  0.00000000000E+00  0.00000000000E+00  0.11937312161E+03  0.11937312172E+03  0.50400001928E-02 0.  1.
        1   -1    0    0  501    0  0.00000000000E+00  0.00000000000E+00 -0.53255569780E+03  0.53255569782E+03  0.50400001928E-02 0. -1.
    10030    2    1    2    0    0  0.00000000000E+00  0.00000000000E+00 -0.41318257619E+03  0.65192881954E+03  0.50427308522E+03 0.  0.
        1    1    3    3  502    0 -0.15697992259E+03  0.19599430803E+03 -0.17721374951E+03  0.30734537237E+03  0.50400001928E-02 0. -1.
       -1    1    3    3    0  502  0.15697992259E+03 -0.19599430803E+03 -0.23596882668E+03  0.34458344717E+03  0.50400001928E-02 0.  1.
</event>
<event>
 5   0  0.1782124E-01  0.4998617E+03  0.7818609E-02  0.1013815E+00
       -2   -1    0    0    0  501  0.00000000000E+00  0.00000000000E+00  0.14576979862E+03  0.14576979864E+03  0.25500000920E-02 0. -1.
        2   -1    0    0  501    0  0.00000000000E+00  0.00000000000E+00 -0.42852110968E+03  0.42852110969E+03  0.25500000920E-02 0.  1.
    10030    2    1    2    0    0  0.00000000000E+00  0.00000000000E+00 -0.28275131106E+03  0.57429090833E+03  0.49986172436E+03 0.  0.
        3    1    3    3  502    0 -0.99446808750E+02 -0.22802349312E+03 -0.11368158780E+03  0.27351031935E+03  0.10100000352E+00 0. -1.
       -3    1    3    3    0  502  0.99446808750E+02  0.22802349312E+03 -0.16906972326E+03  0.30078058898E+03  0.10100000352E+00 0.  1.
</event>
<event>
 5   0  0.1123271E-01  0.4852229E+03  0.7818609E-02  0.1017710E+00
       -1   -1    0    0    0  501  0.00000000000E+00  0.00000000000E+00  0.14264487797E+03  0.14264487806E+03  0.50400001928E-02 0.  1.
        1   -1    0    0  501    0  0.00000000000E+00  0.00000000000E+00 -0.41263526430E+03  0.41263526433E+03  0.50400001928E-02 0. -1.
    10030    2    1    2    0    0  0.00000000000E+00  0.00000000000E+00 -0.26999038633E+03  0.55528014239E+03  0.48522286407E+03 0.  0.
        5    1    3    3  502    0 -0.12090907858E+03 -0.73525787745E+02  0.90460104261E+02  0.16801835378E+03  0.46999998093E+01 0.  1.
       -5    1    3    3    0  502  0.12090907858E+03  0.73525787745E+02 -0.36045049059E+03  0.38726178861E+03  0.46999998093E+01 0. -1.
</event>
<event>
 5   0  0.1141970E-01  0.5126201E+03  0.7818609E-02  0.1010536E+00
        1   -1    0    0  501    0  0.00000000000E+00  0.00000000000E+00  0.63164596156E+03  0.63164596158E+03  0.50400001928E-02 0. -1.
       -1   -1    0    0    0  501  0.00000000000E+00  0.00000000000E+00 -0.10400581342E+03  0.10400581355E+03  0.50400001928E-02 0.  1.
    10030    2    1    2    0    0  0.00000000000E+00  0.00000000000E+00  0.52764014813E+03  0.73565177512E+03  0.51262014038E+03 0.  0.
        3    1    3    3  502    0  0.15241874503E+03  0.20441035860E+03  0.22640395954E+03  0.34098948904E+03  0.10100000352E+00 0.  1.
       -3    1    3    3    0  502 -0.15241874503E+03 -0.20441035860E+03  0.30123618860E+03  0.39466228609E+03  0.10100000352E+00 0. -1.
</event>
<event>
 5   0  0.1074281E-01  0.4998341E+03  0.7818609E-02  0.1013822E+00
       -1   -1    0    0    0  501  0.00000000000E+00  0.00000000000E+00  0.44779702786E+03  0.44779702789E+03  0.50400001928E-02 0.  1.
        1   -1    0    0  501    0  0.00000000000E+00  0.00000000000E+00 -0.13947955112E+03  0.13947955121E+03  0.50400001928E-02 0. -1.
    10030    2    1    2    0    0  0.00000000000E+00  0.00000000000E+00  0.30831747674E+03  0.58727657910E+03  0.49983408636E+03 0.  0.
        4    1    3    3  502    0 -0.31233942843E+02  0.66358457038E+02 -0.12654671425E+03  0.14626923051E+03  0.12699999809E+01 0. -1.
       -4    1    3    3    0  502  0.31233942843E+02 -0.66358457038E+02  0.43486419099E+03  0.44100734859E+03  0.12699999809E+01 0.  1.
</event>
<event>
 5   0  0.1123271E-01  0.5209625E+03  0.7818609E-02  0.1008448E+00
        1   -1    0    0  501    0  0.00000000000E+00  0.00000000000E+00  0.47147694126E+03  0.47147694129E+03  0.50400001928E-02 0. -1.
       -1   -1    0    0    0  501  0.00000000000E+00  0.00000000000E+00 -0.14391051997E+03  0.14391052005E+03  0.50400001928E-02 0.  1.
    10030    2    1    2    0    0  0.00000000000E+00  0.00000000000E+00  0.32756642129E+03  0.61538746134E+03  0.52096253917E+03 0.  0.
        5    1    3    3  502    0 -0.20191908909E+03  0.13000709189E+03  0.44744770082E+02  0.24433040525E+03  0.46999998093E+01 0.  1.
       -5    1    3    3    0  502  0.20191908909E+03 -0.13000709189E+03  0.28282165121E+03  0.37105705609E+03  0.46999998093E+01 0. -1.
</event>
<event>
 5   0  0.1074281E-01  0.4980957E+03  0.7818609E-02  0.1014277E+00
       -1   -1    0    0    0  501  0.00000000000E+00  0.00000000000E+00  0.21603792442E+03  0.21603792448E+03  0.50400001928E-02 0. -1.
        1   -1    0    0  501    0  0.00000000000E+00  0.00000000000E+00 -0.28710163121E+03  0.28710163125E+03  0.50400001928E-02 0.  1.
    10030    2    1    2    0    0  0.00000000000E+00  0.00000000000E+00 -0.71063706788E+02  0.50313955573E+03  0.49809573590E+03 0.  0.
        4    1    3    3  502    0 -0.23653594494E+02  0.21896992705E+03  0.81903327682E+02  0.23498316849E+03  0.12699999809E+01 0. -1.
       -4    1    3    3    0  502  0.23653594494E+02 -0.21896992705E+03 -0.15296703447E+03  0.26815638725E+03  0.12699999809E+01 0.  1.
</event>
<event>
 5   0  0.1827698E-01  0.4983838E+03  0.7818609E-02  0.1014202E+00
       -2   -1    0    0    0  501  0.00000000000E+00  0.00000000000E+00  0.39085301080E+03  0.39085301081E+03  0.25500000920E-02 0.  1.
        2   -1    0    0  501    0  0.00000000000E+00  0.00000000000E+00 -0.15887458064E+03  0.15887458066E+03  0.25500000920E-02 0. -1.
    10030    2    1    2    0    0  0.00000000000E+00  0.00000000000E+00  0.23197843015E+03  0.54972759147E+03  0.49838382073E+03 0.  0.
        1    1    3    3  502    0 -0.21175016519E+03 -0.90182387772E+02  0.22135864132E+03  0.31932842597E+03  0.50400001928E-02 0.  1.
       -1    1    3    3    0  502  0.21175016519E+03  0.90182387772E+02  0.10619788831E+02  0.23039916550E+03  0.50400001928E-02 0. -1.
</event>
<event>
 5   0  0.1074281E-01  0.5000993E+03  0.7818609E-02  0.1013753E+00
        1   -1    0    0  501    0  0.00000000000E+00  0.00000000000E+00  0.37299299885E+03  0.37299299888E+03  0.50400001928E-02 0. -1.
       -1   -1    0    0    0  501  0.00000000000E+00  0.00000000000E+00 -0.16762999827E+03  0.16762999835E+03  0.50400001928E-02 0.  1.
    10030    2    1    2    0    0  0.00000000000E+00  0.00000000000E+00  0.20536300058E+03  0.54062299723E+03  0.50009925327E+03 0.  0.
        4    1    3    3  502    0  0.11138482954E+03  0.15374099424E+03  0.27859533702E+03  0.33713476278E+03  0.12699999809E+01 0. -1.
       -4    1    3    3    0  502 -0.11138482954E+03 -0.15374099424E+03 -0.73232336445E+02  0.20348823445E+03  0.12699999809E+01 0.  1.
</event>
<event>
 5   0  0.1782124E-01  0.5029685E+03  0.7818609E-02  0.1013007E+00
       -2   -1    0    0    0  501  0.00000000000E+00  0.00000000000E+00  0.50939652947E+02  0.50939653011E+02  0.25500000920E-02 0. -1.
        2   -1    0    0  501    0  0.00000000000E+00  0.00000000000E+00 -0.12415540499E+04  0.12415540499E+04  0.25500000920E-02 0.  1.
    10030    2    1    2    0    0  0.00000000000E+00  0.00000000000E+00 -0.11906143969E+04  0.12924937029E+04  0.50296851773E+03 0.  0.
        3    1    3    3  502    0  0.20752217407E+03  0.10721146301E+03 -0.35583128592E+03  0.42564734790E+03  0.10100000352E+00 0. -1.
       -3    1    3    3    0  502 -0.20752217407E+03 -0.10721146301E+03 -0.83478311100E+03  0.86684635498E+03  0.10100000352E+00 0.  1.
</event>
<event>
 5   0  0.1709372E-01  0.5167849E+03  0.7818609E-02  0.1009488E+00
       -2   -1    0    0    0  501  0.00000000000E+00  0.00000000000E+00  0.88864639874E+02  0.88864639911E+02  0.25500000920E-02 0.  1.
        2   -1    0    0  501    0  0.00000000000E+00  0.00000000000E+00 -0.75132989057E+03  0.75132989057E+03  0.25500000920E-02 0. -1.
    10030    2    1    2    0    0  0.00000000000E+00  0.00000000000E+00 -0.66246525069E+03  0.84019453048E+03  0.51678490755E+03 0.  0.
        4    1    3    3  502    0 -0.14402438673E+02 -0.18098647980E+03 -0.32324248288E+02  0.18441801983E+03  0.12699999809E+01 0.  1.
       -4    1    3    3    0  502  0.14402438673E+02  0.18098647980E+03 -0.63014100241E+03  0.65577651065E+03  0.12699999809E+01 0. -1.
</event>
<event>
 5   0  0.1074281E-01  0.5185653E+03  0.7818609E-02  0.1009044E+00
       -1   -1    0    0    0  501  0.00000000000E+00  0.00000000000E+00  0.87138642949E+02  0.87138643094E+02  0.50400001928E-02 0. -1.
        1   -1    0    0  501    0  0.00000000000E+00  0.00000000000E+00 -0.77150021142E+03  0.77150021143E+03  0.50400001928E-02 0.  1.
    10030    2    1    2    0    0  0.00000000000E+00  0.00000000000E+00 -0.68436156847E+03  0.85863885453E+03  0.51856525733E+03 0.  0.
        4    1    3    3  502    0  0.12484120869E+03  0.22206395915E+03 -0.42207431234E+03  0.49299702573E+03  0.12699999809E+01 0. -1.
       -4    1    3    3    0  502 -0.12484120869E+03 -0.22206395915E+03 -0.26228725613E+03  0.36564182880E+03  0.12699999809E+01 0.  1.
</event>
<event>
 5   0  0.1147245E-01  0.4930575E+03  0.7818609E-02  0.1015607E+00
       -1   -1    0    0    0  501  0.00000000000E+00  0.00000000000E+00  0.24003467263E+03  0.24003467268E+03  0.50400001928E-02 0. -1.
        1   -1    0    0  501    0  0.00000000000E+00  0.00000000000E+00 -0.25319851792E+03  0.25319851797E+03  0.50400001928E-02 0.  1.
    10030    2    1    2    0    0  0.00000000000E+00  0.00000000000E+00 -0.13163845293E+02  0.49323319065E+03  0.49305749516E+03 0.  0.
        1    1    3    3  502    0 -0.17570866855E+03 -0.11718172618E+03 -0.13379378216E+03  0.25001173837E+03  0.50400001928E-02 0.  1.
       -1    1    3    3    0  502  0.17570866855E+03  0.11718172618E+03  0.12062993687E+03  0.24322145228E+03  0.50400001928E-02 0. -1.
</event>
<event>
 5   0  0.1683148E-01  0.4963529E+03  0.7818609E-02  0.1014735E+00
       -2   -1    0    0    0  501  0.00000000000E+00  0.00000000000E+00  0.42628854300E+02  0.42628854376E+02  0.25500000920E-02 0.  1.
        2   -1    0    0  501    0  0.00000000000E+00  0.00000000000E+00 -0.14448326985E+04  0.14448326985E+04  0.25500000920E-02 0. -1.
    10030    2    1    2    0    0  0.00000000000E+00  0.00000000000E+00 -0.14022038442E+04  0.14874615529E+04  0.49635294963E+03 0.  0.
        2    1    3    3  502    0 -0.11180542909E+03  0.16117376550E+03 -0.11567125856E+04  0.11732269356E+04  0.25500000920E-02 0. -1.
       -2    1    3    3    0  502  0.11180542909E+03 -0.16117376550E+03 -0.24549125859E+03  0.31423461730E+03  0.25500000920E-02 0.  1.
</event>
<event>
 5   0  0.1782124E-01  0.4969138E+03  0.7818609E-02  0.1014588E+00
       -2   -1    0    0    0  501  0.00000000000E+00  0.00000000000E+00  0.16596713207E+03  0.16596713209E+03  0.25500000920E-02 0.  1.
        2   -1    0    0  501    0  0.00000000000E+00  0.00000000000E+00 -0.37194607669E+03  0.37194607670E+03  0.25500000920E-02 0. -1.
    10030    2    1    2    0    0  0.00000000000E+00  0.00000000000E+00 -0.20597894461E+03  0.53791320879E+03  0.49691376975E+03 0.  0.
        3    1    3    3  502    0 -0.12350440195E+03 -0.21470186481E+03 -0.81871256032E+02  0.26086996917E+03  0.10100000352E+00 0.  1.
       -3    1    3    3    0  502  0.12350440195E+03  0.21470186481E+03 -0.12410768858E+03  0.27704323962E+03  0.10100000352E+00 0. -1.
</event>
<event>
 5   0  0.1074281E-01  0.4945933E+03  0.7818609E-02  0.1015200E+00
        1   -1    0    0  501    0  0.00000000000E+00  0.00000000000E+00  0.63897048304E+03  0.63897048306E+03  0.50400001928E-02 0.  1.
       -1   -1    0    0    0  501  0.00000000000E+00  0.00000000000E+00 -0.95709640870E+02  0.95709641002E+02  0.50400001928E-02 0. -1.
    10030    2    1    2    0    0  0.00000000000E+00  0.00000000000E+00  0.54326084217E+03  0.73468012406E+03  0.49459330976E+03 0.  0.
        4    1    3    3  502    0  0.23462515299E+03  0.43653468898E+02  0.17537050534E+03  0.29616045450E+03  0.12699999809E+01 0. -1.
       -4    1    3    3    0  502 -0.23462515299E+03 -0.43653468898E+02  0.36789033683E+03  0.43851966957E+03  0.12699999809E+01 0.  1.
</event>
<event>
 5   0  0.1068522E-01  0.4984018E+03  0.7818609E-02  0.1014197E+00
       -1   -1    0    0    0  501  0.00000000000E+00  0.00000000000E+00  0.23772360995E+03  0.23772361000E+03  0.50400001928E-02 0. -1.
        1   -1    0    0  501    0  0.00000000000E+00  0.00000000000E+00 -0.26123236036E+03  0.26123236041E+03  0.50400001928E-02 0.  1.
    10030    2    1    2    0    0  0.00000000000E+00  0.00000000000E+00 -0.23508750410E+02  0.49895597041E+03  0.49840184496E+03 0.  0.
        2    1    3    3  502    0  0.13197866523E+03 -0.13748991680E+03  0.14898332825E+03  0.24190468660E+03  0.25500000920E-02 0. -1.
       -2    1    3    3    0  502 -0.13197866523E+03  0.13748991680E+03 -0.17249207866E+03  0.25705128380E+03  0.25500000920E-02 0.  1.
</event>
<event>
 5   0  0.1074281E-01  0.5190313E+03  0.7818609E-02  0.1008927E+00
       -1   -1    0    0    0  501  0.00000000000E+00  0.00000000000E+00  0.71740461418E+03  0.71740461419E+03  0.50400001928E-02 0. -1.
        1   -1    0    0  501    0  0.00000000000E+00  0.00000000000E+00 -0.93877790793E+02  0.93877790928E+02  0.50400001928E-02 0.  1.
    10030    2    1    2    0    0  0.00000000000E+00  0.00000000000E+00  0.62352682338E+03  0.81128240512E+03  0.51903125280E+03 0.  0.
        4    1    3    3  502    0 -0.15185868048E+03  0.20311890533E+03  0.22574625389E+03  0.33953104804E+03  0.12699999809E+01 0. -1.
       -4    1    3    3    0  502  0.15185868048E+03 -0.20311890533E+03  0.39778056950E+03  0.47175135708E+03  0.12699999809E+01 0.  1.
</event>
<event>
 5   0  0.1683148E-01  0.5084158E+03  0.7818609E-02  0.1011605E+00
        2   -1    0    0  501    0  0.00000000000E+00  0.00000000000E+00  0.58827678823E+03  0.58827678824E+03  0.25500000920E-02 0. -1.
       -2   -1    0    0    0  501  0.00000000000E+00  0.00000000000E+00 -0.10984905563E+03  0.10984905566E+03  0.25500000920E-02 0.  1.
    10030    2    1    2    0    0  0.00000000000E+00  0.00000000000E+00  0.47842773260E+03  0.69812584390E+03  0.50841577336E+03 0.  0.
        2    1    3    3  502    0  0.41111499333E+02  0.47836249195E+02  0.57736099953E+03  0.58079616553E+03  0.25500000920E-02 0. -1.
       -2    1    3    3    0  502 -0.41111499333E+02 -0.47836249195E+02 -0.98933266929E+02  0.11732967837E+03  0.25500000920E-02 0.  1.
</event>
<event>
 5   0  0.7220250E-02  0.4996860E+03  0.7818609E-02  0.1013861E+00
        3   -1    0    0  501    0  0.00000000000E+00  0.00000000000E+00  0.70987527532E+02  0.70987599383E+02  0.10100000352E+00 0. -1.
       -3   -1    0    0    0  501  0.00000000000E+00  0.00000000000E+00 -0.87933034339E+03  0.87933034919E+03  0.10100000352E+00 0.  1.
    10030    2    1    2    0    0  0.00000000000E+00  0.00000000000E+00 -0.80834281586E+03  0.95031794857E+03  0.49968599683E+03 0.  0.
        4    1    3    3  502    0 -0.93279993834E+02  0.73305915110E+02  0.13993437546E+02  0.11946691439E+03  0.12699999809E+01 0. -1.
       -4    1    3    3    0  502  0.93279993834E+02 -0.73305915110E+02 -0.82233625340E+03  0.83085103418E+03  0.12699999809E+01 0.  1.
</event>
<event>
 5   0  0.1141970E-01  0.5422410E+03  0.7818609E-02  0.1003306E+00
       -1   -1    0    0    0  501  0.00000000000E+00  0.00000000000E+00  0.79747085451E+02  0.79747085610E+02  0.50400001928E-02 0. -1.
        1   -1    0    0  501    0  0.00000000000E+00  0.00000000000E+00 -0.92174318394E+03  0.92174318396E+03  0.50400001928E-02 0.  1.
    10030    2    1    2    0    0  0.00000000000E+00  0.00000000000E+00 -0.84199609849E+03  0.10014902696E+04  0.54224102589E+03 0.  0.
        3    1    3    3  502    0 -0.20451519772E+03 -0.17262698763E+03 -0.34092104792E+03  0.43342094328E+03  0.10100000352E+00 0. -1.
       -3    1    3    3    0  502  0.20451519772E+03  0.17262698763E+03 -0.50107505058E+03  0.56806932629E+03  0.10100000352E+00 0.  1.
</event>
<event>
 5   0  0.1147245E-01  0.4985540E+03  0.7818609E-02  0.1014157E+00
        1   -1    0    0  501    0  0.00000000000E+00  0.00000000000E+00  0.16663262034E+03  0.16663262041E+03  0.50400001928E-02 0. -1.
       -1   -1    0    0    0  501  0.00000000000E+00  0.00000000000E+00 -0.37291034706E+03  0.37291034709E+03  0.50400001928E-02 0.  1.
    10030    2    1    2    0    0  0.00000000000E+00  0.00000000000E+00 -0.20627772672E+03  0.53954296751E+03  0.49855402239E+03 0.  0.
        1    1    3    3  502    0 -0.14289678296E+03 -0.17593584044E+03  0.91517294281E+01  0.22684061521E+03  0.50400001928E-02 0. -1.
       -1    1    3    3    0  502  0.14289678296E+03  0.17593584044E+03 -0.21542945615E+03  0.31270235230E+03  0.50400001928E-02 0.  1.
</event>
<event>
 5   0  0.1782124E-01  0.4987779E+03  0.7818609E-02  0.1014098E+00
        2   -1    0    0  501    0  0.00000000000E+00  0.00000000000E+00  0.54421207892E+03  0.54421207893E+03  0.25500000920E-02 0. -1.
       -2   -1    0    0    0  501  0.00000000000E+00  0.00000000000E+00 -0.11428420699E+03  0.11428420701E+03  0.25500000920E-02 0.  1.
    10030    2    1    2    0    0  0.00000000000E+00  0.00000000000E+00  0.42992787194E+03  0.65849628594E+03  0.49877788998E+03 0.  0.
        3    1    3    3  502    0 -0.14732986209E+03 -0.11861347451E+03  0.42955378877E+03  0.46935243926E+03  0.10100000352E+00 0. -1.
       -3    1    3    3    0  502  0.14732986209E+03  0.11861347451E+03  0.37408317161E+00  0.18914384668E+03  0.10100000352E+00 0.  1.
</event>
<event>
 5   0  0.1782124E-01  0.5006601E+03  0.7818609E-02  0.1013607E+00
       -2   -1    0    0    0  501  0.00000000000E+00  0.00000000000E+00  0.54886432916E+02  0.54886432975E+02  0.25500000920E-02 0.  1.
        2   -1    0    0  501    0  0.00000000000E+00  0.00000000000E+00 -0.11417237918E+04  0.11417237918E+04  0.25500000920E-02 0. -1.
    10030    2    1    2    0    0  0.00000000000E+00  0.00000000000E+00 -0.10868373589E+04  0.11966102248E+04  0.50066014958E+03 0.  0.
        3    1    3    3  502    0 -0.75019647208E+02 -0.14342779619E+03 -0.87012306681E+02  0.18376787505E+03  0.10100000352E+00 0.  1.
       -3    1    3    3    0  502  0.75019647208E+02  0.14342779619E+03 -0.99982505221E+03  0.10128423497E+04  0.10100000352E+00 0. -1.
</event>
<event>
 5   0  0.1074281E-01  0.4993539E+03  0.7818609E-02  0.1013948E+00
        1   -1    0    0  501    0  0.00000000000E+00  0.00000000000E+00  0.21381069553E+03  0.21381069559E+03  0.50400001928E-02 0.  1.
       -1   -1    0    0    0  501  0.00000000000E+00  0.00000000000E+00 -0.29155974097E+03  0.29155974101E+03  0.50400001928E-02 0. -1.
    10030    2    1    2    0    0  0.00000000000E+00  0.00000000000E+00 -0.77749045445E+02  0.50537043660E+03  0.49935394674E+03 0.  0.
        4    1    3    3  502    0 -0.43420090716E+02  0.12483788398E+03 -0.25324536605E+03  0.28566524094E+03  0.12699999809E+01 0. -1.
       -4    1    3    3    0  502  0.43420090716E+02 -0.12483788398E+03  0.17549632061E+03  0.21970519566E+03  0.12699999809E+01 0.  1.
</event>
<event>
 5   0  0.7220250E-02  0.4987259E+03  0.7818609E-02  0.1014112E+00
       -3   -1    0    0    0  501  0.00000000000E+00  0.00000000000E+00  0.23816278527E+03  0.23816280668E+03  0.10100000352E+00 0. -1.
        3   -1    0    0  501    0  0.00000000000E+00  0.00000000000E+00 -0.26108981087E+03  0.26108983040E+03  0.10100000352E+00 0.  1.
    10030    2    1    2    0    0  0.00000000000E+00  0.00000000000E+00 -0.22927025600E+02  0.49925263708E+03  0.49872592386E+03 0.  0.
        3    1    3    3  502    0  0.70749769682E+02 -0.11609324978E+03  0.19779961034E+03  0.24001639237E+03  0.10100000352E+00 0. -1.
       -3    1    3    3    0  502 -0.70749769682E+02  0.11609324978E+03 -0.22072663594E+03  0.25923624471E+03  0.10100000352E+00 0.  1.
</event>
<event>
 5   0  0.1827698E-01  0.4947298E+03  0.7818609E-02  0.1015164E+00
       -2   -1    0    0    0  501  0.00000000000E+00  0.00000000000E+00  0.46359292909E+02  0.46359292979E+02  0.25500000920E-02 0. -1.
        2   -1    0    0  501    0  0.00000000000E+00  0.00000000000E+00 -0.13198949341E+04  0.13198949341E+04  0.25500000920E-02 0.  1.
    10030    2    1    2    0    0  0.00000000000E+00  0.00000000000E+00 -0.12735356412E+04  0.13662542271E+04  0.49472980871E+03 0.  0.
        1    1    3    3  502    0 -0.65008851579E+02  0.20938431313E+03 -0.95310805326E+03  0.97799943895E+03  0.50400001928E-02 0.  1.
       -1    1    3    3    0  502  0.65008851579E+02 -0.20938431313E+03 -0.32042758790E+03  0.38825478810E+03  0.50400001928E-02 0. -1.
</event>
<event>
 5   0  0.1068522E-01  0.4961567E+03  0.7818609E-02  0.1014787E+00
       -1   -1    0    0    0  501  0.00000000000E+00  0.00000000000E+00  0.18178645059E+03  0.18178645066E+03  0.50400001928E-02 0.  1.
        1   -1    0    0  501    0  0.00000000000E+00  0.00000000000E+00 -0.33854492168E+03  0.33854492171E+03  0.50400001928E-02 0. -1.
    10030    2    1    2    0    0  0.00000000000E+00  0.00000000000E+00 -0.15675847109E+03  0.52033137237E+03  0.49615674823E+03 0.  0.
        2    1    3    3  502    0 -0.46598502013E+02  0.28169495053E+02 -0.33220058705E+03  0.33663358550E+03  0.25500000920E-02 0. -1.
       -2    1    3    3    0  502  0.46598502013E+02 -0.28169495053E+02  0.17544211597E+03  0.18369778687E+03  0.25500000920E-02 0.  1.
</event>
<event>
 5   0  0.1147245E-01  0.5033550E+03  0.7818609E-02  0.1012907E+00
       -1   -1    0    0    0  501  0.00000000000E+00  0.00000000000E+00  0.28314840450E+03  0.28314840454E+03  0.50400001928E-02 0. -1.
        1   -1    0    0  501    0  0.00000000000E+00  0.00000000000E+00 -0.22370448869E+03  0.22370448874E+03  0.50400001928E-02 0.  1.
    10030    2    1    2    0    0  0.00000000000E+00  0.00000000000E+00  0.59443915810E+02  0.50685289329E+03  0.50335502015E+03 0.  0.
        1    1    3    3  502    0 -0.13470897444E+03 -0.44729627588E+02 -0.17955473063E+03  0.22888239053E+03  0.50400001928E-02 0.  1.
       -1    1    3    3    0  502  0.13470897444E+03  0.44729627588E+02  0.23899864644E+03  0.27797050276E+03  0.50400001928E-02 0. -1.
</event>
<event>
 5   0  0.1760649E-01  0.4971126E+03  0.7818609E-02  0.1014535E+00
        2   -1    0    0  501    0  0.00000000000E+00  0.00000000000E+00  0.11769998452E+03  0.11769998454E+03  0.25500000920E-02 0. -1.
       -2   -1    0    0    0  501  0.00000000000E+00  0.00000000000E+00 -0.52489586734E+03  0.52489586735E+03  0.25500000920E-02 0.  1.
    10030    2    1    2    0    0  0.00000000000E+00  0.00000000000E+00 -0.40719588283E+03  0.64259585189E+03  0.49711260483E+03 0.  0.
        5    1    3    3  502    0  0.21918986786E+03  0.10052566406E+03 -0.28124925267E+03  0.37050349449E+03  0.46999998093E+01 0.  1.
       -5    1    3    3    0  502 -0.21918986786E+03 -0.10052566406E+03 -0.12594663016E+03  0.27209235740E+03  0.46999998093E+01 0. -1.
</event>
<event>
 5   0  0.1827698E-01  0.4791370E+03  0.7818609E-02  0.1019373E+00
        2   -1    0    0  501    0  0.00000000000E+00  0.00000000000E+00  0.26718115088E+03  0.26718115090E+03  0.25500000920E-02 0. -1.
       -2   -1    0    0    0  501  0.00000000000E+00  0.00000000000E+00 -0.21480952638E+03  0.21480952640E+03  0.25500000920E-02 0.  1.
    10030    2    1    2    0    0  0.00000000000E+00  0.00000000000E+00  0.52371624503E+02  0.48199067729E+03  0.47913695948E+03 0.  0.
        1    1    3    3  502    0  0.15592771688E+03 -0.10976695808E+03 -0.11969798295E+03  0.22514405416E+03  0.50400001928E-02 0.  1.
       -1    1    3    3    0  502 -0.15592771688E+03  0.10976695808E+03  0.17206960746E+03  0.25684662313E+03  0.50400001928E-02 0. -1.
</event>
<event>
 5   0  0.1068522E-01  0.4784866E+03  0.7818609E-02  0.1019552E+00
       -1   -1    0    0    0  501  0.00000000000E+00  0.00000000000E+00  0.22262072406E+03  0.22262072411E+03  0.50400001928E-02 0.  1.
        1   -1    0    0  501    0  0.00000000000E+00  0.00000000000E+00 -0.25710705750E+03  0.25710705755E+03  0.50400001928E-02 0. -1.
    10030    2    1    2    0    0  0.00000000000E+00  0.00000000000E+00 -0.34486333448E+02  0.47972778167E+03  0.47848661142E+03 0.  0.
        2    1    3    3  502    0 -0.11084916703E+03  0.21169778063E+03 -0.28843450196E+02  0.24069780385E+03  0.25500000920E-02 0.  1.
       -2    1    3    3    0  502  0.11084916703E+03 -0.21169778063E+03 -0.56428832517E+01  0.23902997781E+03  0.25500000920E-02 0. -1.
</event>
<event>
 5   0  0.1068522E-01  0.5063811E+03  0.7818609E-02  0.1012127E+00
       -1   -1    0    0    0  501  0.00000000000E+00  0.00000000000E+00  0.28701010939E+03  0.28701010943E+03  0.50400001928E-02 0. -1.
        1   -1    0    0  501    0  0.00000000000E+00  0.00000000000E+00 -0.22335611588E+03  0.22335611594E+03  0.50400001928E-02 0.  1.
    10030    2    1    2    0    0  0.00000000000E+00  0.00000000000E+00  0.63653993507E+02  0.51036622537E+03  0.50638113424E+03 0.  0.
        2    1    3    3  502    0  0.48106643131E+02  0.24371005489E+03  0.81167582182E+02  0.26133697857E+03  0.25500000920E-02 0.  1.
       -2    1    3    3    0  502 -0.48106643131E+02 -0.24371005489E+03 -0.17513588676E+02  0.24902924680E+03  0.25500000920E-02 0. -1.
</event>
<event>
 5   0  0.1683148E-01  0.4608120E+03  0.7818609E-02  0.1024546E+00
       -2   -1    0    0    0  501  0.00000000000E+00  0.00000000000E+00  0.46976446032E+03  0.46976446033E+03  0.25500000920E-02 0. -1.
        2   -1    0    0  501    0  0.00000000000E+00  0.00000000000E+00 -0.11300753096E+03  0.11300753099E+03  0.25500000920E-02 0.  1.
    10030    2    1    2    0    0  0.00000000000E+00  0.00000000000E+00  0.35675692936E+03  0.58277199132E+03  0.46081198685E+03 0.  0.
        2    1    3    3  502    0  0.12379770850E+03 -0.16738444215E+02  0.42321699055E+03  0.44126938398E+03  0.25500000920E-02 0. -1.
       -2    1    3    3    0  502 -0.12379770850E+03  0.16738444215E+02 -0.66460061186E+02  0.14150260734E+03  0.25500000920E-02 0.  1.
</event>
<event>
 5   0  0.7220250E-02  0.5005337E+03  0.7818609E-02  0.1013640E+00
       -3   -1    0    0    0  501  0.00000000000E+00  0.00000000000E+00  0.83707873520E+02  0.83707934452E+02  0.10100000352E+00 0.  1.
        3   -1    0    0  501    0  0.00000000000E+00  0.00000000000E+00 -0.74823880679E+03  0.74823881361E+03  0.10100000352E+00 0. -1.
    10030    2    1    2    0    0  0.00000000000E+00  0.00000000000E+00 -0.66453093327E+03  0.83194674806E+03  0.50053374545E+03 0.  0.
        2    1    3    3  502    0  0.25489412163E+02 -0.20568873550E+03 -0.99118415027E+02  0.22974339218E+03  0.25500000920E-02 0.  1.
       -2    1    3    3    0  502 -0.25489412163E+02  0.20568873550E+03 -0.56541251824E+03  0.60220335588E+03  0.25500000920E-02 0. -1.
</event>
<event>
 5   0  0.1147245E-01  0.5013066E+03  0.7818609E-02  0.1013438E+00
        1   -1    0    0  501    0  0.00000000000E+00  0.00000000000E+00  0.85008953143E+03  0.85008953144E+03  0.50400001928E-02 0. -1.
       -1   -1    0    0    0  501  0.00000000000E+00  0.00000000000E+00 -0.73906420447E+02  0.73906420619E+02  0.50400001928E-02 0.  1.
    10030    2    1    2    0    0  0.00000000000E+00  0.00000000000E+00  0.77618311098E+03  0.92399595206E+03  0.50130659048E+03 0.  0.
        1    1    3    3  502    0  0.18248844477E+02 -0.16934831099E+03  0.49151685936E+02  0.17727876076E+03  0.50400001928E-02 0.  1.
       -1    1    3    3    0  502 -0.18248844477E+02  0.16934831099E+03  0.72703142504E+03  0.74671719130E+03  0.50400001928E-02 0. -1.
</event>
<event>
 5   0  0.1760649E-01  0.4900624E+03  0.7818609E-02  0.1016406E+00
       -2   -1    0    0    0  501  0.00000000000E+00  0.00000000000E+00  0.15631510837E+03  0.15631510839E+03  0.25500000920E-02 0. -1.
        2   -1    0    0  501    0  0.00000000000E+00  0.00000000000E+00 -0.38409776089E+03  0.38409776090E+03  0.25500000920E-02 0.  1.
    10030    2    1    2    0    0  0.00000000000E+00  0.00000000000E+00 -0.22778265252E+03  0.54041286929E+03  0.49006237614E+03 0.  0.
        5    1    3    3  502    0 -0.94506978353E+02  0.21545047894E+03 -0.18923147974E+03  0.30196211808E+03  0.46999998093E+01 0.  1.
       -5    1    3    3    0  502  0.94506978353E+02 -0.21545047894E+03 -0.38551172787E+02  0.23845075121E+03  0.46999998093E+01 0. -1.
</event>
<event>
 5   0  0.1141970E-01  0.5059487E+03  0.7818609E-02  0.1012238E+00
       -1   -1    0    0    0  501  0.00000000000E+00  0.00000000000E+00  0.19426091322E+03  0.19426091328E+03  0.50400001928E-02 0. -1.
        1   -1    0    0  501    0  0.00000000000E+00  0.00000000000E+00 -0.32943333612E+03  0.32943333616E+03  0.50400001928E-02 0.  1.
    10030    2    1    2    0    0  0.00000000000E+00  0.00000000000E+00 -0.13517242290E+03  0.52369424944E+03  0.50594869600E+03 0.  0.
        3    1    3    3  502    0  0.17673503898E+03  0.17238660812E+03 -0.12468996754E+03  0.27658636059E+03  0.10100000352E+00 0.  1.
       -3    1    3    3    0  502 -0.17673503898E+03 -0.17238660812E+03 -0.10482455362E+02  0.24710788885E+03  0.10100000352E+00 0. -1.
</event>
<event>
 5   0  0.1683148E-01  0.4977629E+03  0.7818609E-02  0.1014364E+00
        2   -1    0    0  501    0  0.00000000000E+00  0.00000000000E+00  0.18600178025E+04  0.18600178025E+04  0.25500000920E-02 0.  1.
       -2   -1    0    0    0  501  0.00000000000E+00  0.00000000000E+00 -0.33301812988E+02  0.33301813086E+02  0.25500000920E-02 0. -1.
    10030    2    1    2    0    0  0.00000000000E+00  0.00000000000E+00  0.18267159896E+04  0.18933196156E+04  0.49776285562E+03 0.  0.
        2    1    3    3  502    0  0.10671555308E+03 -0.13324307023E+03  0.22448583054E+03  0.28202094453E+03  0.25500000920E-02 0. -1.
       -2    1    3    3    0  502 -0.10671555308E+03  0.13324307023E+03  0.16022301590E+04  0.16112986711E+04  0.25500000920E-02 0.  1.
</event>
<event>
 5   0  0.1683148E-01  0.4930148E+03  0.7818609E-02  0.1015618E+00
        2   -1    0    0  501    0  0.00000000000E+00  0.00000000000E+00  0.15022508602E+03  0.15022508605E+03  0.25500000920E-02 0.  1.
       -2   -1    0    0    0  501  0.00000000000E+00  0.00000000000E+00 -0.40449904602E+03  0.40449904603E+03  0.25500000920E-02 0. -1.
    10030    2    1    2    0    0  0.00000000000E+00  0.00000000000E+00 -0.25427396000E+03  0.55472413207E+03  0.49301482328E+03 0.  0.
        2    1    3    3  502    0 -0.11124460460E+03 -0.93423660315E+02  0.96945272832E+02  0.17464743998E+03  0.25500000920E-02 0.  1.
       -2    1    3    3    0  502  0.11124460460E+03  0.93423660315E+02 -0.35121923283E+03  0.38007669210E+03  0.25500000920E-02 0. -1.
</event>
<event>
 5   0  0.1147245E-01  0.4916667E+03  0.7818609E-02  0.1015977E+00
        1   -1    0    0  501    0  0.00000000000E+00  0.00000000000E+00  0.22611524853E+03  0.22611524858E+03  0.50400001928E-02 0. -1.
       -1   -1    0    0    0  501  0.00000000000E+00  0.00000000000E+00 -0.26727097544E+03  0.26727097549E+03  0.50400001928E-02 0.  1.
    10030    2    1    2    0    0  0.00000000000E+00  0.00000000000E+00 -0.41155726912E+02  0.49338622407E+03  0.49166672884E+03 0.  0.
        1    1    3    3  502    0 -0.91716731081E+02  0.22208315789E+03 -0.72732265749E+02  0.25104356252E+03  0.50400001928E-02 0.  1.
       -1    1    3    3    0  502  0.91716731081E+02 -0.22208315789E+03  0.31576538836E+02  0.24234266155E+03  0.50400001928E-02 0. -1.
</event>
<event>
 5   0  0.1782124E-01  0.4975448E+03  0.7818609E-02  0.1014422E+00
       -2   -1    0    0    0  501  0.00000000000E+00  0.00000000000E+00  0.52072108898E+02  0.52072108960E+02  0.25500000920E-02 0.  1.
        2   -1    0    0  501    0  0.00000000000E+00  0.00000000000E+00 -0.11885001646E+04  0.11885001646E+04  0.25500000920E-02 0. -1.
    10030    2    1    2    0    0  0.00000000000E+00  0.00000000000E+00 -0.11364280557E+04  0.12405722735E+04  0.49754481219E+03 0.  0.
        3    1    3    3  502    0  0.11909191361E+03  0.21769919593E+03 -0.52418076444E+03  0.57994940107E+03  0.10100000352E+00 0.  1.
       -3    1    3    3    0  502 -0.11909191361E+03 -0.21769919593E+03 -0.61224729124E+03  0.66062287247E+03  0.10100000352E+00 0. -1.
</event>
<event>
 5   0  0.1683148E-01  0.4963801E+03  0.7818609E-02  0.1014728E+00
       -2   -1    0    0    0  501  0.00000000000E+00  0.00000000000E+00  0.28907562000E+03  0.28907562002E+03  0.25500000920E-02 0.  1.
        2   -1    0    0  501    0  0.00000000000E+00  0.00000000000E+00 -0.21308718946E+03  0.21308718948E+03  0.25500000920E-02 0. -1.
    10030    2    1    2    0    0  0.00000000000E+00  0.00000000000E+00  0.75988430541E+02  0.50216280949E+03  0.49638014229E+03 0.  0.
        2    1    3    3  502    0 -0.60363634134E+02  0.11128366068E+03  0.25395355708E+03  0.28376086873E+03  0.25500000920E-02 0.  1.
       -2    1    3    3    0  502  0.60363634134E+02 -0.11128366068E+03 -0.17796512654E+03  0.21840194077E+03  0.25500000920E-02 0. -1.
</event>
<event>
 5   0  0.1141970E-01  0.4958403E+03  0.7818609E-02  0.1014870E+00
        1   -1    0    0  501    0  0.00000000000E+00  0.00000000000E+00  0.12791946535E+04  0.12791946535E+04  0.50400001928E-02 0.  1.
       -1   -1    0    0    0  501  0.00000000000E+00  0.00000000000E+00 -0.48049299693E+02  0.48049299957E+02  0.50400001928E-02 0. -1.
    10030    2    1    2    0    0  0.00000000000E+00  0.00000000000E+00  0.12311453538E+04  0.13272439535E+04  0.49584032693E+03 0.  0.
        3    1    3    3  502    0 -0.92969757978E+02 -0.12819660685E+03  0.10497368273E+03  0.18999271084E+03  0.10100000352E+00 0. -1.
       -3    1    3    3    0  502  0.92969757978E+02  0.12819660685E+03  0.11261716711E+04  0.11372512426E+04  0.10100000352E+00 0.  1.
</event>
<event>
 5   0  0.1141970E-01  0.4996832E+03  0.7818609E-02  0.1013862E+00
        1   -1    0    0  501    0  0.00000000000E+00  0.00000000000E+00  0.88240441680E+03  0.88240441681E+03  0.50400001928E-02 0. -1.
       -1   -1    0    0    0  501  0.00000000000E+00  0.00000000000E+00 -0.70739477456E+02  0.70739477636E+02  0.50400001928E-02 0.  1.
    10030    2    1    2    0    0  0.00000000000E+00  0.00000000000E+00  0.81166493934E+03  0.95314389445E+03  0.49968320941E+03 0.  0.
        3    1    3    3  502    0  0.19496606034E+03 -0.14437004393E+03  0.29191895091E+03  0.37956706702E+03  0.10100000352E+00 0.  1.
       -3    1    3    3    0  502 -0.19496606034E+03  0.14437004393E+03  0.51974598843E+03  0.57357682742E+03  0.10100000352E+00 0. -1.
</event>
<event>
 5   0  0.1074281E-01  0.4790518E+03  0.7818609E-02  0.1019396E+00
        1   -1    0    0  501    0  0.00000000000E+00  0.00000000000E+00  0.43994502249E+03  0.43994502252E+03  0.50400001928E-02 0.  1.
       -1   -1    0    0    0  501  0.00000000000E+00  0.00000000000E+00 -0.13040871422E+03  0.13040871432E+03  0.50400001928E-02 0. -1.
    10030    2    1    2    0    0  0.00000000000E+00  0.00000000000E+00  0.30953630827E+03  0.57035373684E+03  0.47905183330E+03 0.  0.
        4    1    3    3  502    0  0.23354789878E+03 -0.23667341617E+02  0.21144677989E+03  0.31593688881E+03  0.12699999809E+01 0.  1.
       -4    1    3    3    0  502 -0.23354789878E+03  0.23667341617E+02  0.98089528377E+02  0.25441684803E+03  0.12699999809E+01 0. -1.
</event>
<event>
 5   0  0.1782124E-01  0.5060674E+03  0.7818609E-02  0.1012207E+00
        2   -1    0    0  501    0  0.00000000000E+00  0.00000000000E+00  0.75875317591E+03  0.75875317592E+03  0.25500000920E-02 0. -1.
       -2   -1    0    0    0  501  0.00000000000E+00  0.00000000000E+00 -0.84383233144E+02  0.84383233182E+02  0.25500000920E-02 0.  1.
    10030    2    1    2    0    0  0.00000000000E+00  0.00000000000E+00  0.67436994277E+03  0.84313640910E+03  0.50606737164E+03 0.  0.
        3    1    3    3  502    0 -0.17932024477E+02  0.19258068374E+03  0.65371890252E+02  0.20416261040E+03  0.10100000352E+00 0.  1.
       -3    1    3    3    0  502  0.17932024477E+02 -0.19258068374E+03  0.60899805252E+03  0.63897379870E+03  0.10100000352E+00 0. -1.
</event>
<event>
 5   0  0.1683148E-01  0.4887720E+03  0.7818609E-02  0.1016752E+00
        2   -1    0    0  501    0  0.00000000000E+00  0.00000000000E+00  0.20099589971E+03  0.20099589973E+03  0.25500000920E-02 0. -1.
       -2   -1    0    0    0  501  0.00000000000E+00  0.00000000000E+00 -0.29714302005E+03  0.29714302006E+03  0.25500000920E-02 0.  1.
    10030    2    1    2    0    0  0.00000000000E+00  0.00000000000E+00 -0.96147120338E+02  0.49813891979E+03  0.48877204775E+03 0.  0.
        2    1    3    3  502    0 -0.83326042393E+02 -0.98959727211E+02 -0.25938310087E+03  0.28985487744E+03  0.25500000920E-02 0.  1.
       -2    1    3    3    0  502  0.83326042393E+02  0.98959727211E+02  0.16323598054E+03  0.20828404235E+03  0.25500000920E-02 0. -1.
</event>
<event>
 5   0  0.1709372E-01  0.5082619E+03  0.7818609E-02  0.1011645E+00
        2   -1    0    0  501    0  0.00000000000E+00  0.00000000000E+00  0.15569208999E+04  0.15569208999E+04  0.25500000920E-02 0.  1.
       -2   -1    0    0    0  501  0.00000000000E+00  0.00000000000E+00 -0.41480933825E+02  0.41480933903E+02  0.25500000920E-02 0. -1.
    10030    2    1    2    0    0  0.00000000000E+00  0.00000000000E+00  0.15154399661E+04  0.15984018338E+04  0.50826187299E+03 0.  0.
        4    1    3    3  502    0  0.17585779957E+03 -0.16596858026E+03  0.10035286392E+04  0.10322513637E+04  0.12699999809E+01 0.  1.
       -4    1    3    3    0  502 -0.17585779957E+03  0.16596858026E+03  0.51191132695E+03  0.56615047016E+03  0.12699999809E+01 0. -1.
</event>
<event>
 5   0  0.1068522E-01  0.4968293E+03  0.7818609E-02  0.1014610E+00
        1   -1    0    0  501    0  0.00000000000E+00  0.00000000000E+00  0.12745212584E+03  0.12745212594E+03  0.50400001928E-02 0. -1.
       -1   -1    0    0    0  501  0.00000000000E+00  0.00000000000E+00 -0.48418062231E+03  0.48418062234E+03  0.50400001928E-02 0.  1.
    10030    2    1    2    0    0  0.00000000000E+00  0.00000000000E+00 -0.35672849647E+03  0.61163274827E+03  0.49682934551E+03 0.  0.
        2    1    3    3  502    0  0.53454870745E+02  0.58178510503E+02  0.11157267116E+03  0.13671365421E+03  0.25500000920E-02 0. -1.
       -2    1    3    3    0  502 -0.53454870745E+02 -0.58178510503E+02 -0.46830116764E+03  0.47491909406E+03  0.25500000920E-02 0.  1.
</event>
<event>
 5   0  0.1123271E-01  0.4883094E+03  0.7818609E-02  0.1016876E+00
        1   -1    0    0  501    0  0.00000000000E+00  0.00000000000E+00  0.44538829751E+03  0.44538829754E+03  0.50400001928E-02 0. -1.
       -1   -1    0    0    0  501  0.00000000000E+00  0.00000000000E+00 -0.13384168215E+03  0.13384168224E+03  0.50400001928E-02 0.  1.
    10030    2    1    2    0    0  0.00000000000E+00  0.00000000000E+00  0.31154661536E+03  0.57922997978E+03  0.48830940595E+03 0.  0.
        5    1    3    3  502    0 -0.11749647532E+02  0.20744154028E+03  0.37765417828E+01  0.20786149022E+03  0.46999998093E+01 0.  1.
       -5    1    3    3    0  502  0.11749647532E+02 -0.20744154028E+03  0.30777007358E+03  0.37136848956E+03  0.46999998093E+01 0. -1.
</event>
<event>
 5   0  0.1827698E-01  0.5122089E+03  0.7818609E-02  0.1010640E+00
       -2   -1    0    0    0  501  0.00000000000E+00  0.00000000000E+00  0.20756985643E+03  0.20756985645E+03  0.25500000920E-02 0.  1.
        2   -1    0    0  501    0  0.00000000000E+00  0.00000000000E+00 -0.31598749350E+03  0.31598749351E+03  0.25500000920E-02 0. -1.
    10030    2    1    2    0    0  0.00000000000E+00  0.00000000000E+00 -0.10841763707E+03  0.52355734996E+03  0.51220885844E+03 0.  0.
        1    1    3    3  502    0 -0.17710105637E+03 -0.23094827808E+02 -0.24182755676E+03  0.30063054148E+03  0.50400001928E-02 0. -1.
       -1    1    3    3    0  502  0.17710105637E+03  0.23094827808E+02  0.13340991969E+03  0.22292680847E+03  0.50400001928E-02 0.  1.
</event>
<event>
 5   0  0.1683148E-01  0.5043395E+03  0.7818609E-02  0.1012652E+00
        2   -1    0    0  501    0  0.00000000000E+00  0.00000000000E+00  0.11188606974E+04  0.11188606974E+04  0.25500000920E-02 0.  1.
       -2   -1    0    0    0  501  0.00000000000E+00  0.00000000000E+00 -0.56834236175E+02  0.56834236232E+02  0.25500000920E-02 0. -1.
    10030    2    1    2    0    0  0.00000000000E+00  0.00000000000E+00  0.10620264612E+04  0.11756949336E+04  0.50433954101E+03 0.  0.
        2    1    3    3  502    0 -0.12121334751E+03  0.62146449291E+02  0.36309209727E+02  0.14097239266E+03  0.25500000920E-02 0. -1.
       -2    1    3    3    0  502  0.12121334751E+03 -0.62146449291E+02  0.10257172515E+04  0.10347225409E+04  0.25500000920E-02 0.  1.
</event>
<event>
 5   0  0.1147245E-01  0.5000960E+03  0.7818609E-02  0.1013754E+00
       -1   -1    0    0    0  501  0.00000000000E+00  0.00000000000E+00  0.51781257023E+02  0.51781257268E+02  0.50400001928E-02 0. -1.
        1   -1    0    0  501    0  0.00000000000E+00  0.00000000000E+00 -0.12074637850E+04  0.12074637850E+04  0.50400001928E-02 0.  1.
    10030    2    1    2    0    0  0.00000000000E+00  0.00000000000E+00 -0.11556825280E+04  0.12592450423E+04  0.50009596183E+03 0.  0.
        1    1    3    3  502    0 -0.19275613636E+03 -0.39589739637E+02 -0.18936807845E+03  0.27309804970E+03  0.50400001928E-02 0. -1.
       -1    1    3    3    0  502  0.19275613636E+03  0.39589739637E+02 -0.96631444953E+03  0.98614699259E+03  0.50400001928E-02 0.  1.
</event>
<event>
 5   0  0.1141970E-01  0.5012782E+03  0.7818609E-02  0.1013446E+00
        1   -1    0    0  501    0  0.00000000000E+00  0.00000000000E+00  0.13281205757E+04  0.13281205757E+04  0.50400001928E-02 0. -1.
       -1   -1    0    0    0  501  0.00000000000E+00  0.00000000000E+00 -0.47299895850E+02  0.47299896119E+02  0.50400001928E-02 0.  1.
    10030    2    1    2    0    0  0.00000000000E+00  0.00000000000E+00  0.12808206798E+04  0.13754204718E+04  0.50127822653E+03 0.  0.
        3    1    3    3  502    0  0.11114276494E+03  0.45820888039E+02  0.36970051347E+02  0.12577385610E+03  0.10100000352E+00 0.  1.
       -3    1    3    3    0  502 -0.11114276494E+03 -0.45820888039E+02  0.12438506285E+04  0.12496466157E+04  0.10100000352E+00 0. -1.
</event>
<event>
 5   0  0.1068522E-01  0.4988428E+03  0.7818609E-02  0.1014081E+00
        1   -1    0    0  501    0  0.00000000000E+00  0.00000000000E+00  0.90314048521E+03  0.90314048523E+03  0.50400001928E-02 0.  1.
       -1   -1    0    0    0  501  0.00000000000E+00  0.00000000000E+00 -0.68882996960E+02  0.68882997145E+02  0.50400001928E-02 0. -1.
    10030    2    1    2    0    0  0.00000000000E+00  0.00000000000E+00  0.83425748825E+03  0.97202348237E+03  0.49884275436E+03 0.  0.
        2    1    3    3  502    0  0.24193069865E+03  0.20316104635E+02  0.30573984603E+03  0.39041011835E+03  0.25500000920E-02 0. -1.
       -2    1    3    3    0  502 -0.24193069865E+03 -0.20316104635E+02  0.52851764222E+03  0.58161336402E+03  0.25500000920E-02 0.  1.
</event>
<event>
 5   0  0.7220250E-02  0.5181698E+03  0.7818609E-02  0.1009142E+00
       -3   -1    0    0    0  501  0.00000000000E+00  0.00000000000E+00  0.65613119207E+03  0.65613119984E+03  0.10100000352E+00 0.  1.
        3   -1    0    0  501    0  0.00000000000E+00  0.00000000000E+00 -0.10230419599E+03  0.10230424585E+03  0.10100000352E+00 0. -1.
    10030    2    1    2    0    0  0.00000000000E+00  0.00000000000E+00  0.55382699608E+03  0.75843544569E+03  0.51816984058E+03 0.  0.
        2    1    3    3  502    0  0.95957487506E+02 -0.23060083734E+03  0.37768888109E+03  0.45280622400E+03  0.25500000920E-02 0.  1.
       -2    1    3    3    0  502 -0.95957487506E+02  0.23060083734E+03  0.17613811499E+03  0.30562922169E+03  0.25500000920E-02 0. -1.
</event>
<event>
 5   0  0.1147245E-01  0.4983320E+03  0.7818609E-02  0.1014215E+00
       -1   -1    0    0    0  501  0.00000000000E+00  0.00000000000E+00  0.44135399446E+02  0.44135399733E+02  0.50400001928E-02 0. -1.
        1   -1    0    0  501    0  0.00000000000E+00  0.00000000000E+00 -0.14066642018E+04  0.14066642019E+04  0.50400001928E-02 0.  1.
    10030    2    1    2    0    0  0.00000000000E+00  0.00000000000E+00 -0.13625288024E+04  0.14507996016E+04  0.49833196426E+03 0.  0.
        1    1    3    3  502    0 -0.13243156199E+03  0.15358534710E+03 -0.11027224680E+04  0.11212151528E+04  0.50400001928E-02 0.  1.
       -1    1    3    3    0  502  0.13243156199E+03 -0.15358534710E+03 -0.25980633444E+03  0.32958444881E+03  0.50400001928E-02 0. -1.
</event>
<event>
 5   0  0.1782124E-01  0.5116252E+03  0.7818609E-02  0.1010788E+00
       -2   -1    0    0    0  501  0.00000000000E+00  0.00000000000E+00  0.80248846537E+02  0.80248846577E+02  0.25500000920E-02 0.  1.
        2   -1    0    0  501    0  0.00000000000E+00  0.00000000000E+00 -0.81546439430E+03  0.81546439431E+03  0.25500000920E-02 0. -1.
    10030    2    1    2    0    0  0.00000000000E+00  0.00000000000E+00 -0.73521554776E+03  0.89571324088E+03  0.51162516378E+03 0.  0.
        3    1    3    3  502    0  0.16112076212E+03 -0.13331940230E+03 -0.10967410499E+03  0.23614059906E+03  0.10100000352E+00 0.  1.
       -3    1    3    3    0  502 -0.16112076212E+03  0.13331940230E+03 -0.62554144277E+03  0.65957264182E+03  0.10100000352E+00 0. -1.
</event>
<event>
 5   0  0.1068522E-01  0.5037321E+03  0.7818609E-02  0.1012809E+00
       -1   -1    0    0    0  501  0.00000000000E+00  0.00000000000E+00  0.15232563213E+03  0.15232563221E+03  0.50400001928E-02 0.  1.
        1   -1    0    0  501    0  0.00000000000E+00  0.00000000000E+00 -0.41645329026E+03  0.41645329029E+03  0.50400001928E-02 0. -1.
    10030    2    1    2    0    0  0.00000000000E+00  0.00000000000E+00 -0.26412765813E+03  0.56877892250E+03  0.50373211422E+03 0.  0.
        2    1    3    3  502    0 -0.17808262716E+03 -0.17124744700E+03 -0.76777958531E+02  0.25871599317E+03  0.25500000920E-02 0.  1.
       -2    1    3    3    0  502  0.17808262716E+03  0.17124744700E+03 -0.18734969960E+03  0.31006292933E+03  0.25500000920E-02 0. -1.
</event>
<event>
 5   0  0.7220250E-02  0.5000750E+03  0.7818609E-02  0.1013759E+00
        3   -1    0    0  501    0  0.00000000000E+00  0.00000000000E+00  0.51028918642E+02  0.51029018595E+02  0.10100000352E+00 0. -1.
       -3   -1    0    0    0  501  0.00000000000E+00  0.00000000000E+00 -0.12251618680E+04  0.12251618721E+04  0.10100000352E+00 0.  1.
    10030    2    1    2    0    0  0.00000000000E+00  0.00000000000E+00 -0.11741329493E+04  0.12761908907E+04  0.50007500126E+03 0.  0.
        3    1    3    3  502    0  0.80752372217E+02 -0.22597366684E+03 -0.40781333642E+03  0.47317731484E+03  0.10100000352E+00 0. -1.
       -3    1    3    3    0  502 -0.80752372217E+02  0.22597366684E+03 -0.76631961292E+03  0.80301357590E+03  0.10100000352E+00 0.  1.
</event>
<event>
 5   0  0.1827698E-01  0.4928958E+03  0.7818609E-02  0.1015650E+00
       -2   -1    0    0    0  501  0.00000000000E+00  0.00000000000E+00  0.69020084792E+02  0.69020084839E+02  0.25500000920E-02 0.  1.
        2   -1    0    0  501    0  0.00000000000E+00  0.00000000000E+00 -0.87998405487E+03  0.87998405488E+03  0.25500000920E-02 0. -1.
    10030    2    1    2    0    0  0.00000000000E+00  0.00000000000E+00 -0.81096397008E+03  0.94900413972E+03  0.49289582716E+03 0.  0.
        1    1    3    3  502    0 -0.42235383047E+02 -0.49524011136E+02 -0.86313638915E+03  0.86558701559E+03  0.50400001928E-02 0. -1.
       -1    1    3    3    0  502  0.42235383047E+02  0.49524011136E+02  0.52172419069E+02  0.83417124124E+02  0.50400001928E-02 0.  1.
</event>
<event>
 5   0  0.1068522E-01  0.4986466E+03  0.7818609E-02  0.1014133E+00
       -1   -1    0    0    0  501  0.00000000000E+00  0.00000000000E+00  0.16901384405E+03  0.16901384412E+03  0.50400001928E-02 0.  1.
        1   -1    0    0  501    0  0.00000000000E+00  0.00000000000E+00 -0.36779292834E+03  0.36779292837E+03  0.50400001928E-02 0. -1.
    10030    2    1    2    0    0  0.00000000000E+00  0.00000000000E+00 -0.19877908429E+03  0.53680677250E+03  0.49864655483E+03 0.  0.
        2    1    3    3  502    0 -0.70183170817E+01  0.15303742452E+03  0.11236752954E+03  0.18998992547E+03  0.25500000920E-02 0.  1.
       -2    1    3    3    0  502  0.70183170817E+01 -0.15303742452E+03 -0.31114661383E+03  0.34681684703E+03  0.25500000920E-02 0. -1.
</event>
<event>
 5   0  0.1141970E-01  0.4938516E+03  0.7818609E-02  0.1015396E+00
       -1   -1    0    0    0  501  0.00000000000E+00  0.00000000000E+00  0.37369356965E+02  0.37369357305E+02  0.50400001928E-02 0. -1.
        1   -1    0    0  501    0  0.00000000000E+00  0.00000000000E+00 -0.16316138804E+04  0.16316138804E+04  0.50400001928E-02 0.  1.
    10030    2    1    2    0    0  0.00000000000E+00  0.00000000000E+00 -0.15942445234E+04  0.16689832377E+04  0.49385164500E+03 0.  0.
        3    1    3    3  502    0  0.16401918084E+03 -0.53230026444E+02 -0.19982913572E+03  0.26394586771E+03  0.10100000352E+00 0. -1.
       -3    1    3    3    0  502 -0.16401918084E+03  0.53230026444E+02 -0.13944153877E+04  0.14050373700E+04  0.10100000352E+00 0.  1.
</event>
<event>
 5   0  0.1709372E-01  0.4222592E+03  0.7818609E-02  0.1036334E+00
        2   -1    0    0  501    0  0.00000000000E+00  0.00000000000E+00  0.41412657818E+03  0.41412657819E+03  0.25500000920E-02 0. -1.
       -2   -1    0    0    0  501  0.00000000000E+00  0.00000000000E+00 -0.10763790202E+03  0.10763790205E+03  0.25500000920E-02 0.  1.
    10030    2    1    2    0    0  0.00000000000E+00  0.00000000000E+00  0.30648867616E+03  0.52176448024E+03  0.42225923817E+03 0.  0.
        4    1    3    3  502    0 -0.19504158367E+03  0.69693955228E+02  0.10266359049E+03  0.23117069984E+03  0.12699999809E+01 0.  1.
       -4    1    3    3    0  502  0.19504158367E+03 -0.69693955228E+02  0.20382508567E+03  0.29059378039E+03  0.12699999809E+01 0. -1.
</event>
<event>
 5   0  0.1074281E-01  0.4988087E+03  0.7818609E-02  0.1014090E+00
       -1   -1    0    0    0  501  0.00000000000E+00  0.00000000000E+00  0.41046034060E+02  0.41046034369E+02  0.50400001928E-02 0.  1.
        1   -1    0    0  501    0  0.00000000000E+00  0.00000000000E+00 -0.15154333603E+04  0.15154333603E+04  0.50400001928E-02 0. -1.
    10030    2    1    2    0    0  0.00000000000E+00  0.00000000000E+00 -0.14743873263E+04  0.15564793947E+04  0.49880869909E+03 0.  0.
        4    1    3    3  502    0  0.22563498064E+03  0.10185765924E+03 -0.64281584622E+03  0.68883956934E+03  0.12699999809E+01 0.  1.
       -4    1    3    3    0  502 -0.22563498064E+03 -0.10185765924E+03 -0.83157148006E+03  0.86763982538E+03  0.12699999809E+01 0. -1.
</event>
<event>
 5   0  0.1683148E-01  0.4984884E+03  0.7818609E-02  0.1014174E+00
       -2   -1    0    0    0  501  0.00000000000E+00  0.00000000000E+00  0.10063537567E+03  0.10063537570E+03  0.25500000920E-02 0.  1.
        2   -1    0    0  501    0  0.00000000000E+00  0.00000000000E+00 -0.61730454229E+03  0.61730454229E+03  0.25500000920E-02 0. -1.
    10030    2    1    2    0    0  0.00000000000E+00  0.00000000000E+00 -0.51666916662E+03  0.71793991800E+03  0.49848841323E+03 0.  0.
        2    1    3    3  502    0  0.10182153776E+03 -0.20321688259E+03 -0.40561881844E+03  0.46496381881E+03  0.25500000920E-02 0. -1.
       -2    1    3    3    0  502 -0.10182153776E+03  0.20321688259E+03 -0.11105034817E+03  0.25297609918E+03  0.25500000920E-02 0.  1.
</event>
<event>
 5   0  0.1141970E-01  0.4983726E+03  0.7818609E-02  0.1014205E+00
       -1   -1    0    0    0  501  0.00000000000E+00  0.00000000000E+00  0.81685478414E+03  0.81685478415E+03  0.50400001928E-02 0. -1.
        1   -1    0    0  501    0  0.00000000000E+00  0.00000000000E+00 -0.76015715078E+02  0.76015715245E+02  0.50400001928E-02 0.  1.
    10030    2    1    2    0    0  0.00000000000E+00  0.00000000000E+00  0.74083906906E+03  0.89287049940E+03  0.49837255387E+03 0.  0.
        3    1    3    3  502    0  0.14985802762E+03 -0.99694237505E+01  0.72665410477E+03  0.74201281393E+03  0.10100000352E+00 0. -1.
       -3    1    3    3    0  502 -0.14985802762E+03  0.99694237505E+01  0.14184964289E+02  0.15085768547E+03  0.10100000352E+00 0.  1.
</event>
<event>
 5   0  0.1782124E-01  0.5352657E+03  0.7818609E-02  0.1004963E+00
       -2   -1    0    0    0  501  0.00000000000E+00  0.00000000000E+00  0.13687370526E+03  0.13687370528E+03  0.25500000920E-02 0.  1.
        2   -1    0    0  501    0  0.00000000000E+00  0.00000000000E+00 -0.52330972866E+03  0.52330972866E+03  0.25500000920E-02 0. -1.
    10030    2    1    2    0    0  0.00000000000E+00  0.00000000000E+00 -0.38643602340E+03  0.66018343395E+03  0.53526569690E+03 0.  0.
        3    1    3    3  502    0  0.15135334186E+03 -0.16591454254E+03 -0.13670344304E+02  0.22499412889E+03  0.10100000352E+00 0.  1.
       -3    1    3    3    0  502 -0.15135334186E+03  0.16591454254E+03 -0.37276567910E+03  0.43518930506E+03  0.10100000352E+00 0. -1.
</event>
<event>
 5   0  0.1068522E-01  0.5001711E+03  0.7818609E-02  0.1013734E+00
        1   -1    0    0  501    0  0.00000000000E+00  0.00000000000E+00  0.33059348940E+03  0.33059348944E+03  0.50400001928E-02 0. -1.
       -1   -1    0    0    0  501  0.00000000000E+00  0.00000000000E+00 -0.18918337271E+03  0.18918337278E+03  0.50400001928E-02 0.  1.
    10030    2    1    2    0    0  0.00000000000E+00  0.00000000000E+00  0.14141011669E+03  0.51977686222E+03  0.50017113611E+03 0.  0.
        2    1    3    3  502    0  0.11548389596E+03 -0.19905660661E+03 -0.31023504398E+02  0.23221223201E+03  0.25500000920E-02 0.  1.
       -2    1    3    3    0  502 -0.11548389596E+03  0.19905660661E+03  0.17243362109E+03  0.28756463021E+03  0.25500000920E-02 0. -1.
</event>
<event>
 5   0  0.1683148E-01  0.5027697E+03  0.7818609E-02  0.1013058E+00
        2   -1    0    0  501    0  0.00000000000E+00  0.00000000000E+00  0.79805130624E+03  0.79805130624E+03  0.25500000920E-02 0. -1.
       -2   -1    0    0    0  501  0.00000000000E+00  0.00000000000E+00 -0.79185821565E+02  0.79185821606E+02  0.25500000920E-02 0.  1.
    10030    2    1    2    0    0  0.00000000000E+00  0.00000000000E+00  0.71886548467E+03  0.87723712785E+03  0.50276972206E+03 0.  0.
        2    1    3    3  502    0  0.15073557534E+03  0.19704013992E+03  0.28859440145E+03  0.38056899370E+03  0.25500000920E-02 0.  1.
       -2    1    3    3    0  502 -0.15073557534E+03 -0.19704013992E+03  0.43027108322E+03  0.49666813415E+03  0.25500000920E-02 0. -1.
</event>
<event>
 5   0  0.1827698E-01  0.4985840E+03  0.7818609E-02  0.1014149E+00
       -2   -1    0    0    0  501  0.00000000000E+00  0.00000000000E+00  0.16033448238E+03  0.16033448240E+03  0.25500000920E-02 0. -1.
        2   -1    0    0  501    0  0.00000000000E+00  0.00000000000E+00 -0.38760531393E+03  0.38760531394E+03  0.25500000920E-02 0.  1.
    10030    2    1    2    0    0  0.00000000000E+00  0.00000000000E+00 -0.22727083155E+03  0.54793979634E+03  0.49858398444E+03 0.  0.
        1    1    3    3  502    0  0.11243829044E+02  0.11347836577E+03  0.12999088893E+03  0.17292019668E+03  0.50400001928E-02 0. -1.
       -1    1    3    3    0  502 -0.11243829044E+02 -0.11347836577E+03 -0.35726172048E+03  0.37501959967E+03  0.50400001928E-02 0.  1.
</event>
<event>
 5   0  0.1147245E-01  0.5084176E+03  0.7818609E-02  0.1011605E+00
       -1   -1    0    0    0  501  0.00000000000E+00  0.00000000000E+00  0.51249914164E+03  0.51249914166E+03  0.50400001928E-02 0.  1.
        1   -1    0    0  501    0  0.00000000000E+00  0.00000000000E+00 -0.12609213120E+03  0.12609213130E+03  0.50400001928E-02 0. -1.
    10030    2    1    2    0    0  0.00000000000E+00  0.00000000000E+00  0.38640701044E+03  0.63859127296E+03  0.50841758053E+03 0.  0.
        1    1    3    3  502    0  0.10310443013E+03 -0.13585366319E+03 -0.43569848931E+02  0.17602577389E+03  0.50400001928E-02 0. -1.
       -1    1    3    3    0  502 -0.10310443013E+03  0.13585366319E+03  0.42997685937E+03  0.46256549907E+03  0.50400001928E-02 0.  1.
</event>
<event>
 5   0  0.1068522E-01  0.5002968E+03  0.7818609E-02  0.1013701E+00
        1   -1    0    0  501    0  0.00000000000E+00  0.00000000000E+00  0.99635927452E+03  0.99635927454E+03  0.50400001928E-02 0. -1.
       -1   -1    0    0    0  501  0.00000000000E+00  0.00000000000E+00 -0.62802870878E+02  0.62802871080E+02  0.50400001928E-02 0.  1.
    10030    2    1    2    0    0  0.00000000000E+00  0.00000000000E+00  0.93355640365E+03  0.10591621456E+04  0.50029680383E+03 0.  0.
        2    1    3    3  502    0 -0.24778085189E+03  0.32324547775E+02  0.49128466679E+03  0.55118132297E+03  0.25500000920E-02 0. -1.
       -2    1    3    3    0  502  0.24778085189E+03 -0.32324547775E+02  0.44227173685E+03  0.50798082265E+03  0.25500000920E-02 0.  1.
</event>
<event>
 5   0  0.1683148E-01  0.5072331E+03  0.7818609E-02  0.1011908E+00
        2   -1    0    0  501    0  0.00000000000E+00  0.00000000000E+00  0.27255611326E+03  0.27255611327E+03  0.25500000920E-02 0. -1.
       -2   -1    0    0    0  501  0.00000000000E+00  0.00000000000E+00 -0.23599309255E+03  0.23599309257E+03  0.25500000920E-02 0.  1.
    10030    2    1    2    0    0  0.00000000000E+00  0.00000000000E+00  0.36563020711E+02  0.50854920584E+03  0.50723312222E+03 0.  0.
        2    1    3    3  502    0  0.15033083114E+03  0.13842306148E+03  0.16887461948E+03  0.26510175377E+03  0.25500000920E-02 0. -1.
       -2    1    3    3    0  502 -0.15033083114E+03 -0.13842306148E+03 -0.13231159877E+03  0.24344745207E+03  0.25500000920E-02 0.  1.
</event>
<event>
 5   0  0.1709372E-01  0.4543084E+03  0.7818609E-02  0.1026445E+00
        2   -1    0    0  501    0  0.00000000000E+00  0.00000000000E+00  0.55066084953E+03  0.55066084953E+03  0.25500000920E-02 0. -1.
       -2   -1    0    0    0  501  0.00000000000E+00  0.00000000000E+00 -0.93703821421E+02  0.93703821456E+02  0.25500000920E-02 0.  1.
    10030    2    1    2    0    0  0.00000000000E+00  0.00000000000E+00  0.45695702811E+03  0.64436467099E+03  0.45430837950E+03 0.  0.
        4    1    3    3  502    0  0.22211425717E+03  0.28739569316E+02  0.28223923302E+03  0.36030723506E+03  0.12699999809E+01 0. -1.
       -4    1    3    3    0  502 -0.22211425717E+03 -0.28739569316E+02  0.17471779509E+03  0.28405743593E+03  0.12699999809E+01 0.  1.
</event>
<event>
 5   0  0.1782124E-01  0.4399652E+03  0.7818609E-02  0.1030757E+00
        2   -1    0    0  501    0  0.00000000000E+00  0.00000000000E+00  0.28012878095E+03  0.28012878096E+03  0.25500000920E-02 0.  1.
       -2   -1    0    0    0  501  0.00000000000E+00  0.00000000000E+00 -0.17275033312E+03  0.17275033313E+03  0.25500000920E-02 0. -1.
    10030    2    1    2    0    0  0.00000000000E+00  0.00000000000E+00  0.10737844784E+03  0.45287911410E+03  0.43996518149E+03 0.  0.
        3    1    3    3  502    0  0.18644858143E+03 -0.33260491154E+01  0.17381155214E+03  0.25492077588E+03  0.10100000352E+00 0.  1.
       -3    1    3    3    0  502 -0.18644858143E+03  0.33260491154E+01 -0.66433104299E+02  0.19795833821E+03  0.10100000352E+00 0. -1.
</event>
<event>
 5   0  0.1760649E-01  0.5095212E+03  0.7818609E-02  0.1011323E+00
        2   -1    0    0  501    0  0.00000000000E+00  0.00000000000E+00  0.64454706649E+03  0.64454706650E+03  0.25500000920E-02 0.  1.
       -2   -1    0    0    0  501  0.00000000000E+00  0.00000000000E+00 -0.10069544537E+03  0.10069544540E+03  0.25500000920E-02 0. -1.
    10030    2    1    2    0    0  0.00000000000E+00  0.00000000000E+00  0.54385162112E+03  0.74524251190E+03  0.50952116320E+03 0.  0.
        5    1    3    3  502    0  0.92873856115E+01  0.21197473265E+03  0.65796637833E+02  0.22219547782E+03  0.46999998093E+01 0. -1.
       -5    1    3    3    0  502 -0.92873856115E+01 -0.21197473265E+03  0.47805498329E+03  0.52304703408E+03  0.46999998093E+01 0.  1.
</event>
<event>
 5   0  0.1074281E-01  0.5047558E+03  0.7818609E-02  0.1012545E+00
        1   -1    0    0  501    0  0.00000000000E+00  0.00000000000E+00  0.78293113783E+03  0.78293113785E+03  0.50400001928E-02 0.  1.
       -1   -1    0    0    0  501  0.00000000000E+00  0.00000000000E+00 -0.81354038014E+02  0.81354038170E+02  0.50400001928E-02 0. -1.
    10030    2    1    2    0    0  0.00000000000E+00  0.00000000000E+00  0.70157709982E+03  0.86428517602E+03  0.50475582066E+03 0.  0.
        4    1    3    3  502    0 -0.27049470044E+02 -0.14975916775E+03  0.69552155042E+03  0.71197705170E+03  0.12699999809E+01 0.  1.
       -4    1    3    3    0  502  0.27049470044E+02  0.14975916775E+03  0.60555493984E+01  0.15230812431E+03  0.12699999809E+01 0. -1.
</event>
<event>
 5   0  0.1141970E-01  0.5001034E+03  0.7818609E-02  0.1013752E+00
       -1   -1    0    0    0  501  0.00000000000E+00  0.00000000000E+00  0.15031968780E+03  0.15031968789E+03  0.50400001928E-02 0. -1.
        1   -1    0    0  501    0  0.00000000000E+00  0.00000000000E+00 -0.41595244368E+03  0.41595244371E+03  0.50400001928E-02 0.  1.
    10030    2    1    2    0    0  0.00000000000E+00  0.00000000000E+00 -0.26563275587E+03  0.56627213160E+03  0.50010335535E+03 0.  0.
        3    1    3    3  502    0 -0.52504702074E+02  0.69785671034E+02 -0.39812283863E+03  0.40758874919E+03  0.10100000352E+00 0.  1.
       -3    1    3    3    0  502  0.52504702074E+02 -0.69785671034E+02  0.13249008276E+03  0.15868338241E+03  0.10100000352E+00 0. -1.
</event>
<event>
 5   0  0.1074281E-01  0.5014842E+03  0.7818609E-02  0.1013392E+00
       -1   -1    0    0    0  501  0.00000000000E+00  0.00000000000E+00  0.43703561687E+03  0.43703561690E+03  0.50400001928E-02 0. -1.
        1   -1    0    0  501    0  0.00000000000E+00  0.00000000000E+00 -0.14385920634E+03  0.14385920643E+03  0.50400001928E-02 0.  1.
    10030    2    1    2    0    0  0.00000000000E+00  0.00000000000E+00  0.29317641053E+03  0.58089482333E+03  0.50148418527E+03 0.  0.
        4    1    3    3  502    0 -0.24512560275E+03  0.51578451028E+02  0.15943945232E+03  0.29693340936E+03  0.12699999809E+01 0.  1.
       -4    1    3    3    0  502  0.24512560275E+03 -0.51578451028E+02  0.13373695820E+03  0.28396141397E+03  0.12699999809E+01 0. -1.
</event>
<event>
 5   0  0.1709372E-01  0.4968349E+03  0.7818609E-02  0.1014608E+00
       -2   -1    0    0    0  501  0.00000000000E+00  0.00000000000E+00  0.53959957959E+02  0.53959958019E+02  0.25500000920E-02 0. -1.
        2   -1    0    0  501    0  0.00000000000E+00  0.00000000000E+00 -0.11436485980E+04  0.11436485980E+04  0.25500000920E-02 0.  1.
    10030    2    1    2    0    0  0.00000000000E+00  0.00000000000E+00 -0.10896886401E+04  0.11976085560E+04  0.49683490339E+03 0.  0.
        4    1    3    3  502    0 -0.11440021631E+02  0.67071771416E+02 -0.11207418737E+04  0.11228060639E+04  0.12699999809E+01 0.  1.
       -4    1    3    3    0  502  0.11440021631E+02 -0.67071771416E+02  0.31053233665E+02  0.74802492183E+02  0.12699999809E+01 0. -1.
</event>
<event>
 5   0  0.1709372E-01  0.5029520E+03  0.7818609E-02  0.1013011E+00
        2   -1    0    0  501    0  0.00000000000E+00  0.00000000000E+00  0.12410959031E+04  0.12410959031E+04  0.25500000920E-02 0.  1.
       -2   -1    0    0    0  501  0.00000000000E+00  0.00000000000E+00 -0.50955112998E+02  0.50955113062E+02  0.25500000920E-02 0. -1.
    10030    2    1    2    0    0  0.00000000000E+00  0.00000000000E+00  0.11901407901E+04  0.12920510162E+04  0.50295201373E+03 0.  0.
        4    1    3    3  502    0 -0.81734953113E+02 -0.23699193750E+03  0.64598381687E+03  0.69292314549E+03  0.12699999809E+01 0. -1.
       -4    1    3    3    0  502  0.81734953113E+02  0.23699193750E+03  0.54415697327E+03  0.59912787071E+03  0.12699999809E+01 0.  1.
</event>
<event>
 5   0  0.1123271E-01  0.4908231E+03  0.7818609E-02  0.1016202E+00
        1   -1    0    0  501    0  0.00000000000E+00  0.00000000000E+00  0.22875785102E+03  0.22875785108E+03  0.50400001928E-02 0.  1.
       -1   -1    0    0    0  501  0.00000000000E+00  0.00000000000E+00 -0.26327761696E+03  0.26327761701E+03  0.50400001928E-02 0. -1.
    10030    2    1    2    0    0  0.00000000000E+00  0.00000000000E+00 -0.34519765936E+02  0.49203546808E+03  0.49082307160E+03 0.  0.
        5    1    3    3  502    0 -0.63866359159E+02 -0.20365339443E+03  0.10408089627E+03  0.23750482071E+03  0.46999998093E+01 0.  1.
       -5    1    3    3    0  502  0.63866359159E+02  0.20365339443E+03 -0.13860066220E+03  0.25453064738E+03  0.46999998093E+01 0. -1.
</event>
<event>
 5   0  0.1683148E-01  0.5008963E+03  0.7818609E-02  0.1013545E+00
        2   -1    0    0  501    0  0.00000000000E+00  0.00000000000E+00  0.60866404354E+03  0.60866404355E+03  0.25500000920E-02 0.  1.
       -2   -1    0    0    0  501  0.00000000000E+00  0.00000000000E+00 -0.10305238933E+03  0.10305238937E+03  0.25500000920E-02 0. -1.
    10030    2    1    2    0    0  0.00000000000E+00  0.00000000000E+00  0.50561165421E+03  0.71171643291E+03  0.50089633259E+03 0.  0.
        2    1    3    3  502    0 -0.12648261248E+03 -0.92919228252E+02 -0.24512513720E+02  0.15884803296E+03  0.25500000920E-02 0. -1.
       -2    1    3    3    0  502  0.12648261248E+03  0.92919228252E+02  0.53012416793E+03  0.55286839996E+03  0.25500000920E-02 0.  1.
</event>
<event>
 5   0  0.1068522E-01  0.5017702E+03  0.7818609E-02  0.1013318E+00
       -1   -1    0    0    0  501  0.00000000000E+00  0.00000000000E+00  0.17516987962E+03  0.17516987969E+03  0.50400001928E-02 0.  1.
        1   -1    0    0  501    0  0.00000000000E+00  0.00000000000E+00 -0.35932744341E+03  0.35932744344E+03  0.50400001928E-02 0. -1.
    10030    2    1    2    0    0  0.00000000000E+00  0.00000000000E+00 -0.18415756379E+03  0.53449732313E+03  0.50177024637E+03 0.  0.
        2    1    3    3  502    0  0.48855270418E+02 -0.46560093476E+02 -0.34947662486E+03  0.35593340821E+03  0.25500000920E-02 0. -1.
       -2    1    3    3    0  502 -0.48855270418E+02  0.46560093476E+02  0.16531906107E+03  0.17856391492E+03  0.25500000920E-02 0.  1.
</event>
<event>
 5   0  0.1141970E-01  0.4931175E+03  0.7818609E-02  0.1015591E+00
       -1   -1    0    0    0  501  0.00000000000E+00  0.00000000000E+00  0.43213130481E+02  0.43213130775E+02  0.50400001928E-02 0.  1.
        1   -1    0    0  501    0  0.00000000000E+00  0.00000000000E+00 -0.14067766402E+04  0.14067766402E+04  0.50400001928E-02 0. -1.
    10030    2    1    2    0    0  0.00000000000E+00  0.00000000000E+00 -0.13635635097E+04  0.14499897710E+04  0.49311752243E+03 0.  0.
        3    1    3    3  502    0  0.23198671813E+02  0.19359633651E+03 -0.11255225161E+04  0.11422865946E+04  0.10100000352E+00 0. -1.
       -3    1    3    3    0  502 -0.23198671813E+02 -0.19359633651E+03 -0.23804099367E+03  0.30770317637E+03  0.10100000352E+00 0.  1.
</event>
<event>
 5   0  0.1760649E-01  0.4897428E+03  0.7818609E-02  0.1016491E+00
       -2   -1    0    0    0  501  0.00000000000E+00  0.00000000000E+00  0.14637076862E+03  0.14637076864E+03  0.25500000920E-02 0.  1.
        2   -1    0    0  501    0  0.00000000000E+00  0.00000000000E+00 -0.40965833254E+03  0.40965833254E+03  0.25500000920E-02 0. -1.
    10030    2    1    2    0    0  0.00000000000E+00  0.00000000000E+00 -0.26328756392E+03  0.55602910119E+03  0.48974281011E+03 0.  0.
        5    1    3    3  502    0  0.16252309755E+03  0.16634416266E+03 -0.21852416562E+03  0.31915362860E+03  0.46999998093E+01 0.  1.
       -5    1    3    3    0  502 -0.16252309755E+03 -0.16634416266E+03 -0.44763398298E+02  0.23687547259E+03  0.46999998093E+01 0. -1.
</event>
<event>
 5   0  0.1827698E-01  0.4980249E+03  0.7818609E-02  0.1014296E+00
       -2   -1    0    0    0  501  0.00000000000E+00  0.00000000000E+00  0.60682940413E+02  0.60682940467E+02  0.25500000920E-02 0. -1.
        2   -1    0    0  501    0  0.00000000000E+00  0.00000000000E+00 -0.10218226387E+04  0.10218226387E+04  0.25500000920E-02 0.  1.
    10030    2    1    2    0    0  0.00000000000E+00  0.00000000000E+00 -0.96113969826E+03  0.10825055791E+04  0.49802490832E+03 0.  0.
        1    1    3    3  502    0  0.66413102469E+02 -0.23861935637E+03 -0.53629644432E+03  0.59073155801E+03  0.50400001928E-02 0.  1.
       -1    1    3    3    0  502 -0.66413102469E+02  0.23861935637E+03 -0.42484325394E+03  0.49177402113E+03  0.50400001928E-02 0. -1.
</event>
<event>
 5   0  0.1074281E-01  0.4921316E+03  0.7818609E-02  0.1015853E+00
       -1   -1    0    0    0  501  0.00000000000E+00  0.00000000000E+00  0.73506698913E+02  0.73506699086E+02  0.50400001928E-02 0. -1.
        1   -1    0    0  501    0  0.00000000000E+00  0.00000000000E+00 -0.82371239631E+03  0.82371239632E+03  0.50400001928E-02 0.  1.
    10030    2    1    2    0    0  0.00000000000E+00  0.00000000000E+00 -0.75020569740E+03  0.89721909541E+03  0.49213160513E+03 0.  0.
        4    1    3    3  502    0 -0.83364388692E+02  0.77292329803E+02  0.22753059927E+02  0.11594412527E+03  0.12699999809E+01 0. -1.
       -4    1    3    3    0  502  0.83364388692E+02 -0.77292329803E+02 -0.77295875732E+03  0.78127497014E+03  0.12699999809E+01 0.  1.
</event>
<event>
 5   0  0.1068522E-01  0.5024880E+03  0.7818609E-02  0.1013132E+00
        1   -1    0    0  501    0  0.00000000000E+00  0.00000000000E+00  0.22407736837E+03  0.22407736842E+03  0.50400001928E-02 0. -1.
       -1   -1    0    0    0  501  0.00000000000E+00  0.00000000000E+00 -0.28170427438E+03  0.28170427442E+03  0.50400001928E-02 0.  1.
    10030    2    1    2    0    0  0.00000000000E+00  0.00000000000E+00 -0.57626906008E+02  0.50578164284E+03  0.50248801970E+03 0.  0.
        2    1    3    3  502    0  0.15549910368E+03 -0.70306482724E+02 -0.21441453853E+03  0.27403752863E+03  0.25500000920E-02 0.  1.
       -2    1    3    3    0  502 -0.15549910368E+03  0.70306482724E+02  0.15678763252E+03  0.23174411422E+03  0.25500000920E-02 0. -1.
</event>
<event>
 5   0  0.1141970E-01  0.5003176E+03  0.7818609E-02  0.1013696E+00
       -1   -1    0    0    0  501  0.00000000000E+00  0.00000000000E+00  0.37543513219E+02  0.37543513557E+02  0.50400001928E-02 0. -1.
        1   -1    0    0  501    0  0.00000000000E+00  0.00000000000E+00 -0.16668506611E+04  0.16668506611E+04  0.50400001928E-02 0.  1.
    10030    2    1    2    0    0  0.00000000000E+00  0.00000000000E+00 -0.16293071479E+04  0.17043941747E+04  0.50031761961E+03 0.  0.
        3    1    3    3  502    0  0.10098762323E+03 -0.22799187432E+03 -0.74646786936E+03  0.78701530162E+03  0.10100000352E+00 0. -1.
       -3    1    3    3    0  502 -0.10098762323E+03  0.22799187432E+03 -0.88283927853E+03  0.91737887305E+03  0.10100000352E+00 0.  1.
</event>
<event>
 5   0  0.1709372E-01  0.4968703E+03  0.7818609E-02  0.1014599E+00
       -2   -1    0    0    0  501  0.00000000000E+00  0.00000000000E+00  0.89916651111E+02  0.89916651147E+02  0.25500000920E-02 0.  1.
        2   -1    0    0  501    0  0.00000000000E+00  0.00000000000E+00 -0.68641381041E+03  0.68641381041E+03  0.25500000920E-02 0. -1.
    10030    2    1    2    0    0  0.00000000000E+00  0.00000000000E+00 -0.59649715930E+03  0.77633046156E+03  0.49687032966E+03 0.  0.
        4    1    3    3  502    0 -0.80529696307E+02 -0.17372132352E+02 -0.66444548440E+03  0.66953434386E+03  0.12699999809E+01 0. -1.
       -4    1    3    3    0  502  0.80529696307E+02  0.17372132352E+02  0.67948325107E+02  0.10679611769E+03  0.12699999809E+01 0.  1.
</event>
<event>
 5   0  0.1123271E-01  0.5025441E+03  0.7818609E-02  0.1013117E+00
       -1   -1    0    0    0  501  0.00000000000E+00  0.00000000000E+00  0.21387257680E+04  0.21387257680E+04  0.50400001928E-02 0. -1.
        1   -1    0    0  501    0  0.00000000000E+00  0.00000000000E+00 -0.29521149541E+02  0.29521149972E+02  0.50400001928E-02 0.  1.
    10030    2    1    2    0    0  0.00000000000E+00  0.00000000000E+00  0.21092046185E+04  0.21682469180E+04  0.50254410234E+03 0.  0.
        5    1    3    3  502    0  0.22131395765E+03 -0.70948821399E+02  0.14662273568E+04  0.14845397788E+04  0.46999998093E+01 0. -1.
       -5    1    3    3    0  502 -0.22131395765E+03  0.70948821399E+02  0.64297726167E+03  0.68370713916E+03  0.46999998093E+01 0.  1.
</event>
<event>
 5   0  0.1782124E-01  0.5114750E+03  0.7818609E-02  0.1010826E+00
        2   -1    0    0  501    0  0.00000000000E+00  0.00000000000E+00  0.42308493057E+03  0.42308493058E+03  0.25500000920E-02 0.  1.
       -2   -1    0    0    0  501  0.00000000000E+00  0.00000000000E+00 -0.15458286445E+03  0.15458286447E+03  0.25500000920E-02 0. -1.
    10030    2    1    2    0    0  0.00000000000E+00  0.00000000000E+00  0.26850206612E+03  0.57766779505E+03  0.51147504527E+03 0.  0.
        3    1    3    3  502    0 -0.12621915008E+03 -0.19057930725E+03  0.47374466849E+01  0.22863551737E+03  0.10100000352E+00 0. -1.
       -3    1    3    3    0  502  0.12621915008E+03  0.19057930725E+03  0.26376461944E+03  0.34903227769E+03  0.10100000352E+00 0.  1.
</event>
<event>
 5   0  0.1782124E-01  0.4952072E+03  0.7818609E-02  0.1015038E+00
        2   -1    0    0  501    0  0.00000000000E+00  0.00000000000E+00  0.18811793946E+03  0.18811793948E+03  0.25500000920E-02 0. -1.
       -2   -1    0    0    0  501  0.00000000000E+00  0.00000000000E+00 -0.32589950932E+03  0.32589950933E+03  0.25500000920E-02 0.  1.
    10030    2    1    2    0    0  0.00000000000E+00  0.00000000000E+00 -0.13778156986E+03  0.51401744881E+03  0.49520720581E+03 0.  0.
        3    1    3    3  502    0 -0.24331796420E+03 -0.78866471041E+01 -0.11579233506E+03  0.26958061126E+03  0.10100000352E+00 0. -1.
       -3    1    3    3    0  502  0.24331796420E+03  0.78866471041E+01 -0.21989234793E+02  0.24443683755E+03  0.10100000352E+00 0.  1.
</event>
<event>
 5   0  0.1123271E-01  0.4594938E+03  0.7818609E-02  0.1024928E+00
       -1   -1    0    0    0  501  0.00000000000E+00  0.00000000000E+00  0.22392255587E+03  0.22392255593E+03  0.50400001928E-02 0.  1.
        1   -1    0    0  501    0  0.00000000000E+00  0.00000000000E+00 -0.23572277661E+03  0.23572277666E+03  0.50400001928E-02 0. -1.
    10030    2    1    2    0    0  0.00000000000E+00  0.00000000000E+00 -0.11800220739E+02  0.45964533259E+03  0.45949383735E+03 0.  0.
        5    1    3    3  502    0 -0.17721038172E+03 -0.10928571478E+03  0.91161101561E+02  0.22733086741E+03  0.46999998093E+01 0.  1.
       -5    1    3    3    0  502  0.17721038172E+03  0.10928571478E+03 -0.10296132230E+03  0.23231446518E+03  0.46999998093E+01 0. -1.
</event>
<event>
 5   0  0.7220250E-02  0.4963783E+03  0.7818609E-02  0.1014729E+00
       -3   -1    0    0    0  501  0.00000000000E+00  0.00000000000E+00  0.31383287678E+03  0.31383289304E+03  0.10100000352E+00 0.  1.
        3   -1    0    0  501    0  0.00000000000E+00  0.00000000000E+00 -0.19627597337E+03  0.19627599936E+03  0.10100000352E+00 0. -1.
    10030    2    1    2    0    0  0.00000000000E+00  0.00000000000E+00  0.11755690341E+03  0.51010889239E+03  0.49637834014E+03 0.  0.
        1    1    3    3  502    0 -0.16351378441E+02 -0.24379279974E+03  0.14036010132E+02  0.24474334799E+03  0.50400001928E-02 0. -1.
       -1    1    3    3    0  502  0.16351378441E+02  0.24379279974E+03  0.10352089328E+03  0.26536554440E+03  0.50400001928E-02 0.  1.
</event>
<event>
 5   0  0.7220250E-02  0.4970924E+03  0.7818609E-02  0.1014541E+00
        3   -1    0    0  501    0  0.00000000000E+00  0.00000000000E+00  0.10460790557E+03  0.10460795433E+03  0.10100000352E+00 0.  1.
       -3   -1    0    0    0  501  0.00000000000E+00  0.00000000000E+00 -0.59054045204E+03  0.59054046067E+03  0.10100000352E+00 0. -1.
    10030    2    1    2    0    0  0.00000000000E+00  0.00000000000E+00 -0.48593254647E+03  0.69514841500E+03  0.49709242517E+03 0.  0.
        4    1    3    3  502    0  0.98556525939E+02  0.12983652626E+03 -0.50534483380E+03  0.53098580612E+03  0.12699999809E+01 0. -1.
       -4    1    3    3    0  502 -0.98556525939E+02 -0.12983652626E+03  0.19412287330E+02  0.16416260888E+03  0.12699999809E+01 0.  1.
</event>
<event>
 5   0  0.1123271E-01  0.4950424E+03  0.7818609E-02  0.1015081E+00
        1   -1    0    0  501    0  0.00000000000E+00  0.00000000000E+00  0.81567641994E+02  0.81567642150E+02  0.50400001928E-02 0. -1.
       -1   -1    0    0    0  501  0.00000000000E+00  0.00000000000E+00 -0.75111570563E+03  0.75111570564E+03  0.50400001928E-02 0.  1.
    10030    2    1    2    0    0  0.00000000000E+00  0.00000000000E+00 -0.66954806363E+03  0.83268334779E+03  0.49504237008E+03 0.  0.
        5    1    3    3  502    0 -0.53122402985E+01  0.17010855010E+03 -0.32569506103E+02  0.17334359360E+03  0.46999998093E+01 0. -1.
       -5    1    3    3    0  502  0.53122402985E+01 -0.17010855010E+03 -0.63697855753E+03  0.65933975420E+03  0.46999998093E+01 0.  1.
</event>
<event>
 5   0  0.1782124E-01  0.5002063E+03  0.7818609E-02  0.1013725E+00
        2   -1    0    0  501    0  0.00000000000E+00  0.00000000000E+00  0.12319905885E+04  0.12319905885E+04  0.25500000920E-02 0.  1.
       -2   -1    0    0    0  501  0.00000000000E+00  0.00000000000E+00 -0.50772778965E+02  0.50772779030E+02  0.25500000920E-02 0. -1.
    10030    2    1    2    0    0  0.00000000000E+00  0.00000000000E+00  0.11812178095E+04  0.12827633675E+04  0.50020630096E+03 0.  0.
        3    1    3    3  502    0  0.16572942100E+03 -0.41444635876E+02  0.10590558124E+04  0.10727456003E+04  0.10100000352E+00 0.  1.
       -3    1    3    3    0  502 -0.16572942100E+03  0.41444635876E+02  0.12216199708E+03  0.21001776725E+03  0.10100000352E+00 0. -1.
</event>
<event>
 5   0  0.1123271E-01  0.4450465E+03  0.7818609E-02  0.1029210E+00
        1   -1    0    0  501    0  0.00000000000E+00  0.00000000000E+00  0.35182233004E+03  0.35182233007E+03  0.50400001928E-02 0. -1.
       -1   -1    0    0    0  501  0.00000000000E+00  0.00000000000E+00 -0.14074319393E+03  0.14074319402E+03  0.50400001928E-02 0.  1.
    10030    2    1    2    0    0  0.00000000000E+00  0.00000000000E+00  0.21107913610E+03  0.49256552410E+03  0.44504650749E+03 0.  0.
        5    1    3    3  502    0  0.86098737517E+02  0.97321736814E+01  0.33232492284E+03  0.34346710490E+03  0.46999998093E+01 0. -1.
       -5    1    3    3    0  502 -0.86098737517E+02 -0.97321736814E+01 -0.12124578674E+03  0.14909841920E+03  0.46999998093E+01 0.  1.
</event>
<event>
 5   0  0.1683148E-01  0.5139980E+03  0.7818609E-02  0.1010188E+00
       -2   -1    0    0    0  501  0.00000000000E+00  0.00000000000E+00  0.60596092295E+02  0.60596092348E+02  0.25500000920E-02 0. -1.
        2   -1    0    0  501    0  0.00000000000E+00  0.00000000000E+00 -0.10899793467E+04  0.10899793467E+04  0.25500000920E-02 0.  1.
    10030    2    1    2    0    0  0.00000000000E+00  0.00000000000E+00 -0.10293832544E+04  0.11505754391E+04  0.51399801216E+03 0.  0.
        2    1    3    3  502    0  0.21198375119E+03  0.12801607416E+03 -0.66853356048E+03  0.71292520470E+03  0.25500000920E-02 0. -1.
       -2    1    3    3    0  502 -0.21198375119E+03 -0.12801607416E+03 -0.36084969395E+03  0.43765023437E+03  0.25500000920E-02 0.  1.
</event>
<event>
 5   0  0.1827698E-01  0.4993189E+03  0.7818609E-02  0.1013957E+00
       -2   -1    0    0    0  501  0.00000000000E+00  0.00000000000E+00  0.46343420694E+02  0.46343420764E+02  0.25500000920E-02 0.  1.
        2   -1    0    0  501    0  0.00000000000E+00  0.00000000000E+00 -0.13449555513E+04  0.13449555513E+04  0.25500000920E-02 0. -1.
    10030    2    1    2    0    0  0.00000000000E+00  0.00000000000E+00 -0.12986121306E+04  0.13912989721E+04  0.49931890002E+03 0.  0.
        1    1    3    3  502    0 -0.12136885391E+03 -0.13118602455E+02 -0.42490288458E+02  0.12925912373E+03  0.50400001928E-02 0.  1.
       -1    1    3    3    0  502  0.12136885391E+03  0.13118602455E+02 -0.12561218422E+04  0.12620398484E+04  0.50400001928E-02 0. -1.
</event>
<event>
 5   0  0.1147245E-01  0.4837826E+03  0.7818609E-02  0.1018101E+00
       -1   -1    0    0    0  501  0.00000000000E+00  0.00000000000E+00  0.11769285867E+03  0.11769285878E+03  0.50400001928E-02 0. -1.
        1   -1    0    0  501    0  0.00000000000E+00  0.00000000000E+00 -0.49715333463E+03  0.49715333466E+03  0.50400001928E-02 0.  1.
    10030    2    1    2    0    0  0.00000000000E+00  0.00000000000E+00 -0.37946047596E+03  0.61484619344E+03  0.48378258419E+03 0.  0.
        1    1    3    3  502    0 -0.97038093784E+02 -0.19675416523E+03 -0.60229099588E+02  0.22749975306E+03  0.50400001928E-02 0. -1.
       -1    1    3    3    0  502  0.97038093784E+02  0.19675416523E+03 -0.31923137638E+03  0.38734644037E+03  0.50400001928E-02 0.  1.
</event>
<event>
 5   0  0.1709372E-01  0.5095650E+03  0.7818609E-02  0.1011312E+00
       -2   -1    0    0    0  501  0.00000000000E+00  0.00000000000E+00  0.68369381438E+02  0.68369381486E+02  0.25500000920E-02 0.  1.
        2   -1    0    0  501    0  0.00000000000E+00  0.00000000000E+00 -0.94946171901E+03  0.94946171901E+03  0.25500000920E-02 0. -1.
    10030    2    1    2    0    0  0.00000000000E+00  0.00000000000E+00 -0.88109233757E+03  0.10178311005E+04  0.50956495348E+03 0.  0.
        4    1    3    3  502    0 -0.15078137933E+03 -0.19395857314E+03 -0.57539328217E+03  0.62564686086E+03  0.12699999809E+01 0. -1.
       -4    1    3    3    0  502  0.15078137933E+03  0.19395857314E+03 -0.30569905540E+03  0.39218423964E+03  0.12699999809E+01 0.  1.
</event>
<event>
 5   0  0.1709372E-01  0.4929134E+03  0.7818609E-02  0.1015645E+00
        2   -1    0    0  501    0  0.00000000000E+00  0.00000000000E+00  0.10406905080E+04  0.10406905080E+04  0.25500000920E-02 0. -1.
       -2   -1    0    0    0  501  0.00000000000E+00  0.00000000000E+00 -0.58365959767E+02  0.58365959823E+02  0.25500000920E-02 0.  1.
    10030    2    1    2    0    0  0.00000000000E+00  0.00000000000E+00  0.98232454825E+03  0.10990564678E+04  0.49291338125E+03 0.  0.
        4    1    3    3  502    0  0.35176192851E+02  0.23553804492E+03  0.63259991941E+03  0.67594364121E+03  0.12699999809E+01 0. -1.
       -4    1    3    3    0  502 -0.35176192851E+02 -0.23553804492E+03  0.34972462884E+03  0.42311282664E+03  0.12699999809E+01 0.  1.
</event>
<event>
 5   0  0.1782124E-01  0.5207484E+03  0.7818609E-02  0.1008501E+00
        2   -1    0    0  501    0  0.00000000000E+00  0.00000000000E+00  0.16957584812E+04  0.16957584812E+04  0.25500000920E-02 0.  1.
       -2   -1    0    0    0  501  0.00000000000E+00  0.00000000000E+00 -0.39978999823E+02  0.39978999904E+02  0.25500000920E-02 0. -1.
    10030    2    1    2    0    0  0.00000000000E+00  0.00000000000E+00  0.16557794814E+04  0.17357374811E+04  0.52074841562E+03 0.  0.
        3    1    3    3  502    0  0.20845127241E+03  0.99893677255E+02  0.42841036769E+03  0.48679167317E+03  0.10100000352E+00 0. -1.
       -3    1    3    3    0  502 -0.20845127241E+03 -0.99893677255E+02  0.12273691137E+04  0.12489458080E+04  0.10100000352E+00 0.  1.
</event>
<event>
 5   0  0.7220250E-02  0.5518913E+03  0.7818609E-02  0.1001057E+00
        3   -1    0    0  501    0  0.00000000000E+00  0.00000000000E+00  0.12735462960E+04  0.12735463000E+04  0.10100000352E+00 0.  1.
       -3   -1    0    0    0  501  0.00000000000E+00  0.00000000000E+00 -0.59790467549E+02  0.59790552855E+02  0.10100000352E+00 0. -1.
    10030    2    1    2    0    0  0.00000000000E+00  0.00000000000E+00  0.12137558284E+04  0.13333368528E+04  0.55189125024E+03 0.  0.
        3    1    3    3  502    0  0.13019618526E+03  0.33345250910E+02  0.24625914117E+02  0.13663600646E+03  0.10100000352E+00 0. -1.
       -3    1    3    3    0  502 -0.13019618526E+03 -0.33345250910E+02  0.11891299143E+04  0.11967008464E+04  0.10100000352E+00 0.  1.
</event>
<event>
 5   0  0.1074281E-01  0.5037483E+03  0.7818609E-02  0.1012805E+00
       -1   -1    0    0    0  501  0.00000000000E+00  0.00000000000E+00  0.71039513781E+02  0.71039513960E+02  0.50400001928E-02 0.  1.
        1   -1    0    0  501    0  0.00000000000E+00  0.00000000000E+00 -0.89303234930E+03  0.89303234931E+03  0.50400001928E-02 0. -1.
    10030    2    1    2    0    0  0.00000000000E+00  0.00000000000E+00 -0.82199283551E+03  0.96407186327E+03  0.50374828626E+03 0.  0.
        4    1    3    3  502    0 -0.15388328595E+03 -0.13823162606E+03 -0.13597560613E+03  0.24754600885E+03  0.12699999809E+01 0.  1.
       -4    1    3    3    0  502  0.15388328595E+03  0.13823162606E+03 -0.68601722939E+03  0.71652585442E+03  0.12699999809E+01 0. -1.
</event>
<event>
 5   0  0.7220250E-02  0.4902243E+03  0.7818609E-02  0.1016362E+00
       -4   -1    0    0    0  501  0.00000000000E+00  0.00000000000E+00  0.46637947020E+03  0.46638119937E+03  0.12699999809E+01 0.  1.
        4   -1    0    0  501    0  0.00000000000E+00  0.00000000000E+00 -0.12881694395E+03  0.12882320423E+03  0.12699999809E+01 0. -1.
    10030    2    1    2    0    0  0.00000000000E+00  0.00000000000E+00  0.33756252625E+03  0.59520440360E+03  0.49022425780E+03 0.  0.
        5    1    3    3  502    0 -0.39560464882E+02 -0.20202612847E+03  0.73486313373E+01  0.20604775987E+03  0.46999998093E+01 0.  1.
       -5    1    3    3    0  502  0.39560464882E+02  0.20202612847E+03  0.33021389491E+03  0.38915664373E+03  0.46999998093E+01 0. -1.
</event>
<event>
 5   0  0.1782124E-01  0.5010068E+03  0.7818609E-02  0.1013516E+00
        2   -1    0    0  501    0  0.00000000000E+00  0.00000000000E+00  0.97473710321E+03  0.97473710321E+03  0.25500000920E-02 0.  1.
       -2   -1    0    0    0  501  0.00000000000E+00  0.00000000000E+00 -0.64378328510E+02  0.64378328560E+02  0.25500000920E-02 0. -1.
    10030    2    1    2    0    0  0.00000000000E+00  0.00000000000E+00  0.91035877470E+03  0.10391154318E+04  0.50100676829E+03 0.  0.
        3    1    3    3  502    0  0.19947386350E+03  0.97101803277E+02  0.69646026511E+03  0.73094151168E+03  0.10100000352E+00 0.  1.
       -3    1    3    3    0  502 -0.19947386350E+03 -0.97101803277E+02  0.21389850959E+03  0.30817392009E+03  0.10100000352E+00 0. -1.
</event>
<event>
 5   0  0.1709372E-01  0.4965069E+03  0.7818609E-02  0.1014695E+00
       -2   -1    0    0    0  501  0.00000000000E+00  0.00000000000E+00  0.33146224259E+02  0.33146224357E+02  0.25500000920E-02 0.  1.
        2   -1    0    0  501    0  0.00000000000E+00  0.00000000000E+00 -0.18593304688E+04  0.18593304688E+04  0.25500000920E-02 0. -1.
    10030    2    1    2    0    0  0.00000000000E+00  0.00000000000E+00 -0.18261842445E+04  0.18924766931E+04  0.49650693765E+03 0.  0.
        4    1    3    3  502    0 -0.24311450037E+03 -0.20808923612E+02 -0.73881903109E+03  0.77806994878E+03  0.12699999809E+01 0. -1.
       -4    1    3    3    0  502  0.24311450037E+03  0.20808923612E+02 -0.10873652134E+04  0.11144067444E+04  0.12699999809E+01 0.  1.
</event>
<event>
 5   0  0.1709372E-01  0.4969810E+03  0.7818609E-02  0.1014570E+00
        2   -1    0    0  501    0  0.00000000000E+00  0.00000000000E+00  0.11104742054E+03  0.11104742057E+03  0.25500000920E-02 0. -1.
       -2   -1    0    0    0  501  0.00000000000E+00  0.00000000000E+00 -0.55604642792E+03  0.55604642792E+03  0.25500000920E-02 0.  1.
    10030    2    1    2    0    0  0.00000000000E+00  0.00000000000E+00 -0.44499900737E+03  0.66709384850E+03  0.49698097161E+03 0.  0.
        4    1    3    3  502    0  0.74464303660E+02  0.23314472487E+03 -0.16485099454E+03  0.29509127157E+03  0.12699999809E+01 0. -1.
       -4    1    3    3    0  502 -0.74464303660E+02 -0.23314472487E+03 -0.28014801283E+03  0.37200257693E+03  0.12699999809E+01 0.  1.
</event>
<event>
 5   0  0.1141970E-01  0.5008907E+03  0.7818609E-02  0.1013547E+00
       -1   -1    0    0    0  501  0.00000000000E+00  0.00000000000E+00  0.79975795581E+03  0.79975795583E+03  0.50400001928E-02 0. -1.
        1   -1    0    0  501    0  0.00000000000E+00  0.00000000000E+00 -0.78427322689E+02  0.78427322851E+02  0.50400001928E-02 0.  1.
    10030    2    1    2    0    0  0.00000000000E+00  0.00000000000E+00  0.72133063312E+03  0.87818527868E+03  0.50089070805E+03 0.  0.
        3    1    3    3  502    0  0.46465522320E+02  0.24461096525E+03  0.40801260512E+03  0.47798312232E+03  0.10100000352E+00 0.  1.
       -3    1    3    3    0  502 -0.46465522320E+02 -0.24461096525E+03  0.31331802800E+03  0.40020215636E+03  0.10100000352E+00 0. -1.
</event>
<event>
 5   0  0.1147245E-01  0.4940062E+03  0.7818609E-02  0.1015355E+00
        1   -1    0    0  501    0  0.00000000000E+00  0.00000000000E+00  0.19772961203E+03  0.19772961210E+03  0.50400001928E-02 0.  1.
       -1   -1    0    0    0  501  0.00000000000E+00  0.00000000000E+00 -0.30855532980E+03  0.30855532984E+03  0.50400001928E-02 0. -1.
    10030    2    1    2    0    0  0.00000000000E+00  0.00000000000E+00 -0.11082571777E+03  0.50628494194E+03  0.49400617680E+03 0.  0.
        1    1    3    3  502    0  0.23250809133E+03 -0.66184432234E+02 -0.34562833081E+01  0.24176918232E+03  0.50400001928E-02 0.  1.
       -1    1    3    3    0  502 -0.23250809133E+03  0.66184432234E+02 -0.10736943446E+03  0.26451575961E+03  0.50400001928E-02 0. -1.
</event>
<event>
 5   0  0.1068522E-01  0.4935309E+03  0.7818609E-02  0.1015481E+00
       -1   -1    0    0    0  501  0.00000000000E+00  0.00000000000E+00  0.43792947152E+02  0.43792947442E+02  0.50400001928E-02 0.  1.
        1   -1    0    0  501    0  0.00000000000E+00  0.00000000000E+00 -0.13904794608E+04  0.13904794609E+04  0.50400001928E-02 0. -1.
    10030    2    1    2    0    0  0.00000000000E+00  0.00000000000E+00 -0.13466865137E+04  0.14342724083E+04  0.49353092612E+03 0.  0.
        2    1    3    3  502    0  0.31458062237E+01  0.23937763012E+03 -0.49941957770E+03  0.55383342305E+03  0.25500000920E-02 0.  1.
       -2    1    3    3    0  502 -0.31458062237E+01 -0.23937763012E+03 -0.84726693599E+03  0.88043898524E+03  0.25500000920E-02 0. -1.
</event>
<event>
 5   0  0.1827698E-01  0.4994565E+03  0.7818609E-02  0.1013921E+00
       -2   -1    0    0    0  501  0.00000000000E+00  0.00000000000E+00  0.16731941924E+03  0.16731941926E+03  0.25500000920E-02 0. -1.
        2   -1    0    0  501    0  0.00000000000E+00  0.00000000000E+00 -0.37272543391E+03  0.37272543392E+03  0.25500000920E-02 0.  1.
    10030    2    1    2    0    0  0.00000000000E+00  0.00000000000E+00 -0.20540601467E+03  0.54004485318E+03  0.49945651721E+03 0.  0.
        1    1    3    3  502    0  0.83553551955E+02 -0.22882104688E+03 -0.43243895911E+02  0.24740715854E+03  0.50400001928E-02 0. -1.
       -1    1    3    3    0  502 -0.83553551955E+02  0.22882104688E+03 -0.16216211876E+03  0.29263769464E+03  0.50400001928E-02 0.  1.
</event>
<event>
 5   0  0.1709372E-01  0.5065998E+03  0.7818609E-02  0.1012070E+00
        2   -1    0    0  501    0  0.00000000000E+00  0.00000000000E+00  0.31463261097E+03  0.31463261098E+03  0.25500000920E-02 0. -1.
       -2   -1    0    0    0  501  0.00000000000E+00  0.00000000000E+00 -0.20392305755E+03  0.20392305756E+03  0.25500000920E-02 0.  1.
    10030    2    1    2    0    0  0.00000000000E+00  0.00000000000E+00  0.11070955342E+03  0.51855566854E+03  0.50659981855E+03 0.  0.
        4    1    3    3  502    0  0.14587833607E+03  0.13463780317E+03 -0.10568393109E+03  0.22489671667E+03  0.12699999809E+01 0.  1.
       -4    1    3    3    0  502 -0.14587833607E+03 -0.13463780317E+03  0.21639348451E+03  0.29365895188E+03  0.12699999809E+01 0. -1.
</event>
<event>
 5   0  0.1123271E-01  0.5025845E+03  0.7818609E-02  0.1013107E+00
       -1   -1    0    0    0  501  0.00000000000E+00  0.00000000000E+00  0.21201042099E+03  0.21201042105E+03  0.50400001928E-02 0.  1.
        1   -1    0    0  501    0  0.00000000000E+00  0.00000000000E+00 -0.29785231854E+03  0.29785231859E+03  0.50400001928E-02 0. -1.
    10030    2    1    2    0    0  0.00000000000E+00  0.00000000000E+00 -0.85841897552E+02  0.50986273964E+03  0.50258450224E+03 0.  0.
        5    1    3    3  502    0 -0.19990336716E+03 -0.88910774200E+02  0.82396169596E+02  0.23383263402E+03  0.46999998093E+01 0.  1.
       -5    1    3    3    0  502  0.19990336716E+03  0.88910774200E+02 -0.16823806715E+03  0.27603010562E+03  0.46999998093E+01 0. -1.
</event>
<event>
 5   0  0.1709372E-01  0.5040523E+03  0.7818609E-02  0.1012727E+00
        2   -1    0    0  501    0  0.00000000000E+00  0.00000000000E+00  0.15256158458E+04  0.15256158458E+04  0.25500000920E-02 0. -1.
       -2   -1    0    0    0  501  0.00000000000E+00  0.00000000000E+00 -0.41633803025E+02  0.41633803103E+02  0.25500000920E-02 0.  1.
    10030    2    1    2    0    0  0.00000000000E+00  0.00000000000E+00  0.14839820428E+04  0.15672496489E+04  0.50405233728E+03 0.  0.
        4    1    3    3  502    0 -0.19045502123E+03 -0.99955029397E+01  0.12542480008E+04  0.12686657107E+04  0.12699999809E+01 0. -1.
       -4    1    3    3    0  502  0.19045502123E+03  0.99955029397E+01  0.22973404197E+03  0.29858393817E+03  0.12699999809E+01 0.  1.
</event>
<event>
 5   0  0.1147245E-01  0.4919349E+03  0.7818609E-02  0.1015906E+00
        1   -1    0    0  501    0  0.00000000000E+00  0.00000000000E+00  0.84129167783E+03  0.84129167784E+03  0.50400001928E-02 0. -1.
       -1   -1    0    0    0  501  0.00000000000E+00  0.00000000000E+00 -0.71913218065E+02  0.71913218241E+02  0.50400001928E-02 0.  1.
    10030    2    1    2    0    0  0.00000000000E+00  0.00000000000E+00  0.76937845976E+03  0.91320489609E+03  0.49193492241E+03 0.  0.
        1    1    3    3  502    0  0.70981020727E+02 -0.77460694697E+02  0.79754117865E+03  0.80443172252E+03  0.50400001928E-02 0. -1.
       -1    1    3    3    0  502 -0.70981020727E+02  0.77460694697E+02 -0.28162718890E+02  0.10877317356E+03  0.50400001928E-02 0.  1.
</event>
<event>
 5   0  0.1123271E-01  0.4980447E+03  0.7818609E-02  0.1014291E+00
        1   -1    0    0  501    0  0.00000000000E+00  0.00000000000E+00  0.22340169303E+03  0.22340169309E+03  0.50400001928E-02 0.  1.
       -1   -1    0    0    0  501  0.00000000000E+00  0.00000000000E+00 -0.27758134674E+03  0.27758134679E+03  0.50400001928E-02 0. -1.
    10030    2    1    2    0    0  0.00000000000E+00  0.00000000000E+00 -0.54179653710E+02  0.50098303988E+03  0.49804474836E+03 0.  0.
        5    1    3    3  502    0 -0.16362438369E+03  0.12840112563E+03  0.11057614904E+03  0.23560340137E+03  0.46999998093E+01 0.  1.
       -5    1    3    3    0  502  0.16362438369E+03 -0.12840112563E+03 -0.16475580275E+03  0.26537963851E+03  0.46999998093E+01 0. -1.
</event>
<event>
 5   0  0.1123271E-01  0.4959554E+03  0.7818609E-02  0.1014840E+00
       -1   -1    0    0    0  501  0.00000000000E+00  0.00000000000E+00  0.30796853111E+03  0.30796853115E+03  0.50400001928E-02 0. -1.
        1   -1    0    0  501    0  0.00000000000E+00  0.00000000000E+00 -0.19967276780E+03  0.19967276787E+03  0.50400001928E-02 0.  1.
    10030    2    1    2    0    0  0.00000000000E+00  0.00000000000E+00  0.10829576330E+03  0.50764129902E+03  0.49595535698E+03 0.  0.
        5    1    3    3  502    0  0.16174591957E+02  0.75262637238E+02  0.29538042568E+03  0.30528309463E+03  0.46999998093E+01 0. -1.
       -5    1    3    3    0  502 -0.16174591957E+02 -0.75262637238E+02 -0.18708466238E+03  0.20235820439E+03  0.46999998093E+01 0.  1.
</event>
<event>
 5   0  0.1760649E-01  0.4958409E+03  0.7818609E-02  0.1014870E+00
       -2   -1    0    0    0  501  0.00000000000E+00  0.00000000000E+00  0.71271967179E+02  0.71271967225E+02  0.25500000920E-02 0.  1.
        2   -1    0    0  501    0  0.00000000000E+00  0.00000000000E+00 -0.86239434179E+03  0.86239434180E+03  0.25500000920E-02 0. -1.
    10030    2    1    2    0    0  0.00000000000E+00  0.00000000000E+00 -0.79112237462E+03  0.93366630902E+03  0.49584086660E+03 0.  0.
        5    1    3    3  502    0 -0.78109884180E+01 -0.13034386008E+03  0.11745509959E+01  0.13066752837E+03  0.46999998093E+01 0.  1.
       -5    1    3    3    0  502  0.78109884180E+01  0.13034386008E+03 -0.79229692561E+03  0.80299878066E+03  0.46999998093E+01 0. -1.
</event>
<event>
 5   0  0.1760649E-01  0.5000560E+03  0.7818609E-02  0.1013764E+00
       -2   -1    0    0    0  501  0.00000000000E+00  0.00000000000E+00  0.22829785043E+03  0.22829785045E+03  0.25500000920E-02 0.  1.
        2   -1    0    0  501    0  0.00000000000E+00  0.00000000000E+00 -0.27382649089E+03  0.27382649090E+03  0.25500000920E-02 0. -1.
    10030    2    1    2    0    0  0.00000000000E+00  0.00000000000E+00 -0.45528640457E+02  0.50212434135E+03  0.50005599394E+03 0.  0.
        5    1    3    3  502    0 -0.91581834768E+01 -0.46763057762E+02  0.22365090205E+03  0.22871919876E+03  0.46999998093E+01 0.  1.
       -5    1    3    3    0  502  0.91581834768E+01  0.46763057762E+02 -0.26917954250E+03  0.27340514259E+03  0.46999998093E+01 0. -1.
</event>
<event>
 5   0  0.1683148E-01  0.4986082E+03  0.7818609E-02  0.1014143E+00
        2   -1    0    0  501    0  0.00000000000E+00  0.00000000000E+00  0.69609790529E+03  0.69609790529E+03  0.25500000920E-02 0. -1.
       -2   -1    0    0    0  501  0.00000000000E+00  0.00000000000E+00 -0.89287075398E+02  0.89287075435E+02  0.25500000920E-02 0.  1.
    10030    2    1    2    0    0  0.00000000000E+00  0.00000000000E+00  0.60681082989E+03  0.78538498073E+03  0.49860824771E+03 0.  0.
        2    1    3    3  502    0 -0.23627104262E+02 -0.89222128215E+02 -0.61383880411E+02  0.11084587949E+03  0.25500000920E-02 0.  1.
       -2    1    3    3    0  502  0.23627104262E+02  0.89222128215E+02  0.66819471030E+03  0.67453910124E+03  0.25500000920E-02 0. -1.
</event>
<event>
 5   0  0.1147245E-01  0.4739913E+03  0.7818609E-02  0.1020800E+00
        1   -1    0    0  501    0  0.00000000000E+00  0.00000000000E+00  0.67919282301E+03  0.67919282302E+03  0.50400001928E-02 0.  1.
       -1   -1    0    0    0  501  0.00000000000E+00  0.00000000000E+00 -0.82696593329E+02  0.82696593483E+02  0.50400001928E-02 0. -1.
    10030    2    1    2    0    0  0.00000000000E+00  0.00000000000E+00  0.59649622968E+03  0.76188941651E+03  0.47399127731E+03 0.  0.
        1    1    3    3  502    0 -0.77958548635E+02 -0.16282434139E+03  0.51433042792E+02  0.18770897520E+03  0.50400001928E-02 0. -1.
       -1    1    3    3    0  502  0.77958548635E+02  0.16282434139E+03  0.54506318688E+03  0.57418044130E+03  0.50400001928E-02 0.  1.
</event>
<event>
 5   0  0.1760649E-01  0.4968288E+03  0.7818609E-02  0.1014610E+00
        2   -1    0    0  501    0  0.00000000000E+00  0.00000000000E+00  0.14865938693E+04  0.14865938693E+04  0.25500000920E-02 0. -1.
       -2   -1    0    0    0  501  0.00000000000E+00  0.00000000000E+00 -0.41510814108E+02  0.41510814187E+02  0.25500000920E-02 0.  1.
    10030    2    1    2    0    0  0.00000000000E+00  0.00000000000E+00  0.14450830552E+04  0.15281046835E+04  0.49682883099E+03 0.  0.
        5    1    3    3  502    0 -0.16412739037E+03 -0.17354871309E+03  0.51324187752E+03  0.56612390068E+03  0.46999998093E+01 0.  1.
       -5    1    3    3    0  502  0.16412739037E+03  0.17354871309E+03  0.93184117771E+03  0.96198078284E+03  0.46999998093E+01 0. -1.
</event>
<event>
 5   0  0.1141970E-01  0.5013649E+03  0.7818609E-02  0.1013423E+00
       -1   -1    0    0    0  501  0.00000000000E+00  0.00000000000E+00  0.56734951032E+02  0.56734951256E+02  0.50400001928E-02 0. -1.
        1   -1    0    0  501    0  0.00000000000E+00  0.00000000000E+00 -0.11076363624E+04  0.11076363624E+04  0.50400001928E-02 0.  1.
    10030    2    1    2    0    0  0.00000000000E+00  0.00000000000E+00 -0.10509014113E+04  0.11643713136E+04  0.50136491667E+03 0.  0.
        3    1    3    3  502    0 -0.14819521779E+03  0.20213754959E+03 -0.53590749950E+03  0.59162341886E+03  0.10100000352E+00 0. -1.
       -3    1    3    3    0  502  0.14819521779E+03 -0.20213754959E+03 -0.51499391183E+03  0.57274789476E+03  0.10100000352E+00 0.  1.
</event>
<event>
 5   0  0.1782124E-01  0.4796353E+03  0.7818609E-02  0.1019235E+00
       -2   -1    0    0    0  501  0.00000000000E+00  0.00000000000E+00  0.28787211743E+03  0.28787211744E+03  0.25500000920E-02 0.  1.
        2   -1    0    0  501    0  0.00000000000E+00  0.00000000000E+00 -0.19978494670E+03  0.19978494671E+03  0.25500000920E-02 0. -1.
    10030    2    1    2    0    0  0.00000000000E+00  0.00000000000E+00  0.88087170735E+02  0.48765706416E+03  0.47963534333E+03 0.  0.
        3    1    3    3  502    0  0.41874000994E+02 -0.21187788286E+03 -0.61943976807E+02  0.22468363463E+03  0.10100000352E+00 0.  1.
       -3    1    3    3    0  502 -0.41874000994E+02  0.21187788286E+03  0.15003114754E+03  0.26297342953E+03  0.10100000352E+00 0. -1.
</event>
<event>
 5   0  0.1760649E-01  0.4981197E+03  0.7818609E-02  0.1014271E+00
       -2   -1    0    0    0  501  0.00000000000E+00  0.00000000000E+00  0.24358858377E+02  0.24358858511E+02  0.25500000920E-02 0.  1.
        2   -1    0    0  501    0  0.00000000000E+00  0.00000000000E+00 -0.25465404007E+04  0.25465404007E+04  0.25500000920E-02 0. -1.
    10030    2    1    2    0    0  0.00000000000E+00  0.00000000000E+00 -0.25221815423E+04  0.25708992592E+04  0.49811973318E+03 0.  0.
        5    1    3    3  502    0 -0.16729597657E+03  0.35277993976E+02 -0.32669487793E+03  0.36876023905E+03  0.46999998093E+01 0.  1.
       -5    1    3    3    0  502  0.16729597657E+03 -0.35277993976E+02 -0.21954866644E+04  0.22021390202E+04  0.46999998093E+01 0. -1.
</event>
<event>
 5   0  0.1074281E-01  0.4974558E+03  0.7818609E-02  0.1014445E+00
        1   -1    0    0  501    0  0.00000000000E+00  0.00000000000E+00  0.15879451648E+03  0.15879451656E+03  0.50400001928E-02 0.  1.
       -1   -1    0    0    0  501  0.00000000000E+00  0.00000000000E+00 -0.38959510084E+03  0.38959510087E+03  0.50400001928E-02 0. -1.
    10030    2    1    2    0    0  0.00000000000E+00  0.00000000000E+00 -0.23080058436E+03  0.54838961744E+03  0.49745578977E+03 0.  0.
        4    1    3    3  502    0 -0.69094692023E+01 -0.17982004712E+03 -0.30468065703E+03  0.35385718274E+03  0.12699999809E+01 0. -1.
       -4    1    3    3    0  502  0.69094692023E+01  0.17982004712E+03  0.73880072673E+02  0.19453243470E+03  0.12699999809E+01 0.  1.
</event>
<event>
 5   0  0.1782124E-01  0.4857240E+03  0.7818609E-02  0.1017574E+00
       -2   -1    0    0    0  501  0.00000000000E+00  0.00000000000E+00  0.14930874400E+03  0.14930874403E+03  0.25500000920E-02 0.  1.
        2   -1    0    0  501    0  0.00000000000E+00  0.00000000000E+00 -0.39503340898E+03  0.39503340899E+03  0.25500000920E-02 0. -1.
    10030    2    1    2    0    0  0.00000000000E+00  0.00000000000E+00 -0.24572466498E+03  0.54434215302E+03  0.48572396335E+03 0.  0.
        3    1    3    3  502    0  0.10240720232E+03  0.19127667837E+03 -0.56962561161E+00  0.21696621269E+03  0.10100000352E+00 0.  1.
       -3    1    3    3    0  502 -0.10240720232E+03 -0.19127667837E+03 -0.24515503937E+03  0.32737594033E+03  0.10100000352E+00 0. -1.
</event>
<event>
 5   0  0.1683148E-01  0.5023704E+03  0.7818609E-02  0.1013162E+00
       -2   -1    0    0    0  501  0.00000000000E+00  0.00000000000E+00  0.72226881596E+02  0.72226881641E+02  0.25500000920E-02 0.  1.
        2   -1    0    0  501    0  0.00000000000E+00  0.00000000000E+00 -0.87355293392E+03  0.87355293392E+03  0.25500000920E-02 0. -1.
    10030    2    1    2    0    0  0.00000000000E+00  0.00000000000E+00 -0.80132605232E+03  0.94577981556E+03  0.50237039861E+03 0.  0.
        2    1    3    3  502    0 -0.13436603540E+02  0.23715584077E+03 -0.55442446963E+03  0.60316658367E+03  0.25500000920E-02 0. -1.
       -2    1    3    3    0  502  0.13436603540E+02 -0.23715584077E+03 -0.24690158270E+03  0.34261323190E+03  0.25500000920E-02 0.  1.
</event>
<event>
 5   0  0.1709372E-01  0.4949686E+03  0.7818609E-02  0.1015101E+00
        2   -1    0    0  501    0  0.00000000000E+00  0.00000000000E+00  0.17023911994E+03  0.17023911995E+03  0.25500000920E-02 0.  1.
       -2   -1    0    0    0  501  0.00000000000E+00  0.00000000000E+00 -0.35977912513E+03  0.35977912514E+03  0.25500000920E-02 0. -1.
    10030    2    1    2    0    0  0.00000000000E+00  0.00000000000E+00 -0.18954000520E+03  0.53001824510E+03  0.49496861170E+03 0.  0.
        4    1    3    3  502    0 -0.30523472816E+02 -0.10313347318E+03  0.14390017387E+03  0.17965819943E+03  0.12699999809E+01 0.  1.
       -4    1    3    3    0  502  0.30523472816E+02  0.10313347318E+03 -0.33344017907E+03  0.35036004566E+03  0.12699999809E+01 0. -1.
</event>
<event>
 5   0  0.1782124E-01  0.5317240E+03  0.7818609E-02  0.1005815E+00
       -2   -1    0    0    0  501  0.00000000000E+00  0.00000000000E+00  0.48196531363E+02  0.48196531430E+02  0.25500000920E-02 0. -1.
        2   -1    0    0  501    0  0.00000000000E+00  0.00000000000E+00 -0.14665497964E+04  0.14665497964E+04  0.25500000920E-02 0.  1.
    10030    2    1    2    0    0  0.00000000000E+00  0.00000000000E+00 -0.14183532651E+04  0.15147463278E+04  0.53172403862E+03 0.  0.
        3    1    3    3  502    0 -0.19076555019E+02  0.26046407604E+03 -0.85096155536E+03  0.89013539912E+03  0.10100000352E+00 0.  1.
       -3    1    3    3    0  502  0.19076555019E+02 -0.26046407604E+03 -0.56739170969E+03  0.62461092873E+03  0.10100000352E+00 0. -1.
</event>
<event>
 5   0  0.1827698E-01  0.4975852E+03  0.7818609E-02  0.1014411E+00
        2   -1    0    0  501    0  0.00000000000E+00  0.00000000000E+00  0.28137624503E+03  0.28137624504E+03  0.25500000920E-02 0. -1.
       -2   -1    0    0    0  501  0.00000000000E+00  0.00000000000E+00 -0.21998213629E+03  0.21998213630E+03  0.25500000920E-02 0.  1.
    10030    2    1    2    0    0  0.00000000000E+00  0.00000000000E+00  0.61394108742E+02  0.50135838135E+03  0.49758515850E+03 0.  0.
        1    1    3    3  502    0 -0.17796123524E+03 -0.62406026938E+02 -0.13280804860E+03  0.23065708584E+03  0.50400001928E-02 0.  1.
       -1    1    3    3    0  502  0.17796123524E+03  0.62406026938E+02  0.19420215735E+03  0.27070129551E+03  0.50400001928E-02 0. -1.
</event>
<event>
 5   0  0.1709372E-01  0.4888335E+03  0.7818609E-02  0.1016735E+00
        2   -1    0    0  501    0  0.00000000000E+00  0.00000000000E+00  0.14393475611E+03  0.14393475613E+03  0.25500000920E-02 0. -1.
       -2   -1    0    0    0  501  0.00000000000E+00  0.00000000000E+00 -0.41504596938E+03  0.41504596938E+03  0.25500000920E-02 0.  1.
    10030    2    1    2    0    0  0.00000000000E+00  0.00000000000E+00 -0.27111121326E+03  0.55898072552E+03  0.48883347015E+03 0.  0.
        4    1    3    3  502    0  0.10958746854E+03 -0.15977696388E+03  0.34821320948E+02  0.19685585778E+03  0.12699999809E+01 0. -1.
       -4    1    3    3    0  502 -0.10958746854E+03  0.15977696388E+03 -0.30593253421E+03  0.36212486774E+03  0.12699999809E+01 0.  1.
</event>
<event>
 5   0  0.1074281E-01  0.5025519E+03  0.7818609E-02  0.1013115E+00
        1   -1    0    0  501    0  0.00000000000E+00  0.00000000000E+00  0.80279722626E+02  0.80279722784E+02  0.50400001928E-02 0.  1.
       -1   -1    0    0    0  501  0.00000000000E+00  0.00000000000E+00 -0.78649502481E+03  0.78649502482E+03  0.50400001928E-02 0. -1.
    10030    2    1    2    0    0  0.00000000000E+00  0.00000000000E+00 -0.70621530218E+03  0.86677474761E+03  0.50255189787E+03 0.  0.
        4    1    3    3  502    0 -0.21912887705E+03  0.48835451608E+02 -0.15846615281E+03  0.27480083802E+03  0.12699999809E+01 0.  1.
       -4    1    3    3    0  502  0.21912887705E+03 -0.48835451608E+02 -0.54774914937E+03  0.59197390959E+03  0.12699999809E+01 0. -1.
</event>
<event>
 5   0  0.7220250E-02  0.5011341E+03  0.7818609E-02  0.1013483E+00
        4   -1    0    0  501    0  0.00000000000E+00  0.00000000000E+00  0.51785956536E+02  0.51801526949E+02  0.12699999809E+01 0. -1.
       -4   -1    0    0    0  501  0.00000000000E+00  0.00000000000E+00 -0.12121737594E+04  0.12121744247E+04  0.12699999809E+01 0.  1.
    10030    2    1    2    0    0  0.00000000000E+00  0.00000000000E+00 -0.11603878029E+04  0.12639759517E+04  0.50113406719E+03 0.  0.
        5    1    3    3  502    0  0.27521064228E+02  0.10135872742E+03 -0.11538601009E+04  0.11586398159E+04  0.46999998093E+01 0.  1.
       -5    1    3    3    0  502 -0.27521064228E+02 -0.10135872742E+03 -0.65277019819E+01  0.10533613573E+03  0.46999998093E+01 0. -1.
</event>
<event>
 5   0  0.1827698E-01  0.4811360E+03  0.7818609E-02  0.1018823E+00
        2   -1    0    0  501    0  0.00000000000E+00  0.00000000000E+00  0.94541170673E+03  0.94541170673E+03  0.25500000920E-02 0. -1.
       -2   -1    0    0    0  501  0.00000000000E+00  0.00000000000E+00 -0.61214568943E+02  0.61214568996E+02  0.25500000920E-02 0.  1.
    10030    2    1    2    0    0  0.00000000000E+00  0.00000000000E+00  0.88419713779E+03  0.10066262757E+04  0.48113603120E+03 0.  0.
        1    1    3    3  502    0 -0.85773049183E+02 -0.22167537550E+03  0.36449052042E+03  0.43514403084E+03  0.50400001928E-02 0.  1.
       -1    1    3    3    0  502  0.85773049183E+02  0.22167537550E+03  0.51970661737E+03  0.57148224489E+03  0.50400001928E-02 0. -1.
</event>
<event>
 5   0  0.1141970E-01  0.4707245E+03  0.7818609E-02  0.1021716E+00
       -1   -1    0    0    0  501  0.00000000000E+00  0.00000000000E+00  0.16365105716E+03  0.16365105724E+03  0.50400001928E-02 0. -1.
        1   -1    0    0  501    0  0.00000000000E+00  0.00000000000E+00 -0.33849697755E+03  0.33849697758E+03  0.50400001928E-02 0.  1.
    10030    2    1    2    0    0  0.00000000000E+00  0.00000000000E+00 -0.17484592039E+03  0.50214803482E+03  0.47072449798E+03 0.  0.
        3    1    3    3  502    0  0.93409284465E+02 -0.57448343067E+02  0.13473328856E+03  0.17372010763E+03  0.10100000352E+00 0. -1.
       -3    1    3    3    0  502 -0.93409284465E+02  0.57448343067E+02 -0.30957920895E+03  0.32842792719E+03  0.10100000352E+00 0.  1.
</event>
<event>
 5   0  0.1760649E-01  0.4508335E+03  0.7818609E-02  0.1027474E+00
        2   -1    0    0  501    0  0.00000000000E+00  0.00000000000E+00  0.11046115401E+03  0.11046115404E+03  0.25500000920E-02 0.  1.
       -2   -1    0    0    0  501  0.00000000000E+00  0.00000000000E+00 -0.46000517072E+03  0.46000517072E+03  0.25500000920E-02 0. -1.
    10030    2    1    2    0    0  0.00000000000E+00  0.00000000000E+00 -0.34954401671E+03  0.57046632476E+03  0.45083345935E+03 0.  0.
        5    1    3    3  502    0  0.49656599527E+01  0.10932499709E+03  0.74519834894E+02  0.13248361619E+03  0.46999998093E+01 0.  1.
       -5    1    3    3    0  502 -0.49656599527E+01 -0.10932499709E+03 -0.42406385161E+03  0.43798270857E+03  0.46999998093E+01 0. -1.
</event>
<event>
 5   0  0.1141970E-01  0.5018307E+03  0.7818609E-02  0.1013302E+00
        1   -1    0    0  501    0  0.00000000000E+00  0.00000000000E+00  0.16377211502E+03  0.16377211510E+03  0.50400001928E-02 0.  1.
       -1   -1    0    0    0  501  0.00000000000E+00  0.00000000000E+00 -0.38442749420E+03  0.38442749424E+03  0.50400001928E-02 0. -1.
    10030    2    1    2    0    0  0.00000000000E+00  0.00000000000E+00 -0.22065537918E+03  0.54819960934E+03  0.50183066398E+03 0.  0.
        3    1    3    3  502    0 -0.76845133029E+02  0.23700194135E+03 -0.77859358417E+02  0.26103100308E+03  0.10100000352E+00 0. -1.
       -3    1    3    3    0  502  0.76845133029E+02 -0.23700194135E+03 -0.14279602077E+03  0.28716860626E+03  0.10100000352E+00 0.  1.
</event>
<event>
 5   0  0.1683148E-01  0.4915873E+03  0.7818609E-02  0.1015998E+00
       -2   -1    0    0    0  501  0.00000000000E+00  0.00000000000E+00  0.19010947504E+03  0.19010947505E+03  0.25500000920E-02 0. -1.
        2   -1    0    0  501    0  0.00000000000E+00  0.00000000000E+00 -0.31778808112E+03  0.31778808113E+03  0.25500000920E-02 0.  1.
    10030    2    1    2    0    0  0.00000000000E+00  0.00000000000E+00 -0.12767860608E+03  0.50789755618E+03  0.49158732807E+03 0.  0.
        2    1    3    3  502    0  0.19745065488E+02 -0.19144699537E+03 -0.22179305213E+03  0.29365622354E+03  0.25500000920E-02 0.  1.
       -2    1    3    3    0  502 -0.19745065488E+02  0.19144699537E+03  0.94114446047E+02  0.21424133264E+03  0.25500000920E-02 0. -1.
</event>
<event>
 5   0  0.1068522E-01  0.4982211E+03  0.7818609E-02  0.1014244E+00
       -1   -1    0    0    0  501  0.00000000000E+00  0.00000000000E+00  0.13641782252E+03  0.13641782261E+03  0.50400001928E-02 0. -1.
        1   -1    0    0  501    0  0.00000000000E+00  0.00000000000E+00 -0.45489697353E+03  0.45489697356E+03  0.50400001928E-02 0.  1.
    10030    2    1    2    0    0  0.00000000000E+00  0.00000000000E+00 -0.31847915101E+03  0.59131479617E+03  0.49822105390E+03 0.  0.
        2    1    3    3  502    0 -0.26906651482E+02  0.83965976982E+02  0.11727867230E+03  0.14672607188E+03  0.25500000920E-02 0. -1.
       -2    1    3    3    0  502  0.26906651482E+02 -0.83965976982E+02 -0.43575782331E+03  0.44458872430E+03  0.25500000920E-02 0.  1.
</event>
<event>
 5   0  0.1123271E-01  0.5026175E+03  0.7818609E-02  0.1013098E+00
       -1   -1    0    0    0  501  0.00000000000E+00  0.00000000000E+00  0.11858459461E+04  0.11858459461E+04  0.50400001928E-02 0. -1.
        1   -1    0    0  501    0  0.00000000000E+00  0.00000000000E+00 -0.53258249004E+02  0.53258249242E+02  0.50400001928E-02 0.  1.
    10030    2    1    2    0    0  0.00000000000E+00  0.00000000000E+00  0.11325876971E+04  0.12391041954E+04  0.50261746421E+03 0.  0.
        5    1    3    3  502    0 -0.13882457781E+03 -0.13889662497E+03  0.17986637413E+03  0.26634289623E+03  0.46999998093E+01 0.  1.
       -5    1    3    3    0  502  0.13882457781E+03  0.13889662497E+03  0.95272132299E+03  0.97276129914E+03  0.46999998093E+01 0. -1.
</event>
<event>
 5   0  0.1147245E-01  0.4937794E+03  0.7818609E-02  0.1015415E+00
        1   -1    0    0  501    0  0.00000000000E+00  0.00000000000E+00  0.29278710841E+03  0.29278710845E+03  0.50400001928E-02 0.  1.
       -1   -1    0    0    0  501  0.00000000000E+00  0.00000000000E+00 -0.20818719434E+03  0.20818719440E+03  0.50400001928E-02 0. -1.
    10030    2    1    2    0    0  0.00000000000E+00  0.00000000000E+00  0.84599914064E+02  0.50097430285E+03  0.49377941093E+03 0.  0.
        1    1    3    3  502    0  0.49632243554E+02 -0.62208126033E+02 -0.19481751295E+03  0.21044494273E+03  0.50400001928E-02 0. -1.
       -1    1    3    3    0  502 -0.49632243554E+02  0.62208126033E+02  0.27941742702E+03  0.29052936012E+03  0.50400001928E-02 0.  1.
</event>
<event>
 5   0  0.1068522E-01  0.5134251E+03  0.7818609E-02  0.1010333E+00
       -1   -1    0    0    0  501  0.00000000000E+00  0.00000000000E+00  0.49737312404E+03  0.49737312406E+03  0.50400001928E-02 0. -1.
        1   -1    0    0  501    0  0.00000000000E+00  0.00000000000E+00 -0.13249880773E+03  0.13249880783E+03  0.50400001928E-02 0.  1.
    10030    2    1    2    0    0  0.00000000000E+00  0.00000000000E+00  0.36487431630E+03  0.62987193189E+03  0.51342514925E+03 0.  0.
        2    1    3    3  502    0 -0.19868184933E+03 -0.15980281517E+03  0.21903477381E+03  0.33613635497E+03  0.25500000920E-02 0.  1.
       -2    1    3    3    0  502  0.19868184933E+03  0.15980281517E+03  0.14583954249E+03  0.29373557692E+03  0.25500000920E-02 0. -1.
</event>
<event>
 5   0  0.1782124E-01  0.4968536E+03  0.7818609E-02  0.1014603E+00
       -2   -1    0    0    0  501  0.00000000000E+00  0.00000000000E+00  0.15062059536E+03  0.15062059538E+03  0.25500000920E-02 0. -1.
        2   -1    0    0  501    0  0.00000000000E+00  0.00000000000E+00 -0.40974400359E+03  0.40974400360E+03  0.25500000920E-02 0.  1.
    10030    2    1    2    0    0  0.00000000000E+00  0.00000000000E+00 -0.25912340823E+03  0.56036459898E+03  0.49685364354E+03 0.  0.
        3    1    3    3  502    0 -0.10024203306E+03  0.77246241327E+02 -0.37066455655E+03  0.39167291287E+03  0.10100000352E+00 0.  1.
       -3    1    3    3    0  502  0.10024203306E+03 -0.77246241327E+02  0.11154114833E+03  0.16869168611E+03  0.10100000352E+00 0. -1.
</event>
<event>
 5   0  0.1827698E-01  0.4772289E+03  0.7818609E-02  0.1019900E+00
       -2   -1    0    0    0  501  0.00000000000E+00  0.00000000000E+00  0.13126516056E+03  0.13126516058E+03  0.25500000920E-02 0.  1.
        2   -1    0    0  501    0  0.00000000000E+00  0.00000000000E+00 -0.43375454896E+03  0.43375454896E+03  0.25500000920E-02 0. -1.
    10030    2    1    2    0    0  0.00000000000E+00  0.00000000000E+00 -0.30248938840E+03  0.56501970955E+03  0.47722892000E+03 0.  0.
        1    1    3    3  502    0  0.20412623980E+03  0.82170681151E+02 -0.26051150606E+03  0.34100701962E+03  0.50400001928E-02 0.  1.
       -1    1    3    3    0  502 -0.20412623980E+03 -0.82170681151E+02 -0.41977882339E+02  0.22401268993E+03  0.50400001928E-02 0. -1.
</event>
<event>
 5   0  0.7220250E-02  0.4829213E+03  0.7818609E-02  0.1018335E+00
        4   -1    0    0  501    0  0.00000000000E+00  0.00000000000E+00  0.24365949049E+03  0.24366280021E+03  0.12699999809E+01 0. -1.
       -4   -1    0    0    0  501  0.00000000000E+00  0.00000000000E+00 -0.23927504838E+03  0.23927841875E+03  0.12699999809E+01 0.  1.
    10030    2    1    2    0    0  0.00000000000E+00  0.00000000000E+00  0.43844421051E+01  0.48294121896E+03  0.48292131619E+03 0.  0.
        1    1    3    3  502    0 -0.42549884182E+01  0.23816429422E+03 -0.37343107999E+02  0.24111168306E+03  0.50400001928E-02 0.  1.
       -1    1    3    3    0  502  0.42549884182E+01 -0.23816429422E+03  0.41727550104E+02  0.24182953589E+03  0.50400001928E-02 0. -1.
</event>
<event>
 5   0  0.1068522E-01  0.5364835E+03  0.7818609E-02  0.1004672E+00
        1   -1    0    0  501    0  0.00000000000E+00  0.00000000000E+00  0.93437354779E+03  0.93437354780E+03  0.50400001928E-02 0.  1.
       -1   -1    0    0    0  501  0.00000000000E+00  0.00000000000E+00 -0.77007357949E+02  0.77007358114E+02  0.50400001928E-02 0. -1.
    10030    2    1    2    0    0  0.00000000000E+00  0.00000000000E+00  0.85736618984E+03  0.10113809059E+04  0.53648350708E+03 0.  0.
        2    1    3    3  502    0  0.43708765574E+02  0.12085501609E+03  0.87255658052E+03  0.88197016804E+03  0.25500000920E-02 0.  1.
       -2    1    3    3    0  502 -0.43708765574E+02 -0.12085501609E+03 -0.15190390679E+02  0.12941073788E+03  0.25500000920E-02 0. -1.
</event>
<event>
 5   0  0.1141970E-01  0.4982893E+03  0.7818609E-02  0.1014226E+00
        1   -1    0    0  501    0  0.00000000000E+00  0.00000000000E+00  0.33284877350E+03  0.33284877353E+03  0.50400001928E-02 0.  1.
       -1   -1    0    0    0  501  0.00000000000E+00  0.00000000000E+00 -0.18649029653E+03  0.18649029660E+03  0.50400001928E-02 0. -1.
    10030    2    1    2    0    0  0.00000000000E+00  0.00000000000E+00  0.14635847696E+03  0.51933907013E+03  0.49828933963E+03 0.  0.
        3    1    3    3  502    0 -0.92006870728E+02  0.14390496416E+03  0.26222274341E+03  0.31294517145E+03  0.10100000352E+00 0.  1.
       -3    1    3    3    0  502  0.92006870728E+02 -0.14390496416E+03 -0.11586426645E+03  0.20639389868E+03  0.10100000352E+00 0. -1.
</event>
<event>
 5   0  0.1074281E-01  0.5069780E+03  0.7818609E-02  0.1011973E+00
        1   -1    0    0  501    0  0.00000000000E+00  0.00000000000E+00  0.42546655379E+03  0.42546655382E+03  0.50400001928E-02 0.  1.
       -1   -1    0    0    0  501  0.00000000000E+00  0.00000000000E+00 -0.15102640250E+03  0.15102640258E+03  0.50400001928E-02 0. -1.
    10030    2    1    2    0    0  0.00000000000E+00  0.00000000000E+00  0.27444015129E+03  0.57649295640E+03  0.50697803911E+03 0.  0.
        4    1    3    3  502    0 -0.87836123617E+02  0.67959614134E+02  0.39632636593E+03  0.41159433305E+03  0.12699999809E+01 0.  1.
       -4    1    3    3    0  502  0.87836123617E+02 -0.67959614134E+02 -0.12188621464E+03  0.16489862336E+03  0.12699999809E+01 0. -1.
</event>
<event>
 5   0  0.1683148E-01  0.4966034E+03  0.7818609E-02  0.1014669E+00
       -2   -1    0    0    0  501  0.00000000000E+00  0.00000000000E+00  0.59999877986E+02  0.59999878040E+02  0.25500000920E-02 0. -1.
        2   -1    0    0  501    0  0.00000000000E+00  0.00000000000E+00 -0.10275642031E+04  0.10275642031E+04  0.25500000920E-02 0.  1.
    10030    2    1    2    0    0  0.00000000000E+00  0.00000000000E+00 -0.96756432509E+03  0.10875640811E+04  0.49660337026E+03 0.  0.
        2    1    3    3  502    0  0.13459068673E+03  0.10626441128E+03 -0.87705097519E+03  0.89365831902E+03  0.25500000920E-02 0.  1.
       -2    1    3    3    0  502 -0.13459068673E+03 -0.10626441128E+03 -0.90513349899E+02  0.19390576210E+03  0.25500000920E-02 0. -1.
</event>
<event>
 5   0  0.1827698E-01  0.5037542E+03  0.7818609E-02  0.1012804E+00
        2   -1    0    0  501    0  0.00000000000E+00  0.00000000000E+00  0.96668570398E+02  0.96668570431E+02  0.25500000920E-02 0. -1.
       -2   -1    0    0    0  501  0.00000000000E+00  0.00000000000E+00 -0.65628432789E+03  0.65628432789E+03  0.25500000920E-02 0.  1.
    10030    2    1    2    0    0  0.00000000000E+00  0.00000000000E+00 -0.55961575749E+03  0.75295289832E+03  0.50375417722E+03 0.  0.
        1    1    3    3  502    0  0.95398639868E+02  0.13640692506E+03  0.27399004794E+01  0.16647899799E+03  0.50400001928E-02 0. -1.
       -1    1    3    3    0  502 -0.95398639868E+02 -0.13640692506E+03 -0.56235565797E+03  0.58647390033E+03  0.50400001928E-02 0.  1.
</event>
<event>
 5   0  0.7220250E-02  0.5039811E+03  0.7818609E-02  0.1012745E+00
       -3   -1    0    0    0  501  0.00000000000E+00  0.00000000000E+00  0.19537110422E+03  0.19537113032E+03  0.10100000352E+00 0. -1.
        3   -1    0    0  501    0  0.00000000000E+00  0.00000000000E+00 -0.32501849021E+03  0.32501850590E+03  0.10100000352E+00 0.  1.
    10030    2    1    2    0    0  0.00000000000E+00  0.00000000000E+00 -0.12964738599E+03  0.52038963622E+03  0.50398107980E+03 0.  0.
        2    1    3    3  502    0 -0.31736077234E+02 -0.15036606759E+03 -0.27103069654E+03  0.31156824510E+03  0.25500000920E-02 0.  1.
       -2    1    3    3    0  502  0.31736077234E+02  0.15036606759E+03  0.14138331055E+03  0.20882139112E+03  0.25500000920E-02 0. -1.
</event>
<event>
 5   0  0.1147245E-01  0.4996619E+03  0.7818609E-02  0.1013867E+00
       -1   -1    0    0    0  501  0.00000000000E+00  0.00000000000E+00  0.64579308039E+02  0.64579308235E+02  0.50400001928E-02 0.  1.
        1   -1    0    0  501    0  0.00000000000E+00  0.00000000000E+00 -0.96649402361E+03  0.96649402362E+03  0.50400001928E-02 0. -1.
    10030    2    1    2    0    0  0.00000000000E+00  0.00000000000E+00 -0.90191471557E+03  0.10310733319E+04  0.49966194723E+03 0.  0.
        1    1    3    3  502    0  0.58624277890E+02 -0.12796894131E+03 -0.25033827587E+02  0.14296694880E+03  0.50400001928E-02 0.  1.
       -1    1    3    3    0  502 -0.58624277890E+02  0.12796894131E+03 -0.87688088798E+03  0.88810638306E+03  0.50400001928E-02 0. -1.
</event>
<event>
 5   0  0.1683148E-01  0.5252476E+03  0.7818609E-02  0.1007391E+00
        2   -1    0    0  501    0  0.00000000000E+00  0.00000000000E+00  0.24166680357E+03  0.24166680359E+03  0.25500000920E-02 0.  1.
       -2   -1    0    0    0  501  0.00000000000E+00  0.00000000000E+00 -0.28539819256E+03  0.28539819257E+03  0.25500000920E-02 0. -1.
    10030    2    1    2    0    0  0.00000000000E+00  0.00000000000E+00 -0.43731388990E+02  0.52706499616E+03  0.52524763283E+03 0.  0.
        2    1    3    3  502    0  0.82362538313E+02  0.16476782638E+03 -0.20970109195E+03  0.27911748834E+03  0.25500000920E-02 0. -1.
       -2    1    3    3    0  502 -0.82362538313E+02 -0.16476782638E+03  0.16596970296E+03  0.24794750782E+03  0.25500000920E-02 0.  1.
</event>
<event>
 5   0  0.1147245E-01  0.4973019E+03  0.7818609E-02  0.1014486E+00
       -1   -1    0    0    0  501  0.00000000000E+00  0.00000000000E+00  0.34205265647E+03  0.34205265651E+03  0.50400001928E-02 0. -1.
        1   -1    0    0  501    0  0.00000000000E+00  0.00000000000E+00 -0.18075375300E+03  0.18075375307E+03  0.50400001928E-02 0.  1.
    10030    2    1    2    0    0  0.00000000000E+00  0.00000000000E+00  0.16129890348E+03  0.52280640957E+03  0.49730192603E+03 0.  0.
        1    1    3    3  502    0  0.19060854812E+03 -0.15930050422E+03  0.92119172720E+02  0.26494190168E+03  0.50400001928E-02 0.  1.
       -1    1    3    3    0  502 -0.19060854812E+03  0.15930050422E+03  0.69179730756E+02  0.25786450789E+03  0.50400001928E-02 0. -1.
</event>
<event>
 5   0  0.1827698E-01  0.4993464E+03  0.7818609E-02  0.1013950E+00
        2   -1    0    0  501    0  0.00000000000E+00  0.00000000000E+00  0.25319565621E+03  0.25319565622E+03  0.25500000920E-02 0. -1.
       -2   -1    0    0    0  501  0.00000000000E+00  0.00000000000E+00 -0.24619976076E+03  0.24619976077E+03  0.25500000920E-02 0.  1.
    10030    2    1    2    0    0  0.00000000000E+00  0.00000000000E+00  0.69958954515E+01  0.49939541700E+03  0.49934641279E+03 0.  0.
        1    1    3    3  502    0  0.16593023697E+03  0.14632955047E+03 -0.11223518328E+03  0.24807643434E+03  0.50400001928E-02 0. -1.
       -1    1    3    3    0  502 -0.16593023697E+03 -0.14632955047E+03  0.11923107873E+03  0.25131898266E+03  0.50400001928E-02 0.  1.
</event>
<event>
 5   0  0.1141970E-01  0.5133458E+03  0.7818609E-02  0.1010353E+00
       -1   -1    0    0    0  501  0.00000000000E+00  0.00000000000E+00  0.22215778683E+03  0.22215778689E+03  0.50400001928E-02 0.  1.
        1   -1    0    0  501    0  0.00000000000E+00  0.00000000000E+00 -0.29655035285E+03  0.29655035289E+03  0.50400001928E-02 0. -1.
    10030    2    1    2    0    0  0.00000000000E+00  0.00000000000E+00 -0.74392566019E+02  0.51870813978E+03  0.51334577080E+03 0.  0.
        3    1    3    3  502    0  0.23095944516E+02 -0.22565704507E+03  0.84168473878E+02  0.24194806641E+03  0.10100000352E+00 0.  1.
       -3    1    3    3    0  502 -0.23095944516E+02  0.22565704507E+03 -0.15856103990E+03  0.27676007338E+03  0.10100000352E+00 0. -1.
</event>
<event>
 5   0  0.1760649E-01  0.5046334E+03  0.7818609E-02  0.1012577E+00
        2   -1    0    0  501    0  0.00000000000E+00  0.00000000000E+00  0.10141976156E+03  0.10141976160E+03  0.25500000920E-02 0.  1.
       -2   -1    0    0    0  501  0.00000000000E+00  0.00000000000E+00 -0.62772485032E+03  0.62772485033E+03  0.25500000920E-02 0. -1.
    10030    2    1    2    0    0  0.00000000000E+00  0.00000000000E+00 -0.52630508876E+03  0.72914461193E+03  0.50463335071E+03 0.  0.
        5    1    3    3  502    0  0.18865123933E+03  0.16680316457E+03 -0.28501922283E+03  0.38035592962E+03  0.46999998093E+01 0. -1.
       -5    1    3    3    0  502 -0.18865123933E+03 -0.16680316457E+03 -0.24128586593E+03  0.34878868231E+03  0.46999998093E+01 0.  1.
</event>
<event>
 5   0  0.1827698E-01  0.5012677E+03  0.7818609E-02  0.1013449E+00
        2   -1    0    0  501    0  0.00000000000E+00  0.00000000000E+00  0.10099344747E+04  0.10099344747E+04  0.25500000920E-02 0. -1.
       -2   -1    0    0    0  501  0.00000000000E+00  0.00000000000E+00 -0.62199417885E+02  0.62199417937E+02  0.25500000920E-02 0.  1.
    10030    2    1    2    0    0  0.00000000000E+00  0.00000000000E+00  0.94773505681E+03  0.10721338926E+04  0.50126773867E+03 0.  0.
        1    1    3    3  502    0 -0.14528157191E+03 -0.56534344960E+02  0.89361803485E+03  0.90711413810E+03  0.50400001928E-02 0. -1.
       -1    1    3    3    0  502  0.14528157191E+03  0.56534344960E+02  0.54117021954E+02  0.16501975453E+03  0.50400001928E-02 0.  1.
</event>
<event>
 5   0  0.1068522E-01  0.4979829E+03  0.7818609E-02  0.1014307E+00
        1   -1    0    0  501    0  0.00000000000E+00  0.00000000000E+00  0.46871467977E+02  0.46871468248E+02  0.50400001928E-02 0.  1.
       -1   -1    0    0    0  501  0.00000000000E+00  0.00000000000E+00 -0.13226968501E+04  0.13226968501E+04  0.50400001928E-02 0. -1.
    10030    2    1    2    0    0  0.00000000000E+00  0.00000000000E+00 -0.12758253821E+04  0.13695683183E+04  0.49798290429E+03 0.  0.
        2    1    3    3  502    0 -0.35321330823E+02 -0.13349372776E+03 -0.12077389855E+04  0.12156075143E+04  0.25500000920E-02 0. -1.
       -2    1    3    3    0  502  0.35321330823E+02  0.13349372776E+03 -0.68086396584E+02  0.15396080400E+03  0.25500000920E-02 0.  1.
</event>
<event>
 5   0  0.1683148E-01  0.5020564E+03  0.7818609E-02  0.1013244E+00
       -2   -1    0    0    0  501  0.00000000000E+00  0.00000000000E+00  0.30743113608E+02  0.30743113714E+02  0.25500000920E-02 0.  1.
        2   -1    0    0  501    0  0.00000000000E+00  0.00000000000E+00 -0.20497327420E+04  0.20497327420E+04  0.25500000920E-02 0. -1.
    10030    2    1    2    0    0  0.00000000000E+00  0.00000000000E+00 -0.20189896284E+04  0.20804758558E+04  0.50205643773E+03 0.  0.
        2    1    3    3  502    0 -0.96801232293E+02 -0.16001644376E+03 -0.17033913156E+04  0.17136270641E+04  0.25500000920E-02 0. -1.
       -2    1    3    3    0  502  0.96801232293E+02  0.16001644376E+03 -0.31559831283E+03  0.36684879162E+03  0.25500000920E-02 0.  1.
</event>
<event>
 5   0  0.1827698E-01  0.4757861E+03  0.7818609E-02  0.1020300E+00
       -2   -1    0    0    0  501  0.00000000000E+00  0.00000000000E+00  0.10902466613E+03  0.10902466616E+03  0.25500000920E-02 0. -1.
        2   -1    0    0  501    0  0.00000000000E+00  0.00000000000E+00 -0.51908534082E+03  0.51908534082E+03  0.25500000920E-02 0.  1.
    10030    2    1    2    0    0  0.00000000000E+00  0.00000000000E+00 -0.41006067469E+03  0.62811000698E+03  0.47578611155E+03 0.  0.
        1    1    3    3  502    0 -0.87942754185E+02 -0.21172055778E+03 -0.28887385106E+03  0.36879211549E+03  0.50400001928E-02 0.  1.
       -1    1    3    3    0  502  0.87942754185E+02  0.21172055778E+03 -0.12118682363E+03  0.25931789149E+03  0.50400001928E-02 0. -1.
</event>
<event>
 5   0  0.1068522E-01  0.4436713E+03  0.7818609E-02  0.1029626E+00
        1   -1    0    0  501    0  0.00000000000E+00  0.00000000000E+00  0.11796354027E+04  0.11796354027E+04  0.50400001928E-02 0.  1.
       -1   -1    0    0    0  501  0.00000000000E+00  0.00000000000E+00 -0.41717166675E+02  0.41717166979E+02  0.50400001928E-02 0. -1.
    10030    2    1    2    0    0  0.00000000000E+00  0.00000000000E+00  0.11379182360E+04  0.12213525697E+04  0.44367126074E+03 0.  0.
        2    1    3    3  502    0 -0.79782971490E+02  0.14685052137E+02  0.58041856014E+00  0.81125274657E+02  0.25500000920E-02 0. -1.
       -2    1    3    3    0  502  0.79782971490E+02 -0.14685052137E+02  0.11373378175E+04  0.11402272950E+04  0.25500000920E-02 0.  1.
</event>
<event>
 5   0  0.1074281E-01  0.5010171E+03  0.7818609E-02  0.1013514E+00
        1   -1    0    0  501    0  0.00000000000E+00  0.00000000000E+00  0.27827324425E+03  0.27827324430E+03  0.50400001928E-02 0.  1.
       -1   -1    0    0    0  501  0.00000000000E+00  0.00000000000E+00 -0.22551411408E+03  0.22551411413E+03  0.50400001928E-02 0. -1.
    10030    2    1    2    0    0  0.00000000000E+00  0.00000000000E+00  0.52759130177E+02  0.50378735843E+03  0.50101714212E+03 0.  0.
        4    1    3    3  502    0 -0.16470587661E+03 -0.18420127851E+03 -0.15015941362E+02  0.24755853488E+03  0.12699999809E+01 0. -1.
       -4    1    3    3    0  502  0.16470587661E+03  0.18420127851E+03  0.67775071539E+02  0.25622882355E+03  0.12699999809E+01 0.  1.
</event>
<event>
 5   0  0.1760649E-01  0.4932726E+03  0.7818609E-02  0.1015550E+00
        2   -1    0    0  501    0  0.00000000000E+00  0.00000000000E+00  0.10777154447E+04  0.10777154447E+04  0.25500000920E-02 0.  1.
       -2   -1    0    0    0  501  0.00000000000E+00  0.00000000000E+00 -0.56442963817E+02  0.56442963874E+02  0.25500000920E-02 0. -1.
    10030    2    1    2    0    0  0.00000000000E+00  0.00000000000E+00  0.10212724809E+04  0.11341584086E+04  0.49327255705E+03 0.  0.
        5    1    3    3  502    0  0.20155175641E+03  0.14179388309E+03  0.49023264145E+03  0.54870643202E+03  0.46999998093E+01 0. -1.
       -5    1    3    3    0  502 -0.20155175641E+03 -0.14179388309E+03  0.53103983943E+03  0.58545197656E+03  0.46999998093E+01 0.  1.
</event>
<event>
 5   0  0.1141970E-01  0.4999731E+03  0.7818609E-02  0.1013786E+00
       -1   -1    0    0    0  501  0.00000000000E+00  0.00000000000E+00  0.23503403175E+03  0.23503403181E+03  0.50400001928E-02 0.  1.
        1   -1    0    0  501    0  0.00000000000E+00  0.00000000000E+00 -0.26589036250E+03  0.26589036254E+03  0.50400001928E-02 0. -1.
    10030    2    1    2    0    0  0.00000000000E+00  0.00000000000E+00 -0.30856330742E+02  0.50092439435E+03  0.49997313499E+03 0.  0.
        3    1    3    3  502    0  0.11691538450E+03  0.19913529455E+03  0.80509967195E+02  0.24455252541E+03  0.10100000352E+00 0.  1.
       -3    1    3    3    0  502 -0.11691538450E+03 -0.19913529455E+03 -0.11136629794E+03  0.25637186894E+03  0.10100000352E+00 0. -1.
</event>
<event>
 5   0  0.1147245E-01  0.4954478E+03  0.7818609E-02  0.1014974E+00
        1   -1    0    0  501    0  0.00000000000E+00  0.00000000000E+00  0.34784084065E+03  0.34784084068E+03  0.50400001928E-02 0. -1.
       -1   -1    0    0    0  501  0.00000000000E+00  0.00000000000E+00 -0.17642300145E+03  0.17642300153E+03  0.50400001928E-02 0.  1.
    10030    2    1    2    0    0  0.00000000000E+00  0.00000000000E+00  0.17141783919E+03  0.52426384221E+03  0.49544777793E+03 0.  0.
        1    1    3    3  502    0  0.69961005806E+02 -0.10570860276E+03 -0.13950376566E+03  0.18849443411E+03  0.50400001928E-02 0.  1.
       -1    1    3    3    0  502 -0.69961005806E+02  0.10570860276E+03  0.31092160485E+03  0.33576940810E+03  0.50400001928E-02 0. -1.
</event>
<event>
 5   0  0.1782124E-01  0.4700420E+03  0.7818609E-02  0.1021908E+00
        2   -1    0    0  501    0  0.00000000000E+00  0.00000000000E+00  0.18059915687E+03  0.18059915689E+03  0.25500000920E-02 0.  1.
       -2   -1    0    0    0  501  0.00000000000E+00  0.00000000000E+00 -0.30584234540E+03  0.30584234541E+03  0.25500000920E-02 0. -1.
    10030    2    1    2    0    0  0.00000000000E+00  0.00000000000E+00 -0.12524318853E+03  0.48644150229E+03  0.47004199693E+03 0.  0.
        3    1    3    3  502    0 -0.14998105394E+03 -0.85188770719E+02  0.10258325197E+03  0.20068576676E+03  0.10100000352E+00 0.  1.
       -3    1    3    3    0  502  0.14998105394E+03  0.85188770719E+02 -0.22782644049E+03  0.28575573553E+03  0.10100000352E+00 0. -1.
</event>
<event>
 5   0  0.1760649E-01  0.4963206E+03  0.7818609E-02  0.1014744E+00
        2   -1    0    0  501    0  0.00000000000E+00  0.00000000000E+00  0.11344721774E+04  0.11344721774E+04  0.25500000920E-02 0.  1.
       -2   -1    0    0    0  501  0.00000000000E+00  0.00000000000E+00 -0.54283866772E+02  0.54283866832E+02  0.25500000920E-02 0. -1.
    10030    2    1    2    0    0  0.00000000000E+00  0.00000000000E+00  0.10801883106E+04  0.11887560443E+04  0.49632060837E+03 0.  0.
        5    1    3    3  502    0  0.18721099553E+03  0.23884527233E+02  0.92587502450E+03  0.94492596455E+03  0.46999998093E+01 0.  1.
       -5    1    3    3    0  502 -0.18721099553E+03 -0.23884527233E+02  0.15431328614E+03  0.24383007970E+03  0.46999998093E+01 0. -1.
</event>
<event>
 5   0  0.1123271E-01  0.4958086E+03  0.7818609E-02  0.1014879E+00
       -1   -1    0    0    0  501  0.00000000000E+00  0.00000000000E+00  0.13359058447E+03  0.13359058456E+03  0.50400001928E-02 0.  1.
        1   -1    0    0  501    0  0.00000000000E+00  0.00000000000E+00 -0.46003638491E+03  0.46003638494E+03  0.50400001928E-02 0. -1.
    10030    2    1    2    0    0  0.00000000000E+00  0.00000000000E+00 -0.32644580044E+03  0.59362696950E+03  0.49580855004E+03 0.  0.
        5    1    3    3  502    0  0.17972410898E+02 -0.67598375636E+02  0.12147533736E+03  0.14025296976E+03  0.46999998093E+01 0.  1.
       -5    1    3    3    0  502 -0.17972410898E+02  0.67598375636E+02 -0.44792113781E+03  0.45337399973E+03  0.46999998093E+01 0. -1.
</event>
<event>
 5   0  0.1068522E-01  0.5067854E+03  0.7818609E-02  0.1012023E+00
        1   -1    0    0  501    0  0.00000000000E+00  0.00000000000E+00  0.17645591494E+04  0.17645591494E+04  0.50400001928E-02 0. -1.
       -1   -1    0    0    0  501  0.00000000000E+00  0.00000000000E+00 -0.36387482405E+02  0.36387482754E+02  0.50400001928E-02 0.  1.
    10030    2    1    2    0    0  0.00000000000E+00  0.00000000000E+00  0.17281716670E+04  0.18009466322E+04  0.50678541938E+03 0.  0.
        2    1    3    3  502    0  0.23244555505E+03 -0.95936246407E+02  0.75322703457E+03  0.79409424192E+03  0.25500000920E-02 0.  1.
       -2    1    3    3    0  502 -0.23244555505E+03  0.95936246407E+02  0.97494463245E+03  0.10068523903E+04  0.25500000920E-02 0. -1.
</event>
<event>
 5   0  0.1709372E-01  0.4947282E+03  0.7818609E-02  0.1015164E+00
       -2   -1    0    0    0  501  0.00000000000E+00  0.00000000000E+00  0.68894816125E+03  0.68894816126E+03  0.25500000920E-02 0. -1.
        2   -1    0    0  501    0  0.00000000000E+00  0.00000000000E+00 -0.88815082454E+02  0.88815082490E+02  0.25500000920E-02 0.  1.
    10030    2    1    2    0    0  0.00000000000E+00  0.00000000000E+00  0.60013307880E+03  0.77776324375E+03  0.49472815875E+03 0.  0.
        4    1    3    3  502    0  0.10063348807E+02  0.34465283689E+02 -0.84691625847E+02  0.91996799714E+02  0.12699999809E+01 0.  1.
       -4    1    3    3    0  502 -0.10063348807E+02 -0.34465283689E+02  0.68482470465E+03  0.68576644403E+03  0.12699999809E+01 0. -1.
</event>
<event>
 5   0  0.1760649E-01  0.4852723E+03  0.7818609E-02  0.1017696E+00
        2   -1    0    0  501    0  0.00000000000E+00  0.00000000000E+00  0.31024883837E+03  0.31024883838E+03  0.25500000920E-02 0. -1.
       -2   -1    0    0    0  501  0.00000000000E+00  0.00000000000E+00 -0.18975835875E+03  0.18975835876E+03  0.25500000920E-02 0.  1.
    10030    2    1    2    0    0  0.00000000000E+00  0.00000000000E+00  0.12049047963E+03  0.50000719715E+03  0.48527233748E+03 0.  0.
        5    1    3    3  502    0  0.23119891303E+03  0.51326734851E+02  0.11440407528E+03  0.26305465884E+03  0.46999998093E+01 0. -1.
       -5    1    3    3    0  502 -0.23119891303E+03 -0.51326734851E+02  0.60864043488E+01  0.23695253831E+03  0.46999998093E+01 0.  1.
</event>
<event>
 5   0  0.1074281E-01  0.5176770E+03  0.7818609E-02  0.1009265E+00
       -1   -1    0    0    0  501  0.00000000000E+00  0.00000000000E+00  0.71444434312E+02  0.71444434489E+02  0.50400001928E-02 0. -1.
        1   -1    0    0  501    0  0.00000000000E+00  0.00000000000E+00 -0.93775477438E+03  0.93775477440E+03  0.50400001928E-02 0.  1.
    10030    2    1    2    0    0  0.00000000000E+00  0.00000000000E+00 -0.86631034007E+03  0.10091992089E+04  0.51767696289E+03 0.  0.
        4    1    3    3  502    0  0.42477578907E+02 -0.55735750555E+02 -0.91890331789E+03  0.92157242750E+03  0.12699999809E+01 0.  1.
       -4    1    3    3    0  502 -0.42477578907E+02  0.55735750555E+02  0.52592977820E+02  0.87626781384E+02  0.12699999809E+01 0. -1.
</event>
<event>
 5   0  0.1683148E-01  0.4774221E+03  0.7818609E-02  0.1019846E+00
       -2   -1    0    0    0  501  0.00000000000E+00  0.00000000000E+00  0.22915111831E+03  0.22915111832E+03  0.25500000920E-02 0. -1.
        2   -1    0    0  501    0  0.00000000000E+00  0.00000000000E+00 -0.24866980034E+03  0.24866980035E+03  0.25500000920E-02 0.  1.
    10030    2    1    2    0    0  0.00000000000E+00  0.00000000000E+00 -0.19518682034E+02  0.47782091867E+03  0.47742208932E+03 0.  0.
        2    1    3    3  502    0  0.10488051931E+03 -0.19538104123E+03  0.78684659039E+02  0.23529757793E+03  0.25500000920E-02 0. -1.
       -2    1    3    3    0  502 -0.10488051931E+03  0.19538104123E+03 -0.98203341074E+02  0.24252334075E+03  0.25500000920E-02 0.  1.
</event>
<event>
 5   0  0.7220250E-02  0.4871038E+03  0.7818609E-02  0.1017201E+00
       -3   -1    0    0    0  501  0.00000000000E+00  0.00000000000E+00  0.83697528365E+02  0.83697589305E+02  0.10100000352E+00 0. -1.
        3   -1    0    0  501    0  0.00000000000E+00  0.00000000000E+00 -0.70871259533E+03  0.70871260253E+03  0.10100000352E+00 0.  1.
    10030    2    1    2    0    0  0.00000000000E+00  0.00000000000E+00 -0.62501506696E+03  0.79241019183E+03  0.48710376532E+03 0.  0.
        4    1    3    3  502    0 -0.18961350405E+03 -0.17764694960E+02 -0.65542108556E+02  0.20141064073E+03  0.12699999809E+01 0. -1.
       -4    1    3    3    0  502  0.18961350405E+03  0.17764694960E+02 -0.55947295841E+03  0.59099955110E+03  0.12699999809E+01 0.  1.
</event>
<event>
 5   0  0.1068522E-01  0.5016620E+03  0.7818609E-02  0.1013346E+00
       -1   -1    0    0    0  501  0.00000000000E+00  0.00000000000E+00  0.32194535010E+02  0.32194535404E+02  0.50400001928E-02 0. -1.
        1   -1    0    0  501    0  0.00000000000E+00  0.00000000000E+00 -0.19542503846E+04  0.19542503846E+04  0.50400001928E-02 0.  1.
    10030    2    1    2    0    0  0.00000000000E+00  0.00000000000E+00 -0.19220558496E+04  0.19864449200E+04  0.50166196915E+03 0.  0.
        2    1    3    3  502    0 -0.48142070752E+02 -0.16695715517E+03 -0.16773320088E+04  0.16863081031E+04  0.25500000920E-02 0.  1.
       -2    1    3    3    0  502  0.48142070752E+02  0.16695715517E+03 -0.24472384076E+03  0.30013681694E+03  0.25500000920E-02 0. -1.
</event>
<event>
 5   0  0.1827698E-01  0.4727763E+03  0.7818609E-02  0.1021140E+00
        2   -1    0    0  501    0  0.00000000000E+00  0.00000000000E+00  0.14762477031E+04  0.14762477031E+04  0.25500000920E-02 0. -1.
       -2   -1    0    0    0  501  0.00000000000E+00  0.00000000000E+00 -0.37852298013E+02  0.37852298099E+02  0.25500000920E-02 0.  1.
    10030    2    1    2    0    0  0.00000000000E+00  0.00000000000E+00  0.14383954051E+04  0.15141000012E+04  0.47277634486E+03 0.  0.
        1    1    3    3  502    0  0.11609675580E+03 -0.20225869156E+03  0.84291536213E+03  0.87458181021E+03  0.50400001928E-02 0. -1.
       -1    1    3    3    0  502 -0.11609675580E+03  0.20225869156E+03  0.59548004298E+03  0.63951819101E+03  0.50400001928E-02 0.  1.
</event>
<event>
 5   0  0.1147245E-01  0.5011720E+03  0.7818609E-02  0.1013473E+00
        1   -1    0    0  501    0  0.00000000000E+00  0.00000000000E+00  0.18629247735E+04  0.18629247735E+04  0.50400001928E-02 0. -1.
       -1   -1    0    0    0  501  0.00000000000E+00  0.00000000000E+00 -0.33706861622E+02  0.33706861999E+02  0.50400001928E-02 0.  1.
    10030    2    1    2    0    0  0.00000000000E+00  0.00000000000E+00  0.18292179119E+04  0.18966316355E+04  0.50117201804E+03 0.  0.
        1    1    3    3  502    0  0.55596349499E+02  0.12224267272E+03  0.11396955562E+03  0.17613428044E+03  0.50400001928E-02 0.  1.
       -1    1    3    3    0  502 -0.55596349499E+02 -0.12224267272E+03  0.17152483563E+04  0.17204973551E+04  0.50400001928E-02 0. -1.
</event>
<event>
 5   0  0.1141970E-01  0.4933217E+03  0.7818609E-02  0.1015537E+00
       -1   -1    0    0    0  501  0.00000000000E+00  0.00000000000E+00  0.88574128862E+02  0.88574129005E+02  0.50400001928E-02 0. -1.
        1   -1    0    0  501    0  0.00000000000E+00  0.00000000000E+00 -0.68690018041E+03  0.68690018043E+03  0.50400001928E-02 0.  1.
    10030    2    1    2    0    0  0.00000000000E+00  0.00000000000E+00 -0.59832605155E+03  0.77547430944E+03  0.49332174149E+03 0.  0.
        3    1    3    3  502    0 -0.52243517344E+02 -0.17440950739E+03 -0.37569983461E+02  0.18590205816E+03  0.10100000352E+00 0. -1.
       -3    1    3    3    0  502  0.52243517344E+02  0.17440950739E+03 -0.56075606809E+03  0.58957225127E+03  0.10100000352E+00 0.  1.
</event>
<event>
 5   0  0.1709372E-01  0.5014436E+03  0.7818609E-02  0.1013403E+00
       -2   -1    0    0    0  501  0.00000000000E+00  0.00000000000E+00  0.36094103800E+02  0.36094103890E+02  0.25500000920E-02 0.  1.
        2   -1    0    0  501    0  0.00000000000E+00  0.00000000000E+00 -0.17415981406E+04  0.17415981406E+04  0.25500000920E-02 0. -1.
    10030    2    1    2    0    0  0.00000000000E+00  0.00000000000E+00 -0.17055040368E+04  0.17776922445E+04  0.50144361257E+03 0.  0.
        4    1    3    3  502    0  0.24858720670E+01 -0.13971279033E+03 -0.15907390035E+04  0.15968650643E+04  0.12699999809E+01 0. -1.
       -4    1    3    3    0  502 -0.24858720670E+01  0.13971279033E+03 -0.11476503332E+03  0.18082718024E+03  0.12699999809E+01 0.  1.
</event>
<event>
 5   0  0.1827698E-01  0.5077660E+03  0.7818609E-02  0.1011772E+00
       -2   -1    0    0    0  501  0.00000000000E+00  0.00000000000E+00  0.12321152516E+03  0.12321152519E+03  0.25500000920E-02 0. -1.
        2   -1    0    0  501    0  0.00000000000E+00  0.00000000000E+00 -0.52313754967E+03  0.52313754968E+03  0.25500000920E-02 0.  1.
    10030    2    1    2    0    0  0.00000000000E+00  0.00000000000E+00 -0.39992602451E+03  0.64634907487E+03  0.50776599089E+03 0.  0.
        1    1    3    3  502    0  0.23826333925E+03  0.85796858865E+01 -0.31103306962E+03  0.39189871174E+03  0.50400001928E-02 0.  1.
       -1    1    3    3    0  502 -0.23826333925E+03 -0.85796858865E+01 -0.88892954893E+02  0.25445036313E+03  0.50400001928E-02 0. -1.
</event>
<event>
 5   0  0.1760649E-01  0.5018282E+03  0.7818609E-02  0.1013303E+00
       -2   -1    0    0    0  501  0.00000000000E+00  0.00000000000E+00  0.22656058707E+03  0.22656058708E+03  0.25500000920E-02 0. -1.
        2   -1    0    0  501    0  0.00000000000E+00  0.00000000000E+00 -0.27788543169E+03  0.27788543170E+03  0.25500000920E-02 0.  1.
    10030    2    1    2    0    0  0.00000000000E+00  0.00000000000E+00 -0.51324844618E+02  0.50444601878E+03  0.50182820386E+03 0.  0.
        5    1    3    3  502    0  0.10920088011E+03  0.60453790635E+02 -0.24441265849E+03  0.27447974542E+03  0.46999998093E+01 0.  1.
       -5    1    3    3    0  502 -0.10920088011E+03 -0.60453790635E+02  0.19308781387E+03  0.22996627336E+03  0.46999998093E+01 0. -1.
</event>
<event>
 5   0  0.1074281E-01  0.4851163E+03  0.7818609E-02  0.1017738E+00
       -1   -1    0    0    0  501  0.00000000000E+00  0.00000000000E+00  0.44499310067E+03  0.44499310070E+03  0.50400001928E-02 0.  1.
        1   -1    0    0  501    0  0.00000000000E+00  0.00000000000E+00 -0.13221428448E+03  0.13221428457E+03  0.50400001928E-02 0. -1.
    10030    2    1    2    0    0  0.00000000000E+00  0.00000000000E+00  0.31277881619E+03  0.57720738527E+03  0.48511625179E+03 0.  0.
        4    1    3    3  502    0 -0.13910256831E+03 -0.19814510305E+03  0.17411054017E+03  0.29820647121E+03  0.12699999809E+01 0.  1.
       -4    1    3    3    0  502  0.13910256831E+03  0.19814510305E+03  0.13866827602E+03  0.27900091406E+03  0.12699999809E+01 0. -1.
</event>
<event>
 5   0  0.1123271E-01  0.5588542E+03  0.7818609E-02  0.9994651E-01
       -1   -1    0    0    0  501  0.00000000000E+00  0.00000000000E+00  0.47969875859E+03  0.47969875862E+03  0.50400001928E-02 0. -1.
        1   -1    0    0  501    0  0.00000000000E+00  0.00000000000E+00 -0.16276777299E+03  0.16276777307E+03  0.50400001928E-02 0.  1.
    10030    2    1    2    0    0  0.00000000000E+00  0.00000000000E+00  0.31693098560E+03  0.64246653169E+03  0.55885418018E+03 0.  0.
        5    1    3    3  502    0 -0.18336086844E+03  0.24951594431E+02 -0.82168272276E+02  0.20252778848E+03  0.46999998093E+01 0.  1.
       -5    1    3    3    0  502  0.18336086844E+03 -0.24951594431E+02  0.39909925787E+03  0.43993874320E+03  0.46999998093E+01 0. -1.
</event>
<event>
 5   0  0.1683148E-01  0.5001385E+03  0.7818609E-02  0.1013743E+00
       -2   -1    0    0    0  501  0.00000000000E+00  0.00000000000E+00  0.78197765857E+02  0.78197765898E+02  0.25500000920E-02 0.  1.
        2   -1    0    0  501    0  0.00000000000E+00  0.00000000000E+00 -0.79969846990E+03  0.79969846990E+03  0.25500000920E-02 0. -1.
    10030    2    1    2    0    0  0.00000000000E+00  0.00000000000E+00 -0.72150070404E+03  0.87789623580E+03  0.50013851571E+03 0.  0.
        2    1    3    3  502    0 -0.58719214523E+02 -0.21096253984E+03 -0.57271034815E+03  0.61314784698E+03  0.25500000920E-02 0. -1.
       -2    1    3    3    0  502  0.58719214523E+02  0.21096253984E+03 -0.14879035590E+03  0.26474838883E+03  0.25500000920E-02 0.  1.
</event>
<event>
 5   0  0.1074281E-01  0.5022095E+03  0.7818609E-02  0.1013204E+00
       -1   -1    0    0    0  501  0.00000000000E+00  0.00000000000E+00  0.10435133857E+03  0.10435133869E+03  0.50400001928E-02 0. -1.
        1   -1    0    0  501    0  0.00000000000E+00  0.00000000000E+00 -0.60424323211E+03  0.60424323213E+03  0.50400001928E-02 0.  1.
    10030    2    1    2    0    0  0.00000000000E+00  0.00000000000E+00 -0.49989189354E+03  0.70859457082E+03  0.50220947878E+03 0.  0.
        4    1    3    3  502    0 -0.13006186227E+03 -0.13862689625E+03 -0.48143908584E+03  0.51760864623E+03  0.12699999809E+01 0.  1.
       -4    1    3    3    0  502  0.13006186227E+03  0.13862689625E+03 -0.18452807698E+02  0.19098592459E+03  0.12699999809E+01 0. -1.
</event>
<event>
 5   0  0.1760649E-01  0.4963232E+03  0.7818609E-02  0.1014743E+00
        2   -1    0    0  501    0  0.00000000000E+00  0.00000000000E+00  0.95375102641E+03  0.95375102641E+03  0.25500000920E-02 0. -1.
       -2   -1    0    0    0  501  0.00000000000E+00  0.00000000000E+00 -0.64570509236E+02  0.64570509286E+02  0.25500000920E-02 0.  1.
    10030    2    1    2    0    0  0.00000000000E+00  0.00000000000E+00  0.88918051717E+03  0.10183215357E+04  0.49632323938E+03 0.  0.
        5    1    3    3  502    0  0.91556432883E+01  0.21732529953E+02 -0.62174597474E+02  0.66662577444E+02  0.46999998093E+01 0.  1.
       -5    1    3    3    0  502 -0.91556432883E+01 -0.21732529953E+02  0.95135511465E+03  0.95165895826E+03  0.46999998093E+01 0. -1.
</event>
<event>
 5   0  0.1123271E-01  0.5001475E+03  0.7818609E-02  0.1013740E+00
        1   -1    0    0  501    0  0.00000000000E+00  0.00000000000E+00  0.99131522551E+02  0.99131522679E+02  0.50400001928E-02 0.  1.
       -1   -1    0    0    0  501  0.00000000000E+00  0.00000000000E+00 -0.63084766635E+03  0.63084766637E+03  0.50400001928E-02 0. -1.
    10030    2    1    2    0    0  0.00000000000E+00  0.00000000000E+00 -0.53171614380E+03  0.72997918905E+03  0.50014753710E+03 0.  0.
        5    1    3    3  502    0 -0.16848379084E+03 -0.14846733504E+03 -0.42630964513E+03  0.48186236716E+03  0.46999998093E+01 0. -1.
       -5    1    3    3    0  502  0.16848379084E+03  0.14846733504E+03 -0.10540649867E+03  0.24811682190E+03  0.46999998093E+01 0.  1.
</event>
<event>
 5   0  0.1074281E-01  0.4957218E+03  0.7818609E-02  0.1014902E+00
        1   -1    0    0  501    0  0.00000000000E+00  0.00000000000E+00  0.90755136714E+03  0.90755136716E+03  0.50400001928E-02 0. -1.
       -1   -1    0    0    0  501  0.00000000000E+00  0.00000000000E+00 -0.67693176578E+02  0.67693176766E+02  0.50400001928E-02 0.  1.
    10030    2    1    2    0    0  0.00000000000E+00  0.00000000000E+00  0.83985819057E+03  0.97524454392E+03  0.49572183752E+03 0.  0.
        4    1    3    3  502    0 -0.33494313484E+02  0.14053791904E+03  0.81614135763E+03  0.82883116753E+03  0.12699999809E+01 0. -1.
       -4    1    3    3    0  502  0.33494313484E+02 -0.14053791904E+03  0.23716832933E+02  0.14641337640E+03  0.12699999809E+01 0.  1.
</event>
<event>
 5   0  0.1683148E-01  0.4997398E+03  0.7818609E-02  0.1013847E+00
        2   -1    0    0  501    0  0.00000000000E+00  0.00000000000E+00  0.16692012551E+04  0.16692012551E+04  0.25500000920E-02 0. -1.
       -2   -1    0    0    0  501  0.00000000000E+00  0.00000000000E+00 -0.37404100254E+02  0.37404100341E+02  0.25500000920E-02 0.  1.
    10030    2    1    2    0    0  0.00000000000E+00  0.00000000000E+00  0.16317971548E+04  0.17066053554E+04  0.49973981696E+03 0.  0.
        2    1    3    3  502    0  0.15059845676E+03  0.80484922713E+02  0.14388624856E+04  0.14489592715E+04  0.25500000920E-02 0. -1.
       -2    1    3    3    0  502 -0.15059845676E+03 -0.80484922713E+02  0.19293466918E+03  0.25764608388E+03  0.25500000920E-02 0.  1.
</event>
<event>
 5   0  0.1123271E-01  0.5000572E+03  0.7818609E-02  0.1013764E+00
       -1   -1    0    0    0  501  0.00000000000E+00  0.00000000000E+00  0.27091528924E+03  0.27091528928E+03  0.50400001928E-02 0. -1.
        1   -1    0    0  501    0  0.00000000000E+00  0.00000000000E+00 -0.23075223277E+03  0.23075223283E+03  0.50400001928E-02 0.  1.
    10030    2    1    2    0    0  0.00000000000E+00  0.00000000000E+00  0.40163056466E+02  0.50166752211E+03  0.50005722836E+03 0.  0.
        5    1    3    3  502    0  0.25264081668E+02  0.15468399269E+03  0.21545671865E+03  0.26647532536E+03  0.46999998093E+01 0.  1.
       -5    1    3    3    0  502 -0.25264081668E+02 -0.15468399269E+03 -0.17529366218E+03  0.23519219676E+03  0.46999998093E+01 0. -1.
</event>
<event>
 5   0  0.1827698E-01  0.5018837E+03  0.7818609E-02  0.1013288E+00
        2   -1    0    0  501    0  0.00000000000E+00  0.00000000000E+00  0.17116748419E+04  0.17116748419E+04  0.25500000920E-02 0.  1.
       -2   -1    0    0    0  501  0.00000000000E+00  0.00000000000E+00 -0.36789580680E+02  0.36789580769E+02  0.25500000920E-02 0. -1.
    10030    2    1    2    0    0  0.00000000000E+00  0.00000000000E+00  0.16748852612E+04  0.17484644226E+04  0.50188365095E+03 0.  0.
        1    1    3    3  502    0 -0.16607093305E+03  0.44744857162E+02  0.20084812085E+03  0.26442697426E+03  0.50400001928E-02 0. -1.
       -1    1    3    3    0  502  0.16607093305E+03 -0.44744857162E+02  0.14740371403E+04  0.14840374484E+04  0.50400001928E-02 0.  1.
</event>
<event>
 5   0  0.1074281E-01  0.5004208E+03  0.7818609E-02  0.1013669E+00
       -1   -1    0    0    0  501  0.00000000000E+00  0.00000000000E+00  0.30711590341E+02  0.30711590754E+02  0.50400001928E-02 0. -1.
        1   -1    0    0  501    0  0.00000000000E+00  0.00000000000E+00 -0.20384894691E+04  0.20384894691E+04  0.50400001928E-02 0.  1.
    10030    2    1    2    0    0  0.00000000000E+00  0.00000000000E+00 -0.20077778788E+04  0.20692010599E+04  0.50042083859E+03 0.  0.
        4    1    3    3  502    0  0.12686812637E+02  0.22667548205E+03 -0.14387622628E+04  0.14565648599E+04  0.12699999809E+01 0.  1.
       -4    1    3    3    0  502 -0.12686812637E+02 -0.22667548205E+03 -0.56901561596E+03  0.61263619994E+03  0.12699999809E+01 0. -1.
</event>
<event>
 5   0  0.1068522E-01  0.4973920E+03  0.7818609E-02  0.1014462E+00
       -1   -1    0    0    0  501  0.00000000000E+00  0.00000000000E+00  0.12642758941E+03  0.12642758951E+03  0.50400001928E-02 0.  1.
        1   -1    0    0  501    0  0.00000000000E+00  0.00000000000E+00 -0.48921050976E+03  0.48921050978E+03  0.50400001928E-02 0. -1.
    10030    2    1    2    0    0  0.00000000000E+00  0.00000000000E+00 -0.36278292034E+03  0.61563809930E+03  0.49739202045E+03 0.  0.
        2    1    3    3  502    0 -0.82095068716E+02 -0.22006075345E+03 -0.28257839183E+03  0.36744643562E+03  0.25500000920E-02 0. -1.
       -2    1    3    3    0  502  0.82095068716E+02  0.22006075345E+03 -0.80204528515E+02  0.24819166367E+03  0.25500000920E-02 0.  1.
</event>
<event>
 5   0  0.1709372E-01  0.4975022E+03  0.7818609E-02  0.1014433E+00
        2   -1    0    0  501    0  0.00000000000E+00  0.00000000000E+00  0.89308719202E+03  0.89308719202E+03  0.25500000920E-02 0. -1.
       -2   -1    0    0    0  501  0.00000000000E+00  0.00000000000E+00 -0.69284512170E+02  0.69284512217E+02  0.25500000920E-02 0.  1.
    10030    2    1    2    0    0  0.00000000000E+00  0.00000000000E+00  0.82380267985E+03  0.96237170424E+03  0.49750220280E+03 0.  0.
        4    1    3    3  502    0  0.10367062221E+03 -0.10349006736E+03  0.23005170518E+02  0.14828567942E+03  0.12699999809E+01 0.  1.
       -4    1    3    3    0  502 -0.10367062221E+03  0.10349006736E+03  0.80079750933E+03  0.81408602482E+03  0.12699999809E+01 0. -1.
</event>
<event>
 5   0  0.1683148E-01  0.5019613E+03  0.7818609E-02  0.1013268E+00
       -2   -1    0    0    0  501  0.00000000000E+00  0.00000000000E+00  0.11018832720E+03  0.11018832723E+03  0.25500000920E-02 0.  1.
        2   -1    0    0  501    0  0.00000000000E+00  0.00000000000E+00 -0.57166933080E+03  0.57166933080E+03  0.25500000920E-02 0. -1.
    10030    2    1    2    0    0  0.00000000000E+00  0.00000000000E+00 -0.46148100359E+03  0.68185765804E+03  0.50196130244E+03 0.  0.
        2    1    3    3  502    0 -0.54441089343E+02 -0.24425804975E+03 -0.20477220117E+03  0.32335349303E+03  0.25500000920E-02 0. -1.
       -2    1    3    3    0  502  0.54441089343E+02  0.24425804975E+03 -0.25670880242E+03  0.35850416500E+03  0.25500000920E-02 0.  1.
</event>
<event>
 5   0  0.1709372E-01  0.4557833E+03  0.7818609E-02  0.1026011E+00
        2   -1    0    0  501    0  0.00000000000E+00  0.00000000000E+00  0.38308351398E+03  0.38308351399E+03  0.25500000920E-02 0. -1.
       -2   -1    0    0    0  501  0.00000000000E+00  0.00000000000E+00 -0.13556991823E+03  0.13556991826E+03  0.25500000920E-02 0.  1.
    10030    2    1    2    0    0  0.00000000000E+00  0.00000000000E+00  0.24751359574E+03  0.51865343224E+03  0.45578328480E+03 0.  0.
        4    1    3    3  502    0 -0.46929959783E+02 -0.16018524046E+03  0.30030700546E+03  0.34358062054E+03  0.12699999809E+01 0. -1.
       -4    1    3    3    0  502  0.46929959783E+02  0.16018524046E+03 -0.52793409712E+02  0.17507281170E+03  0.12699999809E+01 0.  1.
</event>
<event>
 5   0  0.7220250E-02  0.5015837E+03  0.7818609E-02  0.1013366E+00
        4   -1    0    0  501    0  0.00000000000E+00  0.00000000000E+00  0.13407777144E+04  0.13407783159E+04  0.12699999809E+01 0.  1.
       -4   -1    0    0    0  501  0.00000000000E+00  0.00000000000E+00 -0.46901287444E+02  0.46918478916E+02  0.12699999809E+01 0. -1.
    10030    2    1    2    0    0  0.00000000000E+00  0.00000000000E+00  0.12938764270E+04  0.13876967948E+04  0.50158367802E+03 0.  0.
        1    1    3    3  502    0  0.22492468369E+03  0.69263360102E+02  0.88666353123E+03  0.91736619952E+03  0.50400001928E-02 0.  1.
       -1    1    3    3    0  502 -0.22492468369E+03 -0.69263360102E+02  0.40721289576E+03  0.47033059531E+03  0.50400001928E-02 0. -1.
</event>
<event>
 5   0  0.1827698E-01  0.4728237E+03  0.7818609E-02  0.1021126E+00
        2   -1    0    0  501    0  0.00000000000E+00  0.00000000000E+00  0.72233674665E+03  0.72233674665E+03  0.25500000920E-02 0.  1.
       -2   -1    0    0    0  501  0.00000000000E+00  0.00000000000E+00 -0.77374649423E+02  0.77374649465E+02  0.25500000920E-02 0. -1.
    10030    2    1    2    0    0  0.00000000000E+00  0.00000000000E+00  0.64496209722E+03  0.79971139612E+03  0.47282365658E+03 0.  0.
        1    1    3    3  502    0  0.23501646835E+03 -0.83994873433E+01  0.28149372372E+03  0.36679968416E+03  0.50400001928E-02 0. -1.
       -1    1    3    3    0  502 -0.23501646835E+03  0.83994873433E+01  0.36346837350E+03  0.43291171195E+03  0.50400001928E-02 0.  1.
</event>
<event>
 5   0  0.1074281E-01  0.4999656E+03  0.7818609E-02  0.1013788E+00
        1   -1    0    0  501    0  0.00000000000E+00  0.00000000000E+00  0.17886312575E+03  0.17886312582E+03  0.50400001928E-02 0. -1.
       -1   -1    0    0    0  501  0.00000000000E+00  0.00000000000E+00 -0.34938112362E+03  0.34938112366E+03  0.50400001928E-02 0.  1.
    10030    2    1    2    0    0  0.00000000000E+00  0.00000000000E+00 -0.17051799787E+03  0.52824424948E+03  0.49996559833E+03 0.  0.
        4    1    3    3  502    0  0.15804928240E+03  0.18630596665E+03 -0.14116993829E+03  0.28217025579E+03  0.12699999809E+01 0.  1.
       -4    1    3    3    0  502 -0.15804928240E+03 -0.18630596665E+03 -0.29348059582E+02  0.24607399370E+03  0.12699999809E+01 0. -1.
</event>
<event>
 5   0  0.1068522E-01  0.4993218E+03  0.7818609E-02  0.1013956E+00
        1   -1    0    0  501    0  0.00000000000E+00  0.00000000000E+00  0.71512864656E+03  0.71512864657E+03  0.50400001928E-02 0.  1.
       -1   -1    0    0    0  501  0.00000000000E+00  0.00000000000E+00 -0.87159921457E+02  0.87159921603E+02  0.50400001928E-02 0. -1.
    10030    2    1    2    0    0  0.00000000000E+00  0.00000000000E+00  0.62796872510E+03  0.80228856818E+03  0.49932176693E+03 0.  0.
        2    1    3    3  502    0 -0.45479416795E+02 -0.16012619202E+03  0.61295243683E+03  0.63515310323E+03  0.25500000920E-02 0.  1.
       -2    1    3    3    0  502  0.45479416795E+02  0.16012619202E+03  0.15016288270E+02  0.16713546495E+03  0.25500000920E-02 0. -1.
</event>
<event>
 5   0  0.1074281E-01  0.5090710E+03  0.7818609E-02  0.1011438E+00
       -1   -1    0    0    0  501  0.00000000000E+00  0.00000000000E+00  0.29027504439E+03  0.29027504444E+03  0.50400001928E-02 0. -1.
        1   -1    0    0  501    0  0.00000000000E+00  0.00000000000E+00 -0.22319633065E+03  0.22319633071E+03  0.50400001928E-02 0.  1.
    10030    2    1    2    0    0  0.00000000000E+00  0.00000000000E+00  0.67078713743E+02  0.51347137515E+03  0.50907101593E+03 0.  0.
        4    1    3    3  502    0  0.38597036374E+02 -0.21968764808E+03  0.15721373415E+03  0.27289222239E+03  0.12699999809E+01 0. -1.
       -4    1    3    3    0  502 -0.38597036374E+02  0.21968764808E+03 -0.90135020412E+02  0.24057915275E+03  0.12699999809E+01 0.  1.
</event>
<event>
 5   0  0.1709372E-01  0.4972328E+03  0.7818609E-02  0.1014504E+00
        2   -1    0    0  501    0  0.00000000000E+00  0.00000000000E+00  0.19732072496E+03  0.19732072497E+03  0.25500000920E-02 0. -1.
       -2   -1    0    0    0  501  0.00000000000E+00  0.00000000000E+00 -0.31324698032E+03  0.31324698033E+03  0.25500000920E-02 0.  1.
    10030    2    1    2    0    0  0.00000000000E+00  0.00000000000E+00 -0.11592625537E+03  0.51056770531E+03  0.49723282778E+03 0.  0.
        4    1    3    3  502    0  0.41448777931E+02  0.14758209320E+03  0.14301546939E+03  0.20965093086E+03  0.12699999809E+01 0. -1.
       -4    1    3    3    0  502 -0.41448777931E+02 -0.14758209320E+03 -0.25894172476E+03  0.30091677445E+03  0.12699999809E+01 0.  1.
</event>
<event>
 5   0  0.1147245E-01  0.5155784E+03  0.7818609E-02  0.1009791E+00
        1   -1    0    0  501    0  0.00000000000E+00  0.00000000000E+00  0.15221377839E+03  0.15221377848E+03  0.50400001928E-02 0. -1.
       -1   -1    0    0    0  501  0.00000000000E+00  0.00000000000E+00 -0.43659167212E+03  0.43659167215E+03  0.50400001928E-02 0.  1.
    10030    2    1    2    0    0  0.00000000000E+00  0.00000000000E+00 -0.28437789373E+03  0.58880545063E+03  0.51557838613E+03 0.  0.
        1    1    3    3  502    0  0.16262797664E+03 -0.28907630727E+02 -0.36821768010E+03  0.40356879199E+03  0.50400001928E-02 0.  1.
       -1    1    3    3    0  502 -0.16262797664E+03  0.28907630727E+02  0.83839786373E+02  0.18523665864E+03  0.50400001928E-02 0. -1.
</event>
<event>
 5   0  0.1123271E-01  0.4996333E+03  0.7818609E-02  0.1013875E+00
       -1   -1    0    0    0  501  0.00000000000E+00  0.00000000000E+00  0.61291364498E+02  0.61291364705E+02  0.50400001928E-02 0.  1.
        1   -1    0    0  501    0  0.00000000000E+00  0.00000000000E+00 -0.10182242258E+04  0.10182242258E+04  0.50400001928E-02 0. -1.
    10030    2    1    2    0    0  0.00000000000E+00  0.00000000000E+00 -0.95693286127E+03  0.10795155905E+04  0.49963327463E+03 0.  0.
        5    1    3    3  502    0 -0.91688355182E+02  0.23058248966E+03 -0.41692780907E+03  0.48520709701E+03  0.46999998093E+01 0. -1.
       -5    1    3    3    0  502  0.91688355182E+02 -0.23058248966E+03 -0.54000505220E+03  0.59430849347E+03  0.46999998093E+01 0.  1.
</event>
<event>
 5   0  0.1141970E-01  0.4991897E+03  0.7818609E-02  0.1013991E+00
       -1   -1    0    0    0  501  0.00000000000E+00  0.00000000000E+00  0.12739474208E+03  0.12739474218E+03  0.50400001928E-02 0.  1.
        1   -1    0    0  501    0  0.00000000000E+00  0.00000000000E+00 -0.48901224476E+03  0.48901224478E+03  0.50400001928E-02 0. -1.
    10030    2    1    2    0    0  0.00000000000E+00  0.00000000000E+00 -0.36161750267E+03  0.61640698697E+03  0.49918969875E+03 0.  0.
        3    1    3    3  502    0  0.13141698610E+03  0.70275950118E+02 -0.42804465803E+03  0.45324537821E+03  0.10100000352E+00 0. -1.
       -3    1    3    3    0  502 -0.13141698610E+03 -0.70275950118E+02  0.66427155360E+02  0.16316160875E+03  0.10100000352E+00 0.  1.
</event>
<event>
 5   0  0.1683148E-01  0.4793729E+03  0.7818609E-02  0.1019308E+00
        2   -1    0    0  501    0  0.00000000000E+00  0.00000000000E+00  0.89727344734E+03  0.89727344734E+03  0.25500000920E-02 0. -1.
       -2   -1    0    0    0  501  0.00000000000E+00  0.00000000000E+00 -0.64026853539E+02  0.64026853590E+02  0.25500000920E-02 0.  1.
    10030    2    1    2    0    0  0.00000000000E+00  0.00000000000E+00  0.83324659380E+03  0.96130030093E+03  0.47937290547E+03 0.  0.
        2    1    3    3  502    0  0.78928797757E+02 -0.41628587690E+02  0.86272175728E+03  0.86732434817E+03  0.25500000920E-02 0. -1.
       -2    1    3    3    0  502 -0.78928797757E+02  0.41628587690E+02 -0.29475163486E+02  0.93975952762E+02  0.25500000920E-02 0.  1.
</event>
<event>
 5   0  0.1683148E-01  0.4943102E+03  0.7818609E-02  0.1015275E+00
       -2   -1    0    0    0  501  0.00000000000E+00  0.00000000000E+00  0.12696841284E+03  0.12696841287E+03  0.25500000920E-02 0.  1.
        2   -1    0    0  501    0  0.00000000000E+00  0.00000000000E+00 -0.48110905661E+03  0.48110905661E+03  0.25500000920E-02 0. -1.
    10030    2    1    2    0    0  0.00000000000E+00  0.00000000000E+00 -0.35414064377E+03  0.60807746948E+03  0.49431023995E+03 0.  0.
        2    1    3    3  502    0 -0.22567978096E+03  0.99473983532E+02 -0.19687603736E+03  0.31557346375E+03  0.25500000920E-02 0.  1.
       -2    1    3    3    0  502  0.22567978096E+03 -0.99473983532E+02 -0.15726460641E+03  0.29250400573E+03  0.25500000920E-02 0. -1.
</event>
<event>
 5   0  0.7220250E-02  0.5034945E+03  0.7818609E-02  0.1012871E+00
        3   -1    0    0  501    0  0.00000000000E+00  0.00000000000E+00  0.18088410604E+03  0.18088413424E+03  0.10100000352E+00 0.  1.
       -3   -1    0    0    0  501  0.00000000000E+00  0.00000000000E+00 -0.35037173929E+03  0.35037175384E+03  0.10100000352E+00 0. -1.
    10030    2    1    2    0    0  0.00000000000E+00  0.00000000000E+00 -0.16948763324E+03  0.53125588808E+03  0.50349454893E+03 0.  0.
        1    1    3    3  502    0 -0.14395981527E+03 -0.15575505780E+03 -0.22784091471E+03  0.31128049872E+03  0.50400001928E-02 0. -1.
       -1    1    3    3    0  502  0.14395981527E+03  0.15575505780E+03  0.58353281470E+02  0.21997538936E+03  0.50400001928E-02 0.  1.
</event>
<event>
 5   0  0.1709372E-01  0.4996273E+03  0.7818609E-02  0.1013876E+00
        2   -1    0    0  501    0  0.00000000000E+00  0.00000000000E+00  0.11027152465E+04  0.11027152465E+04  0.25500000920E-02 0. -1.
       -2   -1    0    0    0  501  0.00000000000E+00  0.00000000000E+00 -0.56593806559E+02  0.56593806617E+02  0.25500000920E-02 0.  1.
    10030    2    1    2    0    0  0.00000000000E+00  0.00000000000E+00  0.10461214400E+04  0.11593090531E+04  0.49962727462E+03 0.  0.
        4    1    3    3  502    0  0.16955046959E+03 -0.95854873026E+02  0.16009333117E+03  0.25212498092E+03  0.12699999809E+01 0.  1.
       -4    1    3    3    0  502 -0.16955046959E+03  0.95854873026E+02  0.88602810880E+03  0.90718407222E+03  0.12699999809E+01 0. -1.
</event>
<event>
 5   0  0.7220250E-02  0.5516213E+03  0.7818609E-02  0.1001119E+00
       -3   -1    0    0    0  501  0.00000000000E+00  0.00000000000E+00  0.46485160084E+03  0.46485161181E+03  0.10100000352E+00 0.  1.
        3   -1    0    0  501    0  0.00000000000E+00  0.00000000000E+00 -0.16364683167E+03  0.16364686283E+03  0.10100000352E+00 0. -1.
    10030    2    1    2    0    0  0.00000000000E+00  0.00000000000E+00  0.30120476917E+03  0.62849847464E+03  0.55162126469E+03 0.  0.
        1    1    3    3  502    0 -0.93079164582E+02  0.24849714487E+03  0.64907651619E+02  0.27318046261E+03  0.50400001928E-02 0.  1.
       -1    1    3    3    0  502  0.93079164582E+02 -0.24849714487E+03  0.23629711755E+03  0.35531801203E+03  0.50400001928E-02 0. -1.
</event>
<event>
 5   0  0.1123271E-01  0.5020436E+03  0.7818609E-02  0.1013247E+00
       -1   -1    0    0    0  501  0.00000000000E+00  0.00000000000E+00  0.69298957038E+02  0.69298957221E+02  0.50400001928E-02 0. -1.
        1   -1    0    0  501    0  0.00000000000E+00  0.00000000000E+00 -0.90927679497E+03  0.90927679498E+03  0.50400001928E-02 0.  1.
    10030    2    1    2    0    0  0.00000000000E+00  0.00000000000E+00 -0.83997783793E+03  0.97857575220E+03  0.50204355845E+03 0.  0.
        5    1    3    3  502    0 -0.12931484400E+03  0.44124194334E+02 -0.96377065442E+01  0.13705564122E+03  0.46999998093E+01 0. -1.
       -5    1    3    3    0  502  0.12931484400E+03 -0.44124194334E+02 -0.83034013138E+03  0.84152011098E+03  0.46999998093E+01 0.  1.
</event>
<event>
 5   0  0.1147245E-01  0.5062028E+03  0.7818609E-02  0.1012172E+00
       -1   -1    0    0    0  501  0.00000000000E+00  0.00000000000E+00  0.88661277836E+02  0.88661277979E+02  0.50400001928E-02 0. -1.
        1   -1    0    0  501    0  0.00000000000E+00  0.00000000000E+00 -0.72252882997E+03  0.72252882999E+03  0.50400001928E-02 0.  1.
    10030    2    1    2    0    0  0.00000000000E+00  0.00000000000E+00 -0.63386755214E+03  0.81119010797E+03  0.50620284236E+03 0.  0.
        1    1    3    3  502    0  0.12706323883E+02  0.13949788130E+03  0.20883051795E+02  0.14162348475E+03  0.50400001928E-02 0. -1.
       -1    1    3    3    0  502 -0.12706323883E+02 -0.13949788130E+03 -0.65475060393E+03  0.66956662322E+03  0.50400001928E-02 0.  1.
</event>
<event>
 5   0  0.1068522E-01  0.5003893E+03  0.7818609E-02  0.1013677E+00
        1   -1    0    0  501    0  0.00000000000E+00  0.00000000000E+00  0.14434689306E+04  0.14434689306E+04  0.50400001928E-02 0. -1.
       -1   -1    0    0    0  501  0.00000000000E+00  0.00000000000E+00 -0.43365924222E+02  0.43365924515E+02  0.50400001928E-02 0.  1.
    10030    2    1    2    0    0  0.00000000000E+00  0.00000000000E+00  0.14001030064E+04  0.14868348551E+04  0.50038930639E+03 0.  0.
        2    1    3    3  502    0  0.21108774560E+02  0.73514209638E+01  0.14404961768E+04  0.14406695871E+04  0.25500000920E-02 0. -1.
       -2    1    3    3    0  502 -0.21108774560E+02 -0.73514209638E+01 -0.40393170403E+02  0.46165268063E+02  0.25500000920E-02 0.  1.
</event>
<event>
 5   0  0.1760649E-01  0.4617840E+03  0.7818609E-02  0.1024265E+00
        2   -1    0    0  501    0  0.00000000000E+00  0.00000000000E+00  0.17986135713E+04  0.17986135713E+04  0.25500000920E-02 0. -1.
       -2   -1    0    0    0  501  0.00000000000E+00  0.00000000000E+00 -0.29640112274E+02  0.29640112383E+02  0.25500000920E-02 0.  1.
    10030    2    1    2    0    0  0.00000000000E+00  0.00000000000E+00  0.17689734591E+04  0.18282536837E+04  0.46178396808E+03 0.  0.
        5    1    3    3  502    0  0.11953923529E+03  0.14283739357E+02  0.10467902249E+03  0.15960401540E+03  0.46999998093E+01 0.  1.
       -5    1    3    3    0  502 -0.11953923529E+03 -0.14283739357E+02  0.16642944366E+04  0.16686496683E+04  0.46999998093E+01 0. -1.
</event>
<event>
 5   0  0.1141970E-01  0.4956944E+03  0.7818609E-02  0.1014909E+00
       -1   -1    0    0    0  501  0.00000000000E+00  0.00000000000E+00  0.20727810842E+03  0.20727810848E+03  0.50400001928E-02 0. -1.
        1   -1    0    0  501    0  0.00000000000E+00  0.00000000000E+00 -0.29635660684E+03  0.29635660688E+03  0.50400001928E-02 0.  1.
    10030    2    1    2    0    0  0.00000000000E+00  0.00000000000E+00 -0.89078498422E+02  0.50363471537E+03  0.49569440953E+03 0.  0.
        3    1    3    3  502    0 -0.71889598110E+02  0.98849487905E+02 -0.26360588105E+03  0.29056394529E+03  0.10100000352E+00 0.  1.
       -3    1    3    3    0  502  0.71889598110E+02 -0.98849487905E+02  0.17452738263E+03  0.21307077008E+03  0.10100000352E+00 0. -1.
</event>
<event>
 5   0  0.1068522E-01  0.4982848E+03  0.7818609E-02  0.1014228E+00
        1   -1    0    0  501    0  0.00000000000E+00  0.00000000000E+00  0.29562566906E+03  0.29562566910E+03  0.50400001928E-02 0.  1.
       -1   -1    0    0    0  501  0.00000000000E+00  0.00000000000E+00 -0.20996804434E+03  0.20996804440E+03  0.50400001928E-02 0. -1.
    10030    2    1    2    0    0  0.00000000000E+00  0.00000000000E+00  0.85657624714E+02  0.50559371350E+03  0.49828483266E+03 0.  0.
        2    1    3    3  502    0  0.11116753001E+03 -0.50796697896E+02 -0.17745798613E+03  0.21547589446E+03  0.25500000920E-02 0. -1.
       -2    1    3    3    0  502 -0.11116753001E+03  0.50796697896E+02  0.26311561085E+03  0.29011781904E+03  0.25500000920E-02 0.  1.
</event>
<event>
 5   0  0.1782124E-01  0.5055570E+03  0.7818609E-02  0.1012339E+00
       -2   -1    0    0    0  501  0.00000000000E+00  0.00000000000E+00  0.72849507053E+02  0.72849507098E+02  0.25500000920E-02 0.  1.
        2   -1    0    0  501    0  0.00000000000E+00  0.00000000000E+00 -0.87710928651E+03  0.87710928651E+03  0.25500000920E-02 0. -1.
    10030    2    1    2    0    0  0.00000000000E+00  0.00000000000E+00 -0.80425977945E+03  0.94995879361E+03  0.50555703606E+03 0.  0.
        3    1    3    3  502    0 -0.10388119736E+03 -0.10964308253E+03 -0.78299508487E+03  0.79742975982E+03  0.10100000352E+00 0. -1.
       -3    1    3    3    0  502  0.10388119736E+03  0.10964308253E+03 -0.21264694585E+02  0.15252903379E+03  0.10100000352E+00 0.  1.
</event>
<event>
 5   0  0.1141970E-01  0.4996195E+03  0.7818609E-02  0.1013878E+00
        1   -1    0    0  501    0  0.00000000000E+00  0.00000000000E+00  0.20641790352E+03  0.20641790358E+03  0.50400001928E-02 0. -1.
       -1   -1    0    0    0  501  0.00000000000E+00  0.00000000000E+00 -0.30232319537E+03  0.30232319541E+03  0.50400001928E-02 0.  1.
    10030    2    1    2    0    0  0.00000000000E+00  0.00000000000E+00 -0.95905291849E+02  0.50874109900E+03  0.49961953605E+03 0.  0.
        3    1    3    3  502    0 -0.13758184055E+03  0.72061147269E+02  0.15128083008E+03  0.21681206504E+03  0.10100000352E+00 0. -1.
       -3    1    3    3    0  502  0.13758184055E+03 -0.72061147269E+02 -0.24718612193E+03  0.29192903396E+03  0.10100000352E+00 0.  1.
</event>
<event>
 5   0  0.1141970E-01  0.4963644E+03  0.7818609E-02  0.1014732E+00
        1   -1    0    0  501    0  0.00000000000E+00  0.00000000000E+00  0.10780075030E+04  0.10780075030E+04  0.50400001928E-02 0. -1.
       -1   -1    0    0    0  501  0.00000000000E+00  0.00000000000E+00 -0.57137264641E+02  0.57137264864E+02  0.50400001928E-02 0.  1.
    10030    2    1    2    0    0  0.00000000000E+00  0.00000000000E+00  0.10208702383E+04  0.11351447679E+04  0.49636438275E+03 0.  0.
        3    1    3    3  502    0 -0.23709460281E+03  0.73331595358E+02  0.51440696160E+03  0.57114438271E+03  0.10100000352E+00 0. -1.
       -3    1    3    3    0  502  0.23709460281E+03 -0.73331595358E+02  0.50646327674E+03  0.56400038515E+03  0.10100000352E+00 0.  1.
</event>
<event>
 5   0  0.1147245E-01  0.4900790E+03  0.7818609E-02  0.1016401E+00
        1   -1    0    0  501    0  0.00000000000E+00  0.00000000000E+00  0.18689747538E+03  0.18689747545E+03  0.50400001928E-02 0.  1.
       -1   -1    0    0    0  501  0.00000000000E+00  0.00000000000E+00 -0.32126896228E+03  0.32126896232E+03  0.50400001928E-02 0. -1.
    10030    2    1    2    0    0  0.00000000000E+00  0.00000000000E+00 -0.13437148690E+03  0.50816643776E+03  0.49007900585E+03 0.  0.
        1    1    3    3  502    0  0.97251900273E+02 -0.22295887382E+03 -0.36500185020E+02  0.24596921566E+03  0.50400001928E-02 0.  1.
       -1    1    3    3    0  502 -0.97251900273E+02  0.22295887382E+03 -0.97871301880E+02  0.26219722210E+03  0.50400001928E-02 0. -1.
</event>
<event>
 5   0  0.1760649E-01  0.4445927E+03  0.7818609E-02  0.1029347E+00
        2   -1    0    0  501    0  0.00000000000E+00  0.00000000000E+00  0.17224026667E+04  0.17224026667E+04  0.25500000920E-02 0.  1.
       -2   -1    0    0    0  501  0.00000000000E+00  0.00000000000E+00 -0.28689958720E+02  0.28689958834E+02  0.25500000920E-02 0. -1.
    10030    2    1    2    0    0  0.00000000000E+00  0.00000000000E+00  0.16937127079E+04  0.17510926255E+04  0.44459267429E+03 0.  0.
        5    1    3    3  502    0  0.65462325386E+02 -0.84753353629E+02  0.16138827757E+04  0.16174387625E+04  0.46999998093E+01 0.  1.
       -5    1    3    3    0  502 -0.65462325386E+02  0.84753353629E+02  0.79829932273E+02  0.13365386295E+03  0.46999998093E+01 0. -1.
</event>
<event>
 5   0  0.1068522E-01  0.5065420E+03  0.7818609E-02  0.1012085E+00
       -1   -1    0    0    0  501  0.00000000000E+00  0.00000000000E+00  0.20582885010E+03  0.20582885016E+03  0.50400001928E-02 0. -1.
        1   -1    0    0  501    0  0.00000000000E+00  0.00000000000E+00 -0.31164825916E+03  0.31164825920E+03  0.50400001928E-02 0.  1.
    10030    2    1    2    0    0  0.00000000000E+00  0.00000000000E+00 -0.10581940906E+03  0.51747710936E+03  0.50654201344E+03 0.  0.
        2    1    3    3  502    0 -0.24444938388E+03 -0.55308432801E+02 -0.90189662772E+02  0.26636197044E+03  0.25500000920E-02 0. -1.
       -2    1    3    3    0  502  0.24444938388E+03  0.55308432801E+02 -0.15629746290E+02  0.25111513892E+03  0.25500000920E-02 0.  1.
</event>
<event>
 5   0  0.1068522E-01  0.4981693E+03  0.7818609E-02  0.1014258E+00
        1   -1    0    0  501    0  0.00000000000E+00  0.00000000000E+00  0.13151222989E+03  0.13151222999E+03  0.50400001928E-02 0.  1.
       -1   -1    0    0    0  501  0.00000000000E+00  0.00000000000E+00 -0.47176718923E+03  0.47176718926E+03  0.50400001928E-02 0. -1.
    10030    2    1    2    0    0  0.00000000000E+00  0.00000000000E+00 -0.34025495934E+03  0.60327941925E+03  0.49816926876E+03 0.  0.
        2    1    3    3  502    0 -0.35680903133E+02  0.18763127468E+03  0.23497109076E+02  0.19243371905E+03  0.25500000920E-02 0.  1.
       -2    1    3    3    0  502  0.35680903133E+02 -0.18763127468E+03 -0.36375206842E+03  0.41084570020E+03  0.25500000920E-02 0. -1.
</event>
<event>
 5   0  0.1782124E-01  0.4598687E+03  0.7818609E-02  0.1024819E+00
        2   -1    0    0  501    0  0.00000000000E+00  0.00000000000E+00  0.55712304849E+03  0.55712304850E+03  0.25500000920E-02 0. -1.
       -2   -1    0    0    0  501  0.00000000000E+00  0.00000000000E+00 -0.94897901399E+02  0.94897901433E+02  0.25500000920E-02 0.  1.
    10030    2    1    2    0    0  0.00000000000E+00  0.00000000000E+00  0.46222514709E+03  0.65202094993E+03  0.45986871229E+03 0.  0.
        3    1    3    3  502    0 -0.18636036717E+03 -0.84370070791E+02  0.37996096691E+03  0.43153081219E+03  0.10100000352E+00 0. -1.
       -3    1    3    3    0  502  0.18636036717E+03  0.84370070791E+02  0.82264180189E+02  0.22049013774E+03  0.10100000352E+00 0.  1.
</event>
<event>
 5   0  0.1709372E-01  0.4797119E+03  0.7818609E-02  0.1019214E+00
        2   -1    0    0  501    0  0.00000000000E+00  0.00000000000E+00  0.15994712829E+04  0.15994712829E+04  0.25500000920E-02 0. -1.
       -2   -1    0    0    0  501  0.00000000000E+00  0.00000000000E+00 -0.35968685064E+02  0.35968685154E+02  0.25500000920E-02 0.  1.
    10030    2    1    2    0    0  0.00000000000E+00  0.00000000000E+00  0.15635025979E+04  0.16354399681E+04  0.47971190905E+03 0.  0.
        4    1    3    3  502    0  0.70712825610E+02 -0.19980808160E+03  0.11645209245E+04  0.11836528924E+04  0.12699999809E+01 0. -1.
       -4    1    3    3    0  502 -0.70712825610E+02  0.19980808160E+03  0.39898167334E+03  0.45178707567E+03  0.12699999809E+01 0.  1.
</event>
<event>
 5   0  0.1709372E-01  0.5245193E+03  0.7818609E-02  0.1007570E+00
        2   -1    0    0  501    0  0.00000000000E+00  0.00000000000E+00  0.81271346133E+03  0.81271346133E+03  0.25500000920E-02 0. -1.
       -2   -1    0    0    0  501  0.00000000000E+00  0.00000000000E+00 -0.84630223058E+02  0.84630223096E+02  0.25500000920E-02 0.  1.
    10030    2    1    2    0    0  0.00000000000E+00  0.00000000000E+00  0.72808323827E+03  0.89734368443E+03  0.52451929052E+03 0.  0.
        4    1    3    3  502    0  0.24135347791E+03 -0.60693976982E+02  0.50556509961E+03  0.56350061489E+03  0.12699999809E+01 0. -1.
       -4    1    3    3    0  502 -0.24135347791E+03  0.60693976982E+02  0.22251813866E+03  0.33384306953E+03  0.12699999809E+01 0.  1.
</event>
<event>
 5   0  0.1123271E-01  0.5042670E+03  0.7818609E-02  0.1012671E+00
        1   -1    0    0  501    0  0.00000000000E+00  0.00000000000E+00  0.91566505449E+02  0.91566505588E+02  0.50400001928E-02 0. -1.
       -1   -1    0    0    0  501  0.00000000000E+00  0.00000000000E+00 -0.69426382843E+03  0.69426382845E+03  0.50400001928E-02 0.  1.
    10030    2    1    2    0    0  0.00000000000E+00  0.00000000000E+00 -0.60269732298E+03  0.78583033404E+03  0.50426704311E+03 0.  0.
        5    1    3    3  502    0  0.13432977832E+02 -0.66728767816E+02  0.76906630206E+02  0.10280998549E+03  0.46999998093E+01 0. -1.
       -5    1    3    3    0  502 -0.13432977832E+02  0.66728767816E+02 -0.67960395319E+03  0.68302034855E+03  0.46999998093E+01 0.  1.
</event>
<event>
 5   0  0.1141970E-01  0.4597025E+03  0.7818609E-02  0.1024868E+00
        1   -1    0    0  501    0  0.00000000000E+00  0.00000000000E+00  0.83530629822E+03  0.83530629823E+03  0.50400001928E-02 0.  1.
       -1   -1    0    0    0  501  0.00000000000E+00  0.00000000000E+00 -0.63248168172E+02  0.63248168372E+02  0.50400001928E-02 0. -1.
    10030    2    1    2    0    0  0.00000000000E+00  0.00000000000E+00  0.77205813005E+03  0.89855446661E+03  0.45970248345E+03 0.  0.
        3    1    3    3  502    0  0.17985569064E+03  0.11745711106E+03  0.22618582166E+03  0.31193633728E+03  0.10100000352E+00 0. -1.
       -3    1    3    3    0  502 -0.17985569064E+03 -0.11745711106E+03  0.54587230838E+03  0.58661812933E+03  0.10100000352E+00 0.  1.
</event>
<event>
 5   0  0.1709372E-01  0.5123506E+03  0.7818609E-02  0.1010605E+00
       -2   -1    0    0    0  501  0.00000000000E+00  0.00000000000E+00  0.47695123274E+02  0.47695123342E+02  0.25500000920E-02 0.  1.
        2   -1    0    0  501    0  0.00000000000E+00  0.00000000000E+00 -0.13759431943E+04  0.13759431943E+04  0.25500000920E-02 0. -1.
    10030    2    1    2    0    0  0.00000000000E+00  0.00000000000E+00 -0.13282480710E+04  0.14236383176E+04  0.51235058435E+03 0.  0.
        4    1    3    3  502    0  0.14118099832E+03  0.20751007022E+03 -0.52158046160E+03  0.57882665311E+03  0.12699999809E+01 0.  1.
       -4    1    3    3    0  502 -0.14118099832E+03 -0.20751007022E+03 -0.80666760943E+03  0.84481166453E+03  0.12699999809E+01 0. -1.
</event>
<event>
 5   0  0.7220250E-02  0.5067668E+03  0.7818609E-02  0.1012028E+00
        3   -1    0    0  501    0  0.00000000000E+00  0.00000000000E+00  0.53055875033E+02  0.53055971167E+02  0.10100000352E+00 0.  1.
       -3   -1    0    0    0  501  0.00000000000E+00  0.00000000000E+00 -0.12101031840E+04  0.12101031882E+04  0.10100000352E+00 0. -1.
    10030    2    1    2    0    0  0.00000000000E+00  0.00000000000E+00 -0.11570473090E+04  0.12631591594E+04  0.50676679720E+03 0.  0.
        1    1    3    3  502    0  0.80634673060E+02 -0.15133690259E+03 -0.10434981956E+04  0.10574938736E+04  0.50400001928E-02 0. -1.
       -1    1    3    3    0  502 -0.80634673060E+02  0.15133690259E+03 -0.11354911340E+03  0.20566528575E+03  0.50400001928E-02 0.  1.
</event>
<event>
 5   0  0.1760649E-01  0.4992521E+03  0.7818609E-02  0.1013974E+00
        2   -1    0    0  501    0  0.00000000000E+00  0.00000000000E+00  0.10306774727E+04  0.10306774727E+04  0.25500000920E-02 0.  1.
       -2   -1    0    0    0  501  0.00000000000E+00  0.00000000000E+00 -0.60458454833E+02  0.60458454887E+02  0.25500000920E-02 0. -1.
    10030    2    1    2    0    0  0.00000000000E+00  0.00000000000E+00  0.97021901789E+03  0.10911359276E+04  0.49925211052E+03 0.  0.
        5    1    3    3  502    0  0.47655975975E+01  0.21284979401E+03  0.20045732246E+03  0.29246020901E+03  0.46999998093E+01 0. -1.
       -5    1    3    3    0  502 -0.47655975975E+01 -0.21284979401E+03  0.76976169543E+03  0.79867571860E+03  0.46999998093E+01 0.  1.
</event>
<event>
 5   0  0.1123271E-01  0.4944744E+03  0.7818609E-02  0.1015231E+00
        1   -1    0    0  501    0  0.00000000000E+00  0.00000000000E+00  0.62513140748E+03  0.62513140750E+03  0.50400001928E-02 0. -1.
       -1   -1    0    0    0  501  0.00000000000E+00  0.00000000000E+00 -0.97781419032E+02  0.97781419162E+02  0.50400001928E-02 0.  1.
    10030    2    1    2    0    0  0.00000000000E+00  0.00000000000E+00  0.52734998845E+03  0.72291282666E+03  0.49447441252E+03 0.  0.
        5    1    3    3  502    0 -0.19272237131E+03  0.15410612241E+03  0.24231119612E+03  0.34587196350E+03  0.46999998093E+01 0. -1.
       -5    1    3    3    0  502  0.19272237131E+03 -0.15410612241E+03  0.28503879232E+03  0.37704086317E+03  0.46999998093E+01 0.  1.
</event>
<event>
 5   0  0.1147245E-01  0.4902532E+03  0.7818609E-02  0.1016355E+00
       -1   -1    0    0    0  501  0.00000000000E+00  0.00000000000E+00  0.22485787754E+03  0.22485787760E+03  0.50400001928E-02 0.  1.
        1   -1    0    0  501    0  0.00000000000E+00  0.00000000000E+00 -0.26722230493E+03  0.26722230497E+03  0.50400001928E-02 0. -1.
    10030    2    1    2    0    0  0.00000000000E+00  0.00000000000E+00 -0.42364427386E+02  0.49208018257E+03  0.49025316049E+03 0.  0.
        1    1    3    3  502    0 -0.96557795696E+02 -0.11621550050E+03 -0.21492380022E+03  0.26271979444E+03  0.50400001928E-02 0. -1.
       -1    1    3    3    0  502  0.96557795696E+02  0.11621550050E+03  0.17255937283E+03  0.22936038813E+03  0.50400001928E-02 0.  1.
</event>
<event>
 5   0  0.1683148E-01  0.5011885E+03  0.7818609E-02  0.1013469E+00
       -2   -1    0    0    0  501  0.00000000000E+00  0.00000000000E+00  0.15804995177E+03  0.15804995179E+03  0.25500000920E-02 0.  1.
        2   -1    0    0  501    0  0.00000000000E+00  0.00000000000E+00 -0.39732685518E+03  0.39732685519E+03  0.25500000920E-02 0. -1.
    10030    2    1    2    0    0  0.00000000000E+00  0.00000000000E+00 -0.23927690341E+03  0.55537680698E+03  0.50118854858E+03 0.  0.
        2    1    3    3  502    0 -0.23991445157E+03  0.18981509328E+01 -0.39462783370E+02  0.24314575532E+03  0.25500000920E-02 0.  1.
       -2    1    3    3    0  502  0.23991445157E+03 -0.18981509328E+01 -0.19981412004E+03  0.31223105167E+03  0.25500000920E-02 0. -1.
</event>
<event>
 5   0  0.1760649E-01  0.4419780E+03  0.7818609E-02  0.1030142E+00
       -2   -1    0    0    0  501  0.00000000000E+00  0.00000000000E+00  0.23847836959E+02  0.23847837095E+02  0.25500000920E-02 0.  1.
        2   -1    0    0  501    0  0.00000000000E+00  0.00000000000E+00 -0.20478223412E+04  0.20478223412E+04  0.25500000920E-02 0. -1.
    10030    2    1    2    0    0  0.00000000000E+00  0.00000000000E+00 -0.20239745042E+04  0.20716701783E+04  0.44197797889E+03 0.  0.
        5    1    3    3  502    0  0.61797243749E+02  0.20907761140E+03 -0.84417928060E+03  0.87189052909E+03  0.46999998093E+01 0.  1.
       -5    1    3    3    0  502 -0.61797243749E+02 -0.20907761140E+03 -0.11797952236E+04  0.11997796492E+04  0.46999998093E+01 0. -1.
</event>
<event>
 5   0  0.1827698E-01  0.4900683E+03  0.7818609E-02  0.1016404E+00
        2   -1    0    0  501    0  0.00000000000E+00  0.00000000000E+00  0.80521778110E+03  0.80521778110E+03  0.25500000920E-02 0. -1.
       -2   -1    0    0    0  501  0.00000000000E+00  0.00000000000E+00 -0.74565830243E+02  0.74565830287E+02  0.25500000920E-02 0.  1.
    10030    2    1    2    0    0  0.00000000000E+00  0.00000000000E+00  0.73065195085E+03  0.87978361139E+03  0.49006829073E+03 0.  0.
        1    1    3    3  502    0 -0.22145918519E+03  0.19574285659E+02  0.55028144285E+03  0.59349556842E+03  0.50400001928E-02 0. -1.
       -1    1    3    3    0  502  0.22145918519E+03 -0.19574285659E+02  0.18037050800E+03  0.28628804297E+03  0.50400001928E-02 0.  1.
</event>
<event>
 5   0  0.1709372E-01  0.5104840E+03  0.7818609E-02  0.1011078E+00
        2   -1    0    0  501    0  0.00000000000E+00  0.00000000000E+00  0.19765055244E+03  0.19765055246E+03  0.25500000920E-02 0.  1.
       -2   -1    0    0    0  501  0.00000000000E+00  0.00000000000E+00 -0.32961447879E+03  0.32961447880E+03  0.25500000920E-02 0. -1.
    10030    2    1    2    0    0  0.00000000000E+00  0.00000000000E+00 -0.13196392634E+03  0.52726503126E+03  0.51048402064E+03 0.  0.
        4    1    3    3  502    0  0.62156696814E+02 -0.14432939488E+03 -0.27372151380E+03  0.31562558388E+03  0.12699999809E+01 0. -1.
       -4    1    3    3    0  502 -0.62156696814E+02  0.14432939488E+03  0.14175758745E+03  0.21163944738E+03  0.12699999809E+01 0.  1.
</event>
<event>
 5   0  0.1760649E-01  0.4937445E+03  0.7818609E-02  0.1015425E+00
       -2   -1    0    0    0  501  0.00000000000E+00  0.00000000000E+00  0.41684069321E+02  0.41684069399E+02  0.25500000920E-02 0.  1.
        2   -1    0    0  501    0  0.00000000000E+00  0.00000000000E+00 -0.14620909994E+04  0.14620909994E+04  0.25500000920E-02 0. -1.
    10030    2    1    2    0    0  0.00000000000E+00  0.00000000000E+00 -0.14204069301E+04  0.15037750688E+04  0.49374447900E+03 0.  0.
        5    1    3    3  502    0  0.19539154175E+03  0.31821879058E+02 -0.11592007613E+04  0.11759927643E+04  0.46999998093E+01 0. -1.
       -5    1    3    3    0  502 -0.19539154175E+03 -0.31821879058E+02 -0.26120616881E+03  0.32778230458E+03  0.46999998093E+01 0.  1.
</event>
<event>
 5   0  0.1782124E-01  0.5171643E+03  0.7818609E-02  0.1009393E+00
       -2   -1    0    0    0  501  0.00000000000E+00  0.00000000000E+00  0.67086598643E+02  0.67086598692E+02  0.25500000920E-02 0.  1.
        2   -1    0    0  501    0  0.00000000000E+00  0.00000000000E+00 -0.99669260106E+03  0.99669260106E+03  0.25500000920E-02 0. -1.
    10030    2    1    2    0    0  0.00000000000E+00  0.00000000000E+00 -0.92960600242E+03  0.10637791998E+04  0.51716425447E+03 0.  0.
        3    1    3    3  502    0 -0.18185256069E+03  0.88663029149E+01 -0.84249636159E+03  0.86194494874E+03  0.10100000352E+00 0. -1.
       -3    1    3    3    0  502  0.18185256069E+03 -0.88663029149E+01 -0.87109640825E+02  0.20183425102E+03  0.10100000352E+00 0.  1.
</event>
<event>
 5   0  0.1068522E-01  0.4904841E+03  0.7818609E-02  0.1016293E+00
       -1   -1    0    0    0  501  0.00000000000E+00  0.00000000000E+00  0.66649030499E+02  0.66649030690E+02  0.50400001928E-02 0.  1.
        1   -1    0    0  501    0  0.00000000000E+00  0.00000000000E+00 -0.90239358061E+03  0.90239358063E+03  0.50400001928E-02 0. -1.
    10030    2    1    2    0    0  0.00000000000E+00  0.00000000000E+00 -0.83574455011E+03  0.96904261132E+03  0.49048407671E+03 0.  0.
        2    1    3    3  502    0  0.12904006685E+03 -0.19586119710E+03 -0.55938864999E+03  0.60657119048E+03  0.25500000920E-02 0.  1.
       -2    1    3    3    0  502 -0.12904006685E+03  0.19586119710E+03 -0.27635590013E+03  0.36247142083E+03  0.25500000920E-02 0. -1.
</event>
<event>
 5   0  0.1760649E-01  0.5006703E+03  0.7818609E-02  0.1013604E+00
       -2   -1    0    0    0  501  0.00000000000E+00  0.00000000000E+00  0.17591776705E+03  0.17591776706E+03  0.25500000920E-02 0. -1.
        2   -1    0    0  501    0  0.00000000000E+00  0.00000000000E+00 -0.35623289037E+03  0.35623289038E+03  0.25500000920E-02 0.  1.
    10030    2    1    2    0    0  0.00000000000E+00  0.00000000000E+00 -0.18031512333E+03  0.53215065745E+03  0.50067032918E+03 0.  0.
        5    1    3    3  502    0 -0.16387916954E+03 -0.15953640781E+03 -0.19822317077E+03  0.30269252230E+03  0.46999998093E+01 0. -1.
       -5    1    3    3    0  502  0.16387916954E+03  0.15953640781E+03  0.17908047438E+02  0.22945813515E+03  0.46999998093E+01 0.  1.
</event>
<event>
 5   0  0.1123271E-01  0.5008467E+03  0.7818609E-02  0.1013558E+00
        1   -1    0    0  501    0  0.00000000000E+00  0.00000000000E+00  0.12078010938E+04  0.12078010938E+04  0.50400001928E-02 0.  1.
       -1   -1    0    0    0  501  0.00000000000E+00  0.00000000000E+00 -0.51922327461E+02  0.51922327706E+02  0.50400001928E-02 0. -1.
    10030    2    1    2    0    0  0.00000000000E+00  0.00000000000E+00  0.11558787664E+04  0.12597234215E+04  0.50084665941E+03 0.  0.
        5    1    3    3  502    0 -0.28069755263E+02 -0.59345473038E+02  0.11856576783E+04  0.11874830594E+04  0.46999998093E+01 0.  1.
       -5    1    3    3    0  502  0.28069755263E+02  0.59345473038E+02 -0.29778911899E+02  0.72240362145E+02  0.46999998093E+01 0. -1.
</event>
<event>
 5   0  0.1141970E-01  0.5098608E+03  0.7818609E-02  0.1011237E+00
       -1   -1    0    0    0  501  0.00000000000E+00  0.00000000000E+00  0.10684419505E+04  0.10684419505E+04  0.50400001928E-02 0. -1.
        1   -1    0    0  501    0  0.00000000000E+00  0.00000000000E+00 -0.60826425412E+02  0.60826425621E+02  0.50400001928E-02 0.  1.
    10030    2    1    2    0    0  0.00000000000E+00  0.00000000000E+00  0.10076155251E+04  0.11292683761E+04  0.50986078387E+03 0.  0.
        3    1    3    3  502    0  0.41812935981E+02 -0.16299501252E+03  0.92796170310E+03  0.94309523822E+03  0.10100000352E+00 0. -1.
       -3    1    3    3    0  502 -0.41812935981E+02  0.16299501252E+03  0.79653821968E+02  0.18617313790E+03  0.10100000352E+00 0.  1.
</event>
<event>
 5   0  0.1123271E-01  0.5034128E+03  0.7818609E-02  0.1012892E+00
        1   -1    0    0  501    0  0.00000000000E+00  0.00000000000E+00  0.30428387318E+04  0.30428387318E+04  0.50400001928E-02 0.  1.
       -1   -1    0    0    0  501  0.00000000000E+00  0.00000000000E+00 -0.20821384994E+02  0.20821385604E+02  0.50400001928E-02 0. -1.
    10030    2    1    2    0    0  0.00000000000E+00  0.00000000000E+00  0.30220173468E+04  0.30636601174E+04  0.50341282324E+03 0.  0.
        5    1    3    3  502    0  0.58034663093E+02  0.22804054802E+03  0.96792257923E+03  0.99612585703E+03  0.46999998093E+01 0. -1.
       -5    1    3    3    0  502 -0.58034663093E+02 -0.22804054802E+03  0.20540947675E+04  0.20675342603E+04  0.46999998093E+01 0.  1.
</event>
<event>
 5   0  0.1074281E-01  0.5093314E+03  0.7818609E-02  0.1011372E+00
       -1   -1    0    0    0  501  0.00000000000E+00  0.00000000000E+00  0.36839108733E+03  0.36839108736E+03  0.50400001928E-02 0. -1.
        1   -1    0    0  501    0  0.00000000000E+00  0.00000000000E+00 -0.17604831525E+03  0.17604831532E+03  0.50400001928E-02 0.  1.
    10030    2    1    2    0    0  0.00000000000E+00  0.00000000000E+00  0.19234277208E+03  0.54443940269E+03  0.50933144535E+03 0.  0.
        4    1    3    3  502    0 -0.24532552852E+03  0.46159733309E+02  0.15001914263E+03  0.29124335526E+03  0.12699999809E+01 0.  1.
       -4    1    3    3    0  502  0.24532552852E+03 -0.46159733309E+02  0.42323629444E+02  0.25319604743E+03  0.12699999809E+01 0. -1.
</event>
<event>
 5   0  0.1782124E-01  0.5022044E+03  0.7818609E-02  0.1013205E+00
        2   -1    0    0  501    0  0.00000000000E+00  0.00000000000E+00  0.40130858521E+03  0.40130858522E+03  0.25500000920E-02 0.  1.
       -2   -1    0    0    0  501  0.00000000000E+00  0.00000000000E+00 -0.15711676812E+03  0.15711676814E+03  0.25500000920E-02 0. -1.
    10030    2    1    2    0    0  0.00000000000E+00  0.00000000000E+00  0.24419181710E+03  0.55842535336E+03  0.50220437248E+03 0.  0.
        3    1    3    3  502    0 -0.12010969806E+03 -0.83479820874E+02  0.34904530812E+03  0.37845456449E+03  0.10100000352E+00 0.  1.
       -3    1    3    3    0  502  0.12010969806E+03  0.83479820874E+02 -0.10485349103E+03  0.17997078886E+03  0.10100000352E+00 0. -1.
</event>
<event>
 5   0  0.1760649E-01  0.4951632E+03  0.7818609E-02  0.1015049E+00
       -2   -1    0    0    0  501  0.00000000000E+00  0.00000000000E+00  0.62244782533E+02  0.62244782586E+02  0.25500000920E-02 0. -1.
        2   -1    0    0  501    0  0.00000000000E+00  0.00000000000E+00 -0.98476781829E+03  0.98476781830E+03  0.25500000920E-02 0.  1.
    10030    2    1    2    0    0  0.00000000000E+00  0.00000000000E+00 -0.92252303576E+03  0.10470126009E+04  0.49516324066E+03 0.  0.
        5    1    3    3  502    0 -0.15619023125E+03 -0.28612467486E+01 -0.55242914675E+02  0.16576321876E+03  0.46999998093E+01 0. -1.
       -5    1    3    3    0  502  0.15619023125E+03  0.28612467486E+01 -0.86728012108E+03  0.88124938213E+03  0.46999998093E+01 0.  1.
</event>
<event>
 5   0  0.1074281E-01  0.4959653E+03  0.7818609E-02  0.1014837E+00
       -1   -1    0    0    0  501  0.00000000000E+00  0.00000000000E+00  0.95828551681E+02  0.95828551813E+02  0.50400001928E-02 0. -1.
        1   -1    0    0  501    0  0.00000000000E+00  0.00000000000E+00 -0.64172318535E+03  0.64172318537E+03  0.50400001928E-02 0.  1.
    10030    2    1    2    0    0  0.00000000000E+00  0.00000000000E+00 -0.54589463367E+03  0.73755173718E+03  0.49596533543E+03 0.  0.
        4    1    3    3  502    0 -0.10733278023E+03  0.62572796875E+02 -0.59209685704E+03  0.60499254676E+03  0.12699999809E+01 0.  1.
       -4    1    3    3    0  502  0.10733278023E+03 -0.62572796875E+02  0.46202223369E+02  0.13255919042E+03  0.12699999809E+01 0. -1.
</event>
<event>
 5   0  0.1683148E-01  0.4624451E+03  0.7818609E-02  0.1024074E+00
       -2   -1    0    0    0  501  0.00000000000E+00  0.00000000000E+00  0.16266003746E+03  0.16266003748E+03  0.25500000920E-02 0. -1.
        2   -1    0    0  501    0  0.00000000000E+00  0.00000000000E+00 -0.32868467324E+03  0.32868467325E+03  0.25500000920E-02 0.  1.
    10030    2    1    2    0    0  0.00000000000E+00  0.00000000000E+00 -0.16602463578E+03  0.49134471073E+03  0.46244507250E+03 0.  0.
        2    1    3    3  502    0  0.38872093584E+01  0.22446318628E+03 -0.14183480917E+03  0.26554838634E+03  0.25500000920E-02 0.  1.
       -2    1    3    3    0  502 -0.38872093584E+01 -0.22446318628E+03 -0.24189826615E+02  0.22579632439E+03  0.25500000920E-02 0. -1.
</event>
<event>
 5   0  0.1683148E-01  0.4986369E+03  0.7818609E-02  0.1014135E+00
       -2   -1    0    0    0  501  0.00000000000E+00  0.00000000000E+00  0.71390764498E+03  0.71390764499E+03  0.25500000920E-02 0.  1.
        2   -1    0    0  501    0  0.00000000000E+00  0.00000000000E+00 -0.87069666768E+02  0.87069666805E+02  0.25500000920E-02 0. -1.
    10030    2    1    2    0    0  0.00000000000E+00  0.00000000000E+00  0.62683797822E+03  0.80097731179E+03  0.49863694516E+03 0.  0.
        2    1    3    3  502    0  0.15116491395E+03  0.12934043820E+03  0.72041388144E+02  0.21158861448E+03  0.25500000920E-02 0. -1.
       -2    1    3    3    0  502 -0.15116491395E+03 -0.12934043820E+03  0.55479659007E+03  0.58938869732E+03  0.25500000920E-02 0.  1.
</event>
<event>
 5   0  0.1074281E-01  0.5054105E+03  0.7818609E-02  0.1012376E+00
        1   -1    0    0  501    0  0.00000000000E+00  0.00000000000E+00  0.17510051588E+04  0.17510051589E+04  0.50400001928E-02 0. -1.
       -1   -1    0    0    0  501  0.00000000000E+00  0.00000000000E+00 -0.36470441648E+02  0.36470441996E+02  0.50400001928E-02 0.  1.
    10030    2    1    2    0    0  0.00000000000E+00  0.00000000000E+00  0.17145347172E+04  0.17874756009E+04  0.50541045414E+03 0.  0.
        4    1    3    3  502    0 -0.22673918698E+03  0.53943546552E+02  0.51187004575E+03  0.56243499337E+03  0.12699999809E+01 0.  1.
       -4    1    3    3    0  502  0.22673918698E+03 -0.53943546552E+02  0.12026646715E+04  0.12250406075E+04  0.12699999809E+01 0. -1.
</event>
<event>
 5   0  0.1760649E-01  0.4963682E+03  0.7818609E-02  0.1014731E+00
       -2   -1    0    0    0  501  0.00000000000E+00  0.00000000000E+00  0.10283770246E+03  0.10283770249E+03  0.25500000920E-02 0. -1.
        2   -1    0    0  501    0  0.00000000000E+00  0.00000000000E+00 -0.59895685365E+03  0.59895685365E+03  0.25500000920E-02 0.  1.
    10030    2    1    2    0    0  0.00000000000E+00  0.00000000000E+00 -0.49611915119E+03  0.70179455614E+03  0.49636819686E+03 0.  0.
        5    1    3    3  502    0 -0.14943919209E+03  0.12422040251E+03 -0.29892059173E+02  0.19666826316E+03  0.46999998093E+01 0. -1.
       -5    1    3    3    0  502  0.14943919209E+03 -0.12422040251E+03 -0.46622709202E+03  0.50512629299E+03  0.46999998093E+01 0.  1.
</event>
<event>
 5   0  0.7220250E-02  0.4992646E+03  0.7818609E-02  0.1013971E+00
       -3   -1    0    0    0  501  0.00000000000E+00  0.00000000000E+00  0.19619930331E+03  0.19619932931E+03  0.10100000352E+00 0. -1.
        3   -1    0    0  501    0  0.00000000000E+00  0.00000000000E+00 -0.31761715067E+03  0.31761716673E+03  0.10100000352E+00 0.  1.
    10030    2    1    2    0    0  0.00000000000E+00  0.00000000000E+00 -0.12141784736E+03  0.51381649604E+03  0.49926455707E+03 0.  0.
        1    1    3    3  502    0  0.79460573130E+02 -0.24543637982E+02  0.18152323720E+03  0.19966736969E+03  0.50400001928E-02 0. -1.
       -1    1    3    3    0  502 -0.79460573130E+02  0.24543637982E+02 -0.30294108456E+03  0.31414912635E+03  0.50400001928E-02 0.  1.
</event>
<event>
 5   0  0.1147245E-01  0.5368707E+03  0.7818609E-02  0.1004579E+00
        1   -1    0    0  501    0  0.00000000000E+00  0.00000000000E+00  0.51975815626E+03  0.51975815629E+03  0.50400001928E-02 0.  1.
       -1   -1    0    0    0  501  0.00000000000E+00  0.00000000000E+00 -0.13863668818E+03  0.13863668827E+03  0.50400001928E-02 0. -1.
    10030    2    1    2    0    0  0.00000000000E+00  0.00000000000E+00  0.38112146809E+03  0.65839484456E+03  0.53687074599E+03 0.  0.
        1    1    3    3  502    0 -0.20388601429E+03 -0.15311853868E+03  0.87643526321E+02  0.26962229404E+03  0.50400001928E-02 0. -1.
       -1    1    3    3    0  502  0.20388601429E+03  0.15311853868E+03  0.29347794177E+03  0.38877255052E+03  0.50400001928E-02 0.  1.
</event>
<event>
 5   0  0.1709372E-01  0.4986184E+03  0.7818609E-02  0.1014140E+00
       -2   -1    0    0    0  501  0.00000000000E+00  0.00000000000E+00  0.86290630588E+02  0.86290630626E+02  0.25500000920E-02 0. -1.
        2   -1    0    0  501    0  0.00000000000E+00  0.00000000000E+00 -0.72029927339E+03  0.72029927339E+03  0.25500000920E-02 0.  1.
    10030    2    1    2    0    0  0.00000000000E+00  0.00000000000E+00 -0.63400864280E+03  0.80658990402E+03  0.49861840531E+03 0.  0.
        4    1    3    3  502    0 -0.99796958249E+02  0.13596730384E+03 -0.20012804941E+02  0.16984895010E+03  0.12699999809E+01 0. -1.
       -4    1    3    3    0  502  0.99796958249E+02 -0.13596730384E+03 -0.61399583786E+03  0.63674095392E+03  0.12699999809E+01 0.  1.
</event>
<event>
 5   0  0.1123271E-01  0.5285800E+03  0.7818609E-02  0.1006577E+00
       -1   -1    0    0    0  501  0.00000000000E+00  0.00000000000E+00  0.18208720618E+03  0.18208720625E+03  0.50400001928E-02 0. -1.
        1   -1    0    0  501    0  0.00000000000E+00  0.00000000000E+00 -0.38360295963E+03  0.38360295967E+03  0.50400001928E-02 0.  1.
    10030    2    1    2    0    0  0.00000000000E+00  0.00000000000E+00 -0.20151575345E+03  0.56569016592E+03  0.52857995131E+03 0.  0.
        5    1    3    3  502    0 -0.43338291182E+02 -0.12937277574E+03  0.14142979054E+03  0.19657059352E+03  0.46999998093E+01 0. -1.
       -5    1    3    3    0  502  0.43338291182E+02  0.12937277574E+03 -0.34294554399E+03  0.36911957240E+03  0.46999998093E+01 0.  1.
</event>
<event>
 5   0  0.1760649E-01  0.4951729E+03  0.7818609E-02  0.1015047E+00
        2   -1    0    0  501    0  0.00000000000E+00  0.00000000000E+00  0.85853180346E+02  0.85853180384E+02  0.25500000920E-02 0. -1.
       -2   -1    0    0    0  501  0.00000000000E+00  0.00000000000E+00 -0.71399864719E+03  0.71399864719E+03  0.25500000920E-02 0.  1.
    10030    2    1    2    0    0  0.00000000000E+00  0.00000000000E+00 -0.62814546684E+03  0.79985182758E+03  0.49517291784E+03 0.  0.
        5    1    3    3  502    0  0.10121259524E+03 -0.69319790518E+01  0.50658991628E+02  0.11349213718E+03  0.46999998093E+01 0. -1.
       -5    1    3    3    0  502 -0.10121259524E+03  0.69319790518E+01 -0.67880445847E+03  0.68635969040E+03  0.46999998093E+01 0.  1.
</event>
<event>
 5   0  0.7220250E-02  0.5054878E+03  0.7818609E-02  0.1012356E+00
        3   -1    0    0  501    0  0.00000000000E+00  0.00000000000E+00  0.10425790652E+04  0.10425790701E+04  0.10100000352E+00 0.  1.
       -3   -1    0    0    0  501  0.00000000000E+00  0.00000000000E+00 -0.61270593975E+02  0.61270677220E+02  0.10100000352E+00 0. -1.
    10030    2    1    2    0    0  0.00000000000E+00  0.00000000000E+00  0.98130847125E+03  0.11038497473E+04  0.50548783264E+03 0.  0.
        3    1    3    3  502    0  0.57744303725E+02 -0.24547373423E+03  0.45361321499E+03  0.51899587457E+03  0.10100000352E+00 0. -1.
       -3    1    3    3    0  502 -0.57744303725E+02  0.24547373423E+03  0.52769525626E+03  0.58485387277E+03  0.10100000352E+00 0.  1.
</event>
<event>
 5   0  0.1147245E-01  0.5194630E+03  0.7818609E-02  0.1008820E+00
        1   -1    0    0  501    0  0.00000000000E+00  0.00000000000E+00  0.12792626720E+04  0.12792626720E+04  0.50400001928E-02 0.  1.
       -1   -1    0    0    0  501  0.00000000000E+00  0.00000000000E+00 -0.52733848613E+02  0.52733848853E+02  0.50400001928E-02 0. -1.
    10030    2    1    2    0    0  0.00000000000E+00  0.00000000000E+00  0.12265288233E+04  0.13319965208E+04  0.51946296979E+03 0.  0.
        1    1    3    3  502    0  0.18596665079E+03  0.15076315150E+03  0.87156428869E+03  0.90384591187E+03  0.50400001928E-02 0.  1.
       -1    1    3    3    0  502 -0.18596665079E+03 -0.15076315150E+03  0.35496453465E+03  0.42815060894E+03  0.50400001928E-02 0. -1.
</event>
<event>
 5   0  0.1074281E-01  0.4901367E+03  0.7818609E-02  0.1016386E+00
        1   -1    0    0  501    0  0.00000000000E+00  0.00000000000E+00  0.11702578069E+04  0.11702578069E+04  0.50400001928E-02 0.  1.
       -1   -1    0    0    0  501  0.00000000000E+00  0.00000000000E+00 -0.51320733767E+02  0.51320734014E+02  0.50400001928E-02 0. -1.
    10030    2    1    2    0    0  0.00000000000E+00  0.00000000000E+00  0.11189370731E+04  0.12215785409E+04  0.49013667280E+03 0.  0.
        4    1    3    3  502    0 -0.17245771178E+03  0.71298290684E+01  0.99304938000E+03  0.10079390760E+04  0.12699999809E+01 0.  1.
       -4    1    3    3    0  502  0.17245771178E+03 -0.71298290684E+01  0.12588769315E+03  0.21363946499E+03  0.12699999809E+01 0. -1.
</event>
<event>
 5   0  0.1141970E-01  0.5080823E+03  0.7818609E-02  0.1011691E+00
        1   -1    0    0  501    0  0.00000000000E+00  0.00000000000E+00  0.14404606987E+03  0.14404606996E+03  0.50400001928E-02 0.  1.
       -1   -1    0    0    0  501  0.00000000000E+00  0.00000000000E+00 -0.44802965378E+03  0.44802965381E+03  0.50400001928E-02 0. -1.
    10030    2    1    2    0    0  0.00000000000E+00  0.00000000000E+00 -0.30398358391E+03  0.59207572376E+03  0.50808231950E+03 0.  0.
        3    1    3    3  502    0 -0.17616414350E+03  0.10880615008E+03  0.19528565073E+02  0.20797586111E+03  0.10100000352E+00 0.  1.
       -3    1    3    3    0  502  0.17616414350E+03 -0.10880615008E+03 -0.32351214898E+03  0.38409986265E+03  0.10100000352E+00 0. -1.
</event>
<event>
 5   0  0.1709372E-01  0.5055059E+03  0.7818609E-02  0.1012352E+00
       -2   -1    0    0    0  501  0.00000000000E+00  0.00000000000E+00  0.54302215771E+03  0.54302215771E+03  0.25500000920E-02 0. -1.
        2   -1    0    0  501    0  0.00000000000E+00  0.00000000000E+00 -0.11764538627E+03  0.11764538630E+03  0.25500000920E-02 0.  1.
    10030    2    1    2    0    0  0.00000000000E+00  0.00000000000E+00  0.42537677143E+03  0.66066754401E+03  0.50550589120E+03 0.  0.
        4    1    3    3  502    0 -0.23124342674E+03  0.30786241318E+02  0.33981254908E+03  0.41218381394E+03  0.12699999809E+01 0. -1.
       -4    1    3    3    0  502  0.23124342674E+03 -0.30786241318E+02  0.85564222350E+02  0.24848373007E+03  0.12699999809E+01 0.  1.
</event>
<event>
 5   0  0.1827698E-01  0.4983919E+03  0.7818609E-02  0.1014199E+00
       -2   -1    0    0    0  501  0.00000000000E+00  0.00000000000E+00  0.65867407645E+02  0.65867407695E+02  0.25500000920E-02 0. -1.
        2   -1    0    0  501    0  0.00000000000E+00  0.00000000000E+00 -0.94278235966E+03  0.94278235967E+03  0.25500000920E-02 0.  1.
    10030    2    1    2    0    0  0.00000000000E+00  0.00000000000E+00 -0.87691495202E+03  0.10086497674E+04  0.49839193425E+03 0.  0.
        1    1    3    3  502    0  0.21907831041E+01 -0.16810486800E+03 -0.66194532606E+02  0.18068138351E+03  0.50400001928E-02 0. -1.
       -1    1    3    3    0  502 -0.21907831041E+01  0.16810486800E+03 -0.81072041941E+03  0.82796838385E+03  0.50400001928E-02 0.  1.
</event>
<event>
 5   0  0.1760649E-01  0.5130562E+03  0.7818609E-02  0.1010426E+00
        2   -1    0    0  501    0  0.00000000000E+00  0.00000000000E+00  0.16040905537E+04  0.16040905537E+04  0.25500000920E-02 0.  1.
       -2   -1    0    0    0  501  0.00000000000E+00  0.00000000000E+00 -0.41024282163E+02  0.41024282242E+02  0.25500000920E-02 0. -1.
    10030    2    1    2    0    0  0.00000000000E+00  0.00000000000E+00  0.15630662716E+04  0.16451148360E+04  0.51305619013E+03 0.  0.
        5    1    3    3  502    0  0.12006217205E+03 -0.14128016731E+03  0.21325331833E+03  0.28262002513E+03  0.46999998093E+01 0. -1.
       -5    1    3    3    0  502 -0.12006217205E+03  0.14128016731E+03  0.13498129533E+04  0.13624948109E+04  0.46999998093E+01 0.  1.
</event>
<event>
 5   0  0.7220250E-02  0.5056372E+03  0.7818609E-02  0.1012318E+00
        4   -1    0    0  501    0  0.00000000000E+00  0.00000000000E+00  0.36953857540E+03  0.36954075771E+03  0.12699999809E+01 0.  1.
       -4   -1    0    0    0  501  0.00000000000E+00  0.00000000000E+00 -0.17295995520E+03  0.17296461778E+03  0.12699999809E+01 0. -1.
    10030    2    1    2    0    0  0.00000000000E+00  0.00000000000E+00  0.19657862020E+03  0.54250537548E+03  0.50563715104E+03 0.  0.
        3    1    3    3  502    0  0.18676103522E+03  0.12492909918E+02 -0.84047636744E+02  0.20518229095E+03  0.10100000352E+00 0. -1.
       -3    1    3    3    0  502 -0.18676103522E+03 -0.12492909918E+02  0.28062625694E+03  0.33732308454E+03  0.10100000352E+00 0.  1.
</event>
<event>
 5   0  0.7220250E-02  0.5055288E+03  0.7818609E-02  0.1012346E+00
        3   -1    0    0  501    0  0.00000000000E+00  0.00000000000E+00  0.17601859116E+03  0.17601862014E+03  0.10100000352E+00 0.  1.
       -3   -1    0    0    0  501  0.00000000000E+00  0.00000000000E+00 -0.36297210863E+03  0.36297212269E+03  0.10100000352E+00 0. -1.
    10030    2    1    2    0    0  0.00000000000E+00  0.00000000000E+00 -0.18695351747E+03  0.53899074282E+03  0.50552883514E+03 0.  0.
        1    1    3    3  502    0  0.28877063382E+02 -0.21128470436E+03  0.51206461214E+02  0.21931076760E+03  0.50400001928E-02 0.  1.
       -1    1    3    3    0  502 -0.28877063382E+02  0.21128470436E+03 -0.23815997869E+03  0.31967997523E+03  0.50400001928E-02 0. -1.
</event>
<event>
 5   0  0.1123271E-01  0.5228753E+03  0.7818609E-02  0.1007975E+00
       -1   -1    0    0    0  501  0.00000000000E+00  0.00000000000E+00  0.71447556561E+02  0.71447556739E+02  0.50400001928E-02 0.  1.
        1   -1    0    0  501    0  0.00000000000E+00  0.00000000000E+00 -0.95664069079E+03  0.95664069081E+03  0.50400001928E-02 0. -1.
    10030    2    1    2    0    0  0.00000000000E+00  0.00000000000E+00 -0.88519313423E+03  0.10280882475E+04  0.52287528135E+03 0.  0.
        5    1    3    3  502    0  0.14416122210E+03 -0.61194368995E+02 -0.31095438968E+02  0.15973798883E+03  0.46999998093E+01 0.  1.
       -5    1    3    3    0  502 -0.14416122210E+03  0.61194368995E+02 -0.85409769526E+03  0.86835025871E+03  0.46999998093E+01 0. -1.
</event>
<event>
 5   0  0.1709372E-01  0.3906367E+03  0.7818609E-02  0.1047071E+00
        2   -1    0    0  501    0  0.00000000000E+00  0.00000000000E+00  0.13230138333E+04  0.13230138333E+04  0.25500000920E-02 0.  1.
       -2   -1    0    0    0  501  0.00000000000E+00  0.00000000000E+00 -0.28835120495E+02  0.28835120608E+02  0.25500000920E-02 0. -1.
    10030    2    1    2    0    0  0.00000000000E+00  0.00000000000E+00  0.12941787128E+04  0.13518489539E+04  0.39063672831E+03 0.  0.
        4    1    3    3  502    0 -0.99647362499E+02  0.10696650989E+03  0.10953206189E+04  0.11050340729E+04  0.12699999809E+01 0.  1.
       -4    1    3    3    0  502  0.99647362499E+02 -0.10696650989E+03  0.19885809385E+03  0.24681488100E+03  0.12699999809E+01 0. -1.
</event>
<event>
 5   0  0.1141970E-01  0.5068231E+03  0.7818609E-02  0.1012013E+00
       -1   -1    0    0    0  501  0.00000000000E+00  0.00000000000E+00  0.40876823460E+02  0.40876823771E+02  0.50400001928E-02 0.  1.
        1   -1    0    0  501    0  0.00000000000E+00  0.00000000000E+00 -0.15709979206E+04  0.15709979206E+04  0.50400001928E-02 0. -1.
    10030    2    1    2    0    0  0.00000000000E+00  0.00000000000E+00 -0.15301210971E+04  0.16118747444E+04  0.50682306543E+03 0.  0.
        3    1    3    3  502    0  0.81982751608E+02  0.25418456953E+02 -0.67612888689E+01  0.86098749951E+02  0.10100000352E+00 0.  1.
       -3    1    3    3    0  502 -0.81982751608E+02 -0.25418456953E+02 -0.15233598083E+04  0.15257759944E+04  0.10100000352E+00 0. -1.
</event>
<event>
 5   0  0.1709372E-01  0.4926536E+03  0.7818609E-02  0.1015714E+00
        2   -1    0    0  501    0  0.00000000000E+00  0.00000000000E+00  0.39684455794E+03  0.39684455795E+03  0.25500000920E-02 0. -1.
       -2   -1    0    0    0  501  0.00000000000E+00  0.00000000000E+00 -0.15289838560E+03  0.15289838562E+03  0.25500000920E-02 0.  1.
    10030    2    1    2    0    0  0.00000000000E+00  0.00000000000E+00  0.24394617234E+03  0.54974294357E+03  0.49265359940E+03 0.  0.
        4    1    3    3  502    0  0.20025087266E+03  0.47682283869E+02  0.27293193791E+03  0.34185884196E+03  0.12699999809E+01 0. -1.
       -4    1    3    3    0  502 -0.20025087266E+03 -0.47682283869E+02 -0.28985765565E+02  0.20788410161E+03  0.12699999809E+01 0.  1.
</event>
<event>
 5   0  0.1147245E-01  0.4995617E+03  0.7818609E-02  0.1013893E+00
       -1   -1    0    0    0  501  0.00000000000E+00  0.00000000000E+00  0.80909871694E+02  0.80909871851E+02  0.50400001928E-02 0. -1.
        1   -1    0    0  501    0  0.00000000000E+00  0.00000000000E+00 -0.77111088339E+03  0.77111088340E+03  0.50400001928E-02 0.  1.
    10030    2    1    2    0    0  0.00000000000E+00  0.00000000000E+00 -0.69020101169E+03  0.85202075526E+03  0.49956173877E+03 0.  0.
        1    1    3    3  502    0  0.23922994852E+03 -0.70067417918E+02 -0.31812975808E+03  0.40416203969E+03  0.50400001928E-02 0. -1.
       -1    1    3    3    0  502 -0.23922994852E+03  0.70067417918E+02 -0.37207125361E+03  0.44785871557E+03  0.50400001928E-02 0.  1.
</event>
<event>
 5   0  0.1147245E-01  0.4987951E+03  0.7818609E-02  0.1014094E+00
       -1   -1    0    0    0  501  0.00000000000E+00  0.00000000000E+00  0.91897219130E+02  0.91897219268E+02  0.50400001928E-02 0.  1.
        1   -1    0    0  501    0  0.00000000000E+00  0.00000000000E+00 -0.67683375142E+03  0.67683375144E+03  0.50400001928E-02 0. -1.
    10030    2    1    2    0    0  0.00000000000E+00  0.00000000000E+00 -0.58493653229E+03  0.76873097071E+03  0.49879510675E+03 0.  0.
        1    1    3    3  502    0 -0.15255782910E+03 -0.18661961529E+03 -0.19380450950E+03  0.30929106026E+03  0.50400001928E-02 0. -1.
       -1    1    3    3    0  502  0.15255782910E+03  0.18661961529E+03 -0.39113202279E+03  0.45943991045E+03  0.50400001928E-02 0.  1.
</event>
<event>
 5   0  0.1709372E-01  0.5066597E+03  0.7818609E-02  0.1012055E+00
       -2   -1    0    0    0  501  0.00000000000E+00  0.00000000000E+00  0.17090385050E+03  0.17090385052E+03  0.25500000920E-02 0. -1.
        2   -1    0    0  501    0  0.00000000000E+00  0.00000000000E+00 -0.37550948258E+03  0.37550948259E+03  0.25500000920E-02 0.  1.
    10030    2    1    2    0    0  0.00000000000E+00  0.00000000000E+00 -0.20460563208E+03  0.54641333311E+03  0.50665971413E+03 0.  0.
        4    1    3    3  502    0 -0.27831997463E+02 -0.19949559893E+03  0.63378211915E+02  0.21116705406E+03  0.12699999809E+01 0. -1.
       -4    1    3    3    0  502  0.27831997463E+02  0.19949559893E+03 -0.26798384400E+03  0.33524627905E+03  0.12699999809E+01 0.  1.
</event>
<event>
 5   0  0.1827698E-01  0.4998626E+03  0.7818609E-02  0.1013815E+00
        2   -1    0    0  501    0  0.00000000000E+00  0.00000000000E+00  0.83001182008E+03  0.83001182009E+03  0.25500000920E-02 0.  1.
       -2   -1    0    0    0  501  0.00000000000E+00  0.00000000000E+00 -0.75258767961E+02  0.75258768004E+02  0.25500000920E-02 0. -1.
    10030    2    1    2    0    0  0.00000000000E+00  0.00000000000E+00  0.75475305212E+03  0.90527058809E+03  0.49986264911E+03 0.  0.
        1    1    3    3  502    0 -0.16460990930E+03 -0.13018483648E+03  0.13157411994E+03  0.24770196397E+03  0.50400001928E-02 0. -1.
       -1    1    3    3    0  502  0.16460990930E+03  0.13018483648E+03  0.62317893218E+03  0.65756862412E+03  0.50400001928E-02 0.  1.
</event>
<event>
 5   0  0.1683148E-01  0.5072961E+03  0.7818609E-02  0.1011892E+00
        2   -1    0    0  501    0  0.00000000000E+00  0.00000000000E+00  0.11676953761E+04  0.11676953762E+04  0.25500000920E-02 0.  1.
       -2   -1    0    0    0  501  0.00000000000E+00  0.00000000000E+00 -0.55097709774E+02  0.55097709833E+02  0.25500000920E-02 0. -1.
    10030    2    1    2    0    0  0.00000000000E+00  0.00000000000E+00  0.11125976664E+04  0.12227930860E+04  0.50729613039E+03 0.  0.
        2    1    3    3  502    0 -0.16396210896E+03  0.24942787080E+02  0.93702840848E+02  0.19048868258E+03  0.25500000920E-02 0. -1.
       -2    1    3    3    0  502  0.16396210896E+03 -0.24942787080E+02  0.10188948255E+04  0.10323044034E+04  0.25500000920E-02 0.  1.
</event>
<event>
 5   0  0.1709372E-01  0.4993924E+03  0.7818609E-02  0.1013938E+00
        2   -1    0    0  501    0  0.00000000000E+00  0.00000000000E+00  0.74739539991E+03  0.74739539992E+03  0.25500000920E-02 0. -1.
       -2   -1    0    0    0  501  0.00000000000E+00  0.00000000000E+00 -0.83420624697E+02  0.83420624736E+02  0.25500000920E-02 0.  1.
    10030    2    1    2    0    0  0.00000000000E+00  0.00000000000E+00  0.66397477522E+03  0.83081602465E+03  0.49939239551E+03 0.  0.
        4    1    3    3  502    0 -0.19315915744E+03 -0.13480978535E+03  0.19417056972E+03  0.30526703290E+03  0.12699999809E+01 0.  1.
       -4    1    3    3    0  502  0.19315915744E+03  0.13480978535E+03  0.46980420550E+03  0.52554899175E+03  0.12699999809E+01 0. -1.
</event>
<event>
 5   0  0.1147245E-01  0.4997121E+03  0.7818609E-02  0.1013854E+00
       -1   -1    0    0    0  501  0.00000000000E+00  0.00000000000E+00  0.69640458104E+02  0.69640458286E+02  0.50400001928E-02 0.  1.
        1   -1    0    0  501    0  0.00000000000E+00  0.00000000000E+00 -0.89643348001E+03  0.89643348003E+03  0.50400001928E-02 0. -1.
    10030    2    1    2    0    0  0.00000000000E+00  0.00000000000E+00 -0.82679302191E+03  0.96607393831E+03  0.49971207031E+03 0.  0.
        1    1    3    3  502    0 -0.18471510864E+03  0.54454093506E+02 -0.10563057145E+03  0.21964229399E+03  0.50400001928E-02 0.  1.
       -1    1    3    3    0  502  0.18471510864E+03 -0.54454093506E+02 -0.72116245046E+03  0.74643164432E+03  0.50400001928E-02 0. -1.
</event>
<event>
 5   0  0.1141970E-01  0.5002128E+03  0.7818609E-02  0.1013723E+00
       -1   -1    0    0    0  501  0.00000000000E+00  0.00000000000E+00  0.13461752321E+03  0.13461752330E+03  0.50400001928E-02 0.  1.
        1   -1    0    0  501    0  0.00000000000E+00  0.00000000000E+00 -0.46467359205E+03  0.46467359207E+03  0.50400001928E-02 0. -1.
    10030    2    1    2    0    0  0.00000000000E+00  0.00000000000E+00 -0.33005606884E+03  0.59929111538E+03  0.50021278711E+03 0.  0.
        3    1    3    3  502    0 -0.66523440829E+02 -0.24064724436E+03 -0.18266590180E+03  0.30935950976E+03  0.10100000352E+00 0. -1.
       -3    1    3    3    0  502  0.66523440829E+02  0.24064724436E+03 -0.14739016704E+03  0.28993160562E+03  0.10100000352E+00 0.  1.
</event>
<event>
 5   0  0.1683148E-01  0.4544322E+03  0.7818609E-02  0.1026408E+00
        2   -1    0    0  501    0  0.00000000000E+00  0.00000000000E+00  0.63843556131E+03  0.63843556131E+03  0.25500000920E-02 0.  1.
       -2   -1    0    0    0  501  0.00000000000E+00  0.00000000000E+00 -0.80865114697E+02  0.80865114737E+02  0.25500000920E-02 0. -1.
    10030    2    1    2    0    0  0.00000000000E+00  0.00000000000E+00  0.55757044661E+03  0.71930067605E+03  0.45443223877E+03 0.  0.
        2    1    3    3  502    0  0.15761200099E+03 -0.17750044082E+02  0.21258155771E+02  0.16002661065E+03  0.25500000920E-02 0. -1.
       -2    1    3    3    0  502 -0.15761200099E+03  0.17750044082E+02  0.53631229084E+03  0.55927406540E+03  0.25500000920E-02 0.  1.
</event>
<event>
 5   0  0.7220250E-02  0.4946589E+03  0.7818609E-02  0.1015182E+00
       -3   -1    0    0    0  501  0.00000000000E+00  0.00000000000E+00  0.13962127189E+03  0.13962130843E+03  0.10100000352E+00 0.  1.
        3   -1    0    0  501    0  0.00000000000E+00  0.00000000000E+00 -0.43812699128E+03  0.43812700292E+03  0.10100000352E+00 0. -1.
    10030    2    1    2    0    0  0.00000000000E+00  0.00000000000E+00 -0.29850571938E+03  0.57774831134E+03  0.49465891962E+03 0.  0.
        4    1    3    3  502    0  0.24412161589E+03  0.12333015285E+02 -0.19330855383E+03  0.31163644924E+03  0.12699999809E+01 0. -1.
       -4    1    3    3    0  502 -0.24412161589E+03 -0.12333015285E+02 -0.10519716555E+03  0.26611186210E+03  0.12699999809E+01 0.  1.
</event>
<event>
 5   0  0.1068522E-01  0.4985196E+03  0.7818609E-02  0.1014166E+00
        1   -1    0    0  501    0  0.00000000000E+00  0.00000000000E+00  0.17090056230E+04  0.17090056230E+04  0.50400001928E-02 0.  1.
       -1   -1    0    0    0  501  0.00000000000E+00  0.00000000000E+00 -0.36354741208E+02  0.36354741557E+02  0.50400001928E-02 0. -1.
    10030    2    1    2    0    0  0.00000000000E+00  0.00000000000E+00  0.16726508818E+04  0.17453603646E+04  0.49851963836E+03 0.  0.
        2    1    3    3  502    0  0.20386990337E+03  0.10278958278E+03  0.48618490633E+03  0.53712605502E+03  0.25500000920E-02 0. -1.
       -2    1    3    3    0  502 -0.20386990337E+03 -0.10278958278E+03  0.11864659755E+04  0.12082343095E+04  0.25500000920E-02 0.  1.
</event>
<event>
 5   0  0.1068522E-01  0.4995874E+03  0.7818609E-02  0.1013887E+00
       -1   -1    0    0    0  501  0.00000000000E+00  0.00000000000E+00  0.88570149596E+02  0.88570149739E+02  0.50400001928E-02 0. -1.
        1   -1    0    0  501    0  0.00000000000E+00  0.00000000000E+00 -0.70449112917E+03  0.70449112919E+03  0.50400001928E-02 0.  1.
    10030    2    1    2    0    0  0.00000000000E+00  0.00000000000E+00 -0.61592097958E+03  0.79306127893E+03  0.49958736879E+03 0.  0.
        2    1    3    3  502    0 -0.11069832763E+03 -0.16863350001E+03 -0.54183358899E+03  0.57816521448E+03  0.25500000920E-02 0.  1.
       -2    1    3    3    0  502  0.11069832763E+03  0.16863350001E+03 -0.74087390588E+02  0.21489606445E+03  0.25500000920E-02 0. -1.
</event>
<event>
 5   0  0.1074281E-01  0.5857771E+03  0.7818609E-02  0.9935361E-01
       -1   -1    0    0    0  501  0.00000000000E+00  0.00000000000E+00  0.10035557298E+03  0.10035557310E+03  0.50400001928E-02 0. -1.
        1   -1    0    0  501    0  0.00000000000E+00  0.00000000000E+00 -0.85479760609E+03  0.85479760611E+03  0.50400001928E-02 0.  1.
    10030    2    1    2    0    0  0.00000000000E+00  0.00000000000E+00 -0.75444203312E+03  0.95515317921E+03  0.58577710302E+03 0.  0.
        4    1    3    3  502    0  0.44945270150E+02  0.13192216465E+03 -0.79725951447E+03  0.80935028334E+03  0.12699999809E+01 0.  1.
       -4    1    3    3    0  502 -0.44945270150E+02 -0.13192216465E+03  0.42817481351E+02  0.14580289587E+03  0.12699999809E+01 0. -1.
</event>
<event>
 5   0  0.1683148E-01  0.4892799E+03  0.7818609E-02  0.1016616E+00
       -2   -1    0    0    0  501  0.00000000000E+00  0.00000000000E+00  0.10962825183E+03  0.10962825186E+03  0.25500000920E-02 0.  1.
        2   -1    0    0  501    0  0.00000000000E+00  0.00000000000E+00 -0.54592409542E+03  0.54592409542E+03  0.25500000920E-02 0. -1.
    10030    2    1    2    0    0  0.00000000000E+00  0.00000000000E+00 -0.43629584359E+03  0.65555234728E+03  0.48927989627E+03 0.  0.
        2    1    3    3  502    0 -0.15144074791E+03  0.17550604872E+03 -0.32289520739E+03  0.39748960770E+03  0.25500000920E-02 0. -1.
       -2    1    3    3    0  502  0.15144074791E+03 -0.17550604872E+03 -0.11340063619E+03  0.25806273958E+03  0.25500000920E-02 0.  1.
</event>
<event>
 5   0  0.1147245E-01  0.5091875E+03  0.7818609E-02  0.1011408E+00
       -1   -1    0    0    0  501  0.00000000000E+00  0.00000000000E+00  0.21731299727E+03  0.21731299733E+03  0.50400001928E-02 0.  1.
        1   -1    0    0  501    0  0.00000000000E+00  0.00000000000E+00 -0.29827010448E+03  0.29827010452E+03  0.50400001928E-02 0. -1.
    10030    2    1    2    0    0  0.00000000000E+00  0.00000000000E+00 -0.80957107212E+02  0.51558310185E+03  0.50918747206E+03 0.  0.
        1    1    3    3  502    0  0.85678308345E+02 -0.90151646608E+02  0.18446005738E+03  0.22247158178E+03  0.50400001928E-02 0.  1.
       -1    1    3    3    0  502 -0.85678308345E+02  0.90151646608E+02 -0.26541716459E+03  0.29311152006E+03  0.50400001928E-02 0. -1.
</event>
<event>
 5   0  0.1683148E-01  0.4454153E+03  0.7818609E-02  0.1029098E+00
       -2   -1    0    0    0  501  0.00000000000E+00  0.00000000000E+00  0.12385862031E+03  0.12385862034E+03  0.25500000920E-02 0. -1.
        2   -1    0    0  501    0  0.00000000000E+00  0.00000000000E+00 -0.40044610251E+03  0.40044610252E+03  0.25500000920E-02 0.  1.
    10030    2    1    2    0    0  0.00000000000E+00  0.00000000000E+00 -0.27658748220E+03  0.52430472286E+03  0.44541531979E+03 0.  0.
        2    1    3    3  502    0  0.16646433593E+03  0.11377117743E+03 -0.26968065773E+02  0.20342451310E+03  0.25500000920E-02 0. -1.
       -2    1    3    3    0  502 -0.16646433593E+03 -0.11377117743E+03 -0.24961941643E+03  0.32088020976E+03  0.25500000920E-02 0.  1.
</event>
<event>
 5   0  0.1683148E-01  0.5023626E+03  0.7818609E-02  0.1013164E+00
       -2   -1    0    0    0  501  0.00000000000E+00  0.00000000000E+00  0.11936672946E+03  0.11936672949E+03  0.25500000920E-02 0. -1.
        2   -1    0    0  501    0  0.00000000000E+00  0.00000000000E+00 -0.52855643498E+03  0.52855643498E+03  0.25500000920E-02 0.  1.
    10030    2    1    2    0    0  0.00000000000E+00  0.00000000000E+00 -0.40918970551E+03  0.64792316447E+03  0.50236262995E+03 0.  0.
        2    1    3    3  502    0  0.13886530274E+03  0.14933856955E+03 -0.15451635704E+02  0.20450998438E+03  0.25500000920E-02 0. -1.
       -2    1    3    3    0  502 -0.13886530274E+03 -0.14933856955E+03 -0.39373806981E+03  0.44341318009E+03  0.25500000920E-02 0.  1.
</event>
<event>
 5   0  0.1683148E-01  0.4971407E+03  0.7818609E-02  0.1014528E+00
       -2   -1    0    0    0  501  0.00000000000E+00  0.00000000000E+00  0.20990837265E+03  0.20990837267E+03  0.25500000920E-02 0.  1.
        2   -1    0    0  501    0  0.00000000000E+00  0.00000000000E+00 -0.29435331457E+03  0.29435331458E+03  0.25500000920E-02 0. -1.
    10030    2    1    2    0    0  0.00000000000E+00  0.00000000000E+00 -0.84444941912E+02  0.50426168724E+03  0.49714072556E+03 0.  0.
        2    1    3    3  502    0 -0.19477082107E+03 -0.14110535775E+02 -0.19821889897E+03  0.27825440136E+03  0.25500000920E-02 0. -1.
       -2    1    3    3    0  502  0.19477082107E+03  0.14110535775E+02  0.11377395706E+03  0.22600728588E+03  0.25500000920E-02 0.  1.
</event>
<event>
 5   0  0.1827698E-01  0.3679012E+03  0.7818609E-02  0.1055498E+00
        2   -1    0    0  501    0  0.00000000000E+00  0.00000000000E+00  0.80768687253E+03  0.80768687254E+03  0.25500000920E-02 0. -1.
       -2   -1    0    0    0  501  0.00000000000E+00  0.00000000000E+00 -0.41894729796E+02  0.41894729873E+02  0.25500000920E-02 0.  1.
    10030    2    1    2    0    0  0.00000000000E+00  0.00000000000E+00  0.76579214274E+03  0.84958160241E+03  0.36790120043E+03 0.  0.
        1    1    3    3  502    0 -0.25960261195E+02  0.46747982528E+02 -0.23551176180E+02  0.58429161868E+02  0.50400001928E-02 0.  1.
       -1    1    3    3    0  502  0.25960261195E+02 -0.46747982528E+02  0.78934331892E+03  0.79115244054E+03  0.50400001928E-02 0. -1.
</event>
<event>
 5   0  0.1068522E-01  0.4935536E+03  0.7818609E-02  0.1015475E+00
       -1   -1    0    0    0  501  0.00000000000E+00  0.00000000000E+00  0.46491023521E+02  0.46491023794E+02  0.50400001928E-02 0.  1.
        1   -1    0    0  501    0  0.00000000000E+00  0.00000000000E+00 -0.13099040968E+04  0.13099040969E+04  0.50400001928E-02 0. -1.
    10030    2    1    2    0    0  0.00000000000E+00  0.00000000000E+00 -0.12634130733E+04  0.13563951206E+04  0.49355357305E+03 0.  0.
        2    1    3    3  502    0  0.70029992774E+01  0.15232684983E+03 -0.98478591435E+02  0.18152284747E+03  0.25500000920E-02 0.  1.
       -2    1    3    3    0  502 -0.70029992774E+01 -0.15232684983E+03 -0.11649344819E+04  0.11748722732E+04  0.25500000920E-02 0. -1.
</event>
<event>
 5   0  0.1709372E-01  0.5084192E+03  0.7818609E-02  0.1011604E+00
       -2   -1    0    0    0  501  0.00000000000E+00  0.00000000000E+00  0.21289409001E+03  0.21289409002E+03  0.25500000920E-02 0. -1.
        2   -1    0    0  501    0  0.00000000000E+00  0.00000000000E+00 -0.30354308681E+03  0.30354308682E+03  0.25500000920E-02 0.  1.
    10030    2    1    2    0    0  0.00000000000E+00  0.00000000000E+00 -0.90648996807E+02  0.51643717685E+03  0.50841923351E+03 0.  0.
        4    1    3    3  502    0 -0.11541375454E+03  0.18367655460E+03  0.89292877300E+02  0.23458951870E+03  0.12699999809E+01 0.  1.
       -4    1    3    3    0  502  0.11541375454E+03 -0.18367655460E+03 -0.17994187411E+03  0.28184765815E+03  0.12699999809E+01 0. -1.
</event>
<event>
 5   0  0.1760649E-01  0.5019559E+03  0.7818609E-02  0.1013270E+00
        2   -1    0    0  501    0  0.00000000000E+00  0.00000000000E+00  0.29781246943E+03  0.29781246944E+03  0.25500000920E-02 0. -1.
       -2   -1    0    0    0  501  0.00000000000E+00  0.00000000000E+00 -0.21150868797E+03  0.21150868798E+03  0.25500000920E-02 0.  1.
    10030    2    1    2    0    0  0.00000000000E+00  0.00000000000E+00  0.86303781466E+02  0.50932115742E+03  0.50195587326E+03 0.  0.
        5    1    3    3  502    0 -0.16728043431E+02 -0.24995738500E+03  0.28471953397E+02  0.25217308318E+03  0.46999998093E+01 0. -1.
       -5    1    3    3    0  502  0.16728043431E+02  0.24995738500E+03  0.57831828069E+02  0.25714807425E+03  0.46999998093E+01 0.  1.
</event>
<event>
 5   0  0.1141970E-01  0.4956324E+03  0.7818609E-02  0.1014925E+00
       -1   -1    0    0    0  501  0.00000000000E+00  0.00000000000E+00  0.48055065323E+02  0.48055065587E+02  0.50400001928E-02 0. -1.
        1   -1    0    0  501    0  0.00000000000E+00  0.00000000000E+00 -0.12779684307E+04  0.12779684307E+04  0.50400001928E-02 0.  1.
    10030    2    1    2    0    0  0.00000000000E+00  0.00000000000E+00 -0.12299133654E+04  0.13260234963E+04  0.49563235003E+03 0.  0.
        3    1    3    3  502    0  0.94337362774E+02 -0.10767353071E+03 -0.73756547168E+02  0.16103777719E+03  0.10100000352E+00 0. -1.
       -3    1    3    3    0  502 -0.94337362774E+02  0.10767353071E+03 -0.11561568182E+04  0.11649857191E+04  0.10100000352E+00 0.  1.
</event>
<event>
 5   0  0.1760649E-01  0.4980479E+03  0.7818609E-02  0.1014290E+00
       -2   -1    0    0    0  501  0.00000000000E+00  0.00000000000E+00  0.76010739919E+02  0.76010739962E+02  0.25500000920E-02 0.  1.
        2   -1    0    0  501    0  0.00000000000E+00  0.00000000000E+00 -0.81584436792E+03  0.81584436792E+03  0.25500000920E-02 0. -1.
    10030    2    1    2    0    0  0.00000000000E+00  0.00000000000E+00 -0.73983362800E+03  0.89185510789E+03  0.49804792575E+03 0.  0.
        5    1    3    3  502    0  0.11380651120E+03 -0.20310136392E+03 -0.52795326760E+03  0.57702584759E+03  0.46999998093E+01 0. -1.
       -5    1    3    3    0  502 -0.11380651120E+03  0.20310136392E+03 -0.21188036040E+03  0.31482926030E+03  0.46999998093E+01 0.  1.
</event>
<event>
 5   0  0.1141970E-01  0.4988297E+03  0.7818609E-02  0.1014085E+00
       -1   -1    0    0    0  501  0.00000000000E+00  0.00000000000E+00  0.13698242819E+04  0.13698242819E+04  0.50400001928E-02 0.  1.
        1   -1    0    0  501    0  0.00000000000E+00  0.00000000000E+00 -0.45412957219E+02  0.45412957498E+02  0.50400001928E-02 0. -1.
    10030    2    1    2    0    0  0.00000000000E+00  0.00000000000E+00  0.13244113247E+04  0.14152372394E+04  0.49882971730E+03 0.  0.
        3    1    3    3  502    0  0.20564894339E+03  0.11243474608E+03  0.42022285128E+03  0.48116557959E+03  0.10100000352E+00 0.  1.
       -3    1    3    3    0  502 -0.20564894339E+03 -0.11243474608E+03  0.90418847342E+03  0.93407165984E+03  0.10100000352E+00 0. -1.
</event>
<event>
 5   0  0.1760649E-01  0.5058066E+03  0.7818609E-02  0.1012274E+00
        2   -1    0    0  501    0  0.00000000000E+00  0.00000000000E+00  0.17198973834E+04  0.17198973834E+04  0.25500000920E-02 0. -1.
       -2   -1    0    0    0  501  0.00000000000E+00  0.00000000000E+00 -0.37188307804E+02  0.37188307891E+02  0.25500000920E-02 0.  1.
    10030    2    1    2    0    0  0.00000000000E+00  0.00000000000E+00  0.16827090756E+04  0.17570856913E+04  0.50580657712E+03 0.  0.
        5    1    3    3  502    0  0.12421932955E+03  0.18118005474E+03  0.40634387009E+03  0.46194597609E+03  0.46999998093E+01 0.  1.
       -5    1    3    3    0  502 -0.12421932955E+03 -0.18118005474E+03  0.12763652056E+04  0.12951397152E+04  0.46999998093E+01 0. -1.
</event>
<event>
 5   0  0.1683148E-01  0.5015965E+03  0.7818609E-02  0.1013363E+00
       -2   -1    0    0    0  501  0.00000000000E+00  0.00000000000E+00  0.17786774888E+03  0.17786774890E+03  0.25500000920E-02 0.  1.
        2   -1    0    0  501    0  0.00000000000E+00  0.00000000000E+00 -0.35363215766E+03  0.35363215767E+03  0.25500000920E-02 0. -1.
    10030    2    1    2    0    0  0.00000000000E+00  0.00000000000E+00 -0.17576440879E+03  0.53149990657E+03  0.50159647456E+03 0.  0.
        2    1    3    3  502    0  0.21978030881E+03 -0.11737000954E+03 -0.57527334587E+02  0.25571174692E+03  0.25500000920E-02 0.  1.
       -2    1    3    3    0  502 -0.21978030881E+03  0.11737000954E+03 -0.11823707420E+03  0.27578815965E+03  0.25500000920E-02 0. -1.
</event>
<event>
 5   0  0.1074281E-01  0.4982352E+03  0.7818609E-02  0.1014241E+00
        1   -1    0    0  501    0  0.00000000000E+00  0.00000000000E+00  0.37745818519E+03  0.37745818522E+03  0.50400001928E-02 0. -1.
       -1   -1    0    0    0  501  0.00000000000E+00  0.00000000000E+00 -0.16441441766E+03  0.16441441773E+03  0.50400001928E-02 0.  1.
    10030    2    1    2    0    0  0.00000000000E+00  0.00000000000E+00  0.21304376753E+03  0.54187260295E+03  0.49823515628E+03 0.  0.
        4    1    3    3  502    0  0.16607865338E+03 -0.10499910474E+03  0.27307153513E+03  0.33641731125E+03  0.12699999809E+01 0. -1.
       -4    1    3    3    0  502 -0.16607865338E+03  0.10499910474E+03 -0.60027767605E+02  0.20545529171E+03  0.12699999809E+01 0.  1.
</event>
<event>
 5   0  0.1147245E-01  0.5326418E+03  0.7818609E-02  0.1005593E+00
       -1   -1    0    0    0  501  0.00000000000E+00  0.00000000000E+00  0.51598738405E+02  0.51598738651E+02  0.50400001928E-02 0.  1.
        1   -1    0    0  501    0  0.00000000000E+00  0.00000000000E+00 -0.13745844401E+04  0.13745844401E+04  0.50400001928E-02 0. -1.
    10030    2    1    2    0    0  0.00000000000E+00  0.00000000000E+00 -0.13229857017E+04  0.14261831788E+04  0.53264180506E+03 0.  0.
        1    1    3    3  502    0 -0.52017646601E+02 -0.10377350090E+03 -0.13032826615E+04  0.13084420013E+04  0.50400001928E-02 0. -1.
       -1    1    3    3    0  502  0.52017646601E+02  0.10377350090E+03 -0.19703040209E+02  0.11774117745E+03  0.50400001928E-02 0.  1.
</event>
<event>
 5   0  0.1709372E-01  0.4992170E+03  0.7818609E-02  0.1013983E+00
        2   -1    0    0  501    0  0.00000000000E+00  0.00000000000E+00  0.14593151675E+04  0.14593151675E+04  0.25500000920E-02 0.  1.
       -2   -1    0    0    0  501  0.00000000000E+00  0.00000000000E+00 -0.42694279434E+02  0.42694279510E+02  0.25500000920E-02 0. -1.
    10030    2    1    2    0    0  0.00000000000E+00  0.00000000000E+00  0.14166208881E+04  0.15020094470E+04  0.49921702536E+03 0.  0.
        4    1    3    3  502    0 -0.51410710611E+01  0.49531756662E+02  0.14442078390E+04  0.14450666838E+04  0.12699999809E+01 0.  1.
       -4    1    3    3    0  502  0.51410710611E+01 -0.49531756662E+02 -0.27586950872E+02  0.56942763264E+02  0.12699999809E+01 0. -1.
</event>
<event>
 5   0  0.1709372E-01  0.4956334E+03  0.7818609E-02  0.1014925E+00
        2   -1    0    0  501    0  0.00000000000E+00  0.00000000000E+00  0.11719854429E+04  0.11719854429E+04  0.25500000920E-02 0.  1.
       -2   -1    0    0    0  501  0.00000000000E+00  0.00000000000E+00 -0.52400919440E+02  0.52400919502E+02  0.25500000920E-02 0. -1.
    10030    2    1    2    0    0  0.00000000000E+00  0.00000000000E+00  0.11195845235E+04  0.12243863624E+04  0.49563339200E+03 0.  0.
        4    1    3    3  502    0 -0.14218445514E+03 -0.14524529580E+03  0.91001466695E+03  0.93243815999E+03  0.12699999809E+01 0.  1.
       -4    1    3    3    0  502  0.14218445514E+03  0.14524529580E+03  0.20956985650E+03  0.29194820241E+03  0.12699999809E+01 0. -1.
</event>
<event>
 5   0  0.1827698E-01  0.4998826E+03  0.7818609E-02  0.1013810E+00
       -2   -1    0    0    0  501  0.00000000000E+00  0.00000000000E+00  0.23458431406E+03  0.23458431407E+03  0.25500000920E-02 0. -1.
        2   -1    0    0  501    0  0.00000000000E+00  0.00000000000E+00 -0.26630361146E+03  0.26630361147E+03  0.25500000920E-02 0.  1.
    10030    2    1    2    0    0  0.00000000000E+00  0.00000000000E+00 -0.31719297401E+02  0.50088792555E+03  0.49988258634E+03 0.  0.
        1    1    3    3  502    0 -0.15565016190E+03  0.19494706262E+03 -0.35856911964E+00  0.24946233928E+03  0.50400001928E-02 0. -1.
       -1    1    3    3    0  502  0.15565016190E+03 -0.19494706262E+03 -0.31360728281E+02  0.25142558626E+03  0.50400001928E-02 0.  1.
</event>
<event>
 5   0  0.1760649E-01  0.4993482E+03  0.7818609E-02  0.1013949E+00
       -2   -1    0    0    0  501  0.00000000000E+00  0.00000000000E+00  0.29084099024E+03  0.29084099025E+03  0.25500000920E-02 0. -1.
        2   -1    0    0  501    0  0.00000000000E+00  0.00000000000E+00 -0.21433415924E+03  0.21433415925E+03  0.25500000920E-02 0.  1.
    10030    2    1    2    0    0  0.00000000000E+00  0.00000000000E+00  0.76506831006E+02  0.50517514950E+03  0.49934821166E+03 0.  0.
        5    1    3    3  502    0 -0.28930421515E+02  0.76865565471E+02 -0.20022980993E+03  0.21647020864E+03  0.46999998093E+01 0.  1.
       -5    1    3    3    0  502  0.28930421515E+02 -0.76865565471E+02  0.27673664094E+03  0.28870494086E+03  0.46999998093E+01 0. -1.
</event>
<event>
 5   0  0.1141970E-01  0.4971303E+03  0.7818609E-02  0.1014531E+00
        1   -1    0    0  501    0  0.00000000000E+00  0.00000000000E+00  0.56228437571E+03  0.56228437574E+03  0.50400001928E-02 0. -1.
       -1   -1    0    0    0  501  0.00000000000E+00  0.00000000000E+00 -0.10988145259E+03  0.10988145270E+03  0.50400001928E-02 0.  1.
    10030    2    1    2    0    0  0.00000000000E+00  0.00000000000E+00  0.45240292312E+03  0.67216582844E+03  0.49713026067E+03 0.  0.
        3    1    3    3  502    0 -0.63460915142E+02 -0.16864738261E+03 -0.53001623272E+01  0.18027015653E+03  0.10100000352E+00 0.  1.
       -3    1    3    3    0  502  0.63460915142E+02  0.16864738261E+03  0.45770308545E+03  0.49189567191E+03  0.10100000352E+00 0. -1.
</event>
<event>
 5   0  0.1147245E-01  0.4973569E+03  0.7818609E-02  0.1014471E+00
       -1   -1    0    0    0  501  0.00000000000E+00  0.00000000000E+00  0.42673088317E+03  0.42673088320E+03  0.50400001928E-02 0.  1.
        1   -1    0    0  501    0  0.00000000000E+00  0.00000000000E+00 -0.14491798411E+03  0.14491798419E+03  0.50400001928E-02 0. -1.
    10030    2    1    2    0    0  0.00000000000E+00  0.00000000000E+00  0.28181289907E+03  0.57164886740E+03  0.49735693171E+03 0.  0.
        1    1    3    3  502    0  0.13695370679E+03  0.17423645512E+02 -0.96825216961E+02  0.16862687772E+03  0.50400001928E-02 0. -1.
       -1    1    3    3    0  502 -0.13695370679E+03 -0.17423645512E+02  0.37863811603E+03  0.40302198967E+03  0.50400001928E-02 0.  1.
</event>
<event>
 5   0  0.1683148E-01  0.4981195E+03  0.7818609E-02  0.1014271E+00
       -2   -1    0    0    0  501  0.00000000000E+00  0.00000000000E+00  0.40924296273E+03  0.40924296274E+03  0.25500000920E-02 0.  1.
        2   -1    0    0  501    0  0.00000000000E+00  0.00000000000E+00 -0.15157442622E+03  0.15157442624E+03  0.25500000920E-02 0. -1.
    10030    2    1    2    0    0  0.00000000000E+00  0.00000000000E+00  0.25766853652E+03  0.56081738898E+03  0.49811953291E+03 0.  0.
        2    1    3    3  502    0  0.54922526107E+02  0.23409285930E+03  0.55741023682E+02  0.24682587461E+03  0.25500000920E-02 0. -1.
       -2    1    3    3    0  502 -0.54922526107E+02 -0.23409285930E+03  0.20192751283E+03  0.31399151437E+03  0.25500000920E-02 0.  1.
</event>
<event>
 5   0  0.1123271E-01  0.5178924E+03  0.7818609E-02  0.1009211E+00
        1   -1    0    0  501    0  0.00000000000E+00  0.00000000000E+00  0.42763795187E+03  0.42763795190E+03  0.50400001928E-02 0. -1.
       -1   -1    0    0    0  501  0.00000000000E+00  0.00000000000E+00 -0.15679880988E+03  0.15679880996E+03  0.50400001928E-02 0.  1.
    10030    2    1    2    0    0  0.00000000000E+00  0.00000000000E+00  0.27083914199E+03  0.58443676186E+03  0.51789235154E+03 0.  0.
        5    1    3    3  502    0  0.18020341533E+03 -0.29129489771E+02 -0.71772184320E+02  0.19620176990E+03  0.46999998093E+01 0.  1.
       -5    1    3    3    0  502 -0.18020341533E+03  0.29129489771E+02  0.34261132631E+03  0.38823499196E+03  0.46999998093E+01 0. -1.
</event>
<event>
 5   0  0.1147245E-01  0.5024120E+03  0.7818609E-02  0.1013151E+00
        1   -1    0    0  501    0  0.00000000000E+00  0.00000000000E+00  0.16524306816E+03  0.16524306824E+03  0.50400001928E-02 0. -1.
       -1   -1    0    0    0  501  0.00000000000E+00  0.00000000000E+00 -0.38188864767E+03  0.38188864771E+03  0.50400001928E-02 0.  1.
    10030    2    1    2    0    0  0.00000000000E+00  0.00000000000E+00 -0.21664557951E+03  0.54713171595E+03  0.50241198978E+03 0.  0.
        1    1    3    3  502    0 -0.12032542990E+03 -0.16874207588E+03  0.46271978854E+02  0.21235157948E+03  0.50400001928E-02 0. -1.
       -1    1    3    3    0  502  0.12032542990E+03  0.16874207588E+03 -0.26291755836E+03  0.33478013647E+03  0.50400001928E-02 0.  1.
</event>
<event>
 5   0  0.1068522E-01  0.5028022E+03  0.7818609E-02  0.1013050E+00
       -1   -1    0    0    0  501  0.00000000000E+00  0.00000000000E+00  0.10082778475E+04  0.10082778475E+04  0.50400001928E-02 0.  1.
        1   -1    0    0  501    0  0.00000000000E+00  0.00000000000E+00 -0.62683617009E+02  0.62683617211E+02  0.50400001928E-02 0. -1.
    10030    2    1    2    0    0  0.00000000000E+00  0.00000000000E+00  0.94559423051E+03  0.10709614647E+04  0.50280215810E+03 0.  0.
        2    1    3    3  502    0  0.19872159346E+03  0.15317758612E+03  0.50639813562E+03  0.56514840207E+03  0.25500000920E-02 0. -1.
       -2    1    3    3    0  502 -0.19872159346E+03 -0.15317758612E+03  0.43919609488E+03  0.50581306267E+03  0.25500000920E-02 0.  1.
</event>
<event>
 5   0  0.1683148E-01  0.4951200E+03  0.7818609E-02  0.1015061E+00
        2   -1    0    0  501    0  0.00000000000E+00  0.00000000000E+00  0.80486809185E+03  0.80486809186E+03  0.25500000920E-02 0.  1.
       -2   -1    0    0    0  501  0.00000000000E+00  0.00000000000E+00 -0.76144106419E+02  0.76144106462E+02  0.25500000920E-02 0. -1.
    10030    2    1    2    0    0  0.00000000000E+00  0.00000000000E+00  0.72872398543E+03  0.88101219832E+03  0.49512003256E+03 0.  0.
        2    1    3    3  502    0 -0.49528664315E+02  0.22869148834E+03  0.22053834939E+03  0.32154323035E+03  0.25500000920E-02 0. -1.
       -2    1    3    3    0  502  0.49528664315E+02 -0.22869148834E+03  0.50818563604E+03  0.55946896797E+03  0.25500000920E-02 0.  1.
</event>
<event>
 5   0  0.1782124E-01  0.4764001E+03  0.7818609E-02  0.1020129E+00
       -2   -1    0    0    0  501  0.00000000000E+00  0.00000000000E+00  0.31883765225E+02  0.31883765327E+02  0.25500000920E-02 0.  1.
        2   -1    0    0  501    0  0.00000000000E+00  0.00000000000E+00 -0.17795663275E+04  0.17795663275E+04  0.25500000920E-02 0. -1.
    10030    2    1    2    0    0  0.00000000000E+00  0.00000000000E+00 -0.17476825623E+04  0.18114500928E+04  0.47640014728E+03 0.  0.
        3    1    3    3  502    0 -0.14998597074E+03 -0.10797137042E+03 -0.30240100512E+03  0.35440088367E+03  0.10100000352E+00 0.  1.
       -3    1    3    3    0  502  0.14998597074E+03  0.10797137042E+03 -0.14452815571E+04  0.14570492091E+04  0.10100000352E+00 0. -1.
</event>
<event>
 5   0  0.1123271E-01  0.4938653E+03  0.7818609E-02  0.1015393E+00
        1   -1    0    0  501    0  0.00000000000E+00  0.00000000000E+00  0.47230818800E+03  0.47230818802E+03  0.50400001928E-02 0.  1.
       -1   -1    0    0    0  501  0.00000000000E+00  0.00000000000E+00 -0.12910158784E+03  0.12910158794E+03  0.50400001928E-02 0. -1.
    10030    2    1    2    0    0  0.00000000000E+00  0.00000000000E+00  0.34320660016E+03  0.60140977596E+03  0.49386531385E+03 0.  0.
        5    1    3    3  502    0  0.13976947743E+01 -0.24601486174E+03  0.14639885053E+03  0.28632146127E+03  0.46999998093E+01 0. -1.
       -5    1    3    3    0  502 -0.13976947743E+01  0.24601486174E+03  0.19680774963E+03  0.31508831469E+03  0.46999998093E+01 0.  1.
</event>
<event>
 5   0  0.1147245E-01  0.5006441E+03  0.7818609E-02  0.1013611E+00
        1   -1    0    0  501    0  0.00000000000E+00  0.00000000000E+00  0.20373034677E+03  0.20373034684E+03  0.50400001928E-02 0.  1.
       -1   -1    0    0    0  501  0.00000000000E+00  0.00000000000E+00 -0.30756890843E+03  0.30756890847E+03  0.50400001928E-02 0. -1.
    10030    2    1    2    0    0  0.00000000000E+00  0.00000000000E+00 -0.10383856165E+03  0.51129925530E+03  0.50064406676E+03 0.  0.
        1    1    3    3  502    0 -0.23607039249E+03 -0.80037832738E+02 -0.28500135912E+02  0.25089348866E+03  0.50400001928E-02 0. -1.
       -1    1    3    3    0  502  0.23607039249E+03  0.80037832738E+02 -0.75338425740E+02  0.26040576664E+03  0.50400001928E-02 0.  1.
</event>
<event>
 5   0  0.1141970E-01  0.5054958E+03  0.7818609E-02  0.1012354E+00
       -1   -1    0    0    0  501  0.00000000000E+00  0.00000000000E+00  0.44071446623E+03  0.44071446626E+03  0.50400001928E-02 0.  1.
        1   -1    0    0  501    0  0.00000000000E+00  0.00000000000E+00 -0.14494984238E+03  0.14494984247E+03  0.50400001928E-02 0. -1.
    10030    2    1    2    0    0  0.00000000000E+00  0.00000000000E+00  0.29576462385E+03  0.58566430872E+03  0.50549576634E+03 0.  0.
        3    1    3    3  502    0 -0.24864474757E+03  0.38823796212E+02  0.12071125701E+03  0.27911057919E+03  0.10100000352E+00 0.  1.
       -3    1    3    3    0  502  0.24864474757E+03 -0.38823796212E+02  0.17505336684E+03  0.30655372953E+03  0.10100000352E+00 0. -1.
</event>
<event>
 5   0  0.1760649E-01  0.4934529E+03  0.7818609E-02  0.1015502E+00
        2   -1    0    0  501    0  0.00000000000E+00  0.00000000000E+00  0.10848399039E+04  0.10848399039E+04  0.25500000920E-02 0.  1.
       -2   -1    0    0    0  501  0.00000000000E+00  0.00000000000E+00 -0.56113301434E+02  0.56113301492E+02  0.25500000920E-02 0. -1.
    10030    2    1    2    0    0  0.00000000000E+00  0.00000000000E+00  0.10287266025E+04  0.11409532054E+04  0.49345293016E+03 0.  0.
        5    1    3    3  502    0 -0.12211741081E+03  0.10066234651E+03  0.76839428881E+02  0.17598851627E+03  0.46999998093E+01 0. -1.
       -5    1    3    3    0  502  0.12211741081E+03 -0.10066234651E+03  0.95188717361E+03  0.96496468915E+03  0.46999998093E+01 0.  1.
</event>
<event>
 5   0  0.1123271E-01  0.4938630E+03  0.7818609E-02  0.1015393E+00
       -1   -1    0    0    0  501  0.00000000000E+00  0.00000000000E+00  0.30701386444E+02  0.30701386858E+02  0.50400001928E-02 0. -1.
        1   -1    0    0  501    0  0.00000000000E+00  0.00000000000E+00 -0.19860720899E+04  0.19860720899E+04  0.50400001928E-02 0.  1.
    10030    2    1    2    0    0  0.00000000000E+00  0.00000000000E+00 -0.19553707034E+04  0.20167734767E+04  0.49386300595E+03 0.  0.
        5    1    3    3  502    0 -0.52150560932E+02  0.24101728948E+03 -0.10266999946E+04  0.10559090793E+04  0.46999998093E+01 0. -1.
       -5    1    3    3    0  502  0.52150560932E+02 -0.24101728948E+03 -0.92867070876E+03  0.96086439738E+03  0.46999998093E+01 0.  1.
</event>
<event>
 5   0  0.1683148E-01  0.4975921E+03  0.7818609E-02  0.1014409E+00
        2   -1    0    0  501    0  0.00000000000E+00  0.00000000000E+00  0.10628904000E+04  0.10628904000E+04  0.25500000920E-02 0. -1.
       -2   -1    0    0    0  501  0.00000000000E+00  0.00000000000E+00 -0.58236923083E+02  0.58236923138E+02  0.25500000920E-02 0.  1.
    10030    2    1    2    0    0  0.00000000000E+00  0.00000000000E+00  0.10046534769E+04  0.11211273232E+04  0.49759206788E+03 0.  0.
        2    1    3    3  502    0 -0.20718812302E+03  0.10726498411E+03  0.30763482441E+03  0.38609827808E+03  0.25500000920E-02 0.  1.
       -2    1    3    3    0  502  0.20718812302E+03 -0.10726498411E+03  0.69701865253E+03  0.73502904509E+03  0.25500000920E-02 0. -1.
</event>
<event>
 5   0  0.1683148E-01  0.4893339E+03  0.7818609E-02  0.1016601E+00
        2   -1    0    0  501    0  0.00000000000E+00  0.00000000000E+00  0.76316668597E+03  0.76316668597E+03  0.25500000920E-02 0.  1.
       -2   -1    0    0    0  501  0.00000000000E+00  0.00000000000E+00 -0.78438835210E+02  0.78438835251E+02  0.25500000920E-02 0. -1.
    10030    2    1    2    0    0  0.00000000000E+00  0.00000000000E+00  0.68472785076E+03  0.84160552122E+03  0.48933385715E+03 0.  0.
        2    1    3    3  502    0  0.18670648466E+03 -0.10109111302E+03  0.55147992534E+03  0.59093894152E+03  0.25500000920E-02 0.  1.
       -2    1    3    3    0  502 -0.18670648466E+03  0.10109111302E+03  0.13324792541E+03  0.25066657970E+03  0.25500000920E-02 0. -1.
</event>
<event>
 5   0  0.1760649E-01  0.5011374E+03  0.7818609E-02  0.1013482E+00
       -2   -1    0    0    0  501  0.00000000000E+00  0.00000000000E+00  0.13760094927E+03  0.13760094930E+03  0.25500000920E-02 0.  1.
        2   -1    0    0  501    0  0.00000000000E+00  0.00000000000E+00 -0.45628075774E+03  0.45628075775E+03  0.25500000920E-02 0. -1.
    10030    2    1    2    0    0  0.00000000000E+00  0.00000000000E+00 -0.31867980847E+03  0.59388170705E+03  0.50113736803E+03 0.  0.
        5    1    3    3  502    0 -0.24827850952E+03  0.10541102388E+01 -0.11969330595E+03  0.27566629632E+03  0.46999998093E+01 0.  1.
       -5    1    3    3    0  502  0.24827850952E+03 -0.10541102388E+01 -0.19898650252E+03  0.31821541073E+03  0.46999998093E+01 0. -1.
</event>
<event>
 5   0  0.1827698E-01  0.5052863E+03  0.7818609E-02  0.1012408E+00
       -2   -1    0    0    0  501  0.00000000000E+00  0.00000000000E+00  0.15545563677E+03  0.15545563679E+03  0.25500000920E-02 0.  1.
        2   -1    0    0  501    0  0.00000000000E+00  0.00000000000E+00 -0.41059013569E+03  0.41059013570E+03  0.25500000920E-02 0. -1.
    10030    2    1    2    0    0  0.00000000000E+00  0.00000000000E+00 -0.25513449892E+03  0.56604577249E+03  0.50528625947E+03 0.  0.
        1    1    3    3  502    0  0.10125943438E+03 -0.29743882338E+01 -0.38684163131E+03  0.39988594346E+03  0.50400001928E-02 0. -1.
       -1    1    3    3    0  502 -0.10125943438E+03  0.29743882338E+01  0.13170713239E+03  0.16615982903E+03  0.50400001928E-02 0.  1.
</event>
<event>
 5   0  0.1683148E-01  0.4930321E+03  0.7818609E-02  0.1015614E+00
       -2   -1    0    0    0  501  0.00000000000E+00  0.00000000000E+00  0.74298996762E+02  0.74298996806E+02  0.25500000920E-02 0.  1.
        2   -1    0    0  501    0  0.00000000000E+00  0.00000000000E+00 -0.81791380271E+03  0.81791380271E+03  0.25500000920E-02 0. -1.
    10030    2    1    2    0    0  0.00000000000E+00  0.00000000000E+00 -0.74361480595E+03  0.89221279952E+03  0.49303214906E+03 0.  0.
        2    1    3    3  502    0 -0.97371098135E+02  0.22512157910E+03 -0.32713744720E+03  0.40887622270E+03  0.25500000920E-02 0.  1.
       -2    1    3    3    0  502  0.97371098135E+02 -0.22512157910E+03 -0.41647735875E+03  0.48333657682E+03  0.25500000920E-02 0. -1.
</event>
<event>
 5   0  0.1827698E-01  0.4950961E+03  0.7818609E-02  0.1015067E+00
       -2   -1    0    0    0  501  0.00000000000E+00  0.00000000000E+00  0.97424164784E+02  0.97424164818E+02  0.25500000920E-02 0.  1.
        2   -1    0    0  501    0  0.00000000000E+00  0.00000000000E+00 -0.62900253458E+03  0.62900253459E+03  0.25500000920E-02 0. -1.
    10030    2    1    2    0    0  0.00000000000E+00  0.00000000000E+00 -0.53157836980E+03  0.72642669941E+03  0.49509613851E+03 0.  0.
        1    1    3    3  502    0  0.16878442339E+03  0.12205160949E+03 -0.46206707546E+03  0.50684391997E+03  0.50400001928E-02 0. -1.
       -1    1    3    3    0  502 -0.16878442339E+03 -0.12205160949E+03 -0.69511294337E+02  0.21958277944E+03  0.50400001928E-02 0.  1.
</event>
<event>
 5   0  0.1068522E-01  0.4935337E+03  0.7818609E-02  0.1015481E+00
        1   -1    0    0  501    0  0.00000000000E+00  0.00000000000E+00  0.68732888100E+03  0.68732888102E+03  0.50400001928E-02 0.  1.
       -1   -1    0    0    0  501  0.00000000000E+00  0.00000000000E+00 -0.88594960223E+02  0.88594960366E+02  0.50400001928E-02 0. -1.
    10030    2    1    2    0    0  0.00000000000E+00  0.00000000000E+00  0.59873392078E+03  0.77592384139E+03  0.49353368653E+03 0.  0.
        2    1    3    3  502    0 -0.25128943685E+01  0.13768581062E+03  0.62130007219E+03  0.63637840692E+03  0.25500000920E-02 0.  1.
       -2    1    3    3    0  502  0.25128943685E+01 -0.13768581062E+03 -0.22566151407E+02  0.13954543447E+03  0.25500000920E-02 0. -1.
</event>
<event>
 5   0  0.1074281E-01  0.4918585E+03  0.7818609E-02  0.1015926E+00
        1   -1    0    0  501    0  0.00000000000E+00  0.00000000000E+00  0.64481748397E+03  0.64481748398E+03  0.50400001928E-02 0. -1.
       -1   -1    0    0    0  501  0.00000000000E+00  0.00000000000E+00 -0.93795820085E+02  0.93795820220E+02  0.50400001928E-02 0.  1.
    10030    2    1    2    0    0  0.00000000000E+00  0.00000000000E+00  0.55102166388E+03  0.73861330420E+03  0.49185845432E+03 0.  0.
        4    1    3    3  502    0 -0.18413934557E+02  0.20321653776E+03  0.69372761998E+02  0.21552314774E+03  0.12699999809E+01 0.  1.
       -4    1    3    3    0  502  0.18413934557E+02 -0.20321653776E+03  0.48164890188E+03  0.52309015646E+03  0.12699999809E+01 0. -1.
</event>
<event>
 5   0  0.1074281E-01  0.5049373E+03  0.7818609E-02  0.1012498E+00
       -1   -1    0    0    0  501  0.00000000000E+00  0.00000000000E+00  0.31147091247E+03  0.31147091251E+03  0.50400001928E-02 0. -1.
        1   -1    0    0  501    0  0.00000000000E+00  0.00000000000E+00 -0.20464326470E+03  0.20464326476E+03  0.50400001928E-02 0.  1.
    10030    2    1    2    0    0  0.00000000000E+00  0.00000000000E+00  0.10682764777E+03  0.51611417727E+03  0.50493732052E+03 0.  0.
        4    1    3    3  502    0  0.51660768237E+02  0.23101835283E+03  0.14310871384E+03  0.27662254282E+03  0.12699999809E+01 0.  1.
       -4    1    3    3    0  502 -0.51660768237E+02 -0.23101835283E+03 -0.36281066070E+02  0.23949163445E+03  0.12699999809E+01 0. -1.
</event>
<event>
 5   0  0.1709372E-01  0.4968663E+03  0.7818609E-02  0.1014600E+00
       -2   -1    0    0    0  501  0.00000000000E+00  0.00000000000E+00  0.37763312346E+02  0.37763312432E+02  0.25500000920E-02 0. -1.
        2   -1    0    0  501    0  0.00000000000E+00  0.00000000000E+00 -0.16343648503E+04  0.16343648503E+04  0.25500000920E-02 0.  1.
    10030    2    1    2    0    0  0.00000000000E+00  0.00000000000E+00 -0.15966015379E+04  0.16721281627E+04  0.49686630154E+03 0.  0.
        4    1    3    3  502    0 -0.83642621887E+02  0.18051487805E+03 -0.12989997737E+04  0.13141475315E+04  0.12699999809E+01 0.  1.
       -4    1    3    3    0  502  0.83642621887E+02 -0.18051487805E+03 -0.29760176419E+03  0.35798063124E+03  0.12699999809E+01 0. -1.
</event>
<event>
 5   0  0.1123271E-01  0.5046194E+03  0.7818609E-02  0.1012580E+00
       -1   -1    0    0    0  501  0.00000000000E+00  0.00000000000E+00  0.58887780036E+03  0.58887780038E+03  0.50400001928E-02 0. -1.
        1   -1    0    0  501    0  0.00000000000E+00  0.00000000000E+00 -0.10810425542E+03  0.10810425553E+03  0.50400001928E-02 0.  1.
    10030    2    1    2    0    0  0.00000000000E+00  0.00000000000E+00  0.48077354495E+03  0.69698205592E+03  0.50461944547E+03 0.  0.
        5    1    3    3  502    0 -0.21991961216E+03 -0.35991998463E+02  0.77088776738E+02  0.23584916634E+03  0.46999998093E+01 0.  1.
       -5    1    3    3    0  502  0.21991961216E+03  0.35991998463E+02  0.40368476821E+03  0.46113288958E+03  0.46999998093E+01 0. -1.
</event>
<event>
 5   0  0.7220250E-02  0.4869931E+03  0.7818609E-02  0.1017231E+00
       -4   -1    0    0    0  501  0.00000000000E+00  0.00000000000E+00  0.18423206251E+03  0.18423643981E+03  0.12699999809E+01 0. -1.
        4   -1    0    0  501    0  0.00000000000E+00  0.00000000000E+00 -0.32181594914E+03  0.32181845507E+03  0.12699999809E+01 0.  1.
    10030    2    1    2    0    0  0.00000000000E+00  0.00000000000E+00 -0.13758388663E+03  0.50605489488E+03  0.48699305002E+03 0.  0.
        5    1    3    3  502    0  0.19464929499E+03  0.14269544249E+03 -0.35634841875E+02  0.24401284659E+03  0.46999998093E+01 0.  1.
       -5    1    3    3    0  502 -0.19464929499E+03 -0.14269544249E+03 -0.10194904476E+03  0.26204204829E+03  0.46999998093E+01 0. -1.
</event>
<event>
 5   0  0.1074281E-01  0.5172347E+03  0.7818609E-02  0.1009376E+00
        1   -1    0    0  501    0  0.00000000000E+00  0.00000000000E+00  0.86850494882E+03  0.86850494884E+03  0.50400001928E-02 0. -1.
       -1   -1    0    0    0  501  0.00000000000E+00  0.00000000000E+00 -0.77009276118E+02  0.77009276282E+02  0.50400001928E-02 0.  1.
    10030    2    1    2    0    0  0.00000000000E+00  0.00000000000E+00  0.79149567271E+03  0.94551422512E+03  0.51723471461E+03 0.  0.
        4    1    3    3  502    0 -0.29644032373E+02  0.64467937453E+02  0.85035655269E+03  0.85331281674E+03  0.12699999809E+01 0. -1.
       -4    1    3    3    0  502  0.29644032373E+02 -0.64467937453E+02 -0.58860879983E+02  0.92201408379E+02  0.12699999809E+01 0.  1.
</event>
<event>
 5   0  0.1074281E-01  0.5025918E+03  0.7818609E-02  0.1013105E+00
       -1   -1    0    0    0  501  0.00000000000E+00  0.00000000000E+00  0.81207763032E+02  0.81207763188E+02  0.50400001928E-02 0. -1.
        1   -1    0    0  501    0  0.00000000000E+00  0.00000000000E+00 -0.77763049384E+03  0.77763049386E+03  0.50400001928E-02 0.  1.
    10030    2    1    2    0    0  0.00000000000E+00  0.00000000000E+00 -0.69642273081E+03  0.85883825704E+03  0.50259181428E+03 0.  0.
        4    1    3    3  502    0  0.77355413585E+02 -0.18351519767E+02 -0.75556800037E+03  0.75974025454E+03  0.12699999809E+01 0.  1.
       -4    1    3    3    0  502 -0.77355413585E+02  0.18351519767E+02  0.59145269561E+02  0.99098002503E+02  0.12699999809E+01 0. -1.
</event>
<event>
 5   0  0.1782124E-01  0.5007969E+03  0.7818609E-02  0.1013571E+00
        2   -1    0    0  501    0  0.00000000000E+00  0.00000000000E+00  0.12247446415E+04  0.12247446415E+04  0.25500000920E-02 0.  1.
       -2   -1    0    0    0  501  0.00000000000E+00  0.00000000000E+00 -0.51193840640E+02  0.51193840703E+02  0.25500000920E-02 0. -1.
    10030    2    1    2    0    0  0.00000000000E+00  0.00000000000E+00  0.11735508008E+04  0.12759384822E+04  0.50079689313E+03 0.  0.
        3    1    3    3  502    0 -0.97722088184E+02  0.12838052791E+03  0.98895487563E+02  0.18923925102E+03  0.10100000352E+00 0. -1.
       -3    1    3    3    0  502  0.97722088184E+02 -0.12838052791E+03  0.10746553133E+04  0.10866992312E+04  0.10100000352E+00 0.  1.
</event>
<event>
 5   0  0.1068522E-01  0.5037549E+03  0.7818609E-02  0.1012803E+00
       -1   -1    0    0    0  501  0.00000000000E+00  0.00000000000E+00  0.71135450772E+02  0.71135450950E+02  0.50400001928E-02 0. -1.
        1   -1    0    0  501    0  0.00000000000E+00  0.00000000000E+00 -0.89185150922E+03  0.89185150923E+03  0.50400001928E-02 0.  1.
    10030    2    1    2    0    0  0.00000000000E+00  0.00000000000E+00 -0.82071605845E+03  0.96298696018E+03  0.50375493733E+03 0.  0.
        2    1    3    3  502    0 -0.17011614944E+03 -0.14672729941E+03 -0.62809671766E+03  0.66706363372E+03  0.25500000920E-02 0.  1.
       -2    1    3    3    0  502  0.17011614944E+03  0.14672729941E+03 -0.19261934079E+03  0.29592332646E+03  0.25500000920E-02 0. -1.
</event>
<event>
 5   0  0.1782124E-01  0.5043131E+03  0.7818609E-02  0.1012659E+00
        2   -1    0    0  501    0  0.00000000000E+00  0.00000000000E+00  0.99240453063E+03  0.99240453063E+03  0.25500000920E-02 0. -1.
       -2   -1    0    0    0  501  0.00000000000E+00  0.00000000000E+00 -0.64069571460E+02  0.64069571510E+02  0.25500000920E-02 0.  1.
    10030    2    1    2    0    0  0.00000000000E+00  0.00000000000E+00  0.92833495917E+03  0.10564741021E+04  0.50431312900E+03 0.  0.
        3    1    3    3  502    0 -0.10997209367E+03 -0.20602104892E+03  0.66339447877E+03  0.70329992083E+03  0.10100000352E+00 0. -1.
       -3    1    3    3    0  502  0.10997209367E+03  0.20602104892E+03  0.26494048040E+03  0.35317418131E+03  0.10100000352E+00 0.  1.
</event>
<event>
 5   0  0.1123271E-01  0.4969932E+03  0.7818609E-02  0.1014567E+00
       -1   -1    0    0    0  501  0.00000000000E+00  0.00000000000E+00  0.66309879768E+03  0.66309879769E+03  0.50400001928E-02 0. -1.
        1   -1    0    0  501    0  0.00000000000E+00  0.00000000000E+00 -0.93124219301E+02  0.93124219437E+02  0.50400001928E-02 0.  1.
    10030    2    1    2    0    0  0.00000000000E+00  0.00000000000E+00  0.56997457837E+03  0.75622301713E+03  0.49699319074E+03 0.  0.
        5    1    3    3  502    0  0.14510537895E+03  0.20010003979E+03  0.24670860085E+03  0.34926039091E+03  0.46999998093E+01 0. -1.
       -5    1    3    3    0  502 -0.14510537895E+03 -0.20010003979E+03  0.32326597752E+03  0.40696262623E+03  0.46999998093E+01 0.  1.
</event>
<event>
 5   0  0.1782124E-01  0.5041962E+03  0.7818609E-02  0.1012689E+00
       -2   -1    0    0    0  501  0.00000000000E+00  0.00000000000E+00  0.28280142888E+03  0.28280142889E+03  0.25500000920E-02 0. -1.
        2   -1    0    0  501    0  0.00000000000E+00  0.00000000000E+00 -0.22472819162E+03  0.22472819164E+03  0.25500000920E-02 0.  1.
    10030    2    1    2    0    0  0.00000000000E+00  0.00000000000E+00  0.58073237260E+02  0.50752962053E+03  0.50419620668E+03 0.  0.
        3    1    3    3  502    0 -0.23681047187E+03 -0.79389254635E+02  0.63491414286E+02  0.25770724326E+03  0.10100000352E+00 0. -1.
       -3    1    3    3    0  502  0.23681047187E+03  0.79389254635E+02 -0.54181770263E+01  0.24982237727E+03  0.10100000352E+00 0.  1.
</event>
<event>
 5   0  0.1147245E-01  0.5190774E+03  0.7818609E-02  0.1008916E+00
        1   -1    0    0  501    0  0.00000000000E+00  0.00000000000E+00  0.50170245118E+03  0.50170245121E+03  0.50400001928E-02 0. -1.
       -1   -1    0    0    0  501  0.00000000000E+00  0.00000000000E+00 -0.13426354154E+03  0.13426354163E+03  0.50400001928E-02 0.  1.
    10030    2    1    2    0    0  0.00000000000E+00  0.00000000000E+00  0.36743890964E+03  0.63596599284E+03  0.51907744290E+03 0.  0.
        1    1    3    3  502    0  0.15123485136E+03 -0.20488707329E+03  0.24509688976E+03  0.35344473183E+03  0.50400001928E-02 0.  1.
       -1    1    3    3    0  502 -0.15123485136E+03  0.20488707329E+03  0.12234201988E+03  0.28252126101E+03  0.50400001928E-02 0. -1.
</event>
<event>
 5   0  0.1123271E-01  0.4638898E+03  0.7818609E-02  0.1023659E+00
       -1   -1    0    0    0  501  0.00000000000E+00  0.00000000000E+00  0.16726775667E+03  0.16726775674E+03  0.50400001928E-02 0. -1.
        1   -1    0    0  501    0  0.00000000000E+00  0.00000000000E+00 -0.32163065495E+03  0.32163065499E+03  0.50400001928E-02 0.  1.
    10030    2    1    2    0    0  0.00000000000E+00  0.00000000000E+00 -0.15436289828E+03  0.48889841173E+03  0.46388980656E+03 0.  0.
        5    1    3    3  502    0 -0.91339979352E+02 -0.15091725288E+03  0.81456924670E+02  0.19436133777E+03  0.46999998093E+01 0. -1.
       -5    1    3    3    0  502  0.91339979352E+02  0.15091725288E+03 -0.23581982295E+03  0.29453707396E+03  0.46999998093E+01 0.  1.
</event>
<event>
 5   0  0.1760649E-01  0.5003415E+03  0.7818609E-02  0.1013690E+00
        2   -1    0    0  501    0  0.00000000000E+00  0.00000000000E+00  0.37584948699E+03  0.37584948700E+03  0.25500000920E-02 0.  1.
       -2   -1    0    0    0  501  0.00000000000E+00  0.00000000000E+00 -0.16651718479E+03  0.16651718481E+03  0.25500000920E-02 0. -1.
    10030    2    1    2    0    0  0.00000000000E+00  0.00000000000E+00  0.20933230220E+03  0.54236667181E+03  0.50034147734E+03 0.  0.
        5    1    3    3  502    0 -0.22983929349E+02  0.22483415662E+03 -0.11501540816E+02  0.22634715468E+03  0.46999998093E+01 0. -1.
       -5    1    3    3    0  502  0.22983929349E+02 -0.22483415662E+03  0.22083384301E+03  0.31601951713E+03  0.46999998093E+01 0.  1.
</event>
<event>
 5   0  0.1147245E-01  0.4945978E+03  0.7818609E-02  0.1015199E+00
       -1   -1    0    0    0  501  0.00000000000E+00  0.00000000000E+00  0.10607334970E+03  0.10607334982E+03  0.50400001928E-02 0.  1.
        1   -1    0    0  501    0  0.00000000000E+00  0.00000000000E+00 -0.57655153889E+03  0.57655153891E+03  0.50400001928E-02 0. -1.
    10030    2    1    2    0    0  0.00000000000E+00  0.00000000000E+00 -0.47047818919E+03  0.68262488874E+03  0.49459782877E+03 0.  0.
        1    1    3    3  502    0  0.24678125578E+03  0.92105652107E+00 -0.21320329221E+03  0.32612494598E+03  0.50400001928E-02 0.  1.
       -1    1    3    3    0  502 -0.24678125578E+03 -0.92105652107E+00 -0.25727489697E+03  0.35649994276E+03  0.50400001928E-02 0. -1.
</event>
<event>
 5   0  0.1068522E-01  0.5034737E+03  0.7818609E-02  0.1012876E+00
        1   -1    0    0  501    0  0.00000000000E+00  0.00000000000E+00  0.99503195367E+03  0.99503195368E+03  0.50400001928E-02 0. -1.
       -1   -1    0    0    0  501  0.00000000000E+00  0.00000000000E+00 -0.63687846123E+02  0.63687846322E+02  0.50400001928E-02 0.  1.
    10030    2    1    2    0    0  0.00000000000E+00  0.00000000000E+00  0.93134410755E+03  0.10587198000E+04  0.50347370166E+03 0.  0.
        2    1    3    3  502    0 -0.19591354413E+03  0.14801249784E+03  0.58240520059E+03  0.63204875917E+03  0.25500000920E-02 0.  1.
       -2    1    3    3    0  502  0.19591354413E+03 -0.14801249784E+03  0.34893890696E+03  0.42667104084E+03  0.25500000920E-02 0. -1.
</event>
<event>
 5   0  0.1683148E-01  0.4979288E+03  0.7818609E-02  0.1014321E+00
       -2   -1    0    0    0  501  0.00000000000E+00  0.00000000000E+00  0.40957342661E+02  0.40957342741E+02  0.25500000920E-02 0.  1.
        2   -1    0    0  501    0  0.00000000000E+00  0.00000000000E+00 -0.15133618686E+04  0.15133618686E+04  0.25500000920E-02 0. -1.
    10030    2    1    2    0    0  0.00000000000E+00  0.00000000000E+00 -0.14724045259E+04  0.15543192113E+04  0.49792883301E+03 0.  0.
        2    1    3    3  502    0  0.22932774444E+03  0.96699979662E+02 -0.71617058246E+03  0.75818362131E+03  0.25500000920E-02 0.  1.
       -2    1    3    3    0  502 -0.22932774444E+03 -0.96699979662E+02 -0.75623394344E+03  0.79613558999E+03  0.25500000920E-02 0. -1.
</event>
<event>
 5   0  0.1683148E-01  0.4940522E+03  0.7818609E-02  0.1015343E+00
        2   -1    0    0  501    0  0.00000000000E+00  0.00000000000E+00  0.76887964375E+03  0.76887964375E+03  0.25500000920E-02 0.  1.
       -2   -1    0    0    0  501  0.00000000000E+00  0.00000000000E+00 -0.79364696849E+02  0.79364696890E+02  0.25500000920E-02 0. -1.
    10030    2    1    2    0    0  0.00000000000E+00  0.00000000000E+00  0.68951494690E+03  0.84824434064E+03  0.49405222339E+03 0.  0.
        2    1    3    3  502    0 -0.22247751631E+02 -0.59259281359E+02  0.75471958777E+03  0.75736931615E+03  0.25500000920E-02 0.  1.
       -2    1    3    3    0  502  0.22247751631E+02  0.59259281359E+02 -0.65204640867E+02  0.90875024494E+02  0.25500000920E-02 0. -1.
</event>
<event>
 5   0  0.1709372E-01  0.5010226E+03  0.7818609E-02  0.1013512E+00
        2   -1    0    0  501    0  0.00000000000E+00  0.00000000000E+00  0.32210677337E+03  0.32210677338E+03  0.25500000920E-02 0. -1.
       -2   -1    0    0    0  501  0.00000000000E+00  0.00000000000E+00 -0.19482954941E+03  0.19482954942E+03  0.25500000920E-02 0.  1.
    10030    2    1    2    0    0  0.00000000000E+00  0.00000000000E+00  0.12727722396E+03  0.51693632280E+03  0.50102262433E+03 0.  0.
        4    1    3    3  502    0 -0.11399993523E+03  0.10246529134E+03 -0.14079407790E+03  0.20813386662E+03  0.12699999809E+01 0.  1.
       -4    1    3    3    0  502  0.11399993523E+03 -0.10246529134E+03  0.26807130186E+03  0.30880245618E+03  0.12699999809E+01 0. -1.
</event>
<event>
 5   0  0.1827698E-01  0.4991803E+03  0.7818609E-02  0.1013993E+00
       -2   -1    0    0    0  501  0.00000000000E+00  0.00000000000E+00  0.10652293298E+03  0.10652293301E+03  0.25500000920E-02 0. -1.
        2   -1    0    0  501    0  0.00000000000E+00  0.00000000000E+00 -0.58480590272E+03  0.58480590272E+03  0.25500000920E-02 0.  1.
    10030    2    1    2    0    0  0.00000000000E+00  0.00000000000E+00 -0.47828296974E+03  0.69132883573E+03  0.49918028804E+03 0.  0.
        1    1    3    3  502    0 -0.11744432989E+03  0.45866725081E+02 -0.53745871584E+03  0.55204963396E+03  0.50400001928E-02 0.  1.
       -1    1    3    3    0  502  0.11744432989E+03 -0.45866725081E+02  0.59175746102E+02  0.13927920177E+03  0.50400001928E-02 0. -1.
</event>
<event>
 5   0  0.1760649E-01  0.5337840E+03  0.7818609E-02  0.1005319E+00
        2   -1    0    0  501    0  0.00000000000E+00  0.00000000000E+00  0.10901212211E+03  0.10901212214E+03  0.25500000920E-02 0.  1.
       -2   -1    0    0    0  501  0.00000000000E+00  0.00000000000E+00 -0.65342583891E+03  0.65342583891E+03  0.25500000920E-02 0. -1.
    10030    2    1    2    0    0  0.00000000000E+00  0.00000000000E+00 -0.54441371680E+03  0.76243796105E+03  0.53378399134E+03 0.  0.
        5    1    3    3  502    0 -0.70201692713E+00  0.63921818491E+02 -0.64226831620E+03  0.64545888459E+03  0.46999998093E+01 0. -1.
       -5    1    3    3    0  502  0.70201692713E+00 -0.63921818491E+02  0.97854599401E+02  0.11697907646E+03  0.46999998093E+01 0.  1.
</event>
<event>
 5   0  0.1683148E-01  0.5067007E+03  0.7818609E-02  0.1012045E+00
       -2   -1    0    0    0  501  0.00000000000E+00  0.00000000000E+00  0.45269232835E+02  0.45269232906E+02  0.25500000920E-02 0. -1.
        2   -1    0    0  501    0  0.00000000000E+00  0.00000000000E+00 -0.14178813021E+04  0.14178813021E+04  0.25500000920E-02 0.  1.
    10030    2    1    2    0    0  0.00000000000E+00  0.00000000000E+00 -0.13726120693E+04  0.14631505350E+04  0.50670069608E+03 0.  0.
        2    1    3    3  502    0 -0.37692723871E+02  0.33769115352E+02 -0.14031374791E+04  0.14040498139E+04  0.25500000920E-02 0.  1.
       -2    1    3    3    0  502  0.37692723871E+02 -0.33769115352E+02  0.30525409845E+02  0.59100721122E+02  0.25500000920E-02 0. -1.
</event>
<event>
 5   0  0.1827698E-01  0.5007683E+03  0.7818609E-02  0.1013579E+00
       -2   -1    0    0    0  501  0.00000000000E+00  0.00000000000E+00  0.38666514923E+03  0.38666514924E+03  0.25500000920E-02 0. -1.
        2   -1    0    0  501    0  0.00000000000E+00  0.00000000000E+00 -0.16213572646E+03  0.16213572648E+03  0.25500000920E-02 0.  1.
    10030    2    1    2    0    0  0.00000000000E+00  0.00000000000E+00  0.22452942277E+03  0.54880087572E+03  0.50076834914E+03 0.  0.
        1    1    3    3  502    0 -0.21362454768E+03 -0.68757203465E+02 -0.94227916203E+01  0.22461475781E+03  0.50400001928E-02 0.  1.
       -1    1    3    3    0  502  0.21362454768E+03  0.68757203465E+02  0.23395221439E+03  0.32418611790E+03  0.50400001928E-02 0. -1.
</event>
<event>
 5   0  0.1123271E-01  0.5030060E+03  0.7818609E-02  0.1012997E+00
        1   -1    0    0  501    0  0.00000000000E+00  0.00000000000E+00  0.37627037747E+03  0.37627037750E+03  0.50400001928E-02 0. -1.
       -1   -1    0    0    0  501  0.00000000000E+00  0.00000000000E+00 -0.16810717981E+03  0.16810717988E+03  0.50400001928E-02 0.  1.
    10030    2    1    2    0    0  0.00000000000E+00  0.00000000000E+00  0.20816319766E+03  0.54437755738E+03  0.50300597226E+03 0.  0.
        5    1    3    3  502    0  0.16122008913E+03  0.19285691511E+03  0.11141819039E+03  0.27499419993E+03  0.46999998093E+01 0.  1.
       -5    1    3    3    0  502 -0.16122008913E+03 -0.19285691511E+03  0.96745007261E+02  0.26938335745E+03  0.46999998093E+01 0. -1.
</event>
<event>
 5   0  0.1123271E-01  0.5128078E+03  0.7818609E-02  0.1010489E+00
       -1   -1    0    0    0  501  0.00000000000E+00  0.00000000000E+00  0.38235967998E+02  0.38235968330E+02  0.50400001928E-02 0.  1.
        1   -1    0    0  501    0  0.00000000000E+00  0.00000000000E+00 -0.17194009646E+04  0.17194009646E+04  0.50400001928E-02 0. -1.
    10030    2    1    2    0    0  0.00000000000E+00  0.00000000000E+00 -0.16811649966E+04  0.17576369329E+04  0.51280780242E+03 0.  0.
        5    1    3    3  502    0 -0.23467923522E+03  0.81605367435E+02 -0.62415989049E+03  0.67181205582E+03  0.46999998093E+01 0. -1.
       -5    1    3    3    0  502  0.23467923522E+03 -0.81605367435E+02 -0.10570051061E+04  0.10858248771E+04  0.46999998093E+01 0.  1.
</event>
<event>
 5   0  0.1147245E-01  0.4972222E+03  0.7818609E-02  0.1014507E+00
       -1   -1    0    0    0  501  0.00000000000E+00  0.00000000000E+00  0.23594016604E+03  0.23594016609E+03  0.50400001928E-02 0.  1.
        1   -1    0    0  501    0  0.00000000000E+00  0.00000000000E+00 -0.26196253887E+03  0.26196253892E+03  0.50400001928E-02 0. -1.
    10030    2    1    2    0    0  0.00000000000E+00  0.00000000000E+00 -0.26022372834E+02  0.49790270501E+03  0.49722222373E+03 0.  0.
        1    1    3    3  502    0  0.38032840493E+02  0.24260991200E+03  0.25789985598E+02  0.24692344915E+03  0.50400001928E-02 0. -1.
       -1    1    3    3    0  502 -0.38032840493E+02 -0.24260991200E+03 -0.51812358432E+02  0.25097925586E+03  0.50400001928E-02 0.  1.
</event>
<event>
 5   0  0.7220250E-02  0.4958529E+03  0.7818609E-02  0.1014867E+00
        3   -1    0    0  501    0  0.00000000000E+00  0.00000000000E+00  0.30972981309E+03  0.30972982956E+03  0.10100000352E+00 0. -1.
       -3   -1    0    0    0  501  0.00000000000E+00  0.00000000000E+00 -0.19845523641E+03  0.19845526211E+03  0.10100000352E+00 0.  1.
    10030    2    1    2    0    0  0.00000000000E+00  0.00000000000E+00  0.11127457669E+03  0.50818509167E+03  0.49585285718E+03 0.  0.
        1    1    3    3  502    0 -0.22010609862E+03 -0.10836897635E+03  0.92260959583E+02  0.26211183562E+03  0.50400001928E-02 0.  1.
       -1    1    3    3    0  502  0.22010609862E+03  0.10836897635E+03  0.19013617105E+02  0.24607325605E+03  0.50400001928E-02 0. -1.
</event>
<event>
 5   0  0.1760649E-01  0.5004278E+03  0.7818609E-02  0.1013667E+00
       -2   -1    0    0    0  501  0.00000000000E+00  0.00000000000E+00  0.19040077201E+03  0.19040077202E+03  0.25500000920E-02 0. -1.
        2   -1    0    0  501    0  0.00000000000E+00  0.00000000000E+00 -0.32881690811E+03  0.32881690812E+03  0.25500000920E-02 0.  1.
    10030    2    1    2    0    0  0.00000000000E+00  0.00000000000E+00 -0.13841613610E+03  0.51921768014E+03  0.50042778964E+03 0.  0.
        5    1    3    3  502    0 -0.21047328559E+02  0.97305238036E+02  0.16891669993E+03  0.19612812369E+03  0.46999998093E+01 0. -1.
       -5    1    3    3    0  502  0.21047328559E+02 -0.97305238036E+02 -0.30733283603E+03  0.32308955645E+03  0.46999998093E+01 0.  1.
</event>
<event>
 5   0  0.1074281E-01  0.4860570E+03  0.7818609E-02  0.1017484E+00
        1   -1    0    0  501    0  0.00000000000E+00  0.00000000000E+00  0.27485079645E+03  0.27485079649E+03  0.50400001928E-02 0. -1.
       -1   -1    0    0    0  501  0.00000000000E+00  0.00000000000E+00 -0.21489056248E+03  0.21489056254E+03  0.50400001928E-02 0.  1.
    10030    2    1    2    0    0  0.00000000000E+00  0.00000000000E+00  0.59960233972E+02  0.48974135903E+03  0.48605696074E+03 0.  0.
        4    1    3    3  502    0 -0.64119346633E+02 -0.15907202351E+03  0.20346549937E+03  0.26611091975E+03  0.12699999809E+01 0. -1.
       -4    1    3    3    0  502  0.64119346633E+02  0.15907202351E+03 -0.14350526540E+03  0.22363043928E+03  0.12699999809E+01 0.  1.
</event>
<event>
 5   0  0.1827698E-01  0.5055845E+03  0.7818609E-02  0.1012331E+00
       -2   -1    0    0    0  501  0.00000000000E+00  0.00000000000E+00  0.25498183967E+02  0.25498184094E+02  0.25500000920E-02 0.  1.
        2   -1    0    0  501    0  0.00000000000E+00  0.00000000000E+00 -0.25062142585E+04  0.25062142585E+04  0.25500000920E-02 0. -1.
    10030    2    1    2    0    0  0.00000000000E+00  0.00000000000E+00 -0.24807160746E+04  0.25317124426E+04  0.50558446332E+03 0.  0.
        1    1    3    3  502    0  0.25196715520E+03  0.19654947259E+02 -0.12678528454E+04  0.12927972005E+04  0.50400001928E-02 0.  1.
       -1    1    3    3    0  502 -0.25196715520E+03 -0.19654947259E+02 -0.12128632292E+04  0.12389152421E+04  0.50400001928E-02 0. -1.
</event>
<event>
 5   0  0.7220250E-02  0.5089266E+03  0.7818609E-02  0.1011475E+00
        3   -1    0    0  501    0  0.00000000000E+00  0.00000000000E+00  0.24658521518E+03  0.24658523586E+03  0.10100000352E+00 0.  1.
       -3   -1    0    0    0  501  0.00000000000E+00  0.00000000000E+00 -0.26259308856E+03  0.26259310799E+03  0.10100000352E+00 0. -1.
    10030    2    1    2    0    0  0.00000000000E+00  0.00000000000E+00 -0.16007873383E+02  0.50917834385E+03  0.50892664878E+03 0.  0.
        2    1    3    3  502    0 -0.93628634136E+02  0.23008582005E+03 -0.63219796033E+02  0.25632508331E+03  0.25500000920E-02 0. -1.
       -2    1    3    3    0  502  0.93628634136E+02 -0.23008582005E+03  0.47211922650E+02  0.25285326054E+03  0.25500000920E-02 0.  1.
</event>
<event>
 5   0  0.1683148E-01  0.4981406E+03  0.7818609E-02  0.1014265E+00
        2   -1    0    0  501    0  0.00000000000E+00  0.00000000000E+00  0.97165074228E+03  0.97165074229E+03  0.25500000920E-02 0. -1.
       -2   -1    0    0    0  501  0.00000000000E+00  0.00000000000E+00 -0.63846010078E+02  0.63846010129E+02  0.25500000920E-02 0.  1.
    10030    2    1    2    0    0  0.00000000000E+00  0.00000000000E+00  0.90780473221E+03  0.10354967524E+04  0.49814063521E+03 0.  0.
        2    1    3    3  502    0 -0.24085017763E+03  0.29128538573E+02  0.57110152602E+03  0.62049515135E+03  0.25500000920E-02 0.  1.
       -2    1    3    3    0  502  0.24085017763E+03 -0.29128538573E+02  0.33670320618E+03  0.41500160106E+03  0.25500000920E-02 0. -1.
</event>
<event>
 5   0  0.1123271E-01  0.4964058E+03  0.7818609E-02  0.1014721E+00
        1   -1    0    0  501    0  0.00000000000E+00  0.00000000000E+00  0.57021818484E+03  0.57021818486E+03  0.50400001928E-02 0. -1.
       -1   -1    0    0    0  501  0.00000000000E+00  0.00000000000E+00 -0.10803704197E+03  0.10803704209E+03  0.50400001928E-02 0.  1.
    10030    2    1    2    0    0  0.00000000000E+00  0.00000000000E+00  0.46218114287E+03  0.67825522695E+03  0.49640582597E+03 0.  0.
        5    1    3    3  502    0  0.12362740563E+03 -0.12150661020E+02  0.52461745392E+03  0.53914463453E+03  0.46999998093E+01 0. -1.
       -5    1    3    3    0  502 -0.12362740563E+03  0.12150661020E+02 -0.62436311057E+02  0.13911059241E+03  0.46999998093E+01 0.  1.
</event>
<event>
 5   0  0.1683148E-01  0.5047964E+03  0.7818609E-02  0.1012535E+00
       -2   -1    0    0    0  501  0.00000000000E+00  0.00000000000E+00  0.98715532679E+02  0.98715532711E+02  0.25500000920E-02 0.  1.
        2   -1    0    0  501    0  0.00000000000E+00  0.00000000000E+00 -0.64533771288E+03  0.64533771288E+03  0.25500000920E-02 0. -1.
    10030    2    1    2    0    0  0.00000000000E+00  0.00000000000E+00 -0.54662218020E+03  0.74405324559E+03  0.50479641876E+03 0.  0.
        2    1    3    3  502    0 -0.40549205074E+01 -0.22809331848E+03 -0.11413731781E+03  0.25508887008E+03  0.25500000920E-02 0.  1.
       -2    1    3    3    0  502  0.40549205074E+01  0.22809331848E+03 -0.43248486239E+03  0.48896437551E+03  0.25500000920E-02 0. -1.
</event>
<event>
 5   0  0.1760649E-01  0.4950388E+03  0.7818609E-02  0.1015082E+00
        2   -1    0    0  501    0  0.00000000000E+00  0.00000000000E+00  0.54174731583E+03  0.54174731584E+03  0.25500000920E-02 0.  1.
       -2   -1    0    0    0  501  0.00000000000E+00  0.00000000000E+00 -0.11308936718E+03  0.11308936720E+03  0.25500000920E-02 0. -1.
    10030    2    1    2    0    0  0.00000000000E+00  0.00000000000E+00  0.42865794866E+03  0.65483668304E+03  0.49503883132E+03 0.  0.
        5    1    3    3  502    0 -0.22235898550E+03  0.10828225608E+03  0.22580044664E+03  0.33492759981E+03  0.46999998093E+01 0.  1.
       -5    1    3    3    0  502  0.22235898550E+03 -0.10828225608E+03  0.20285750202E+03  0.31990908324E+03  0.46999998093E+01 0. -1.
</event>
<event>
 5   0  0.1074281E-01  0.5472076E+03  0.7818609E-02  0.1002142E+00
        1   -1    0    0  501    0  0.00000000000E+00  0.00000000000E+00  0.48196497016E+03  0.48196497019E+03  0.50400001928E-02 0.  1.
       -1   -1    0    0    0  501  0.00000000000E+00  0.00000000000E+00 -0.15532049236E+03  0.15532049244E+03  0.50400001928E-02 0. -1.
    10030    2    1    2    0    0  0.00000000000E+00  0.00000000000E+00  0.32664447780E+03  0.63728546263E+03  0.54720758949E+03 0.  0.
        4    1    3    3  502    0  0.20505885605E+02  0.24419784945E+03  0.21620081403E+02  0.24601244245E+03  0.12699999809E+01 0. -1.
       -4    1    3    3    0  502 -0.20505885605E+02 -0.24419784945E+03  0.30502439640E+03  0.39127302018E+03  0.12699999809E+01 0.  1.
</event>
<event>
 5   0  0.1827698E-01  0.4971450E+03  0.7818609E-02  0.1014527E+00
        2   -1    0    0  501    0  0.00000000000E+00  0.00000000000E+00  0.29906862925E+03  0.29906862927E+03  0.25500000920E-02 0.  1.
       -2   -1    0    0    0  501  0.00000000000E+00  0.00000000000E+00 -0.20660237657E+03  0.20660237658E+03  0.25500000920E-02 0. -1.
    10030    2    1    2    0    0  0.00000000000E+00  0.00000000000E+00  0.92466252690E+02  0.50567100585E+03  0.49714500728E+03 0.  0.
        1    1    3    3  502    0  0.91054154701E+02 -0.10709937567E+03  0.25475420469E+03  0.29096535909E+03  0.50400001928E-02 0.  1.
       -1    1    3    3    0  502 -0.91054154701E+02  0.10709937567E+03 -0.16228795200E+03  0.21470564675E+03  0.50400001928E-02 0. -1.
</event>
<event>
 5   0  0.1123271E-01  0.5061688E+03  0.7818609E-02  0.1012181E+00
       -1   -1    0    0    0  501  0.00000000000E+00  0.00000000000E+00  0.31275404806E+03  0.31275404810E+03  0.50400001928E-02 0. -1.
        1   -1    0    0  501    0  0.00000000000E+00  0.00000000000E+00 -0.20479895657E+03  0.20479895663E+03  0.50400001928E-02 0.  1.
    10030    2    1    2    0    0  0.00000000000E+00  0.00000000000E+00  0.10795509149E+03  0.51755300473E+03  0.50616875736E+03 0.  0.
        5    1    3    3  502    0 -0.58766130468E+02 -0.13757174017E+03 -0.15469623905E+03  0.21524975762E+03  0.46999998093E+01 0.  1.
       -5    1    3    3    0  502  0.58766130468E+02  0.13757174017E+03  0.26265133054E+03  0.30230324711E+03  0.46999998093E+01 0. -1.
</event>
<event>
 5   0  0.1147245E-01  0.5004909E+03  0.7818609E-02  0.1013651E+00
        1   -1    0    0  501    0  0.00000000000E+00  0.00000000000E+00  0.12566526896E+03  0.12566526906E+03  0.50400001928E-02 0.  1.
       -1   -1    0    0    0  501  0.00000000000E+00  0.00000000000E+00 -0.49833001759E+03  0.49833001762E+03  0.50400001928E-02 0. -1.
    10030    2    1    2    0    0  0.00000000000E+00  0.00000000000E+00 -0.37266474863E+03  0.62399528667E+03  0.50049086197E+03 0.  0.
        1    1    3    3  502    0 -0.20889055116E+03 -0.83030120841E+02 -0.49224820211E+02  0.23011376813E+03  0.50400001928E-02 0.  1.
       -1    1    3    3    0  502  0.20889055116E+03  0.83030120841E+02 -0.32343992842E+03  0.39388151855E+03  0.50400001928E-02 0. -1.
</event>
<event>
 5   0  0.1141970E-01  0.5157549E+03  0.7818609E-02  0.1009747E+00
       -1   -1    0    0    0  501  0.00000000000E+00  0.00000000000E+00  0.13632082038E+03  0.13632082048E+03  0.50400001928E-02 0. -1.
        1   -1    0    0  501    0  0.00000000000E+00  0.00000000000E+00 -0.48782558577E+03  0.48782558580E+03  0.50400001928E-02 0.  1.
    10030    2    1    2    0    0  0.00000000000E+00  0.00000000000E+00 -0.35150476539E+03  0.62414640628E+03  0.51575491891E+03 0.  0.
        3    1    3    3  502    0 -0.19698266285E+03 -0.16436405974E+03 -0.20738044720E+03  0.32988539477E+03  0.10100000352E+00 0.  1.
       -3    1    3    3    0  502  0.19698266285E+03  0.16436405974E+03 -0.14412431819E+03  0.29426101151E+03  0.10100000352E+00 0. -1.
</event>
<event>
 5   0  0.1074281E-01  0.4935139E+03  0.7818609E-02  0.1015486E+00
        1   -1    0    0  501    0  0.00000000000E+00  0.00000000000E+00  0.25648306138E+03  0.25648306143E+03  0.50400001928E-02 0. -1.
       -1   -1    0    0    0  501  0.00000000000E+00  0.00000000000E+00 -0.23739966025E+03  0.23739966031E+03  0.50400001928E-02 0.  1.
    10030    2    1    2    0    0  0.00000000000E+00  0.00000000000E+00  0.19083401126E+02  0.49388272174E+03  0.49351389710E+03 0.  0.
        4    1    3    3  502    0  0.28128578515E+02 -0.96000373643E+01  0.25468190918E+03  0.25641346574E+03  0.12699999809E+01 0. -1.
       -4    1    3    3    0  502 -0.28128578515E+02  0.96000373643E+01 -0.23559850806E+03  0.23746925600E+03  0.12699999809E+01 0.  1.
</event>
<event>
 5   0  0.1782124E-01  0.4668516E+03  0.7818609E-02  0.1022813E+00
       -2   -1    0    0    0  501  0.00000000000E+00  0.00000000000E+00  0.76383410017E+03  0.76383410018E+03  0.25500000920E-02 0.  1.
        2   -1    0    0  501    0  0.00000000000E+00  0.00000000000E+00 -0.71334356051E+02  0.71334356096E+02  0.25500000920E-02 0. -1.
    10030    2    1    2    0    0  0.00000000000E+00  0.00000000000E+00  0.69249974412E+03  0.83516845627E+03  0.46685164104E+03 0.  0.
        3    1    3    3  502    0  0.52599976262E+02  0.16307980655E+03  0.62683100676E+02  0.18245811058E+03  0.10100000352E+00 0. -1.
       -3    1    3    3    0  502 -0.52599976262E+02 -0.16307980655E+03  0.62981664345E+03  0.65271034569E+03  0.10100000352E+00 0.  1.
</event>
<event>
 5   0  0.1123271E-01  0.4965784E+03  0.7818609E-02  0.1014676E+00
       -1   -1    0    0    0  501  0.00000000000E+00  0.00000000000E+00  0.28197796509E+03  0.28197796513E+03  0.50400001928E-02 0. -1.
        1   -1    0    0  501    0  0.00000000000E+00  0.00000000000E+00 -0.21862533941E+03  0.21862533947E+03  0.50400001928E-02 0.  1.
    10030    2    1    2    0    0  0.00000000000E+00  0.00000000000E+00  0.63352625675E+02  0.50060330461E+03  0.49657840610E+03 0.  0.
        5    1    3    3  502    0 -0.17222160633E+03  0.16635006438E+03 -0.34374300457E+02  0.24194277864E+03  0.46999998093E+01 0. -1.
       -5    1    3    3    0  502  0.17222160633E+03 -0.16635006438E+03  0.97726926132E+02  0.25866052597E+03  0.46999998093E+01 0.  1.
</event>
<event>
 5   0  0.1782124E-01  0.5025488E+03  0.7818609E-02  0.1013116E+00
        2   -1    0    0  501    0  0.00000000000E+00  0.00000000000E+00  0.19497552687E+04  0.19497552688E+04  0.25500000920E-02 0.  1.
       -2   -1    0    0    0  501  0.00000000000E+00  0.00000000000E+00 -0.32382947624E+02  0.32382947725E+02  0.25500000920E-02 0. -1.
    10030    2    1    2    0    0  0.00000000000E+00  0.00000000000E+00  0.19173723211E+04  0.19821382165E+04  0.50254879504E+03 0.  0.
        3    1    3    3  502    0  0.13523698203E+02  0.22193781822E+03  0.49704078808E+03  0.54450788864E+03  0.10100000352E+00 0. -1.
       -3    1    3    3    0  502 -0.13523698203E+02 -0.22193781822E+03  0.14203315330E+04  0.14376303278E+04  0.10100000352E+00 0.  1.
</event>
<event>
 5   0  0.1760649E-01  0.4920269E+03  0.7818609E-02  0.1015881E+00
        2   -1    0    0  501    0  0.00000000000E+00  0.00000000000E+00  0.18888469482E+04  0.18888469482E+04  0.25500000920E-02 0. -1.
       -2   -1    0    0    0  501  0.00000000000E+00  0.00000000000E+00 -0.32042091565E+02  0.32042091667E+02  0.25500000920E-02 0.  1.
    10030    2    1    2    0    0  0.00000000000E+00  0.00000000000E+00  0.18568048567E+04  0.19208890399E+04  0.49202685686E+03 0.  0.
        5    1    3    3  502    0  0.96023847675E+02 -0.10998387532E+03  0.15560619177E+03  0.21343010347E+03  0.46999998093E+01 0.  1.
       -5    1    3    3    0  502 -0.96023847675E+02  0.10998387532E+03  0.17011986649E+04  0.17074589364E+04  0.46999998093E+01 0. -1.
</event>
<event>
 5   0  0.1068522E-01  0.5135683E+03  0.7818609E-02  0.1010297E+00
       -1   -1    0    0    0  501  0.00000000000E+00  0.00000000000E+00  0.33570004681E+03  0.33570004684E+03  0.50400001928E-02 0.  1.
        1   -1    0    0  501    0  0.00000000000E+00  0.00000000000E+00 -0.19641971449E+03  0.19641971456E+03  0.50400001928E-02 0. -1.
    10030    2    1    2    0    0  0.00000000000E+00  0.00000000000E+00  0.13928033232E+03  0.53211976140E+03  0.51356832992E+03 0.  0.
        2    1    3    3  502    0 -0.19215404236E+03  0.61142229044E+02 -0.95088859900E+02  0.22294268199E+03  0.25500000920E-02 0. -1.
       -2    1    3    3    0  502  0.19215404236E+03 -0.61142229044E+02  0.23436919222E+03  0.30917707941E+03  0.25500000920E-02 0.  1.
</event>
<event>
 5   0  0.1074281E-01  0.4917823E+03  0.7818609E-02  0.1015946E+00
        1   -1    0    0  501    0  0.00000000000E+00  0.00000000000E+00  0.32965142551E+03  0.32965142555E+03  0.50400001928E-02 0. -1.
       -1   -1    0    0    0  501  0.00000000000E+00  0.00000000000E+00 -0.18341328002E+03  0.18341328009E+03  0.50400001928E-02 0.  1.
    10030    2    1    2    0    0  0.00000000000E+00  0.00000000000E+00  0.14623814549E+03  0.51306470564E+03  0.49178226582E+03 0.  0.
        4    1    3    3  502    0  0.35335628903E+02 -0.37318306110E+02  0.32398213487E+03  0.32803551524E+03  0.12699999809E+01 0. -1.
       -4    1    3    3    0  502 -0.35335628903E+02  0.37318306110E+02 -0.17774398938E+03  0.18502919040E+03  0.12699999809E+01 0.  1.
</event>
<event>
 5   0  0.1683148E-01  0.5035879E+03  0.7818609E-02  0.1012847E+00
        2   -1    0    0  501    0  0.00000000000E+00  0.00000000000E+00  0.35135991403E+03  0.35135991404E+03  0.25500000920E-02 0. -1.
       -2   -1    0    0    0  501  0.00000000000E+00  0.00000000000E+00 -0.18044228116E+03  0.18044228118E+03  0.25500000920E-02 0.  1.
    10030    2    1    2    0    0  0.00000000000E+00  0.00000000000E+00  0.17091763287E+03  0.53180219522E+03  0.50358786485E+03 0.  0.
        2    1    3    3  502    0 -0.78646363815E+02  0.13473727803E+03 -0.12325222979E+03  0.19882277734E+03  0.25500000920E-02 0.  1.
       -2    1    3    3    0  502  0.78646363815E+02 -0.13473727803E+03  0.29416986266E+03  0.33297941789E+03  0.25500000920E-02 0. -1.
</event>
<event>
 5   0  0.1782124E-01  0.4987881E+03  0.7818609E-02  0.1014096E+00
       -2   -1    0    0    0  501  0.00000000000E+00  0.00000000000E+00  0.32128830730E+03  0.32128830731E+03  0.25500000920E-02 0.  1.
        2   -1    0    0  501    0  0.00000000000E+00  0.00000000000E+00 -0.19358744488E+03  0.19358744490E+03  0.25500000920E-02 0. -1.
    10030    2    1    2    0    0  0.00000000000E+00  0.00000000000E+00  0.12770086242E+03  0.51487575221E+03  0.49878806116E+03 0.  0.
        3    1    3    3  502    0  0.15201198351E+03 -0.34411884540E+02 -0.13712260733E+03  0.20759200507E+03  0.10100000352E+00 0. -1.
       -3    1    3    3    0  502 -0.15201198351E+03  0.34411884540E+02  0.26482346975E+03  0.30728374714E+03  0.10100000352E+00 0.  1.
</event>
<event>
 5   0  0.1147245E-01  0.4995502E+03  0.7818609E-02  0.1013896E+00
        1   -1    0    0  501    0  0.00000000000E+00  0.00000000000E+00  0.90008320322E+02  0.90008320463E+02  0.50400001928E-02 0.  1.
       -1   -1    0    0    0  501  0.00000000000E+00  0.00000000000E+00 -0.69313140023E+03  0.69313140025E+03  0.50400001928E-02 0. -1.
    10030    2    1    2    0    0  0.00000000000E+00  0.00000000000E+00 -0.60312307991E+03  0.78313972072E+03  0.49955017029E+03 0.  0.
        1    1    3    3  502    0  0.40041175115E+02 -0.24530322643E+03 -0.34030043818E+03  0.42140403042E+03  0.50400001928E-02 0. -1.
       -1    1    3    3    0  502 -0.40041175115E+02  0.24530322643E+03 -0.26282264173E+03  0.36173569030E+03  0.50400001928E-02 0.  1.
</event>
<event>
 5   0  0.1760649E-01  0.5026654E+03  0.7818609E-02  0.1013086E+00
       -2   -1    0    0    0  501  0.00000000000E+00  0.00000000000E+00  0.18780780531E+03  0.18780780532E+03  0.25500000920E-02 0.  1.
        2   -1    0    0  501    0  0.00000000000E+00  0.00000000000E+00 -0.33634458566E+03  0.33634458567E+03  0.25500000920E-02 0. -1.
    10030    2    1    2    0    0  0.00000000000E+00  0.00000000000E+00 -0.14853678036E+03  0.52415239100E+03  0.50266544925E+03 0.  0.
        5    1    3    3  502    0  0.18001633735E+03  0.17212735815E+03 -0.10904579596E+03  0.27193158102E+03  0.46999998093E+01 0.  1.
       -5    1    3    3    0  502 -0.18001633735E+03 -0.17212735815E+03 -0.39490984392E+02  0.25222080998E+03  0.46999998093E+01 0. -1.
</event>
<event>
 5   0  0.7220250E-02  0.4984224E+03  0.7818609E-02  0.1014192E+00
       -3   -1    0    0    0  501  0.00000000000E+00  0.00000000000E+00  0.58483731308E+03  0.58483732180E+03  0.10100000352E+00 0.  1.
        3   -1    0    0  501    0  0.00000000000E+00  0.00000000000E+00 -0.10619396356E+03  0.10619401159E+03  0.10100000352E+00 0. -1.
    10030    2    1    2    0    0  0.00000000000E+00  0.00000000000E+00  0.47864334952E+03  0.69103133339E+03  0.49842235873E+03 0.  0.
        5    1    3    3  502    0  0.50722792444E+02 -0.19676825613E+03  0.43924560975E+03  0.48399312389E+03  0.46999998093E+01 0.  1.
       -5    1    3    3    0  502 -0.50722792444E+02  0.19676825613E+03  0.39397739766E+02  0.20703820949E+03  0.46999998093E+01 0. -1.
</event>
<event>
 5   0  0.1074281E-01  0.4931334E+03  0.7818609E-02  0.1015587E+00
        1   -1    0    0  501    0  0.00000000000E+00  0.00000000000E+00  0.40272166246E+03  0.40272166249E+03  0.50400001928E-02 0. -1.
       -1   -1    0    0    0  501  0.00000000000E+00  0.00000000000E+00 -0.15096065640E+03  0.15096065649E+03  0.50400001928E-02 0.  1.
    10030    2    1    2    0    0  0.00000000000E+00  0.00000000000E+00  0.25176100606E+03  0.55368231898E+03  0.49313335537E+03 0.  0.
        4    1    3    3  502    0 -0.13059983026E+03 -0.16631866440E+03 -0.16475510407E+02  0.21211145451E+03  0.12699999809E+01 0.  1.
       -4    1    3    3    0  502  0.13059983026E+03  0.16631866440E+03  0.26823651647E+03  0.34157086447E+03  0.12699999809E+01 0. -1.
</event>
<event>
 5   0  0.7220250E-02  0.5069307E+03  0.7818609E-02  0.1011986E+00
        3   -1    0    0  501    0  0.00000000000E+00  0.00000000000E+00  0.42635519322E+03  0.42635520518E+03  0.10100000352E+00 0. -1.
       -3   -1    0    0    0  501  0.00000000000E+00  0.00000000000E+00 -0.15068343092E+03  0.15068346477E+03  0.10100000352E+00 0.  1.
    10030    2    1    2    0    0  0.00000000000E+00  0.00000000000E+00  0.27567176229E+03  0.57703866995E+03  0.50693067188E+03 0.  0.
        5    1    3    3  502    0 -0.42377016484E+02 -0.20773503855E+03  0.29586248511E+03  0.36401422756E+03  0.46999998093E+01 0. -1.
       -5    1    3    3    0  502  0.42377016484E+02  0.20773503855E+03 -0.20190722819E+02  0.21302444239E+03  0.46999998093E+01 0.  1.
</event>
<event>
 5   0  0.1123271E-01  0.4876447E+03  0.7818609E-02  0.1017055E+00
       -1   -1    0    0    0  501  0.00000000000E+00  0.00000000000E+00  0.36920084947E+03  0.36920084951E+03  0.50400001928E-02 0.  1.
        1   -1    0    0  501    0  0.00000000000E+00  0.00000000000E+00 -0.16102165935E+03  0.16102165943E+03  0.50400001928E-02 0. -1.
    10030    2    1    2    0    0  0.00000000000E+00  0.00000000000E+00  0.20817919012E+03  0.53022250894E+03  0.48764467985E+03 0.  0.
        5    1    3    3  502    0 -0.11675776585E+03  0.15184130091E+03  0.26805082996E+03  0.32948671292E+03  0.46999998093E+01 0.  1.
       -5    1    3    3    0  502  0.11675776585E+03 -0.15184130091E+03 -0.59871639847E+02  0.20073579602E+03  0.46999998093E+01 0. -1.
</event>
<event>
 5   0  0.1683148E-01  0.5006831E+03  0.7818609E-02  0.1013601E+00
        2   -1    0    0  501    0  0.00000000000E+00  0.00000000000E+00  0.11907428632E+04  0.11907428632E+04  0.25500000920E-02 0.  1.
       -2   -1    0    0    0  501  0.00000000000E+00  0.00000000000E+00 -0.52631755322E+02  0.52631755384E+02  0.25500000920E-02 0. -1.
    10030    2    1    2    0    0  0.00000000000E+00  0.00000000000E+00  0.11381111078E+04  0.12433746186E+04  0.50068308166E+03 0.  0.
        2    1    3    3  502    0  0.13755744112E+03 -0.56413428383E+01  0.10882909853E+04  0.10969645131E+04  0.25500000920E-02 0.  1.
       -2    1    3    3    0  502 -0.13755744112E+03  0.56413428383E+01  0.49820122544E+02  0.14641010543E+03  0.25500000920E-02 0. -1.
</event>
<event>
 5   0  0.1074281E-01  0.4985315E+03  0.7818609E-02  0.1014163E+00
        1   -1    0    0  501    0  0.00000000000E+00  0.00000000000E+00  0.33883460783E+03  0.33883460787E+03  0.50400001928E-02 0.  1.
       -1   -1    0    0    0  501  0.00000000000E+00  0.00000000000E+00 -0.18337387465E+03  0.18337387472E+03  0.50400001928E-02 0. -1.
    10030    2    1    2    0    0  0.00000000000E+00  0.00000000000E+00  0.15546073318E+03  0.52220848259E+03  0.49853150324E+03 0.  0.
        4    1    3    3  502    0 -0.56465375159E+02 -0.24243829052E+03  0.91272586606E+02  0.26513574121E+03  0.12699999809E+01 0.  1.
       -4    1    3    3    0  502  0.56465375159E+02  0.24243829052E+03  0.64188146572E+02  0.25707274138E+03  0.12699999809E+01 0. -1.
</event>
<event>
 5   0  0.1068522E-01  0.5219686E+03  0.7818609E-02  0.1008199E+00
       -1   -1    0    0    0  501  0.00000000000E+00  0.00000000000E+00  0.39195489573E+02  0.39195489897E+02  0.50400001928E-02 0. -1.
        1   -1    0    0  501    0  0.00000000000E+00  0.00000000000E+00 -0.17377713765E+04  0.17377713765E+04  0.50400001928E-02 0.  1.
    10030    2    1    2    0    0  0.00000000000E+00  0.00000000000E+00 -0.16985758870E+04  0.17769668664E+04  0.52196858206E+03 0.  0.
        2    1    3    3  502    0 -0.18585534965E+03 -0.34735658543E+02 -0.23684417695E+03  0.30305765315E+03  0.25500000920E-02 0. -1.
       -2    1    3    3    0  502  0.18585534965E+03  0.34735658543E+02 -0.14617317100E+04  0.14739092133E+04  0.25500000920E-02 0.  1.
</event>
<event>
 5   0  0.1760649E-01  0.5018936E+03  0.7818609E-02  0.1013286E+00
       -2   -1    0    0    0  501  0.00000000000E+00  0.00000000000E+00  0.69161485371E+02  0.69161485418E+02  0.25500000920E-02 0. -1.
        2   -1    0    0  501    0  0.00000000000E+00  0.00000000000E+00 -0.91053995895E+03  0.91053995895E+03  0.25500000920E-02 0.  1.
    10030    2    1    2    0    0  0.00000000000E+00  0.00000000000E+00 -0.84137847358E+03  0.97970144437E+03  0.50189359859E+03 0.  0.
        5    1    3    3  502    0 -0.12576947215E+03  0.59256291380E+02 -0.82838814384E+03  0.83998706838E+03  0.46999998093E+01 0.  1.
       -5    1    3    3    0  502  0.12576947215E+03 -0.59256291380E+02 -0.12990329734E+02  0.13971437599E+03  0.46999998093E+01 0. -1.
</event>
<event>
 5   0  0.1709372E-01  0.5009773E+03  0.7818609E-02  0.1013524E+00
        2   -1    0    0  501    0  0.00000000000E+00  0.00000000000E+00  0.19808322595E+03  0.19808322597E+03  0.25500000920E-02 0.  1.
       -2   -1    0    0    0  501  0.00000000000E+00  0.00000000000E+00 -0.31675859510E+03  0.31675859511E+03  0.25500000920E-02 0. -1.
    10030    2    1    2    0    0  0.00000000000E+00  0.00000000000E+00 -0.11867536915E+03  0.51484182108E+03  0.50097730237E+03 0.  0.
        4    1    3    3  502    0 -0.20586964284E+03 -0.13326824133E+02 -0.20533639854E+03  0.29107484184E+03  0.12699999809E+01 0. -1.
       -4    1    3    3    0  502  0.20586964284E+03  0.13326824133E+02  0.86661029390E+02  0.22376697924E+03  0.12699999809E+01 0.  1.
</event>
<event>
 5   0  0.1068522E-01  0.4957105E+03  0.7818609E-02  0.1014905E+00
        1   -1    0    0  501    0  0.00000000000E+00  0.00000000000E+00  0.59511330714E+03  0.59511330716E+03  0.50400001928E-02 0.  1.
       -1   -1    0    0    0  501  0.00000000000E+00  0.00000000000E+00 -0.10322777670E+03  0.10322777682E+03  0.50400001928E-02 0. -1.
    10030    2    1    2    0    0  0.00000000000E+00  0.00000000000E+00  0.49188553044E+03  0.69834108398E+03  0.49571049467E+03 0.  0.
        2    1    3    3  502    0 -0.16326247598E+01 -0.18197151704E+03  0.88846336578E+01  0.18219559599E+03  0.25500000920E-02 0. -1.
       -2    1    3    3    0  502  0.16326247598E+01  0.18197151704E+03  0.48300089678E+03  0.51614548799E+03  0.25500000920E-02 0.  1.
</event>
<event>
 5   0  0.1141970E-01  0.4936804E+03  0.7818609E-02  0.1015442E+00
        1   -1    0    0  501    0  0.00000000000E+00  0.00000000000E+00  0.75820361054E+03  0.75820361056E+03  0.50400001928E-02 0.  1.
       -1   -1    0    0    0  501  0.00000000000E+00  0.00000000000E+00 -0.80361118286E+02  0.80361118444E+02  0.50400001928E-02 0. -1.
    10030    2    1    2    0    0  0.00000000000E+00  0.00000000000E+00  0.67784249226E+03  0.83856472900E+03  0.49368042337E+03 0.  0.
        3    1    3    3  502    0 -0.19068429135E+03  0.10584477728E+03  0.53530201368E+03  0.57802411014E+03  0.10100000352E+00 0.  1.
       -3    1    3    3    0  502  0.19068429135E+03 -0.10584477728E+03  0.14254047858E+03  0.26054061887E+03  0.10100000352E+00 0. -1.
</event>
<event>
 5   0  0.1068522E-01  0.4920841E+03  0.7818609E-02  0.1015866E+00
        1   -1    0    0  501    0  0.00000000000E+00  0.00000000000E+00  0.58779440439E+03  0.58779440441E+03  0.50400001928E-02 0.  1.
       -1   -1    0    0    0  501  0.00000000000E+00  0.00000000000E+00 -0.10298957703E+03  0.10298957715E+03  0.50400001928E-02 0. -1.
    10030    2    1    2    0    0  0.00000000000E+00  0.00000000000E+00  0.48480482736E+03  0.69078398157E+03  0.49208412752E+03 0.  0.
        2    1    3    3  502    0  0.68956567117E+02  0.52580920142E+02  0.56563133523E+03  0.57223995728E+03  0.25500000920E-02 0.  1.
       -2    1    3    3    0  502 -0.68956567117E+02 -0.52580920142E+02 -0.80826507872E+02  0.11854402428E+03  0.25500000920E-02 0. -1.
</event>
<event>
 5   0  0.1782124E-01  0.5010732E+03  0.7818609E-02  0.1013499E+00
        2   -1    0    0  501    0  0.00000000000E+00  0.00000000000E+00  0.72386993693E+03  0.72386993694E+03  0.25500000920E-02 0. -1.
       -2   -1    0    0    0  501  0.00000000000E+00  0.00000000000E+00 -0.86712533692E+02  0.86712533729E+02  0.25500000920E-02 0.  1.
    10030    2    1    2    0    0  0.00000000000E+00  0.00000000000E+00  0.63715740324E+03  0.81058247067E+03  0.50107323342E+03 0.  0.
        3    1    3    3  502    0 -0.79577494373E+01 -0.25035111731E+03  0.30978071443E+03  0.39837558779E+03  0.10100000352E+00 0.  1.
       -3    1    3    3    0  502  0.79577494373E+01  0.25035111731E+03  0.32737668881E+03  0.41220688288E+03  0.10100000352E+00 0. -1.
</event>
<event>
 5   0  0.1123271E-01  0.5059141E+03  0.7818609E-02  0.1012247E+00
        1   -1    0    0  501    0  0.00000000000E+00  0.00000000000E+00  0.62467416758E+03  0.62467416760E+03  0.50400001928E-02 0. -1.
       -1   -1    0    0    0  501  0.00000000000E+00  0.00000000000E+00 -0.10243302468E+03  0.10243302480E+03  0.50400001928E-02 0.  1.
    10030    2    1    2    0    0  0.00000000000E+00  0.00000000000E+00  0.52224114290E+03  0.72710719240E+03  0.50591408154E+03 0.  0.
        5    1    3    3  502    0 -0.13891954652E+03  0.13737189956E+03  0.30289850275E+02  0.19776057297E+03  0.46999998093E+01 0. -1.
       -5    1    3    3    0  502  0.13891954652E+03 -0.13737189956E+03  0.49195129263E+03  0.52934661944E+03  0.46999998093E+01 0.  1.
</event>
<event>
 5   0  0.1074281E-01  0.4984599E+03  0.7818609E-02  0.1014182E+00
       -1   -1    0    0    0  501  0.00000000000E+00  0.00000000000E+00  0.51698395154E+02  0.51698395400E+02  0.50400001928E-02 0.  1.
        1   -1    0    0  501    0  0.00000000000E+00  0.00000000000E+00 -0.12014989170E+04  0.12014989171E+04  0.50400001928E-02 0. -1.
    10030    2    1    2    0    0  0.00000000000E+00  0.00000000000E+00 -0.11498005219E+04  0.12531973125E+04  0.49845989187E+03 0.  0.
        4    1    3    3  502    0 -0.14438115019E+03 -0.66000551314E+02 -0.91871699602E+02  0.18342303943E+03  0.12699999809E+01 0.  1.
       -4    1    3    3    0  502  0.14438115019E+03  0.66000551314E+02 -0.10579288223E+04  0.10697742730E+04  0.12699999809E+01 0. -1.
</event>
<event>
 5   0  0.1147245E-01  0.4762870E+03  0.7818609E-02  0.1020161E+00
        1   -1    0    0  501    0  0.00000000000E+00  0.00000000000E+00  0.11828763058E+04  0.11828763058E+04  0.50400001928E-02 0. -1.
       -1   -1    0    0    0  501  0.00000000000E+00  0.00000000000E+00 -0.47944427797E+02  0.47944428062E+02  0.50400001928E-02 0.  1.
    10030    2    1    2    0    0  0.00000000000E+00  0.00000000000E+00  0.11349318780E+04  0.12308207339E+04  0.47628700509E+03 0.  0.
        1    1    3    3  502    0  0.20066928234E+03 -0.90052648146E+02  0.80338918274E+03  0.83295367175E+03  0.50400001928E-02 0.  1.
       -1    1    3    3    0  502 -0.20066928234E+03  0.90052648146E+02  0.33154269525E+03  0.39786706211E+03  0.50400001928E-02 0. -1.
</event>
<event>
 5   0  0.1827698E-01  0.5075691E+03  0.7818609E-02  0.1011822E+00
       -2   -1    0    0    0  501  0.00000000000E+00  0.00000000000E+00  0.29417963063E+03  0.29417963064E+03  0.25500000920E-02 0. -1.
        2   -1    0    0  501    0  0.00000000000E+00  0.00000000000E+00 -0.21893629449E+03  0.21893629450E+03  0.25500000920E-02 0.  1.
    10030    2    1    2    0    0  0.00000000000E+00  0.00000000000E+00  0.75243336146E+02  0.51311592514E+03  0.50756910170E+03 0.  0.
        1    1    3    3  502    0  0.50569517512E+02  0.40149692342E+02  0.28573674397E+03  0.29294156547E+03  0.50400001928E-02 0. -1.
       -1    1    3    3    0  502 -0.50569517512E+02 -0.40149692342E+02 -0.21049340783E+03  0.22017435968E+03  0.50400001928E-02 0.  1.
</event>
<event>
 5   0  0.1147245E-01  0.5014700E+03  0.7818609E-02  0.1013396E+00
        1   -1    0    0  501    0  0.00000000000E+00  0.00000000000E+00  0.66284370376E+03  0.66284370378E+03  0.50400001928E-02 0.  1.
       -1   -1    0    0    0  501  0.00000000000E+00  0.00000000000E+00 -0.94845965016E+02  0.94845965150E+02  0.50400001928E-02 0. -1.
    10030    2    1    2    0    0  0.00000000000E+00  0.00000000000E+00  0.56799773875E+03  0.75768966893E+03  0.50147004216E+03 0.  0.
        1    1    3    3  502    0 -0.29075964083E+02  0.72054634172E+01 -0.92132577558E+02  0.96880040582E+02  0.50400001928E-02 0. -1.
       -1    1    3    3    0  502  0.29075964083E+02 -0.72054634172E+01  0.66013031630E+03  0.66080962835E+03  0.50400001928E-02 0.  1.
</event>
<event>
 5   0  0.1782124E-01  0.5185484E+03  0.7818609E-02  0.1009048E+00
       -2   -1    0    0    0  501  0.00000000000E+00  0.00000000000E+00  0.55792769943E+02  0.55792770001E+02  0.25500000920E-02 0.  1.
        2   -1    0    0  501    0  0.00000000000E+00  0.00000000000E+00 -0.12048711376E+04  0.12048711376E+04  0.25500000920E-02 0. -1.
    10030    2    1    2    0    0  0.00000000000E+00  0.00000000000E+00 -0.11490783677E+04  0.12606639076E+04  0.51854835158E+03 0.  0.
        3    1    3    3  502    0 -0.47810396082E+02 -0.87711475307E+02  0.71284015605E+01  0.10014969388E+03  0.10100000352E+00 0.  1.
       -3    1    3    3    0  502  0.47810396082E+02  0.87711475307E+02 -0.11562067693E+04  0.11605142138E+04  0.10100000352E+00 0. -1.
</event>
<event>
 5   0  0.1782124E-01  0.4384756E+03  0.7818609E-02  0.1031216E+00
       -2   -1    0    0    0  501  0.00000000000E+00  0.00000000000E+00  0.33320280174E+02  0.33320280272E+02  0.25500000920E-02 0. -1.
        2   -1    0    0  501    0  0.00000000000E+00  0.00000000000E+00 -0.14425213616E+04  0.14425213616E+04  0.25500000920E-02 0.  1.
    10030    2    1    2    0    0  0.00000000000E+00  0.00000000000E+00 -0.14092010814E+04  0.14758416419E+04  0.43847561391E+03 0.  0.
        3    1    3    3  502    0 -0.22857058116E+02 -0.76504744914E+02 -0.13918416678E+04  0.13941300727E+04  0.10100000352E+00 0.  1.
       -3    1    3    3    0  502  0.22857058116E+02  0.76504744914E+02 -0.17359413633E+02  0.81711569210E+02  0.10100000352E+00 0. -1.
</event>
<event>
 5   0  0.1709372E-01  0.5116684E+03  0.7818609E-02  0.1010777E+00
        2   -1    0    0  501    0  0.00000000000E+00  0.00000000000E+00  0.94257374823E+03  0.94257374823E+03  0.25500000920E-02 0.  1.
       -2   -1    0    0    0  501  0.00000000000E+00  0.00000000000E+00 -0.69438744690E+02  0.69438744737E+02  0.25500000920E-02 0. -1.
    10030    2    1    2    0    0  0.00000000000E+00  0.00000000000E+00  0.87313500354E+03  0.10120124930E+04  0.51166839996E+03 0.  0.
        4    1    3    3  502    0  0.68299600010E+02 -0.59515976704E+02  0.90978055799E+03  0.91428073557E+03  0.12699999809E+01 0.  1.
       -4    1    3    3    0  502 -0.68299600010E+02  0.59515976704E+02 -0.36645554444E+02  0.97731757403E+02  0.12699999809E+01 0. -1.
</event>
<event>
 5   0  0.1141970E-01  0.4929865E+03  0.7818609E-02  0.1015626E+00
        1   -1    0    0  501    0  0.00000000000E+00  0.00000000000E+00  0.41432084139E+03  0.41432084142E+03  0.50400001928E-02 0.  1.
       -1   -1    0    0    0  501  0.00000000000E+00  0.00000000000E+00 -0.14664706283E+03  0.14664706292E+03  0.50400001928E-02 0. -1.
    10030    2    1    2    0    0  0.00000000000E+00  0.00000000000E+00  0.26767377856E+03  0.56096790434E+03  0.49298654949E+03 0.  0.
        3    1    3    3  502    0 -0.30016571976E+02 -0.23256233745E+03  0.47381510016E+02  0.23923054379E+03  0.10100000352E+00 0. -1.
       -3    1    3    3    0  502  0.30016571976E+02  0.23256233745E+03  0.22029226854E+03  0.32173736055E+03  0.10100000352E+00 0.  1.
</event>
<event>
 5   0  0.1709372E-01  0.4995321E+03  0.7818609E-02  0.1013901E+00
       -2   -1    0    0    0  501  0.00000000000E+00  0.00000000000E+00  0.12495919437E+03  0.12495919440E+03  0.25500000920E-02 0.  1.
        2   -1    0    0  501    0  0.00000000000E+00  0.00000000000E+00 -0.49922751989E+03  0.49922751990E+03  0.25500000920E-02 0. -1.
    10030    2    1    2    0    0  0.00000000000E+00  0.00000000000E+00 -0.37426832552E+03  0.62418671430E+03  0.49953205585E+03 0.  0.
        4    1    3    3  502    0  0.19598202651E+03 -0.79081689431E+02 -0.35346229331E+03  0.41182529550E+03  0.12699999809E+01 0. -1.
       -4    1    3    3    0  502 -0.19598202651E+03  0.79081689431E+02 -0.20806032207E+02  0.21236141880E+03  0.12699999809E+01 0.  1.
</event>
<event>
 5   0  0.1123271E-01  0.5000445E+03  0.7818609E-02  0.1013767E+00
        1   -1    0    0  501    0  0.00000000000E+00  0.00000000000E+00  0.57348748277E+03  0.57348748279E+03  0.50400001928E-02 0. -1.
       -1   -1    0    0    0  501  0.00000000000E+00  0.00000000000E+00 -0.10900173842E+03  0.10900173854E+03  0.50400001928E-02 0.  1.
    10030    2    1    2    0    0  0.00000000000E+00  0.00000000000E+00  0.46448574435E+03  0.68248922133E+03  0.50004452854E+03 0.  0.
        5    1    3    3  502    0 -0.45173096327E+02 -0.24154631205E+03  0.29484523118E+03  0.38385027008E+03  0.46999998093E+01 0. -1.
       -5    1    3    3    0  502  0.45173096327E+02  0.24154631205E+03  0.16964051317E+03  0.29863895125E+03  0.46999998093E+01 0.  1.
</event>
<event>
 5   0  0.1827698E-01  0.4967229E+03  0.7818609E-02  0.1014638E+00
        2   -1    0    0  501    0  0.00000000000E+00  0.00000000000E+00  0.29810763509E+03  0.29810763510E+03  0.25500000920E-02 0.  1.
       -2   -1    0    0    0  501  0.00000000000E+00  0.00000000000E+00 -0.20691655045E+03  0.20691655047E+03  0.25500000920E-02 0. -1.
    10030    2    1    2    0    0  0.00000000000E+00  0.00000000000E+00  0.91191084640E+02  0.50502418557E+03  0.49672287454E+03 0.  0.
        1    1    3    3  502    0  0.93687135606E+02 -0.23000915638E+03  0.47001439468E+02  0.25276595248E+03  0.50400001928E-02 0. -1.
       -1    1    3    3    0  502 -0.93687135606E+02  0.23000915638E+03  0.44189645172E+02  0.25225823309E+03  0.50400001928E-02 0.  1.
</event>
<event>
 5   0  0.7220250E-02  0.4098631E+03  0.7818609E-02  0.1040417E+00
        4   -1    0    0  501    0  0.00000000000E+00  0.00000000000E+00  0.34007649932E+03  0.34007887069E+03  0.12699999809E+01 0. -1.
       -4   -1    0    0    0  501  0.00000000000E+00  0.00000000000E+00 -0.12348658515E+03  0.12349311565E+03  0.12699999809E+01 0.  1.
    10030    2    1    2    0    0  0.00000000000E+00  0.00000000000E+00  0.21658991417E+03  0.46357198634E+03  0.40986314252E+03 0.  0.
        5    1    3    3  502    0 -0.24618507070E+01 -0.11403605266E+03 -0.84196700554E+02  0.14185011948E+03  0.46999998093E+01 0.  1.
       -5    1    3    3    0  502  0.24618507070E+01  0.11403605266E+03  0.30078661473E+03  0.32172186685E+03  0.46999998093E+01 0. -1.
</event>
<event>
 5   0  0.1760649E-01  0.5107960E+03  0.7818609E-02  0.1010999E+00
        2   -1    0    0  501    0  0.00000000000E+00  0.00000000000E+00  0.76570576842E+03  0.76570576842E+03  0.25500000920E-02 0. -1.
       -2   -1    0    0    0  501  0.00000000000E+00  0.00000000000E+00 -0.85186956775E+02  0.85186956813E+02  0.25500000920E-02 0.  1.
    10030    2    1    2    0    0  0.00000000000E+00  0.00000000000E+00  0.68051881164E+03  0.85089272523E+03  0.51079602275E+03 0.  0.
        5    1    3    3  502    0  0.80329340279E+02 -0.11605603078E+03 -0.14228063972E+02  0.14193777860E+03  0.46999998093E+01 0.  1.
       -5    1    3    3    0  502 -0.80329340279E+02  0.11605603078E+03  0.69474687561E+03  0.70895494664E+03  0.46999998093E+01 0. -1.
</event>
<event>
 5   0  0.1141970E-01  0.4932998E+03  0.7818609E-02  0.1015543E+00
        1   -1    0    0  501    0  0.00000000000E+00  0.00000000000E+00  0.28842724516E+03  0.28842724521E+03  0.50400001928E-02 0. -1.
       -1   -1    0    0    0  501  0.00000000000E+00  0.00000000000E+00 -0.21092379188E+03  0.21092379194E+03  0.50400001928E-02 0.  1.
    10030    2    1    2    0    0  0.00000000000E+00  0.00000000000E+00  0.77503453279E+02  0.49935103715E+03  0.49329978009E+03 0.  0.
        3    1    3    3  502    0  0.93203579603E+02  0.51882774315E+01 -0.19235200384E+03  0.21380628862E+03  0.10100000352E+00 0.  1.
       -3    1    3    3    0  502 -0.93203579603E+02 -0.51882774315E+01  0.26985545712E+03  0.28554474853E+03  0.10100000352E+00 0. -1.
</event>
<event>
 5   0  0.1147245E-01  0.4991665E+03  0.7818609E-02  0.1013997E+00
        1   -1    0    0  501    0  0.00000000000E+00  0.00000000000E+00  0.11221747629E+03  0.11221747640E+03  0.50400001928E-02 0. -1.
       -1   -1    0    0    0  501  0.00000000000E+00  0.00000000000E+00 -0.55509887044E+03  0.55509887047E+03  0.50400001928E-02 0.  1.
    10030    2    1    2    0    0  0.00000000000E+00  0.00000000000E+00 -0.44288139415E+03  0.66731634687E+03  0.49916648276E+03 0.  0.
        1    1    3    3  502    0  0.85437890184E+02 -0.15077503839E+03  0.18670342407E+02  0.17430240099E+03  0.50400001928E-02 0. -1.
       -1    1    3    3    0  502 -0.85437890184E+02  0.15077503839E+03 -0.46155173656E+03  0.49301394588E+03  0.50400001928E-02 0.  1.
</event>
<event>
 5   0  0.7220250E-02  0.5667077E+03  0.7818609E-02  0.9976991E-01
       -3   -1    0    0    0  501  0.00000000000E+00  0.00000000000E+00  0.10254719657E+04  0.10254719707E+04  0.10100000352E+00 0. -1.
        3   -1    0    0  501    0  0.00000000000E+00  0.00000000000E+00 -0.78295045957E+02  0.78295111102E+02  0.10100000352E+00 0.  1.
    10030    2    1    2    0    0  0.00000000000E+00  0.00000000000E+00  0.94717691975E+03  0.11037670818E+04  0.56670773201E+03 0.  0.
        1    1    3    3  502    0 -0.14202468301E+03 -0.51442250236E+02  0.66637861597E+01  0.15120093176E+03  0.50400001928E-02 0.  1.
       -1    1    3    3    0  502  0.14202468301E+03  0.51442250236E+02  0.94051313359E+03  0.95256615003E+03  0.50400001928E-02 0. -1.
</event>
<event>
 5   0  0.1123271E-01  0.4949173E+03  0.7818609E-02  0.1015114E+00
        1   -1    0    0  501    0  0.00000000000E+00  0.00000000000E+00  0.92006368896E+03  0.92006368898E+03  0.50400001928E-02 0. -1.
       -1   -1    0    0    0  501  0.00000000000E+00  0.00000000000E+00 -0.66556039505E+02  0.66556039696E+02  0.50400001928E-02 0.  1.
    10030    2    1    2    0    0  0.00000000000E+00  0.00000000000E+00  0.85350764946E+03  0.98661972867E+03  0.49491734797E+03 0.  0.
        5    1    3    3  502    0  0.30465595882E+02  0.13929363233E+03  0.82983046500E+03  0.84200448881E+03  0.46999998093E+01 0. -1.
       -5    1    3    3    0  502 -0.30465595882E+02 -0.13929363233E+03  0.23677184461E+02  0.14461523986E+03  0.46999998093E+01 0.  1.
</event>
<event>
 5   0  0.1147245E-01  0.4928600E+03  0.7818609E-02  0.1015660E+00
       -1   -1    0    0    0  501  0.00000000000E+00  0.00000000000E+00  0.19032319223E+03  0.19032319230E+03  0.50400001928E-02 0.  1.
        1   -1    0    0  501    0  0.00000000000E+00  0.00000000000E+00 -0.31907691722E+03  0.31907691726E+03  0.50400001928E-02 0. -1.
    10030    2    1    2    0    0  0.00000000000E+00  0.00000000000E+00 -0.12875372498E+03  0.50940010956E+03  0.49285996989E+03 0.  0.
        1    1    3    3  502    0 -0.66322247558E+02 -0.23138029791E+03 -0.97617287958E+01  0.24089577447E+03  0.50400001928E-02 0.  1.
       -1    1    3    3    0  502  0.66322247558E+02  0.23138029791E+03 -0.11899199619E+03  0.26850433509E+03  0.50400001928E-02 0. -1.
</event>
<event>
 5   0  0.1068522E-01  0.4876787E+03  0.7818609E-02  0.1017046E+00
        1   -1    0    0  501    0  0.00000000000E+00  0.00000000000E+00  0.24169362191E+03  0.24169362196E+03  0.50400001928E-02 0.  1.
       -1   -1    0    0    0  501  0.00000000000E+00  0.00000000000E+00 -0.24600415617E+03  0.24600415622E+03  0.50400001928E-02 0. -1.
    10030    2    1    2    0    0  0.00000000000E+00  0.00000000000E+00 -0.43105342636E+01  0.48769777818E+03  0.48767872840E+03 0.  0.
        2    1    3    3  502    0 -0.18170756784E+03 -0.13189788811E+03 -0.97253368668E+02  0.24468941706E+03  0.25500000920E-02 0. -1.
       -2    1    3    3    0  502  0.18170756784E+03  0.13189788811E+03  0.92942834405E+02  0.24300836112E+03  0.25500000920E-02 0.  1.
</event>
<event>
 5   0  0.1141970E-01  0.4998230E+03  0.7818609E-02  0.1013825E+00
       -1   -1    0    0    0  501  0.00000000000E+00  0.00000000000E+00  0.98561705423E+02  0.98561705552E+02  0.50400001928E-02 0. -1.
        1   -1    0    0  501    0  0.00000000000E+00  0.00000000000E+00 -0.63367176252E+03  0.63367176254E+03  0.50400001928E-02 0.  1.
    10030    2    1    2    0    0  0.00000000000E+00  0.00000000000E+00 -0.53511005710E+03  0.73223346810E+03  0.49982304728E+03 0.  0.
        3    1    3    3  502    0  0.17625387640E+03  0.10029475215E+03 -0.48151961062E+03  0.52248025022E+03  0.10100000352E+00 0.  1.
       -3    1    3    3    0  502 -0.17625387640E+03 -0.10029475215E+03 -0.53590446479E+02  0.20975321788E+03  0.10100000352E+00 0. -1.
</event>
<event>
 5   0  0.1760649E-01  0.4949166E+03  0.7818609E-02  0.1015114E+00
       -2   -1    0    0    0  501  0.00000000000E+00  0.00000000000E+00  0.21580623181E+03  0.21580623182E+03  0.25500000920E-02 0.  1.
        2   -1    0    0  501    0  0.00000000000E+00  0.00000000000E+00 -0.28375272009E+03  0.28375272010E+03  0.25500000920E-02 0. -1.
    10030    2    1    2    0    0  0.00000000000E+00  0.00000000000E+00 -0.67946488283E+02  0.49955895192E+03  0.49491658002E+03 0.  0.
        5    1    3    3  502    0  0.18325156489E+03 -0.40520559424E+02 -0.19670104491E+03  0.27191256469E+03  0.46999998093E+01 0. -1.
       -5    1    3    3    0  502 -0.18325156489E+03  0.40520559424E+02  0.12875455663E+03  0.22764638723E+03  0.46999998093E+01 0.  1.
</event>
<event>
 5   0  0.1123271E-01  0.5014567E+03  0.7818609E-02  0.1013399E+00
        1   -1    0    0  501    0  0.00000000000E+00  0.00000000000E+00  0.10812993234E+04  0.10812993234E+04  0.50400001928E-02 0.  1.
       -1   -1    0    0    0  501  0.00000000000E+00  0.00000000000E+00 -0.58138117237E+02  0.58138117456E+02  0.50400001928E-02 0. -1.
    10030    2    1    2    0    0  0.00000000000E+00  0.00000000000E+00  0.10231612062E+04  0.11394374409E+04  0.50145670587E+03 0.  0.
        5    1    3    3  502    0  0.29810943198E+02  0.19466421284E+03  0.15912633995E+03  0.25323137672E+03  0.46999998093E+01 0. -1.
       -5    1    3    3    0  502 -0.29810943198E+02 -0.19466421284E+03  0.86403486623E+03  0.88620606416E+03  0.46999998093E+01 0.  1.
</event>
<event>
 5   0  0.1827698E-01  0.4963009E+03  0.7818609E-02  0.1014749E+00
       -2   -1    0    0    0  501  0.00000000000E+00  0.00000000000E+00  0.79859917871E+02  0.79859917912E+02  0.25500000920E-02 0. -1.
        2   -1    0    0  501    0  0.00000000000E+00  0.00000000000E+00 -0.77108336352E+03  0.77108336353E+03  0.25500000920E-02 0.  1.
    10030    2    1    2    0    0  0.00000000000E+00  0.00000000000E+00 -0.69122344565E+03  0.85094328144E+03  0.49630093331E+03 0.  0.
        1    1    3    3  502    0  0.61980163073E+02  0.23001817874E+03 -0.46475592770E+03  0.52225278891E+03  0.50400001928E-02 0.  1.
       -1    1    3    3    0  502 -0.61980163073E+02 -0.23001817874E+03 -0.22646751795E+03  0.32869049253E+03  0.50400001928E-02 0. -1.
</event>
<event>
 5   0  0.1147245E-01  0.5008639E+03  0.7818609E-02  0.1013554E+00
       -1   -1    0    0    0  501  0.00000000000E+00  0.00000000000E+00  0.14331809998E+03  0.14331810007E+03  0.50400001928E-02 0.  1.
        1   -1    0    0  501    0  0.00000000000E+00  0.00000000000E+00 -0.43760112725E+03  0.43760112728E+03  0.50400001928E-02 0. -1.
    10030    2    1    2    0    0  0.00000000000E+00  0.00000000000E+00 -0.29428302727E+03  0.58091922734E+03  0.50086390223E+03 0.  0.
        1    1    3    3  502    0  0.85845002152E+02  0.20757168893E+03 -0.18714827919E+02  0.22540100987E+03  0.50400001928E-02 0.  1.
       -1    1    3    3    0  502 -0.85845002152E+02 -0.20757168893E+03 -0.27556819935E+03  0.35551821748E+03  0.50400001928E-02 0. -1.
</event>
<event>
 5   0  0.1709372E-01  0.4857693E+03  0.7818609E-02  0.1017562E+00
       -2   -1    0    0    0  501  0.00000000000E+00  0.00000000000E+00  0.64724731184E+02  0.64724731234E+02  0.25500000920E-02 0.  1.
        2   -1    0    0  501    0  0.00000000000E+00  0.00000000000E+00 -0.91144384601E+03  0.91144384602E+03  0.25500000920E-02 0. -1.
    10030    2    1    2    0    0  0.00000000000E+00  0.00000000000E+00 -0.84671911483E+03  0.97616857725E+03  0.48576931953E+03 0.  0.
        4    1    3    3  502    0  0.47295990022E+02 -0.11034896096E+02  0.54861001746E+02  0.73280434063E+02  0.12699999809E+01 0.  1.
       -4    1    3    3    0  502 -0.47295990022E+02  0.11034896096E+02 -0.90158011658E+03  0.90288814319E+03  0.12699999809E+01 0. -1.
</event>
<event>
 5   0  0.1782124E-01  0.4932900E+03  0.7818609E-02  0.1015545E+00
       -2   -1    0    0    0  501  0.00000000000E+00  0.00000000000E+00  0.21475031086E+03  0.21475031088E+03  0.25500000920E-02 0.  1.
        2   -1    0    0  501    0  0.00000000000E+00  0.00000000000E+00 -0.28327671219E+03  0.28327671220E+03  0.25500000920E-02 0. -1.
    10030    2    1    2    0    0  0.00000000000E+00  0.00000000000E+00 -0.68526401328E+02  0.49802702308E+03  0.49329002427E+03 0.  0.
        3    1    3    3  502    0  0.10392317834E+03  0.20966226051E+03  0.44430542951E+02  0.23818558694E+03  0.10100000352E+00 0.  1.
       -3    1    3    3    0  502 -0.10392317834E+03 -0.20966226051E+03 -0.11295694428E+03  0.25984143615E+03  0.10100000352E+00 0. -1.
</event>
<event>
 5   0  0.1147245E-01  0.5012241E+03  0.7818609E-02  0.1013460E+00
       -1   -1    0    0    0  501  0.00000000000E+00  0.00000000000E+00  0.36698265924E+03  0.36698265927E+03  0.50400001928E-02 0.  1.
        1   -1    0    0  501    0  0.00000000000E+00  0.00000000000E+00 -0.17114266276E+03  0.17114266283E+03  0.50400001928E-02 0. -1.
    10030    2    1    2    0    0  0.00000000000E+00  0.00000000000E+00  0.19583999648E+03  0.53812532210E+03  0.50122405974E+03 0.  0.
        1    1    3    3  502    0  0.14359764744E+03  0.25176831335E+01  0.31841746488E+03  0.34930832376E+03  0.50400001928E-02 0.  1.
       -1    1    3    3    0  502 -0.14359764744E+03 -0.25176831335E+01 -0.12257746840E+03  0.18881699834E+03  0.50400001928E-02 0. -1.
</event>
<event>
 5   0  0.1123271E-01  0.5070310E+03  0.7818609E-02  0.1011960E+00
       -1   -1    0    0    0  501  0.00000000000E+00  0.00000000000E+00  0.88078915738E+03  0.88078915740E+03  0.50400001928E-02 0.  1.
        1   -1    0    0  501    0  0.00000000000E+00  0.00000000000E+00 -0.72968775760E+02  0.72968775934E+02  0.50400001928E-02 0. -1.
    10030    2    1    2    0    0  0.00000000000E+00  0.00000000000E+00  0.80782038162E+03  0.95375793333E+03  0.50703099158E+03 0.  0.
        5    1    3    3  502    0  0.73763286061E+02 -0.23314067822E+03  0.52942692818E+03  0.58318998662E+03  0.46999998093E+01 0.  1.
       -5    1    3    3    0  502 -0.73763286061E+02  0.23314067822E+03  0.27839345344E+03  0.37056794671E+03  0.46999998093E+01 0. -1.
</event>
<event>
 5   0  0.1123271E-01  0.5023568E+03  0.7818609E-02  0.1013166E+00
       -1   -1    0    0    0  501  0.00000000000E+00  0.00000000000E+00  0.44849720256E+02  0.44849720539E+02  0.50400001928E-02 0. -1.
        1   -1    0    0  501    0  0.00000000000E+00  0.00000000000E+00 -0.14067106665E+04  0.14067106665E+04  0.50400001928E-02 0.  1.
    10030    2    1    2    0    0  0.00000000000E+00  0.00000000000E+00 -0.13618609462E+04  0.14515603870E+04  0.50235676599E+03 0.  0.
        5    1    3    3  502    0  0.24987631083E+03  0.24654282400E+02 -0.69463223289E+03  0.73863525053E+03  0.46999998093E+01 0.  1.
       -5    1    3    3    0  502 -0.24987631083E+03 -0.24654282400E+02 -0.66722871331E+03  0.71292513647E+03  0.46999998093E+01 0. -1.
</event>
<event>
 5   0  0.1068522E-01  0.5043983E+03  0.7818609E-02  0.1012637E+00
       -1   -1    0    0    0  501  0.00000000000E+00  0.00000000000E+00  0.97936821920E+02  0.97936822050E+02  0.50400001928E-02 0. -1.
        1   -1    0    0  501    0  0.00000000000E+00  0.00000000000E+00 -0.64944339695E+03  0.64944339697E+03  0.50400001928E-02 0.  1.
    10030    2    1    2    0    0  0.00000000000E+00  0.00000000000E+00 -0.55150657503E+03  0.74738021902E+03  0.50439834405E+03 0.  0.
        2    1    3    3  502    0  0.22642016253E+03  0.24952210987E+02 -0.43613410772E+03  0.49203827367E+03  0.25500000920E-02 0.  1.
       -2    1    3    3    0  502 -0.22642016253E+03 -0.24952210987E+02 -0.11537246731E+03  0.25534194535E+03  0.25500000920E-02 0. -1.
</event>
<event>
 5   0  0.1782124E-01  0.5147896E+03  0.7818609E-02  0.1009989E+00
        2   -1    0    0  501    0  0.00000000000E+00  0.00000000000E+00  0.24196919862E+04  0.24196919862E+04  0.25500000920E-02 0. -1.
       -2   -1    0    0    0  501  0.00000000000E+00  0.00000000000E+00 -0.27380374470E+02  0.27380374589E+02  0.25500000920E-02 0.  1.
    10030    2    1    2    0    0  0.00000000000E+00  0.00000000000E+00  0.23923116118E+04  0.24470723608E+04  0.51478956024E+03 0.  0.
        3    1    3    3  502    0  0.17127635583E+03  0.19128725693E+03  0.12819381465E+04  0.13073988781E+04  0.10100000352E+00 0.  1.
       -3    1    3    3    0  502 -0.17127635583E+03 -0.19128725693E+03  0.11103734653E+04  0.11396734828E+04  0.10100000352E+00 0. -1.
</event>
<event>
 5   0  0.1683148E-01  0.5060199E+03  0.7818609E-02  0.1012219E+00
       -2   -1    0    0    0  501  0.00000000000E+00  0.00000000000E+00  0.44674237764E+02  0.44674237837E+02  0.25500000920E-02 0.  1.
        2   -1    0    0  501    0  0.00000000000E+00  0.00000000000E+00 -0.14329073714E+04  0.14329073714E+04  0.25500000920E-02 0. -1.
    10030    2    1    2    0    0  0.00000000000E+00  0.00000000000E+00 -0.13882331336E+04  0.14775816092E+04  0.50601993897E+03 0.  0.
        2    1    3    3  502    0 -0.54589911017E+02  0.22295501035E+03 -0.38337174240E+03  0.44683653376E+03  0.25500000920E-02 0.  1.
       -2    1    3    3    0  502  0.54589911017E+02 -0.22295501035E+03 -0.10048613912E+04  0.10307450755E+04  0.25500000920E-02 0. -1.
</event>
<event>
 5   0  0.1782124E-01  0.4943810E+03  0.7818609E-02  0.1015256E+00
       -2   -1    0    0    0  501  0.00000000000E+00  0.00000000000E+00  0.21176233433E+03  0.21176233434E+03  0.25500000920E-02 0.  1.
        2   -1    0    0  501    0  0.00000000000E+00  0.00000000000E+00 -0.28854580382E+03  0.28854580383E+03  0.25500000920E-02 0. -1.
    10030    2    1    2    0    0  0.00000000000E+00  0.00000000000E+00 -0.76783469493E+02  0.50030813818E+03  0.49438095831E+03 0.  0.
        3    1    3    3  502    0 -0.15603567381E+03  0.18955498743E+03 -0.67457111981E+02  0.25461480106E+03  0.10100000352E+00 0.  1.
       -3    1    3    3    0  502  0.15603567381E+03 -0.18955498743E+03 -0.93263575124E+01  0.24569333712E+03  0.10100000352E+00 0. -1.
</event>
<event>
 5   0  0.1683148E-01  0.4986281E+03  0.7818609E-02  0.1014138E+00
       -2   -1    0    0    0  501  0.00000000000E+00  0.00000000000E+00  0.68479074254E+02  0.68479074301E+02  0.25500000920E-02 0.  1.
        2   -1    0    0  501    0  0.00000000000E+00  0.00000000000E+00 -0.90768595149E+03  0.90768595150E+03  0.25500000920E-02 0. -1.
    10030    2    1    2    0    0  0.00000000000E+00  0.00000000000E+00 -0.83920687724E+03  0.97616502580E+03  0.49862809266E+03 0.  0.
        2    1    3    3  502    0  0.40409645875E+02 -0.20326008126E+03 -0.14826646291E+03  0.25481472513E+03  0.25500000920E-02 0.  1.
       -2    1    3    3    0  502 -0.40409645875E+02  0.20326008126E+03 -0.69094041433E+03  0.72135030067E+03  0.25500000920E-02 0. -1.
</event>
<event>
 5   0  0.1782124E-01  0.4970708E+03  0.7818609E-02  0.1014546E+00
        2   -1    0    0  501    0  0.00000000000E+00  0.00000000000E+00  0.51676745457E+03  0.51676745458E+03  0.25500000920E-02 0.  1.
       -2   -1    0    0    0  501  0.00000000000E+00  0.00000000000E+00 -0.11953120403E+03  0.11953120406E+03  0.25500000920E-02 0. -1.
    10030    2    1    2    0    0  0.00000000000E+00  0.00000000000E+00  0.39723625054E+03  0.63629865864E+03  0.49707076381E+03 0.  0.
        3    1    3    3  502    0  0.63365286949E+02  0.23169196709E+03  0.11691727499E+03  0.26714413075E+03  0.10100000352E+00 0.  1.
       -3    1    3    3    0  502 -0.63365286949E+02 -0.23169196709E+03  0.28031897555E+03  0.36915452788E+03  0.10100000352E+00 0. -1.
</event>
<event>
 5   0  0.1760649E-01  0.5078696E+03  0.7818609E-02  0.1011745E+00
       -2   -1    0    0    0  501  0.00000000000E+00  0.00000000000E+00  0.97502847000E+02  0.97502847033E+02  0.25500000920E-02 0. -1.
        2   -1    0    0  501    0  0.00000000000E+00  0.00000000000E+00 -0.66134362810E+03  0.66134362811E+03  0.25500000920E-02 0.  1.
    10030    2    1    2    0    0  0.00000000000E+00  0.00000000000E+00 -0.56384078110E+03  0.75884647514E+03  0.50786961555E+03 0.  0.
        5    1    3    3  502    0 -0.14070246168E+03  0.25627470061E+02  0.31524947748E+02  0.14652597815E+03  0.46999998093E+01 0. -1.
       -5    1    3    3    0  502  0.14070246168E+03 -0.25627470061E+02 -0.59536572885E+03  0.61232049699E+03  0.46999998093E+01 0.  1.
</event>
<event>
 5   0  0.1709372E-01  0.4974054E+03  0.7818609E-02  0.1014458E+00
       -2   -1    0    0    0  501  0.00000000000E+00  0.00000000000E+00  0.11982958707E+03  0.11982958709E+03  0.25500000920E-02 0. -1.
        2   -1    0    0  501    0  0.00000000000E+00  0.00000000000E+00 -0.51617495099E+03  0.51617495100E+03  0.25500000920E-02 0.  1.
    10030    2    1    2    0    0  0.00000000000E+00  0.00000000000E+00 -0.39634536392E+03  0.63600453809E+03  0.49740539298E+03 0.  0.
        4    1    3    3  502    0  0.14780845480E+03  0.19899533602E+03 -0.17244251946E+03  0.30196774411E+03  0.12699999809E+01 0. -1.
       -4    1    3    3    0  502 -0.14780845480E+03 -0.19899533602E+03 -0.22390284447E+03  0.33403679397E+03  0.12699999809E+01 0.  1.
</event>
<event>
 5   0  0.1709372E-01  0.5010479E+03  0.7818609E-02  0.1013506E+00
        2   -1    0    0  501    0  0.00000000000E+00  0.00000000000E+00  0.60099955627E+03  0.60099955627E+03  0.25500000920E-02 0.  1.
       -2   -1    0    0    0  501  0.00000000000E+00  0.00000000000E+00 -0.10442977932E+03  0.10442977935E+03  0.25500000920E-02 0. -1.
    10030    2    1    2    0    0  0.00000000000E+00  0.00000000000E+00  0.49656977695E+03  0.70542933563E+03  0.50104790608E+03 0.  0.
        4    1    3    3  502    0  0.22672252228E+03 -0.56808806922E+02  0.12133643059E+03  0.26335239688E+03  0.12699999809E+01 0. -1.
       -4    1    3    3    0  502 -0.22672252228E+03  0.56808806922E+02  0.37523334636E+03  0.44207693875E+03  0.12699999809E+01 0.  1.
</event>
<event>
 5   0  0.1147245E-01  0.5001564E+03  0.7818609E-02  0.1013738E+00
       -1   -1    0    0    0  501  0.00000000000E+00  0.00000000000E+00  0.54213928775E+03  0.54213928777E+03  0.50400001928E-02 0.  1.
        1   -1    0    0  501    0  0.00000000000E+00  0.00000000000E+00 -0.11535614941E+03  0.11535614952E+03  0.50400001928E-02 0. -1.
    10030    2    1    2    0    0  0.00000000000E+00  0.00000000000E+00  0.42678313834E+03  0.65749543729E+03  0.50015637843E+03 0.  0.
        1    1    3    3  502    0  0.97366556684E+02 -0.13406300406E+03  0.45962875909E+03  0.48858134597E+03  0.50400001928E-02 0.  1.
       -1    1    3    3    0  502 -0.97366556684E+02  0.13406300406E+03 -0.32845620754E+02  0.16891409132E+03  0.50400001928E-02 0. -1.
</event>
<event>
 5   0  0.1683148E-01  0.4924476E+03  0.7818609E-02  0.1015769E+00
       -2   -1    0    0    0  501  0.00000000000E+00  0.00000000000E+00  0.36913930964E+02  0.36913931052E+02  0.25500000920E-02 0.  1.
        2   -1    0    0  501    0  0.00000000000E+00  0.00000000000E+00 -0.16423652809E+04  0.16423652809E+04  0.25500000920E-02 0. -1.
    10030    2    1    2    0    0  0.00000000000E+00  0.00000000000E+00 -0.16054513499E+04  0.16792792119E+04  0.49244759588E+03 0.  0.
        2    1    3    3  502    0  0.45892580354E+02 -0.24161261934E+03 -0.84355713620E+03  0.87867595210E+03  0.25500000920E-02 0.  1.
       -2    1    3    3    0  502 -0.45892580354E+02  0.24161261934E+03 -0.76189421372E+03  0.80060325984E+03  0.25500000920E-02 0. -1.
</event>
<event>
 5   0  0.1123271E-01  0.5026767E+03  0.7818609E-02  0.1013083E+00
        1   -1    0    0  501    0  0.00000000000E+00  0.00000000000E+00  0.30371840440E+03  0.30371840444E+03  0.50400001928E-02 0. -1.
       -1   -1    0    0    0  501  0.00000000000E+00  0.00000000000E+00 -0.20799193369E+03  0.20799193375E+03  0.50400001928E-02 0.  1.
    10030    2    1    2    0    0  0.00000000000E+00  0.00000000000E+00  0.95726470709E+02  0.51171033820E+03  0.50267674804E+03 0.  0.
        5    1    3    3  502    0  0.10193440827E+03  0.35050227703E+02  0.27894431933E+03  0.29908387676E+03  0.46999998093E+01 0. -1.
       -5    1    3    3    0  502 -0.10193440827E+03 -0.35050227703E+02 -0.18321784862E+03  0.21262646144E+03  0.46999998093E+01 0.  1.
</event>
<event>
 5   0  0.1074281E-01  0.4978202E+03  0.7818609E-02  0.1014349E+00
        1   -1    0    0  501    0  0.00000000000E+00  0.00000000000E+00  0.60778585292E+03  0.60778585294E+03  0.50400001928E-02 0. -1.
       -1   -1    0    0    0  501  0.00000000000E+00  0.00000000000E+00 -0.10193761086E+03  0.10193761098E+03  0.50400001928E-02 0.  1.
    10030    2    1    2    0    0  0.00000000000E+00  0.00000000000E+00  0.50584824207E+03  0.70972346393E+03  0.49782019972E+03 0.  0.
        4    1    3    3  502    0 -0.53265908863E+02  0.79449775468E+02 -0.74683946385E+02  0.12136238551E+03  0.12699999809E+01 0.  1.
       -4    1    3    3    0  502  0.53265908863E+02 -0.79449775468E+02  0.58053218845E+03  0.58836107842E+03  0.12699999809E+01 0. -1.
</event>
<event>
 5   0  0.1141970E-01  0.5039410E+03  0.7818609E-02  0.1012755E+00
       -1   -1    0    0    0  501  0.00000000000E+00  0.00000000000E+00  0.51969370691E+02  0.51969370936E+02  0.50400001928E-02 0. -1.
        1   -1    0    0  501    0  0.00000000000E+00  0.00000000000E+00 -0.12216642825E+04  0.12216642825E+04  0.50400001928E-02 0.  1.
    10030    2    1    2    0    0  0.00000000000E+00  0.00000000000E+00 -0.11696949118E+04  0.12736336535E+04  0.50394096528E+03 0.  0.
        3    1    3    3  502    0 -0.16565384750E+02  0.20253134324E+03 -0.20831723182E+03  0.29101449489E+03  0.10100000352E+00 0. -1.
       -3    1    3    3    0  502  0.16565384750E+02 -0.20253134324E+03 -0.96137768003E+03  0.98261915859E+03  0.10100000352E+00 0.  1.
</event>
<event>
 5   0  0.1827698E-01  0.5042169E+03  0.7818609E-02  0.1012684E+00
        2   -1    0    0  501    0  0.00000000000E+00  0.00000000000E+00  0.11843832566E+04  0.11843832566E+04  0.25500000920E-02 0.  1.
       -2   -1    0    0    0  501  0.00000000000E+00  0.00000000000E+00 -0.53663946135E+02  0.53663946195E+02  0.25500000920E-02 0. -1.
    10030    2    1    2    0    0  0.00000000000E+00  0.00000000000E+00  0.11307193105E+04  0.12380472028E+04  0.50421693477E+03 0.  0.
        1    1    3    3  502    0  0.57939752731E+02  0.14005959325E+03  0.70704641813E+02  0.16725086250E+03  0.50400001928E-02 0. -1.
       -1    1    3    3    0  502 -0.57939752731E+02 -0.14005959325E+03  0.10600146687E+04  0.10707963403E+04  0.50400001928E-02 0.  1.
</event>
<event>
 5   0  0.1782124E-01  0.4999203E+03  0.7818609E-02  0.1013800E+00
       -2   -1    0    0    0  501  0.00000000000E+00  0.00000000000E+00  0.86499800564E+02  0.86499800602E+02  0.25500000920E-02 0. -1.
        2   -1    0    0  501    0  0.00000000000E+00  0.00000000000E+00 -0.72231471569E+03  0.72231471569E+03  0.25500000920E-02 0.  1.
    10030    2    1    2    0    0  0.00000000000E+00  0.00000000000E+00 -0.63581491513E+03  0.80881451630E+03  0.49992030912E+03 0.  0.
        3    1    3    3  502    0  0.37728450433E+02  0.19970456134E+03 -0.82480058817E+02  0.21933608480E+03  0.10100000352E+00 0. -1.
       -3    1    3    3    0  502 -0.37728450433E+02 -0.19970456134E+03 -0.55333485631E+03  0.58947843150E+03  0.10100000352E+00 0.  1.
</event>
<event>
 5   0  0.1760649E-01  0.4932666E+03  0.7818609E-02  0.1015552E+00
        2   -1    0    0  501    0  0.00000000000E+00  0.00000000000E+00  0.33506070862E+03  0.33506070863E+03  0.25500000920E-02 0. -1.
       -2   -1    0    0    0  501  0.00000000000E+00  0.00000000000E+00 -0.18154315625E+03  0.18154315627E+03  0.25500000920E-02 0.  1.
    10030    2    1    2    0    0  0.00000000000E+00  0.00000000000E+00  0.15351755237E+03  0.51660386490E+03  0.49326657534E+03 0.  0.
        5    1    3    3  502    0 -0.21617807873E+03  0.73589483492E+02  0.17420669851E+03  0.28726022629E+03  0.46999998093E+01 0. -1.
       -5    1    3    3    0  502  0.21617807873E+03 -0.73589483492E+02 -0.20689146139E+02  0.22934363861E+03  0.46999998093E+01 0.  1.
</event>
<event>
 5   0  0.1123271E-01  0.5012207E+03  0.7818609E-02  0.1013461E+00
       -1   -1    0    0    0  501  0.00000000000E+00  0.00000000000E+00  0.89718611740E+02  0.89718611882E+02  0.50400001928E-02 0. -1.
        1   -1    0    0  501    0  0.00000000000E+00  0.00000000000E+00 -0.70002809357E+03  0.70002809359E+03  0.50400001928E-02 0.  1.
    10030    2    1    2    0    0  0.00000000000E+00  0.00000000000E+00 -0.61030948183E+03  0.78974670547E+03  0.50122070507E+03 0.  0.
        5    1    3    3  502    0  0.18059763694E+03  0.17070087093E+03 -0.35570243193E+03  0.43393617490E+03  0.46999998093E+01 0. -1.
       -5    1    3    3    0  502 -0.18059763694E+03 -0.17070087093E+03 -0.25460704989E+03  0.35581053057E+03  0.46999998093E+01 0.  1.
</event>
<event>
 5   0  0.1782124E-01  0.3818737E+03  0.7818609E-02  0.1050243E+00
        2   -1    0    0  501    0  0.00000000000E+00  0.00000000000E+00  0.45123494810E+03  0.45123494811E+03  0.25500000920E-02 0.  1.
       -2   -1    0    0    0  501  0.00000000000E+00  0.00000000000E+00 -0.80793547184E+02  0.80793547224E+02  0.25500000920E-02 0. -1.
    10030    2    1    2    0    0  0.00000000000E+00  0.00000000000E+00  0.37044140092E+03  0.53202849533E+03  0.38187365493E+03 0.  0.
        3    1    3    3  502    0  0.44214257556E+02 -0.12159579185E+03  0.38084791813E+03  0.40222578747E+03  0.10100000352E+00 0.  1.
       -3    1    3    3    0  502 -0.44214257556E+02  0.12159579185E+03 -0.10406517211E+02  0.12980270786E+03  0.10100000352E+00 0. -1.
</event>
<event>
 5   0  0.1709372E-01  0.5899249E+03  0.7818609E-02  0.9926532E-01
        2   -1    0    0  501    0  0.00000000000E+00  0.00000000000E+00  0.36403067298E+03  0.36403067299E+03  0.25500000920E-02 0.  1.
       -2   -1    0    0    0  501  0.00000000000E+00  0.00000000000E+00 -0.23899869866E+03  0.23899869868E+03  0.25500000920E-02 0. -1.
    10030    2    1    2    0    0  0.00000000000E+00  0.00000000000E+00  0.12503197432E+03  0.60302937167E+03  0.58992493463E+03 0.  0.
        4    1    3    3  502    0  0.15711316446E+03 -0.10293986476E+03 -0.16995636786E+03  0.25331392002E+03  0.12699999809E+01 0. -1.
       -4    1    3    3    0  502 -0.15711316446E+03  0.10293986476E+03  0.29498834218E+03  0.34971545165E+03  0.12699999809E+01 0.  1.
</event>
<event>
 5   0  0.1760649E-01  0.4974844E+03  0.7818609E-02  0.1014438E+00
       -2   -1    0    0    0  501  0.00000000000E+00  0.00000000000E+00  0.44999637182E+03  0.44999637183E+03  0.25500000920E-02 0. -1.
        2   -1    0    0  501    0  0.00000000000E+00  0.00000000000E+00 -0.13749593982E+03  0.13749593984E+03  0.25500000920E-02 0.  1.
    10030    2    1    2    0    0  0.00000000000E+00  0.00000000000E+00  0.31250043200E+03  0.58749231167E+03  0.49748436787E+03 0.  0.
        5    1    3    3  502    0  0.10782433759E+03 -0.80712334370E+02 -0.90645314689E+02  0.16241684570E+03  0.46999998093E+01 0.  1.
       -5    1    3    3    0  502 -0.10782433759E+03  0.80712334370E+02  0.40314574669E+03  0.42507546597E+03  0.46999998093E+01 0. -1.
</event>
<event>
 5   0  0.1141970E-01  0.4986029E+03  0.7818609E-02  0.1014144E+00
       -1   -1    0    0    0  501  0.00000000000E+00  0.00000000000E+00  0.90898523199E+02  0.90898523339E+02  0.50400001928E-02 0. -1.
        1   -1    0    0  501    0  0.00000000000E+00  0.00000000000E+00 -0.68374280593E+03  0.68374280595E+03  0.50400001928E-02 0.  1.
    10030    2    1    2    0    0  0.00000000000E+00  0.00000000000E+00 -0.59284428273E+03  0.77464132929E+03  0.49860289357E+03 0.  0.
        3    1    3    3  502    0 -0.16203639267E+03  0.18104456877E+03 -0.38317882022E+03  0.45371681355E+03  0.10100000352E+00 0.  1.
       -3    1    3    3    0  502  0.16203639267E+03 -0.18104456877E+03 -0.20966546251E+03  0.32092451574E+03  0.10100000352E+00 0. -1.
</event>
<event>
 5   0  0.1782124E-01  0.5073411E+03  0.7818609E-02  0.1011880E+00
       -2   -1    0    0    0  501  0.00000000000E+00  0.00000000000E+00  0.90923020851E+02  0.90923020887E+02  0.25500000920E-02 0.  1.
        2   -1    0    0  501    0  0.00000000000E+00  0.00000000000E+00 -0.70772771092E+03  0.70772771093E+03  0.25500000920E-02 0. -1.
    10030    2    1    2    0    0  0.00000000000E+00  0.00000000000E+00 -0.61680469007E+03  0.79865073182E+03  0.50734107436E+03 0.  0.
        3    1    3    3  502    0 -0.75393420308E+02 -0.13164540470E+03  0.11642513182E+02  0.15215202502E+03  0.10100000352E+00 0.  1.
       -3    1    3    3    0  502  0.75393420308E+02  0.13164540470E+03 -0.62844720326E+03  0.64649870679E+03  0.10100000352E+00 0. -1.
</event>
<event>
 5   0  0.1827698E-01  0.4958640E+03  0.7818609E-02  0.1014864E+00
       -2   -1    0    0    0  501  0.00000000000E+00  0.00000000000E+00  0.58213608721E+02  0.58213608777E+02  0.25500000920E-02 0.  1.
        2   -1    0    0  501    0  0.00000000000E+00  0.00000000000E+00 -0.10559432597E+04  0.10559432597E+04  0.25500000920E-02 0. -1.
    10030    2    1    2    0    0  0.00000000000E+00  0.00000000000E+00 -0.99772965094E+03  0.11141568684E+04  0.49586396434E+03 0.  0.
        1    1    3    3  502    0  0.14340134704E+03  0.17720922898E+03 -0.27982707512E+03  0.36092970114E+03  0.50400001928E-02 0.  1.
       -1    1    3    3    0  502 -0.14340134704E+03 -0.17720922898E+03 -0.71790257582E+03  0.75322716730E+03  0.50400001928E-02 0. -1.
</event>
<event>
 5   0  0.1709372E-01  0.4928209E+03  0.7818609E-02  0.1015670E+00
       -2   -1    0    0    0  501  0.00000000000E+00  0.00000000000E+00  0.56773430335E+02  0.56773430392E+02  0.25500000920E-02 0.  1.
        2   -1    0    0  501    0  0.00000000000E+00  0.00000000000E+00 -0.10694809945E+04  0.10694809945E+04  0.25500000920E-02 0. -1.
    10030    2    1    2    0    0  0.00000000000E+00  0.00000000000E+00 -0.10127075642E+04  0.11262544249E+04  0.49282087931E+03 0.  0.
        4    1    3    3  502    0  0.42538364467E+02 -0.24248876773E+03 -0.48280532121E+03  0.54195286328E+03  0.12699999809E+01 0.  1.
       -4    1    3    3    0  502 -0.42538364467E+02  0.24248876773E+03 -0.52990224298E+03  0.58430156165E+03  0.12699999809E+01 0. -1.
</event>
<event>
 5   0  0.1827698E-01  0.4985985E+03  0.7818609E-02  0.1014145E+00
        2   -1    0    0  501    0  0.00000000000E+00  0.00000000000E+00  0.23111199157E+03  0.23111199159E+03  0.25500000920E-02 0.  1.
       -2   -1    0    0    0  501  0.00000000000E+00  0.00000000000E+00 -0.26891778574E+03  0.26891778575E+03  0.25500000920E-02 0. -1.
    10030    2    1    2    0    0  0.00000000000E+00  0.00000000000E+00 -0.37805794167E+02  0.50002977734E+03  0.49859853605E+03 0.  0.
        1    1    3    3  502    0 -0.16780841620E+02 -0.14607487666E+03 -0.22080307431E+03  0.26527997265E+03  0.50400001928E-02 0. -1.
       -1    1    3    3    0  502  0.16780841620E+02  0.14607487666E+03  0.18299728015E+03  0.23474980469E+03  0.50400001928E-02 0.  1.
</event>
<event>
 5   0  0.1782124E-01  0.4995264E+03  0.7818609E-02  0.1013903E+00
        2   -1    0    0  501    0  0.00000000000E+00  0.00000000000E+00  0.74339402417E+03  0.74339402418E+03  0.25500000920E-02 0.  1.
       -2   -1    0    0    0  501  0.00000000000E+00  0.00000000000E+00 -0.83914674875E+02  0.83914674913E+02  0.25500000920E-02 0. -1.
    10030    2    1    2    0    0  0.00000000000E+00  0.00000000000E+00  0.65947934930E+03  0.82730869909E+03  0.49952644719E+03 0.  0.
        3    1    3    3  502    0  0.18191373119E+03 -0.11941523298E+03  0.12670279542E+03  0.25180590150E+03  0.10100000352E+00 0. -1.
       -3    1    3    3    0  502 -0.18191373119E+03  0.11941523298E+03  0.53277655388E+03  0.57550279758E+03  0.10100000352E+00 0.  1.
</event>
<event>
 5   0  0.1683148E-01  0.5009616E+03  0.7818609E-02  0.1013528E+00
       -2   -1    0    0    0  501  0.00000000000E+00  0.00000000000E+00  0.40449797230E+02  0.40449797310E+02  0.25500000920E-02 0. -1.
        2   -1    0    0  501    0  0.00000000000E+00  0.00000000000E+00 -0.15510738636E+04  0.15510738636E+04  0.25500000920E-02 0.  1.
    10030    2    1    2    0    0  0.00000000000E+00  0.00000000000E+00 -0.15106240664E+04  0.15915236609E+04  0.50096156874E+03 0.  0.
        2    1    3    3  502    0  0.15180547992E+03 -0.88520529079E+02 -0.13223739141E+04  0.13339990842E+04  0.25500000920E-02 0.  1.
       -2    1    3    3    0  502 -0.15180547992E+03  0.88520529079E+02 -0.18825015228E+03  0.25752457677E+03  0.25500000920E-02 0. -1.
</event>
<event>
 5   0  0.1827698E-01  0.4060743E+03  0.7818609E-02  0.1041696E+00
       -2   -1    0    0    0  501  0.00000000000E+00  0.00000000000E+00  0.41134159027E+02  0.41134159107E+02  0.25500000920E-02 0.  1.
        2   -1    0    0  501    0  0.00000000000E+00  0.00000000000E+00 -0.10021863782E+04  0.10021863782E+04  0.25500000920E-02 0. -1.
    10030    2    1    2    0    0  0.00000000000E+00  0.00000000000E+00 -0.96105221918E+03  0.10433205373E+04  0.40607434738E+03 0.  0.
        1    1    3    3  502    0  0.45742285847E+02  0.19531416172E+03 -0.39992607780E+03  0.44741574203E+03  0.50400001928E-02 0.  1.
       -1    1    3    3    0  502 -0.45742285847E+02 -0.19531416172E+03 -0.56112614138E+03  0.59590479529E+03  0.50400001928E-02 0. -1.
</event>
<event>
 5   0  0.1683148E-01  0.5062588E+03  0.7818609E-02  0.1012158E+00
       -2   -1    0    0    0  501  0.00000000000E+00  0.00000000000E+00  0.31148986004E+02  0.31148986108E+02  0.25500000920E-02 0. -1.
        2   -1    0    0  501    0  0.00000000000E+00  0.00000000000E+00 -0.20570330609E+04  0.20570330609E+04  0.25500000920E-02 0.  1.
    10030    2    1    2    0    0  0.00000000000E+00  0.00000000000E+00 -0.20258840749E+04  0.20881820470E+04  0.50625880391E+03 0.  0.
        2    1    3    3  502    0 -0.47035087067E+02 -0.20369594382E+03 -0.42424349709E+03  0.47295547547E+03  0.25500000920E-02 0. -1.
       -2    1    3    3    0  502  0.47035087067E+02  0.20369594382E+03 -0.16016405778E+04  0.16152265715E+04  0.25500000920E-02 0.  1.
</event>
<event>
 5   0  0.1074281E-01  0.5039703E+03  0.7818609E-02  0.1012748E+00
        1   -1    0    0  501    0  0.00000000000E+00  0.00000000000E+00  0.27416219044E+03  0.27416219049E+03  0.50400001928E-02 0. -1.
       -1   -1    0    0    0  501  0.00000000000E+00  0.00000000000E+00 -0.23160200927E+03  0.23160200932E+03  0.50400001928E-02 0.  1.
    10030    2    1    2    0    0  0.00000000000E+00  0.00000000000E+00  0.42560181171E+02  0.50576419981E+03  0.50397029356E+03 0.  0.
        4    1    3    3  502    0  0.77093943684E+02 -0.23268569627E+03 -0.37312593253E+02  0.24795151122E+03  0.12699999809E+01 0.  1.
       -4    1    3    3    0  502 -0.77093943684E+02  0.23268569627E+03  0.79872774424E+02  0.25781268859E+03  0.12699999809E+01 0. -1.
</event>
<event>
 5   0  0.1068522E-01  0.5227484E+03  0.7818609E-02  0.1008006E+00
        1   -1    0    0  501    0  0.00000000000E+00  0.00000000000E+00  0.10904558285E+03  0.10904558297E+03  0.50400001928E-02 0.  1.
       -1   -1    0    0    0  501  0.00000000000E+00  0.00000000000E+00 -0.62649472612E+03  0.62649472614E+03  0.50400001928E-02 0. -1.
    10030    2    1    2    0    0  0.00000000000E+00  0.00000000000E+00 -0.51744914327E+03  0.73554030911E+03  0.52274843897E+03 0.  0.
        2    1    3    3  502    0 -0.17779701751E+03  0.11392136126E+02  0.10370311724E+02  0.17846317147E+03  0.25500000920E-02 0.  1.
       -2    1    3    3    0  502  0.17779701751E+03 -0.11392136126E+02 -0.52781945499E+03  0.55707713764E+03  0.25500000920E-02 0. -1.
</event>
<event>
 5   0  0.1068522E-01  0.4813110E+03  0.7818609E-02  0.1018775E+00
        1   -1    0    0  501    0  0.00000000000E+00  0.00000000000E+00  0.27572404281E+03  0.27572404285E+03  0.50400001928E-02 0. -1.
       -1   -1    0    0    0  501  0.00000000000E+00  0.00000000000E+00 -0.21004724153E+03  0.21004724159E+03  0.50400001928E-02 0.  1.
    10030    2    1    2    0    0  0.00000000000E+00  0.00000000000E+00  0.65676801279E+02  0.48577128444E+03  0.48131102061E+03 0.  0.
        2    1    3    3  502    0  0.22908232834E+03  0.71185343021E+02  0.13450795438E+02  0.24026441710E+03  0.25500000920E-02 0. -1.
       -2    1    3    3    0  502 -0.22908232834E+03 -0.71185343021E+02  0.52226005841E+02  0.24550686734E+03  0.25500000920E-02 0.  1.
</event>
<event>
 5   0  0.7220250E-02  0.5092935E+03  0.7818609E-02  0.1011381E+00
       -3   -1    0    0    0  501  0.00000000000E+00  0.00000000000E+00  0.10369635846E+03  0.10369640765E+03  0.10100000352E+00 0. -1.
        3   -1    0    0  501    0  0.00000000000E+00  0.00000000000E+00 -0.62533476162E+03  0.62533476978E+03  0.10100000352E+00 0.  1.
    10030    2    1    2    0    0  0.00000000000E+00  0.00000000000E+00 -0.52163840316E+03  0.72903117742E+03  0.50929346551E+03 0.  0.
        3    1    3    3  502    0 -0.50309838349E+02 -0.16674923050E+03  0.50949389441E+01  0.17424796788E+03  0.10100000352E+00 0. -1.
       -3    1    3    3    0  502  0.50309838349E+02  0.16674923050E+03 -0.52673334210E+03  0.55478320954E+03  0.10100000352E+00 0.  1.
</event>
<event>
 5   0  0.1123271E-01  0.4987683E+03  0.7818609E-02  0.1014101E+00
        1   -1    0    0  501    0  0.00000000000E+00  0.00000000000E+00  0.32733829605E+03  0.32733829608E+03  0.50400001928E-02 0.  1.
       -1   -1    0    0    0  501  0.00000000000E+00  0.00000000000E+00 -0.18999442766E+03  0.18999442773E+03  0.50400001928E-02 0. -1.
    10030    2    1    2    0    0  0.00000000000E+00  0.00000000000E+00  0.13734386839E+03  0.51733272381E+03  0.49876829184E+03 0.  0.
        5    1    3    3  502    0 -0.34328347154E+02  0.13125688068E+03  0.28565579194E+03  0.31627223338E+03  0.46999998093E+01 0.  1.
       -5    1    3    3    0  502  0.34328347154E+02 -0.13125688068E+03 -0.14831192355E+03  0.20106049043E+03  0.46999998093E+01 0. -1.
</event>
<event>
 5   0  0.1782124E-01  0.5011280E+03  0.7818609E-02  0.1013485E+00
        2   -1    0    0  501    0  0.00000000000E+00  0.00000000000E+00  0.17098736289E+04  0.17098736289E+04  0.25500000920E-02 0. -1.
       -2   -1    0    0    0  501  0.00000000000E+00  0.00000000000E+00 -0.36717522480E+02  0.36717522569E+02  0.25500000920E-02 0.  1.
    10030    2    1    2    0    0  0.00000000000E+00  0.00000000000E+00  0.16731561064E+04  0.17465911515E+04  0.50112802151E+03 0.  0.
        3    1    3    3  502    0  0.18948367070E+03  0.98368634345E+02  0.12936981528E+04  0.13111961601E+04  0.10100000352E+00 0. -1.
       -3    1    3    3    0  502 -0.18948367070E+03 -0.98368634345E+02  0.37945795365E+03  0.43539499133E+03  0.10100000352E+00 0.  1.
</event>
<event>
 5   0  0.1123271E-01  0.5018469E+03  0.7818609E-02  0.1013298E+00
        1   -1    0    0  501    0  0.00000000000E+00  0.00000000000E+00  0.16512384935E+04  0.16512384935E+04  0.50400001928E-02 0. -1.
       -1   -1    0    0    0  501  0.00000000000E+00  0.00000000000E+00 -0.38130524324E+02  0.38130524657E+02  0.50400001928E-02 0.  1.
    10030    2    1    2    0    0  0.00000000000E+00  0.00000000000E+00  0.16131079692E+04  0.16893690182E+04  0.50184694811E+03 0.  0.
        5    1    3    3  502    0 -0.64983825096E+02  0.20811082495E+03  0.12244027667E+04  0.12436708721E+04  0.46999998093E+01 0. -1.
       -5    1    3    3    0  502  0.64983825096E+02 -0.20811082495E+03  0.38870520246E+03  0.44569814606E+03  0.46999998093E+01 0.  1.
</event>
<event>
 5   0  0.1782124E-01  0.5003078E+03  0.7818609E-02  0.1013699E+00
        2   -1    0    0  501    0  0.00000000000E+00  0.00000000000E+00  0.40559499847E+03  0.40559499847E+03  0.25500000920E-02 0.  1.
       -2   -1    0    0    0  501  0.00000000000E+00  0.00000000000E+00 -0.15428440414E+03  0.15428440416E+03  0.25500000920E-02 0. -1.
    10030    2    1    2    0    0  0.00000000000E+00  0.00000000000E+00  0.25131059433E+03  0.55987940264E+03  0.50030783591E+03 0.  0.
        3    1    3    3  502    0 -0.19779000060E+02 -0.10485890034E+03 -0.12753749588E+03  0.16629017073E+03  0.10100000352E+00 0. -1.
       -3    1    3    3    0  502  0.19779000060E+02  0.10485890034E+03  0.37884809020E+03  0.39358923191E+03  0.10100000352E+00 0.  1.
</event>
<event>
 5   0  0.1147245E-01  0.5082042E+03  0.7818609E-02  0.1011659E+00
        1   -1    0    0  501    0  0.00000000000E+00  0.00000000000E+00  0.63796629683E+03  0.63796629685E+03  0.50400001928E-02 0. -1.
       -1   -1    0    0    0  501  0.00000000000E+00  0.00000000000E+00 -0.10120892747E+03  0.10120892759E+03  0.50400001928E-02 0.  1.
    10030    2    1    2    0    0  0.00000000000E+00  0.00000000000E+00  0.53675736936E+03  0.73917522445E+03  0.50820422949E+03 0.  0.
        1    1    3    3  502    0  0.97655416974E+02 -0.23238131299E+03  0.22169381633E+03  0.33568706159E+03  0.50400001928E-02 0.  1.
       -1    1    3    3    0  502 -0.97655416974E+02  0.23238131299E+03  0.31506355304E+03  0.40348816286E+03  0.50400001928E-02 0. -1.
</event>
<event>
 5   0  0.1068522E-01  0.5043790E+03  0.7818609E-02  0.1012642E+00
       -1   -1    0    0    0  501  0.00000000000E+00  0.00000000000E+00  0.22297932810E+03  0.22297932816E+03  0.50400001928E-02 0.  1.
        1   -1    0    0  501    0  0.00000000000E+00  0.00000000000E+00 -0.28522620233E+03  0.28522620238E+03  0.50400001928E-02 0. -1.
    10030    2    1    2    0    0  0.00000000000E+00  0.00000000000E+00 -0.62246874232E+02  0.50820553053E+03  0.50437901216E+03 0.  0.
        2    1    3    3  502    0 -0.20641805633E+03 -0.16233897007E+02  0.11393961892E+03  0.23633491100E+03  0.25500000920E-02 0.  1.
       -2    1    3    3    0  502  0.20641805633E+03  0.16233897007E+02 -0.17618649315E+03  0.27187061953E+03  0.25500000920E-02 0. -1.
</event>
<event>
 5   0  0.1123271E-01  0.4959821E+03  0.7818609E-02  0.1014833E+00
       -1   -1    0    0    0  501  0.00000000000E+00  0.00000000000E+00  0.48968298908E+02  0.48968299168E+02  0.50400001928E-02 0.  1.
        1   -1    0    0  501    0  0.00000000000E+00  0.00000000000E+00 -0.12559056694E+04  0.12559056694E+04  0.50400001928E-02 0. -1.
    10030    2    1    2    0    0  0.00000000000E+00  0.00000000000E+00 -0.12069373705E+04  0.13048739686E+04  0.49598211418E+03 0.  0.
        5    1    3    3  502    0 -0.12573907081E+03 -0.19553773508E+03 -0.37665987514E+03  0.44265118469E+03  0.46999998093E+01 0.  1.
       -5    1    3    3    0  502  0.12573907081E+03  0.19553773508E+03 -0.83027749534E+03  0.86222278388E+03  0.46999998093E+01 0. -1.
</event>
<event>
 5   0  0.1709372E-01  0.5003752E+03  0.7818609E-02  0.1013681E+00
       -2   -1    0    0    0  501  0.00000000000E+00  0.00000000000E+00  0.14779422721E+03  0.14779422724E+03  0.25500000920E-02 0. -1.
        2   -1    0    0  501    0  0.00000000000E+00  0.00000000000E+00 -0.42352014719E+03  0.42352014720E+03  0.25500000920E-02 0.  1.
    10030    2    1    2    0    0  0.00000000000E+00  0.00000000000E+00 -0.27572591998E+03  0.57131437444E+03  0.50037519072E+03 0.  0.
        4    1    3    3  502    0  0.14912693293E+03  0.14676411243E+03 -0.29447176650E+03  0.36123922958E+03  0.12699999809E+01 0.  1.
       -4    1    3    3    0  502 -0.14912693293E+03 -0.14676411243E+03  0.18745846525E+02  0.21007514485E+03  0.12699999809E+01 0. -1.
</event>
<event>
 5   0  0.1709372E-01  0.4995530E+03  0.7818609E-02  0.1013896E+00
        2   -1    0    0  501    0  0.00000000000E+00  0.00000000000E+00  0.60202926916E+03  0.60202926917E+03  0.25500000920E-02 0. -1.
       -2   -1    0    0    0  501  0.00000000000E+00  0.00000000000E+00 -0.10363000191E+03  0.10363000194E+03  0.25500000920E-02 0.  1.
    10030    2    1    2    0    0  0.00000000000E+00  0.00000000000E+00  0.49839926725E+03  0.70565927111E+03  0.49955297748E+03 0.  0.
        4    1    3    3  502    0  0.18256254370E+03  0.75577532037E+02  0.33367376652E+02  0.20038972138E+03  0.12699999809E+01 0.  1.
       -4    1    3    3    0  502 -0.18256254370E+03 -0.75577532037E+02  0.46503189060E+03  0.50526954973E+03  0.12699999809E+01 0. -1.
</event>
<event>
 5   0  0.1782124E-01  0.5017109E+03  0.7818609E-02  0.1013333E+00
        2   -1    0    0  501    0  0.00000000000E+00  0.00000000000E+00  0.15006197586E+04  0.15006197586E+04  0.25500000920E-02 0. -1.
       -2   -1    0    0    0  501  0.00000000000E+00  0.00000000000E+00 -0.41934973513E+02  0.41934973590E+02  0.25500000920E-02 0.  1.
    10030    2    1    2    0    0  0.00000000000E+00  0.00000000000E+00  0.14586847851E+04  0.15425547322E+04  0.50171087247E+03 0.  0.
        3    1    3    3  502    0 -0.73196181035E+02  0.25667057133E+02  0.14628233524E+04  0.14648783736E+04  0.10100000352E+00 0. -1.
       -3    1    3    3    0  502  0.73196181035E+02 -0.25667057133E+02 -0.41385673913E+01  0.77676358573E+02  0.10100000352E+00 0.  1.
</event>
<event>
 5   0  0.7220250E-02  0.5312345E+03  0.7818609E-02  0.1005933E+00
       -3   -1    0    0    0  501  0.00000000000E+00  0.00000000000E+00  0.42446078938E+03  0.42446080140E+03  0.10100000352E+00 0. -1.
        3   -1    0    0  501    0  0.00000000000E+00  0.00000000000E+00 -0.16621678088E+03  0.16621681156E+03  0.10100000352E+00 0.  1.
    10030    2    1    2    0    0  0.00000000000E+00  0.00000000000E+00  0.25824400850E+03  0.59067761296E+03  0.53123448168E+03 0.  0.
        5    1    3    3  502    0  0.19506682919E+03  0.42309886794E+02 -0.65663790014E+02  0.21017853765E+03  0.46999998093E+01 0.  1.
       -5    1    3    3    0  502 -0.19506682919E+03 -0.42309886794E+02  0.32390779852E+03  0.38049907531E+03  0.46999998093E+01 0. -1.
</event>
<event>
 5   0  0.1074281E-01  0.5011585E+03  0.7818609E-02  0.1013477E+00
       -1   -1    0    0    0  501  0.00000000000E+00  0.00000000000E+00  0.13738135588E+03  0.13738135597E+03  0.50400001928E-02 0.  1.
        1   -1    0    0  501    0  0.00000000000E+00  0.00000000000E+00 -0.45704871241E+03  0.45704871244E+03  0.50400001928E-02 0. -1.
    10030    2    1    2    0    0  0.00000000000E+00  0.00000000000E+00 -0.31966735653E+03  0.59443006841E+03  0.50115854517E+03 0.  0.
        4    1    3    3  502    0 -0.68034340116E+02  0.24049421494E+03 -0.13854238995E+03  0.28576519306E+03  0.12699999809E+01 0.  1.
       -4    1    3    3    0  502  0.68034340116E+02 -0.24049421494E+03 -0.18112496659E+03  0.30866487535E+03  0.12699999809E+01 0. -1.
</event>
<event>
 5   0  0.1709372E-01  0.4906622E+03  0.7818609E-02  0.1016245E+00
        2   -1    0    0  501    0  0.00000000000E+00  0.00000000000E+00  0.10476307047E+03  0.10476307050E+03  0.25500000920E-02 0. -1.
       -2   -1    0    0    0  501  0.00000000000E+00  0.00000000000E+00 -0.57450911034E+03  0.57450911035E+03  0.25500000920E-02 0.  1.
    10030    2    1    2    0    0  0.00000000000E+00  0.00000000000E+00 -0.46974603988E+03  0.67927218085E+03  0.49066215841E+03 0.  0.
        4    1    3    3  502    0  0.20229810031E+02  0.12615519118E+03 -0.52480909229E+03  0.54013940212E+03  0.12699999809E+01 0.  1.
       -4    1    3    3    0  502 -0.20229810031E+02 -0.12615519118E+03  0.55063052415E+02  0.13913277873E+03  0.12699999809E+01 0. -1.
</event>
<event>
 5   0  0.1068522E-01  0.4778975E+03  0.7818609E-02  0.1019715E+00
        1   -1    0    0  501    0  0.00000000000E+00  0.00000000000E+00  0.24028842662E+03  0.24028842667E+03  0.50400001928E-02 0.  1.
       -1   -1    0    0    0  501  0.00000000000E+00  0.00000000000E+00 -0.23761651558E+03  0.23761651564E+03  0.50400001928E-02 0. -1.
    10030    2    1    2    0    0  0.00000000000E+00  0.00000000000E+00  0.26719110338E+01  0.47790494230E+03  0.47789747307E+03 0.  0.
        2    1    3    3  502    0 -0.10589345782E+03 -0.17097607111E+03  0.13037384860E+03  0.23967390703E+03  0.25500000920E-02 0.  1.
       -2    1    3    3    0  502  0.10589345782E+03  0.17097607111E+03 -0.12770193757E+03  0.23823103528E+03  0.25500000920E-02 0. -1.
</event>
<event>
 5   0  0.1827698E-01  0.4957783E+03  0.7818609E-02  0.1014887E+00
        2   -1    0    0  501    0  0.00000000000E+00  0.00000000000E+00  0.82049572093E+03  0.82049572093E+03  0.25500000920E-02 0. -1.
       -2   -1    0    0    0  501  0.00000000000E+00  0.00000000000E+00 -0.74892557040E+02  0.74892557083E+02  0.25500000920E-02 0.  1.
    10030    2    1    2    0    0  0.00000000000E+00  0.00000000000E+00  0.74560316389E+03  0.89538827802E+03  0.49577826738E+03 0.  0.
        1    1    3    3  502    0 -0.12264802867E+03 -0.20290265463E+03  0.50349841256E+03  0.55652733776E+03  0.50400001928E-02 0.  1.
       -1    1    3    3    0  502  0.12264802867E+03  0.20290265463E+03  0.24210475133E+03  0.33886094026E+03  0.50400001928E-02 0. -1.
</event>
<event>
 5   0  0.1760649E-01  0.4890387E+03  0.7818609E-02  0.1016680E+00
        2   -1    0    0  501    0  0.00000000000E+00  0.00000000000E+00  0.71646950216E+03  0.71646950216E+03  0.25500000920E-02 0.  1.
       -2   -1    0    0    0  501  0.00000000000E+00  0.00000000000E+00 -0.83450480137E+02  0.83450480176E+02  0.25500000920E-02 0. -1.
    10030    2    1    2    0    0  0.00000000000E+00  0.00000000000E+00  0.63301902202E+03  0.79991998234E+03  0.48903874683E+03 0.  0.
        5    1    3    3  502    0 -0.11842164963E+03 -0.98851549717E+02  0.62768715509E+01  0.15445648286E+03  0.46999998093E+01 0. -1.
       -5    1    3    3    0  502  0.11842164963E+03  0.98851549717E+02  0.62674215047E+03  0.64546349948E+03  0.46999998093E+01 0.  1.
</event>
<event>
 5   0  0.1074281E-01  0.5007770E+03  0.7818609E-02  0.1013576E+00
       -1   -1    0    0    0  501  0.00000000000E+00  0.00000000000E+00  0.93561905766E+02  0.93561905902E+02  0.50400001928E-02 0.  1.
        1   -1    0    0  501    0  0.00000000000E+00  0.00000000000E+00 -0.67008466412E+03  0.67008466414E+03  0.50400001928E-02 0. -1.
    10030    2    1    2    0    0  0.00000000000E+00  0.00000000000E+00 -0.57652275836E+03  0.76364657004E+03  0.50077698932E+03 0.  0.
        4    1    3    3  502    0 -0.20233130135E+02 -0.20836913419E+03 -0.78809329586E+02  0.22369532621E+03  0.12699999809E+01 0.  1.
       -4    1    3    3    0  502  0.20233130135E+02  0.20836913419E+03 -0.49771342877E+03  0.53995124383E+03  0.12699999809E+01 0. -1.
</event>
<event>
 5   0  0.1074281E-01  0.5101021E+03  0.7818609E-02  0.1011175E+00
        1   -1    0    0  501    0  0.00000000000E+00  0.00000000000E+00  0.51158223439E+03  0.51158223441E+03  0.50400001928E-02 0.  1.
       -1   -1    0    0    0  501  0.00000000000E+00  0.00000000000E+00 -0.12715654246E+03  0.12715654256E+03  0.50400001928E-02 0. -1.
    10030    2    1    2    0    0  0.00000000000E+00  0.00000000000E+00  0.38442569192E+03  0.63873877698E+03  0.51010206096E+03 0.  0.
        4    1    3    3  502    0  0.16494719593E+03 -0.19283336218E+03  0.22431192631E+03  0.33868825814E+03  0.12699999809E+01 0.  1.
       -4    1    3    3    0  502 -0.16494719593E+03  0.19283336218E+03  0.16011376562E+03  0.30005051884E+03  0.12699999809E+01 0. -1.
</event>
<event>
 5   0  0.1074281E-01  0.5009722E+03  0.7818609E-02  0.1013525E+00
        1   -1    0    0  501    0  0.00000000000E+00  0.00000000000E+00  0.54638911814E+03  0.54638911816E+03  0.50400001928E-02 0. -1.
       -1   -1    0    0    0  501  0.00000000000E+00  0.00000000000E+00 -0.11483260969E+03  0.11483260980E+03  0.50400001928E-02 0.  1.
    10030    2    1    2    0    0  0.00000000000E+00  0.00000000000E+00  0.43155650845E+03  0.66122172796E+03  0.50097220835E+03 0.  0.
        4    1    3    3  502    0  0.24817569658E+03 -0.16690560337E+02  0.17680444325E+03  0.30517400812E+03  0.12699999809E+01 0. -1.
       -4    1    3    3    0  502 -0.24817569658E+03  0.16690560337E+02  0.25475206520E+03  0.35604771984E+03  0.12699999809E+01 0.  1.
</event>
<event>
 5   0  0.1709372E-01  0.4685210E+03  0.7818609E-02  0.1022338E+00
       -2   -1    0    0    0  501  0.00000000000E+00  0.00000000000E+00  0.20406789417E+03  0.20406789418E+03  0.25500000920E-02 0.  1.
        2   -1    0    0  501    0  0.00000000000E+00  0.00000000000E+00 -0.26892015743E+03  0.26892015745E+03  0.25500000920E-02 0. -1.
    10030    2    1    2    0    0  0.00000000000E+00  0.00000000000E+00 -0.64852263268E+02  0.47298805163E+03  0.46852095037E+03 0.  0.
        4    1    3    3  502    0  0.22541603745E+03  0.62034082189E+02 -0.17597996677E+02  0.23446091291E+03  0.12699999809E+01 0. -1.
       -4    1    3    3    0  502 -0.22541603745E+03 -0.62034082189E+02 -0.47254266591E+02  0.23852713872E+03  0.12699999809E+01 0.  1.
</event>
<event>
 5   0  0.1147245E-01  0.4671272E+03  0.7818609E-02  0.1022734E+00
       -1   -1    0    0    0  501  0.00000000000E+00  0.00000000000E+00  0.10388716502E+03  0.10388716514E+03  0.50400001928E-02 0.  1.
        1   -1    0    0  501    0  0.00000000000E+00  0.00000000000E+00 -0.52510775732E+03  0.52510775735E+03  0.50400001928E-02 0. -1.
    10030    2    1    2    0    0  0.00000000000E+00  0.00000000000E+00 -0.42122059230E+03  0.62899492249E+03  0.46712720445E+03 0.  0.
        1    1    3    3  502    0  0.12897692612E+03 -0.19428029020E+03 -0.22827369118E+03  0.32632615087E+03  0.50400001928E-02 0. -1.
       -1    1    3    3    0  502 -0.12897692612E+03  0.19428029020E+03 -0.19294690112E+03  0.30266877161E+03  0.50400001928E-02 0.  1.
</event>
<event>
 5   0  0.1709372E-01  0.4693899E+03  0.7818609E-02  0.1022093E+00
       -2   -1    0    0    0  501  0.00000000000E+00  0.00000000000E+00  0.68517920283E+02  0.68517920330E+02  0.25500000920E-02 0.  1.
        2   -1    0    0  501    0  0.00000000000E+00  0.00000000000E+00 -0.80390236678E+03  0.80390236679E+03  0.25500000920E-02 0. -1.
    10030    2    1    2    0    0  0.00000000000E+00  0.00000000000E+00 -0.73538444650E+03  0.87242028712E+03  0.46938989467E+03 0.  0.
        4    1    3    3  502    0 -0.95845399257E+02  0.81504085525E+02 -0.73592000130E+03  0.74659836441E+03  0.12699999809E+01 0. -1.
       -4    1    3    3    0  502  0.95845399257E+02 -0.81504085525E+02  0.53555480207E+00  0.12582192271E+03  0.12699999809E+01 0.  1.
</event>
<event>
 5   0  0.1123271E-01  0.5197579E+03  0.7818609E-02  0.1008747E+00
        1   -1    0    0  501    0  0.00000000000E+00  0.00000000000E+00  0.10306838971E+04  0.10306838971E+04  0.50400001928E-02 0. -1.
       -1   -1    0    0    0  501  0.00000000000E+00  0.00000000000E+00 -0.65526472363E+02  0.65526472557E+02  0.50400001928E-02 0.  1.
    10030    2    1    2    0    0  0.00000000000E+00  0.00000000000E+00  0.96515742473E+03  0.10962103697E+04  0.51975794370E+03 0.  0.
        5    1    3    3  502    0 -0.22599741007E+03 -0.50451464229E+01  0.75279364162E+03  0.78601567397E+03  0.46999998093E+01 0. -1.
       -5    1    3    3    0  502  0.22599741007E+03  0.50451464229E+01  0.21236378310E+03  0.31019469569E+03  0.46999998093E+01 0.  1.
</event>
<event>
 5   0  0.1123271E-01  0.4997777E+03  0.7818609E-02  0.1013837E+00
       -1   -1    0    0    0  501  0.00000000000E+00  0.00000000000E+00  0.24442635647E+03  0.24442635652E+03  0.50400001928E-02 0.  1.
        1   -1    0    0  501    0  0.00000000000E+00  0.00000000000E+00 -0.25547340791E+03  0.25547340796E+03  0.50400001928E-02 0. -1.
    10030    2    1    2    0    0  0.00000000000E+00  0.00000000000E+00 -0.11047051438E+02  0.49989976448E+03  0.49977768775E+03 0.  0.
        5    1    3    3  502    0 -0.22775248564E+03  0.81764298118E+02 -0.67713861599E+02  0.25132419743E+03  0.46999998093E+01 0.  1.
       -5    1    3    3    0  502  0.22775248564E+03 -0.81764298118E+02  0.56666810161E+02  0.24857556705E+03  0.46999998093E+01 0. -1.
</event>
<event>
 5   0  0.1782124E-01  0.4984356E+03  0.7818609E-02  0.1014188E+00
        2   -1    0    0  501    0  0.00000000000E+00  0.00000000000E+00  0.10623418697E+04  0.10623418697E+04  0.25500000920E-02 0.  1.
       -2   -1    0    0    0  501  0.00000000000E+00  0.00000000000E+00 -0.58464702240E+02  0.58464702296E+02  0.25500000920E-02 0. -1.
    10030    2    1    2    0    0  0.00000000000E+00  0.00000000000E+00  0.10038771675E+04  0.11208065720E+04  0.49843555702E+03 0.  0.
        3    1    3    3  502    0  0.23730890639E+03 -0.69885634526E+02  0.56977074538E+03  0.62115878120E+03  0.10100000352E+00 0.  1.
       -3    1    3    3    0  502 -0.23730890639E+03  0.69885634526E+02  0.43410642212E+03  0.49964779085E+03  0.10100000352E+00 0. -1.
</event>
<event>
 5   0  0.1074281E-01  0.4442658E+03  0.7818609E-02  0.1029446E+00
       -1   -1    0    0    0  501  0.00000000000E+00  0.00000000000E+00  0.68626412296E+02  0.68626412481E+02  0.50400001928E-02 0. -1.
        1   -1    0    0  501    0  0.00000000000E+00  0.00000000000E+00 -0.71900934873E+03  0.71900934875E+03  0.50400001928E-02 0.  1.
    10030    2    1    2    0    0  0.00000000000E+00  0.00000000000E+00 -0.65038293643E+03  0.78763576123E+03  0.44426583074E+03 0.  0.
        4    1    3    3  502    0 -0.22069132008E+03 -0.43564114465E+01 -0.36925711800E+03  0.43020468288E+03  0.12699999809E+01 0.  1.
       -4    1    3    3    0  502  0.22069132008E+03  0.43564114465E+01 -0.28112581844E+03  0.35743107835E+03  0.12699999809E+01 0. -1.
</event>
<event>
 5   0  0.1123271E-01  0.5060097E+03  0.7818609E-02  0.1012222E+00
        1   -1    0    0  501    0  0.00000000000E+00  0.00000000000E+00  0.14401698267E+04  0.14401698267E+04  0.50400001928E-02 0. -1.
       -1   -1    0    0    0  501  0.00000000000E+00  0.00000000000E+00 -0.44447151793E+02  0.44447152079E+02  0.50400001928E-02 0.  1.
    10030    2    1    2    0    0  0.00000000000E+00  0.00000000000E+00  0.13957226749E+04  0.14846169788E+04  0.50600967230E+03 0.  0.
        5    1    3    3  502    0 -0.23646558540E+02  0.17104398340E+03  0.15548031531E+03  0.23240357663E+03  0.46999998093E+01 0.  1.
       -5    1    3    3    0  502  0.23646558540E+02 -0.17104398340E+03  0.12402423596E+04  0.12522134022E+04  0.46999998093E+01 0. -1.
</event>
<event>
 5   0  0.7220250E-02  0.5053485E+03  0.7818609E-02  0.1012392E+00
       -3   -1    0    0    0  501  0.00000000000E+00  0.00000000000E+00  0.73334960621E+03  0.73334961317E+03  0.10100000352E+00 0.  1.
        3   -1    0    0  501    0  0.00000000000E+00  0.00000000000E+00 -0.87058412612E+02  0.87058471199E+02  0.10100000352E+00 0. -1.
    10030    2    1    2    0    0  0.00000000000E+00  0.00000000000E+00  0.64629119360E+03  0.82040808437E+03  0.50534851139E+03 0.  0.
        2    1    3    3  502    0 -0.68050414417E+02  0.23834024852E+03  0.40279971694E+03  0.47295300500E+03  0.25500000920E-02 0.  1.
       -2    1    3    3    0  502  0.68050414417E+02 -0.23834024852E+03  0.24349147666E+03  0.34745507937E+03  0.25500000920E-02 0. -1.
</event>
<event>
 5   0  0.7220250E-02  0.4948741E+03  0.7818609E-02  0.1015126E+00
        3   -1    0    0  501    0  0.00000000000E+00  0.00000000000E+00  0.51229275144E+03  0.51229276139E+03  0.10100000352E+00 0.  1.
       -3   -1    0    0    0  501  0.00000000000E+00  0.00000000000E+00 -0.11951187983E+03  0.11951192251E+03  0.10100000352E+00 0. -1.
    10030    2    1    2    0    0  0.00000000000E+00  0.00000000000E+00  0.39278087161E+03  0.63180468390E+03  0.49487407034E+03 0.  0.
        3    1    3    3  502    0  0.13903494229E+03 -0.20203192435E+03  0.15448317912E+03  0.28984940308E+03  0.10100000352E+00 0. -1.
       -3    1    3    3    0  502 -0.13903494229E+03  0.20203192435E+03  0.23829769249E+03  0.34195528082E+03  0.10100000352E+00 0.  1.
</event>
<event>
 5   0  0.1760649E-01  0.5251115E+03  0.7818609E-02  0.1007425E+00
       -2   -1    0    0    0  501  0.00000000000E+00  0.00000000000E+00  0.18463176946E+03  0.18463176948E+03  0.25500000920E-02 0.  1.
        2   -1    0    0  501    0  0.00000000000E+00  0.00000000000E+00 -0.37336758028E+03  0.37336758029E+03  0.25500000920E-02 0. -1.
    10030    2    1    2    0    0  0.00000000000E+00  0.00000000000E+00 -0.18873581082E+03  0.55799934977E+03  0.52511148155E+03 0.  0.
        5    1    3    3  502    0 -0.22162595846E+03 -0.11170546121E+03 -0.34695199258E+01  0.24825451274E+03  0.46999998093E+01 0.  1.
       -5    1    3    3    0  502  0.22162595846E+03  0.11170546121E+03 -0.18526629089E+03  0.30974483703E+03  0.46999998093E+01 0. -1.
</event>
<event>
 5   0  0.1147245E-01  0.4773794E+03  0.7818609E-02  0.1019858E+00
        1   -1    0    0  501    0  0.00000000000E+00  0.00000000000E+00  0.14100853937E+04  0.14100853937E+04  0.50400001928E-02 0. -1.
       -1   -1    0    0    0  501  0.00000000000E+00  0.00000000000E+00 -0.40403767075E+02  0.40403767389E+02  0.50400001928E-02 0.  1.
    10030    2    1    2    0    0  0.00000000000E+00  0.00000000000E+00  0.13696816267E+04  0.14504891611E+04  0.47737935455E+03 0.  0.
        1    1    3    3  502    0  0.22723934813E+03 -0.72645796178E+02  0.66177486610E+03  0.70346364971E+03  0.50400001928E-02 0.  1.
       -1    1    3    3    0  502 -0.22723934813E+03  0.72645796178E+02  0.70790676056E+03  0.74702551142E+03  0.50400001928E-02 0. -1.
</event>
<event>
 5   0  0.1123271E-01  0.4956767E+03  0.7818609E-02  0.1014914E+00
       -1   -1    0    0    0  501  0.00000000000E+00  0.00000000000E+00  0.80514832749E+03  0.80514832751E+03  0.50400001928E-02 0.  1.
        1   -1    0    0  501    0  0.00000000000E+00  0.00000000000E+00 -0.76288869785E+02  0.76288869952E+02  0.50400001928E-02 0. -1.
    10030    2    1    2    0    0  0.00000000000E+00  0.00000000000E+00  0.72885945771E+03  0.88143719746E+03  0.49567673334E+03 0.  0.
        5    1    3    3  502    0 -0.54332646471E+02 -0.55198746814E+02 -0.54131316073E+02  0.94610926961E+02  0.46999998093E+01 0. -1.
       -5    1    3    3    0  502  0.54332646471E+02  0.55198746814E+02  0.78299077378E+03  0.78682627050E+03  0.46999998093E+01 0.  1.
</event>
<event>
 5   0  0.1147245E-01  0.4981173E+03  0.7818609E-02  0.1014271E+00
        1   -1    0    0  501    0  0.00000000000E+00  0.00000000000E+00  0.61758500665E+03  0.61758500667E+03  0.50400001928E-02 0.  1.
       -1   -1    0    0    0  501  0.00000000000E+00  0.00000000000E+00 -0.10043996095E+03  0.10043996108E+03  0.50400001928E-02 0. -1.
    10030    2    1    2    0    0  0.00000000000E+00  0.00000000000E+00  0.51714504570E+03  0.71802496775E+03  0.49811731150E+03 0.  0.
        1    1    3    3  502    0  0.15344325614E+03 -0.15977806529E+03  0.42265011073E+03  0.47718652447E+03  0.50400001928E-02 0.  1.
       -1    1    3    3    0  502 -0.15344325614E+03  0.15977806529E+03  0.94494934966E+02  0.24083844328E+03  0.50400001928E-02 0. -1.
</event>
<event>
 5   0  0.1709372E-01  0.5033546E+03  0.7818609E-02  0.1012907E+00
       -2   -1    0    0    0  501  0.00000000000E+00  0.00000000000E+00  0.62260912931E+02  0.62260912983E+02  0.25500000920E-02 0. -1.
        2   -1    0    0  501    0  0.00000000000E+00  0.00000000000E+00 -0.10173552127E+04  0.10173552127E+04  0.25500000920E-02 0.  1.
    10030    2    1    2    0    0  0.00000000000E+00  0.00000000000E+00 -0.95509429977E+03  0.10796161257E+04  0.50335460402E+03 0.  0.
        4    1    3    3  502    0  0.63457954507E+02 -0.80991129115E+02  0.15082387887E+02  0.10399791493E+03  0.12699999809E+01 0. -1.
       -4    1    3    3    0  502 -0.63457954507E+02  0.80991129115E+02 -0.97017668766E+03  0.97561821076E+03  0.12699999809E+01 0.  1.
</event>
<event>
 5   0  0.7220250E-02  0.5573854E+03  0.7818609E-02  0.9997988E-01
        4   -1    0    0  501    0  0.00000000000E+00  0.00000000000E+00  0.73859065956E+03  0.73859175143E+03  0.12699999809E+01 0. -1.
       -4   -1    0    0    0  501  0.00000000000E+00  0.00000000000E+00 -0.10515421211E+03  0.10516188104E+03  0.12699999809E+01 0.  1.
    10030    2    1    2    0    0  0.00000000000E+00  0.00000000000E+00  0.63343644745E+03  0.84375363248E+03  0.55738537778E+03 0.  0.
        3    1    3    3  502    0 -0.14578648057E+03 -0.16478506234E+03  0.57566501173E+03  0.61627755972E+03  0.10100000352E+00 0. -1.
       -3    1    3    3    0  502  0.14578648057E+03  0.16478506234E+03  0.57771435716E+02  0.22747607275E+03  0.10100000352E+00 0.  1.
</event>
<event>
 5   0  0.1123271E-01  0.4982227E+03  0.7818609E-02  0.1014244E+00
        1   -1    0    0  501    0  0.00000000000E+00  0.00000000000E+00  0.34543086263E+03  0.34543086267E+03  0.50400001928E-02 0. -1.
       -1   -1    0    0    0  501  0.00000000000E+00  0.00000000000E+00 -0.17964945274E+03  0.17964945281E+03  0.50400001928E-02 0.  1.
    10030    2    1    2    0    0  0.00000000000E+00  0.00000000000E+00  0.16578140989E+03  0.52508031548E+03  0.49822270306E+03 0.  0.
        5    1    3    3  502    0  0.12607589438E+03  0.16844355833E+03  0.22336510926E+03  0.30689155335E+03  0.46999998093E+01 0.  1.
       -5    1    3    3    0  502 -0.12607589438E+03 -0.16844355833E+03 -0.57583699369E+02  0.21818876213E+03  0.46999998093E+01 0. -1.
</event>
<event>
 5   0  0.1827698E-01  0.5046856E+03  0.7818609E-02  0.1012563E+00
       -2   -1    0    0    0  501  0.00000000000E+00  0.00000000000E+00  0.44344902016E+03  0.44344902016E+03  0.25500000920E-02 0.  1.
        2   -1    0    0  501    0  0.00000000000E+00  0.00000000000E+00 -0.14359463117E+03  0.14359463120E+03  0.25500000920E-02 0. -1.
    10030    2    1    2    0    0  0.00000000000E+00  0.00000000000E+00  0.29985438898E+03  0.58704365136E+03  0.50468563880E+03 0.  0.
        1    1    3    3  502    0 -0.37152368829E+01  0.13024266706E+03  0.40129382580E+03  0.42191668604E+03  0.50400001928E-02 0.  1.
       -1    1    3    3    0  502  0.37152368829E+01 -0.13024266706E+03 -0.10143943682E+03  0.16512696532E+03  0.50400001928E-02 0. -1.
</event>
<event>
 5   0  0.1709372E-01  0.4946673E+03  0.7818609E-02  0.1015180E+00
       -2   -1    0    0    0  501  0.00000000000E+00  0.00000000000E+00  0.83839636607E+02  0.83839636646E+02  0.25500000920E-02 0. -1.
        2   -1    0    0  501    0  0.00000000000E+00  0.00000000000E+00 -0.72965419941E+03  0.72965419942E+03  0.25500000920E-02 0.  1.
    10030    2    1    2    0    0  0.00000000000E+00  0.00000000000E+00 -0.64581456281E+03  0.81349383606E+03  0.49466733446E+03 0.  0.
        4    1    3    3  502    0 -0.52290987374E+01  0.19928083209E+03 -0.56366142347E+03  0.59787624699E+03  0.12699999809E+01 0.  1.
       -4    1    3    3    0  502  0.52290987374E+01 -0.19928083209E+03 -0.82153139338E+02  0.21561758907E+03  0.12699999809E+01 0. -1.
</event>
<event>
 5   0  0.1709372E-01  0.5148833E+03  0.7818609E-02  0.1009966E+00
        2   -1    0    0  501    0  0.00000000000E+00  0.00000000000E+00  0.44187833314E+03  0.44187833315E+03  0.25500000920E-02 0. -1.
       -2   -1    0    0    0  501  0.00000000000E+00  0.00000000000E+00 -0.14998744462E+03  0.14998744464E+03  0.25500000920E-02 0.  1.
    10030    2    1    2    0    0  0.00000000000E+00  0.00000000000E+00  0.29189088852E+03  0.59186577779E+03  0.51488329563E+03 0.  0.
        4    1    3    3  502    0 -0.19490891376E+03 -0.12567423624E+03  0.27441925614E+03  0.35929241483E+03  0.12699999809E+01 0. -1.
       -4    1    3    3    0  502  0.19490891376E+03  0.12567423624E+03  0.17471632381E+02  0.23257336295E+03  0.12699999809E+01 0.  1.
</event>
<event>
 5   0  0.1683148E-01  0.4969496E+03  0.7818609E-02  0.1014578E+00
       -2   -1    0    0    0  501  0.00000000000E+00  0.00000000000E+00  0.73757480016E+02  0.73757480060E+02  0.25500000920E-02 0. -1.
        2   -1    0    0  501    0  0.00000000000E+00  0.00000000000E+00 -0.83706378285E+03  0.83706378285E+03  0.25500000920E-02 0.  1.
    10030    2    1    2    0    0  0.00000000000E+00  0.00000000000E+00 -0.76330630283E+03  0.91082126291E+03  0.49694955582E+03 0.  0.
        2    1    3    3  502    0  0.30195590183E+02  0.13262681265E+03 -0.76276636346E+03  0.77479943878E+03  0.25500000920E-02 0.  1.
       -2    1    3    3    0  502 -0.30195590183E+02 -0.13262681265E+03 -0.53993937201E+00  0.13602182413E+03  0.25500000920E-02 0. -1.
</event>
<event>
 5   0  0.1782124E-01  0.4867510E+03  0.7818609E-02  0.1017296E+00
        2   -1    0    0  501    0  0.00000000000E+00  0.00000000000E+00  0.13516512535E+04  0.13516512535E+04  0.25500000920E-02 0.  1.
       -2   -1    0    0    0  501  0.00000000000E+00  0.00000000000E+00 -0.43821675988E+02  0.43821676062E+02  0.25500000920E-02 0. -1.
    10030    2    1    2    0    0  0.00000000000E+00  0.00000000000E+00  0.13078295775E+04  0.13954729296E+04  0.48675095617E+03 0.  0.
        3    1    3    3  502    0  0.20965515432E+03 -0.52161427371E+02  0.33267312494E+03  0.39667053898E+03  0.10100000352E+00 0. -1.
       -3    1    3    3    0  502 -0.20965515432E+03  0.52161427371E+02  0.97515645257E+03  0.99880239058E+03  0.10100000352E+00 0.  1.
</event>
<event>
 5   0  0.1147245E-01  0.5024288E+03  0.7818609E-02  0.1013147E+00
       -1   -1    0    0    0  501  0.00000000000E+00  0.00000000000E+00  0.72520401723E+03  0.72520401725E+03  0.50400001928E-02 0.  1.
        1   -1    0    0  501    0  0.00000000000E+00  0.00000000000E+00 -0.87021975746E+02  0.87021975892E+02  0.50400001928E-02 0. -1.
    10030    2    1    2    0    0  0.00000000000E+00  0.00000000000E+00  0.63818204149E+03  0.81222599314E+03  0.50242884656E+03 0.  0.
        1    1    3    3  502    0  0.14081833866E+03  0.17189345523E+03  0.50852664611E+03  0.55495631745E+03  0.50400001928E-02 0.  1.
       -1    1    3    3    0  502 -0.14081833866E+03 -0.17189345523E+03  0.12965539538E+03  0.25726967569E+03  0.50400001928E-02 0. -1.
</event>
<event>
 5   0  0.1074281E-01  0.5019379E+03  0.7818609E-02  0.1013274E+00
        1   -1    0    0  501    0  0.00000000000E+00  0.00000000000E+00  0.54050762796E+03  0.54050762798E+03  0.50400001928E-02 0.  1.
       -1   -1    0    0    0  501  0.00000000000E+00  0.00000000000E+00 -0.11653009707E+03  0.11653009718E+03  0.50400001928E-02 0. -1.
    10030    2    1    2    0    0  0.00000000000E+00  0.00000000000E+00  0.42397753088E+03  0.65703772517E+03  0.50193787026E+03 0.  0.
        4    1    3    3  502    0  0.21765766015E+03  0.12470132836E+03  0.20197552554E+03  0.32205745471E+03  0.12699999809E+01 0.  1.
       -4    1    3    3    0  502 -0.21765766015E+03 -0.12470132836E+03  0.22200200535E+03  0.33498027046E+03  0.12699999809E+01 0. -1.
</event>
<event>
 5   0  0.1782124E-01  0.4776398E+03  0.7818609E-02  0.1019786E+00
       -2   -1    0    0    0  501  0.00000000000E+00  0.00000000000E+00  0.24568517132E+03  0.24568517134E+03  0.25500000920E-02 0. -1.
        2   -1    0    0  501    0  0.00000000000E+00  0.00000000000E+00 -0.23214646271E+03  0.23214646272E+03  0.25500000920E-02 0.  1.
    10030    2    1    2    0    0  0.00000000000E+00  0.00000000000E+00  0.13538708618E+02  0.47783163406E+03  0.47763979511E+03 0.  0.
        3    1    3    3  502    0 -0.34421015781E+02 -0.97690231478E+02  0.22204580520E+03  0.24501538209E+03  0.10100000352E+00 0. -1.
       -3    1    3    3    0  502  0.34421015781E+02  0.97690231478E+02 -0.20850709658E+03  0.23281625197E+03  0.10100000352E+00 0.  1.
</event>
<event>
 5   0  0.1683148E-01  0.4924694E+03  0.7818609E-02  0.1015763E+00
        2   -1    0    0  501    0  0.00000000000E+00  0.00000000000E+00  0.45613125977E+03  0.45613125977E+03  0.25500000920E-02 0. -1.
       -2   -1    0    0    0  501  0.00000000000E+00  0.00000000000E+00 -0.13292560296E+03  0.13292560298E+03  0.25500000920E-02 0.  1.
    10030    2    1    2    0    0  0.00000000000E+00  0.00000000000E+00  0.32320565681E+03  0.58905686276E+03  0.49246938074E+03 0.  0.
        2    1    3    3  502    0  0.49628407750E+02  0.21859485221E+03  0.39710106298E+02  0.22764793172E+03  0.25500000920E-02 0.  1.
       -2    1    3    3    0  502 -0.49628407750E+02 -0.21859485221E+03  0.28349555051E+03  0.36140893104E+03  0.25500000920E-02 0. -1.
</event>
<event>
 5   0  0.1147245E-01  0.4837022E+03  0.7818609E-02  0.1018123E+00
        1   -1    0    0  501    0  0.00000000000E+00  0.00000000000E+00  0.53272435625E+03  0.53272435627E+03  0.50400001928E-02 0. -1.
       -1   -1    0    0    0  501  0.00000000000E+00  0.00000000000E+00 -0.10979777855E+03  0.10979777867E+03  0.50400001928E-02 0.  1.
    10030    2    1    2    0    0  0.00000000000E+00  0.00000000000E+00  0.42292657769E+03  0.64252213494E+03  0.48370218499E+03 0.  0.
        1    1    3    3  502    0  0.23362817007E+03  0.49941509119E+02  0.16148380288E+03  0.28836313010E+03  0.50400001928E-02 0.  1.
       -1    1    3    3    0  502 -0.23362817007E+03 -0.49941509119E+02  0.26144277481E+03  0.35415900484E+03  0.50400001928E-02 0. -1.
</event>
<event>
 5   0  0.1827698E-01  0.5025195E+03  0.7818609E-02  0.1013123E+00
        2   -1    0    0  501    0  0.00000000000E+00  0.00000000000E+00  0.47119129975E+03  0.47119129975E+03  0.25500000920E-02 0. -1.
       -2   -1    0    0    0  501  0.00000000000E+00  0.00000000000E+00 -0.13398263192E+03  0.13398263195E+03  0.25500000920E-02 0.  1.
    10030    2    1    2    0    0  0.00000000000E+00  0.00000000000E+00  0.33720866782E+03  0.60517393170E+03  0.50251945430E+03 0.  0.
        1    1    3    3  502    0 -0.71947140986E+02 -0.85900785754E+02 -0.10222771982E+03  0.15167677085E+03  0.50400001928E-02 0.  1.
       -1    1    3    3    0  502  0.71947140986E+02  0.85900785754E+02  0.43943638765E+03  0.45349716085E+03  0.50400001928E-02 0. -1.
</event>
<event>
 5   0  0.1068522E-01  0.5068971E+03  0.7818609E-02  0.1011994E+00
        1   -1    0    0  501    0  0.00000000000E+00  0.00000000000E+00  0.37559295088E+03  0.37559295091E+03  0.50400001928E-02 0. -1.
       -1   -1    0    0    0  501  0.00000000000E+00  0.00000000000E+00 -0.17102604416E+03  0.17102604423E+03  0.50400001928E-02 0.  1.
    10030    2    1    2    0    0  0.00000000000E+00  0.00000000000E+00  0.20456690672E+03  0.54661899515E+03  0.50689713605E+03 0.  0.
        2    1    3    3  502    0  0.56760926872E+02 -0.21531026524E+03  0.23283156300E+03  0.32216587323E+03  0.25500000920E-02 0. -1.
       -2    1    3    3    0  502 -0.56760926872E+02  0.21531026524E+03 -0.28264656284E+02  0.22445312192E+03  0.25500000920E-02 0.  1.
</event>
<event>
 5   0  0.1760649E-01  0.4978651E+03  0.7818609E-02  0.1014338E+00
       -2   -1    0    0    0  501  0.00000000000E+00  0.00000000000E+00  0.47272842142E+02  0.47272842211E+02  0.25500000920E-02 0.  1.
        2   -1    0    0  501    0  0.00000000000E+00  0.00000000000E+00 -0.13108457030E+04  0.13108457030E+04  0.25500000920E-02 0. -1.
    10030    2    1    2    0    0  0.00000000000E+00  0.00000000000E+00 -0.12635728608E+04  0.13581185452E+04  0.49786505014E+03 0.  0.
        5    1    3    3  502    0 -0.95419585486E+02  0.14292253708E+03 -0.14066438770E+03  0.22212678557E+03  0.46999998093E+01 0.  1.
       -5    1    3    3    0  502  0.95419585486E+02 -0.14292253708E+03 -0.11229084731E+04  0.11359917596E+04  0.46999998093E+01 0. -1.
</event>
<event>
 5   0  0.7220250E-02  0.4971731E+03  0.7818609E-02  0.1014519E+00
        4   -1    0    0  501    0  0.00000000000E+00  0.00000000000E+00  0.23907097419E+03  0.23907434743E+03  0.12699999809E+01 0. -1.
       -4   -1    0    0    0  501  0.00000000000E+00  0.00000000000E+00 -0.25847409609E+03  0.25847721611E+03  0.12699999809E+01 0.  1.
    10030    2    1    2    0    0  0.00000000000E+00  0.00000000000E+00 -0.19403121896E+02  0.49755156354E+03  0.49717308580E+03 0.  0.
        1    1    3    3  502    0 -0.17745561551E+03  0.94145038544E+02 -0.15624214585E+03  0.25449045546E+03  0.50400001928E-02 0.  1.
       -1    1    3    3    0  502  0.17745561551E+03 -0.94145038544E+02  0.13683902395E+03  0.24306110808E+03  0.50400001928E-02 0. -1.
</event>
<event>
 5   0  0.1147245E-01  0.5025947E+03  0.7818609E-02  0.1013104E+00
       -1   -1    0    0    0  501  0.00000000000E+00  0.00000000000E+00  0.14990840051E+03  0.14990840059E+03  0.50400001928E-02 0.  1.
        1   -1    0    0  501    0  0.00000000000E+00  0.00000000000E+00 -0.42125971070E+03  0.42125971073E+03  0.50400001928E-02 0. -1.
    10030    2    1    2    0    0  0.00000000000E+00  0.00000000000E+00 -0.27135131019E+03  0.57116811133E+03  0.50259474515E+03 0.  0.
        1    1    3    3  502    0  0.40937747214E+02  0.15529563452E+03  0.83976912587E+02  0.18123122005E+03  0.50400001928E-02 0.  1.
       -1    1    3    3    0  502 -0.40937747214E+02 -0.15529563452E+03 -0.35532822278E+03  0.38993689128E+03  0.50400001928E-02 0. -1.
</event>
<event>
 5   0  0.1123271E-01  0.4695647E+03  0.7818609E-02  0.1022043E+00
       -1   -1    0    0    0  501  0.00000000000E+00  0.00000000000E+00  0.37138086883E+03  0.37138086886E+03  0.50400001928E-02 0.  1.
        1   -1    0    0  501    0  0.00000000000E+00  0.00000000000E+00 -0.14842646013E+03  0.14842646022E+03  0.50400001928E-02 0. -1.
    10030    2    1    2    0    0  0.00000000000E+00  0.00000000000E+00  0.22295440870E+03  0.51980732908E+03  0.46956468245E+03 0.  0.
        5    1    3    3  502    0 -0.14232005280E+03 -0.12046149669E+03  0.26933489025E+03  0.32761157293E+03  0.46999998093E+01 0.  1.
       -5    1    3    3    0  502  0.14232005280E+03  0.12046149669E+03 -0.46380481555E+02  0.19219575615E+03  0.46999998093E+01 0. -1.
</event>
<event>
 5   0  0.1827698E-01  0.5068358E+03  0.7818609E-02  0.1012010E+00
        2   -1    0    0  501    0  0.00000000000E+00  0.00000000000E+00  0.99189308279E+03  0.99189308279E+03  0.25500000920E-02 0.  1.
       -2   -1    0    0    0  501  0.00000000000E+00  0.00000000000E+00 -0.64745530007E+02  0.64745530057E+02  0.25500000920E-02 0. -1.
    10030    2    1    2    0    0  0.00000000000E+00  0.00000000000E+00  0.92714755278E+03  0.10566386129E+04  0.50683584476E+03 0.  0.
        1    1    3    3  502    0 -0.62005628868E+02  0.24456763320E+03  0.51302374507E+03  0.57170918153E+03  0.50400001928E-02 0.  1.
       -1    1    3    3    0  502  0.62005628868E+02 -0.24456763320E+03  0.41412380771E+03  0.48492943132E+03  0.50400001928E-02 0. -1.
</event>
<event>
 5   0  0.1141970E-01  0.4836540E+03  0.7818609E-02  0.1018136E+00
       -1   -1    0    0    0  501  0.00000000000E+00  0.00000000000E+00  0.25588148236E+03  0.25588148241E+03  0.50400001928E-02 0. -1.
        1   -1    0    0  501    0  0.00000000000E+00  0.00000000000E+00 -0.22854444252E+03  0.22854444257E+03  0.50400001928E-02 0.  1.
    10030    2    1    2    0    0  0.00000000000E+00  0.00000000000E+00  0.27337039848E+02  0.48442592499E+03  0.48365397037E+03 0.  0.
        3    1    3    3  502    0 -0.56208724856E+02  0.51821396255E+02 -0.21612172863E+03  0.22924547901E+03  0.10100000352E+00 0.  1.
       -3    1    3    3    0  502  0.56208724856E+02 -0.51821396255E+02  0.24345876848E+03  0.25518044598E+03  0.10100000352E+00 0. -1.
</event>
<event>
 5   0  0.1683148E-01  0.4912260E+03  0.7818609E-02  0.1016095E+00
        2   -1    0    0  501    0  0.00000000000E+00  0.00000000000E+00  0.37312927543E+03  0.37312927544E+03  0.25500000920E-02 0. -1.
       -2   -1    0    0    0  501  0.00000000000E+00  0.00000000000E+00 -0.16167517522E+03  0.16167517524E+03  0.25500000920E-02 0.  1.
    10030    2    1    2    0    0  0.00000000000E+00  0.00000000000E+00  0.21145410021E+03  0.53480445069E+03  0.49122598056E+03 0.  0.
        2    1    3    3  502    0 -0.92750446108E+00  0.24454020443E+03  0.80782218799E+02  0.25753939258E+03  0.25500000920E-02 0. -1.
       -2    1    3    3    0  502  0.92750446108E+00 -0.24454020443E+03  0.13067188141E+03  0.27726505811E+03  0.25500000920E-02 0.  1.
</event>
<event>
 5   0  0.1074281E-01  0.5002522E+03  0.7818609E-02  0.1013713E+00
       -1   -1    0    0    0  501  0.00000000000E+00  0.00000000000E+00  0.39488803788E+02  0.39488804109E+02  0.50400001928E-02 0. -1.
        1   -1    0    0  501    0  0.00000000000E+00  0.00000000000E+00 -0.15843243255E+04  0.15843243255E+04  0.50400001928E-02 0.  1.
    10030    2    1    2    0    0  0.00000000000E+00  0.00000000000E+00 -0.15448355217E+04  0.16238131296E+04  0.50025222715E+03 0.  0.
        4    1    3    3  502    0  0.44819757254E+02  0.14960810877E+03 -0.14065917946E+04  0.14152361946E+04  0.12699999809E+01 0.  1.
       -4    1    3    3    0  502 -0.44819757254E+02 -0.14960810877E+03 -0.13824372710E+03  0.20857693505E+03  0.12699999809E+01 0. -1.
</event>
<event>
 5   0  0.1141970E-01  0.4996058E+03  0.7818609E-02  0.1013882E+00
       -1   -1    0    0    0  501  0.00000000000E+00  0.00000000000E+00  0.45510559129E+03  0.45510559131E+03  0.50400001928E-02 0. -1.
        1   -1    0    0  501    0  0.00000000000E+00  0.00000000000E+00 -0.13711432237E+03  0.13711432247E+03  0.50400001928E-02 0.  1.
    10030    2    1    2    0    0  0.00000000000E+00  0.00000000000E+00  0.31799126891E+03  0.59221991378E+03  0.49960582380E+03 0.  0.
        3    1    3    3  502    0  0.20877427666E+03  0.44549057763E+02  0.52156782102E+01  0.21353812457E+03  0.10100000352E+00 0. -1.
       -3    1    3    3    0  502 -0.20877427666E+03 -0.44549057763E+02  0.31277559070E+03  0.37868178921E+03  0.10100000352E+00 0.  1.
</event>
<event>
 5   0  0.1760649E-01  0.4936351E+03  0.7818609E-02  0.1015454E+00
       -2   -1    0    0    0  501  0.00000000000E+00  0.00000000000E+00  0.36434727712E+02  0.36434727801E+02  0.25500000920E-02 0.  1.
        2   -1    0    0  501    0  0.00000000000E+00  0.00000000000E+00 -0.16720011326E+04  0.16720011326E+04  0.25500000920E-02 0. -1.
    10030    2    1    2    0    0  0.00000000000E+00  0.00000000000E+00 -0.16355664049E+04  0.17084358604E+04  0.49363511252E+03 0.  0.
        5    1    3    3  502    0  0.93291691518E+02 -0.38502216494E+02 -0.38412706614E+02  0.10808971463E+03  0.46999998093E+01 0.  1.
       -5    1    3    3    0  502 -0.93291691518E+02  0.38502216494E+02 -0.15971536982E+04  0.16003461457E+04  0.46999998093E+01 0. -1.
</event>
<event>
 5   0  0.1123271E-01  0.4988911E+03  0.7818609E-02  0.1014069E+00
        1   -1    0    0  501    0  0.00000000000E+00  0.00000000000E+00  0.73366581911E+03  0.73366581913E+03  0.50400001928E-02 0.  1.
       -1   -1    0    0    0  501  0.00000000000E+00  0.00000000000E+00 -0.84811204001E+02  0.84811204151E+02  0.50400001928E-02 0. -1.
    10030    2    1    2    0    0  0.00000000000E+00  0.00000000000E+00  0.64885461511E+03  0.81847702328E+03  0.49889109642E+03 0.  0.
        5    1    3    3  502    0  0.11865465983E+03  0.13932845201E+03  0.46446600466E+02  0.18886694399E+03  0.46999998093E+01 0. -1.
       -5    1    3    3    0  502 -0.11865465983E+03 -0.13932845201E+03  0.60240801464E+03  0.62961007929E+03  0.46999998093E+01 0.  1.
</event>
<event>
 5   0  0.7220250E-02  0.4992735E+03  0.7818609E-02  0.1013969E+00
        4   -1    0    0  501    0  0.00000000000E+00  0.00000000000E+00  0.86457341228E+02  0.86466668446E+02  0.12699999809E+01 0. -1.
       -4   -1    0    0    0  501  0.00000000000E+00  0.00000000000E+00 -0.72075195926E+03  0.72075307816E+03  0.12699999809E+01 0.  1.
    10030    2    1    2    0    0  0.00000000000E+00  0.00000000000E+00 -0.63429461803E+03  0.80721974660E+03  0.49927352909E+03 0.  0.
        1    1    3    3  502    0 -0.98466151142E+02  0.63210080234E+02  0.39380850415E+02  0.12345828676E+03  0.50400001928E-02 0. -1.
       -1    1    3    3    0  502  0.98466151142E+02 -0.63210080234E+02 -0.67367546845E+03  0.68376145985E+03  0.50400001928E-02 0.  1.
</event>
<event>
 5   0  0.1827698E-01  0.4432121E+03  0.7818609E-02  0.1029766E+00
       -2   -1    0    0    0  501  0.00000000000E+00  0.00000000000E+00  0.40873685428E+02  0.40873685507E+02  0.25500000920E-02 0. -1.
        2   -1    0    0  501    0  0.00000000000E+00  0.00000000000E+00 -0.12014880565E+04  0.12014880565E+04  0.25500000920E-02 0.  1.
    10030    2    1    2    0    0  0.00000000000E+00  0.00000000000E+00 -0.11606143711E+04  0.12423617420E+04  0.44321211589E+03 0.  0.
        1    1    3    3  502    0 -0.11009556292E+03 -0.18417699582E+03 -0.42506970022E+03  0.47615800827E+03  0.50400001928E-02 0. -1.
       -1    1    3    3    0  502  0.11009556292E+03  0.18417699582E+03 -0.73554467088E+03  0.76620373378E+03  0.50400001928E-02 0.  1.
</event>
<event>
 5   0  0.1074281E-01  0.5067444E+03  0.7818609E-02  0.1012033E+00
        1   -1    0    0  501    0  0.00000000000E+00  0.00000000000E+00  0.43485120208E+03  0.43485120211E+03  0.50400001928E-02 0.  1.
       -1   -1    0    0    0  501  0.00000000000E+00  0.00000000000E+00 -0.14763088927E+03  0.14763088935E+03  0.50400001928E-02 0. -1.
    10030    2    1    2    0    0  0.00000000000E+00  0.00000000000E+00  0.28722031282E+03  0.58248209147E+03  0.50674439196E+03 0.  0.
        4    1    3    3  502    0  0.38937689277E+02  0.64257572049E+02  0.42174768345E+03  0.42838989322E+03  0.12699999809E+01 0.  1.
       -4    1    3    3    0  502 -0.38937689277E+02 -0.64257572049E+02 -0.13452737063E+03  0.15409219825E+03  0.12699999809E+01 0. -1.
</event>
<event>
 5   0  0.1827698E-01  0.4998467E+03  0.7818609E-02  0.1013819E+00
       -2   -1    0    0    0  501  0.00000000000E+00  0.00000000000E+00  0.11739552634E+03  0.11739552637E+03  0.25500000920E-02 0. -1.
        2   -1    0    0  501    0  0.00000000000E+00  0.00000000000E+00 -0.53206183630E+03  0.53206183631E+03  0.25500000920E-02 0.  1.
    10030    2    1    2    0    0  0.00000000000E+00  0.00000000000E+00 -0.41466630996E+03  0.64945736267E+03  0.49984669381E+03 0.  0.
        1    1    3    3  502    0 -0.99114873528E+02  0.94474000118E+02  0.64321444690E+02  0.15128232919E+03  0.50400001928E-02 0. -1.
       -1    1    3    3    0  502  0.99114873528E+02 -0.94474000118E+02 -0.47898775465E+03  0.49817503348E+03  0.50400001928E-02 0.  1.
</event>
<event>
 5   0  0.1827698E-01  0.5021349E+03  0.7818609E-02  0.1013223E+00
       -2   -1    0    0    0  501  0.00000000000E+00  0.00000000000E+00  0.22525700979E+03  0.22525700981E+03  0.25500000920E-02 0. -1.
        2   -1    0    0  501    0  0.00000000000E+00  0.00000000000E+00 -0.27983533407E+03  0.27983533408E+03  0.25500000920E-02 0.  1.
    10030    2    1    2    0    0  0.00000000000E+00  0.00000000000E+00 -0.54578324275E+02  0.50509234389E+03  0.50213492447E+03 0.  0.
        1    1    3    3  502    0 -0.11433420816E+03  0.50108577331E+02  0.19182790126E+03  0.22886922992E+03  0.50400001928E-02 0. -1.
       -1    1    3    3    0  502  0.11433420816E+03 -0.50108577331E+02 -0.24640622554E+03  0.27622311396E+03  0.50400001928E-02 0.  1.
</event>
<event>
 5   0  0.1074281E-01  0.4930915E+03  0.7818609E-02  0.1015598E+00
       -1   -1    0    0    0  501  0.00000000000E+00  0.00000000000E+00  0.72684587861E+02  0.72684588036E+02  0.50400001928E-02 0.  1.
        1   -1    0    0  501    0  0.00000000000E+00  0.00000000000E+00 -0.83628190204E+03  0.83628190205E+03  0.50400001928E-02 0. -1.
    10030    2    1    2    0    0  0.00000000000E+00  0.00000000000E+00 -0.76359731417E+03  0.90896649009E+03  0.49309149444E+03 0.  0.
        4    1    3    3  502    0  0.24287249145E+02  0.14211505546E+03 -0.75046380126E+03  0.76418851690E+03  0.12699999809E+01 0. -1.
       -4    1    3    3    0  502 -0.24287249145E+02 -0.14211505546E+03 -0.13133512917E+02  0.14477797319E+03  0.12699999809E+01 0.  1.
</event>
<event>
 5   0  0.1141970E-01  0.5215809E+03  0.7818609E-02  0.1008295E+00
       -1   -1    0    0    0  501  0.00000000000E+00  0.00000000000E+00  0.54582874695E+02  0.54582874927E+02  0.50400001928E-02 0.  1.
        1   -1    0    0  501    0  0.00000000000E+00  0.00000000000E+00 -0.12460256946E+04  0.12460256946E+04  0.50400001928E-02 0. -1.
    10030    2    1    2    0    0  0.00000000000E+00  0.00000000000E+00 -0.11914428199E+04  0.13006085695E+04  0.52158092186E+03 0.  0.
        3    1    3    3  502    0 -0.70584099799E+01 -0.12048154500E+03 -0.11721992812E+04  0.11783958541E+04  0.10100000352E+00 0. -1.
       -3    1    3    3    0  502  0.70584099799E+01  0.12048154500E+03 -0.19243538687E+02  0.12221271545E+03  0.10100000352E+00 0.  1.
</event>
<event>
 5   0  0.7220250E-02  0.5109404E+03  0.7818609E-02  0.1010962E+00
       -3   -1    0    0    0  501  0.00000000000E+00  0.00000000000E+00  0.15238951964E+04  0.15238951997E+04  0.10100000352E+00 0.  1.
        3   -1    0    0  501    0  0.00000000000E+00  0.00000000000E+00 -0.42827704084E+02  0.42827823177E+02  0.10100000352E+00 0. -1.
    10030    2    1    2    0    0  0.00000000000E+00  0.00000000000E+00  0.14810674923E+04  0.15667230229E+04  0.51094042095E+03 0.  0.
        4    1    3    3  502    0 -0.37382864734E+02 -0.17399973938E+03  0.13025218787E+04  0.13146247545E+04  0.12699999809E+01 0.  1.
       -4    1    3    3    0  502  0.37382864734E+02  0.17399973938E+03  0.17854561365E+03  0.25209826841E+03  0.12699999809E+01 0. -1.
</event>
<event>
 5   0  0.1709372E-01  0.5029490E+03  0.7818609E-02  0.1013012E+00
        2   -1    0    0  501    0  0.00000000000E+00  0.00000000000E+00  0.18063092770E+03  0.18063092772E+03  0.25500000920E-02 0. -1.
       -2   -1    0    0    0  501  0.00000000000E+00  0.00000000000E+00 -0.35010295323E+03  0.35010295324E+03  0.25500000920E-02 0.  1.
    10030    2    1    2    0    0  0.00000000000E+00  0.00000000000E+00 -0.16947202553E+03  0.53073388096E+03  0.50294898843E+03 0.  0.
        4    1    3    3  502    0 -0.22555254621E+03  0.34794098351E+02  0.26707081847E+02  0.22978133411E+03  0.12699999809E+01 0.  1.
       -4    1    3    3    0  502  0.22555254621E+03 -0.34794098351E+02 -0.19617910738E+03  0.30095254685E+03  0.12699999809E+01 0. -1.
</event>
<event>
 5   0  0.1074281E-01  0.4600422E+03  0.7818609E-02  0.1024769E+00
       -1   -1    0    0    0  501  0.00000000000E+00  0.00000000000E+00  0.59374982384E+02  0.59374982598E+02  0.50400001928E-02 0. -1.
        1   -1    0    0  501    0  0.00000000000E+00  0.00000000000E+00 -0.89111102495E+03  0.89111102496E+03  0.50400001928E-02 0.  1.
    10030    2    1    2    0    0  0.00000000000E+00  0.00000000000E+00 -0.83173604256E+03  0.95048600756E+03  0.46004217857E+03 0.  0.
        4    1    3    3  502    0 -0.78760685610E+02 -0.21514034894E+03 -0.37355244833E+03  0.43821417126E+03  0.12699999809E+01 0. -1.
       -4    1    3    3    0  502  0.78760685610E+02  0.21514034894E+03 -0.45818359423E+03  0.51227183630E+03  0.12699999809E+01 0.  1.
</event>
<event>
 5   0  0.1147245E-01  0.5065954E+03  0.7818609E-02  0.1012072E+00
        1   -1    0    0  501    0  0.00000000000E+00  0.00000000000E+00  0.11894682435E+04  0.11894682435E+04  0.50400001928E-02 0. -1.
       -1   -1    0    0    0  501  0.00000000000E+00  0.00000000000E+00 -0.53939833296E+02  0.53939833531E+02  0.50400001928E-02 0.  1.
    10030    2    1    2    0    0  0.00000000000E+00  0.00000000000E+00  0.11355284102E+04  0.12434080771E+04  0.50659537669E+03 0.  0.
        1    1    3    3  502    0  0.26672128340E+02 -0.25183191654E+03  0.55454612118E+03  0.60963277238E+03  0.50400001928E-02 0.  1.
       -1    1    3    3    0  502 -0.26672128340E+02  0.25183191654E+03  0.58098228906E+03  0.63377530470E+03  0.50400001928E-02 0. -1.
</event>
<event>
 5   0  0.1123271E-01  0.5088972E+03  0.7818609E-02  0.1011482E+00
       -1   -1    0    0    0  501  0.00000000000E+00  0.00000000000E+00  0.11158087566E+03  0.11158087578E+03  0.50400001928E-02 0.  1.
        1   -1    0    0  501    0  0.00000000000E+00  0.00000000000E+00 -0.58024365510E+03  0.58024365512E+03  0.50400001928E-02 0. -1.
    10030    2    1    2    0    0  0.00000000000E+00  0.00000000000E+00 -0.46866277944E+03  0.69182453090E+03  0.50889722020E+03 0.  0.
        5    1    3    3  502    0 -0.16289596969E+03  0.19349772327E+03 -0.19721197168E+03  0.32076645340E+03  0.46999998093E+01 0.  1.
       -5    1    3    3    0  502  0.16289596969E+03 -0.19349772327E+03 -0.27145080775E+03  0.37105807750E+03  0.46999998093E+01 0. -1.
</event>
<event>
 5   0  0.1709372E-01  0.4977502E+03  0.7818609E-02  0.1014368E+00
        2   -1    0    0  501    0  0.00000000000E+00  0.00000000000E+00  0.72457849043E+03  0.72457849044E+03  0.25500000920E-02 0.  1.
       -2   -1    0    0    0  501  0.00000000000E+00  0.00000000000E+00 -0.85482559218E+02  0.85482559256E+02  0.25500000920E-02 0. -1.
    10030    2    1    2    0    0  0.00000000000E+00  0.00000000000E+00  0.63909593121E+03  0.81006104969E+03  0.49775023349E+03 0.  0.
        4    1    3    3  502    0 -0.13373237465E+03 -0.16164083949E+03  0.10165806863E+03  0.23312675702E+03  0.12699999809E+01 0. -1.
       -4    1    3    3    0  502  0.13373237465E+03  0.16164083949E+03  0.53743786258E+03  0.57693429267E+03  0.12699999809E+01 0.  1.
</event>
<event>
 5   0  0.1683148E-01  0.5592619E+03  0.7818609E-02  0.9993726E-01
        2   -1    0    0  501    0  0.00000000000E+00  0.00000000000E+00  0.26641877640E+03  0.26641877641E+03  0.25500000920E-02 0.  1.
       -2   -1    0    0    0  501  0.00000000000E+00  0.00000000000E+00 -0.29349838491E+03  0.29349838492E+03  0.25500000920E-02 0. -1.
    10030    2    1    2    0    0  0.00000000000E+00  0.00000000000E+00 -0.27079608509E+02  0.55991716133E+03  0.55926194431E+03 0.  0.
        2    1    3    3  502    0 -0.21874478194E+02  0.14563666185E+03 -0.25152599626E+03  0.29146844919E+03  0.25500000920E-02 0. -1.
       -2    1    3    3    0  502  0.21874478194E+02 -0.14563666185E+03  0.22444638775E+03  0.26844871214E+03  0.25500000920E-02 0.  1.
</event>
<event>
 5   0  0.1123271E-01  0.5066814E+03  0.7818609E-02  0.1012050E+00
       -1   -1    0    0    0  501  0.00000000000E+00  0.00000000000E+00  0.32942836803E+03  0.32942836807E+03  0.50400001928E-02 0.  1.
        1   -1    0    0  501    0  0.00000000000E+00  0.00000000000E+00 -0.19482694468E+03  0.19482694474E+03  0.50400001928E-02 0. -1.
    10030    2    1    2    0    0  0.00000000000E+00  0.00000000000E+00  0.13460142336E+03  0.52425531282E+03  0.50668144810E+03 0.  0.
        5    1    3    3  502    0  0.14950326069E+03 -0.29655188479E+02  0.27662625283E+03  0.31587153863E+03  0.46999998093E+01 0.  1.
       -5    1    3    3    0  502 -0.14950326069E+03  0.29655188479E+02 -0.14202482947E+03  0.20838377419E+03  0.46999998093E+01 0. -1.
</event>
<event>
 5   0  0.1147245E-01  0.5172775E+03  0.7818609E-02  0.1009365E+00
       -1   -1    0    0    0  501  0.00000000000E+00  0.00000000000E+00  0.10915980135E+03  0.10915980147E+03  0.50400001928E-02 0. -1.
        1   -1    0    0  501    0  0.00000000000E+00  0.00000000000E+00 -0.61280804244E+03  0.61280804246E+03  0.50400001928E-02 0.  1.
    10030    2    1    2    0    0  0.00000000000E+00  0.00000000000E+00 -0.50364824109E+03  0.72196784393E+03  0.51727750475E+03 0.  0.
        1    1    3    3  502    0 -0.28102375681E+02 -0.14787263638E+02 -0.61007684919E+03  0.61090274891E+03  0.50400001928E-02 0.  1.
       -1    1    3    3    0  502  0.28102375681E+02  0.14787263638E+02  0.10642860810E+03  0.11106509502E+03  0.50400001928E-02 0. -1.
</event>
<event>
 5   0  0.1782124E-01  0.5023780E+03  0.7818609E-02  0.1013160E+00
        2   -1    0    0  501    0  0.00000000000E+00  0.00000000000E+00  0.18303298114E+04  0.18303298114E+04  0.25500000920E-02 0.  1.
       -2   -1    0    0    0  501  0.00000000000E+00  0.00000000000E+00 -0.34472430466E+02  0.34472430561E+02  0.25500000920E-02 0. -1.
    10030    2    1    2    0    0  0.00000000000E+00  0.00000000000E+00  0.17958573809E+04  0.18648022419E+04  0.50237801402E+03 0.  0.
        3    1    3    3  502    0 -0.13248270286E+01  0.22938263566E+03  0.51797003116E+03  0.56649016945E+03  0.10100000352E+00 0. -1.
       -3    1    3    3    0  502  0.13248270286E+01 -0.22938263566E+03  0.12778873497E+04  0.12983120725E+04  0.10100000352E+00 0.  1.
</event>
<event>
 5   0  0.1709372E-01  0.5103945E+03  0.7818609E-02  0.1011101E+00
        2   -1    0    0  501    0  0.00000000000E+00  0.00000000000E+00  0.23083687101E+04  0.23083687101E+04  0.25500000920E-02 0.  1.
       -2   -1    0    0    0  501  0.00000000000E+00  0.00000000000E+00 -0.28212841002E+02  0.28212841117E+02  0.25500000920E-02 0. -1.
    10030    2    1    2    0    0  0.00000000000E+00  0.00000000000E+00  0.22801558691E+04  0.23365815513E+04  0.51039451223E+03 0.  0.
        4    1    3    3  502    0  0.17447682005E+03  0.17921003927E+03  0.90819340953E+03  0.94200598773E+03  0.12699999809E+01 0. -1.
       -4    1    3    3    0  502 -0.17447682005E+03 -0.17921003927E+03  0.13719624596E+04  0.13945755635E+04  0.12699999809E+01 0.  1.
</event>
<event>
 5   0  0.1709372E-01  0.4989011E+03  0.7818609E-02  0.1014066E+00
        2   -1    0    0  501    0  0.00000000000E+00  0.00000000000E+00  0.76944278688E+03  0.76944278688E+03  0.25500000920E-02 0. -1.
       -2   -1    0    0    0  501  0.00000000000E+00  0.00000000000E+00 -0.80870953597E+02  0.80870953637E+02  0.25500000920E-02 0.  1.
    10030    2    1    2    0    0  0.00000000000E+00  0.00000000000E+00  0.68857183328E+03  0.85031374052E+03  0.49890108010E+03 0.  0.
        4    1    3    3  502    0  0.24892829769E+03 -0.15027460006E+02  0.35405259907E+03  0.43306578917E+03  0.12699999809E+01 0.  1.
       -4    1    3    3    0  502 -0.24892829769E+03  0.15027460006E+02  0.33451923421E+03  0.41724795135E+03  0.12699999809E+01 0. -1.
</event>
<event>
 5   0  0.1147245E-01  0.5001251E+03  0.7818609E-02  0.1013746E+00
        1   -1    0    0  501    0  0.00000000000E+00  0.00000000000E+00  0.27415381646E+03  0.27415381650E+03  0.50400001928E-02 0.  1.
       -1   -1    0    0    0  501  0.00000000000E+00  0.00000000000E+00 -0.22808831192E+03  0.22808831198E+03  0.50400001928E-02 0. -1.
    10030    2    1    2    0    0  0.00000000000E+00  0.00000000000E+00  0.46065504535E+02  0.50224212848E+03  0.50012510926E+03 0.  0.
        1    1    3    3  502    0 -0.11666889730E+02  0.21865050952E+03  0.14432114783E+03  0.26224560123E+03  0.50400001928E-02 0.  1.
       -1    1    3    3    0  502  0.11666889730E+02 -0.21865050952E+03 -0.98255643297E+02  0.23999652725E+03  0.50400001928E-02 0. -1.
</event>
<event>
 5   0  0.1141970E-01  0.4883467E+03  0.7818609E-02  0.1016866E+00
       -1   -1    0    0    0  501  0.00000000000E+00  0.00000000000E+00  0.88016469417E+02  0.88016469561E+02  0.50400001928E-02 0.  1.
        1   -1    0    0  501    0  0.00000000000E+00  0.00000000000E+00 -0.67738039316E+03  0.67738039318E+03  0.50400001928E-02 0. -1.
    10030    2    1    2    0    0  0.00000000000E+00  0.00000000000E+00 -0.58936392374E+03  0.76539686274E+03  0.48834672404E+03 0.  0.
        3    1    3    3  502    0  0.71504088260E+02  0.22912472600E+03 -0.36494358220E+03  0.43680064456E+03  0.10100000352E+00 0. -1.
       -3    1    3    3    0  502 -0.71504088260E+02 -0.22912472600E+03 -0.22442034154E+03  0.32859621818E+03  0.10100000352E+00 0.  1.
</event>
<event>
 5   0  0.1147245E-01  0.4989036E+03  0.7818609E-02  0.1014065E+00
       -1   -1    0    0    0  501  0.00000000000E+00  0.00000000000E+00  0.53013593069E+03  0.53013593072E+03  0.50400001928E-02 0. -1.
        1   -1    0    0  501    0  0.00000000000E+00  0.00000000000E+00 -0.11737783871E+03  0.11737783882E+03  0.50400001928E-02 0.  1.
    10030    2    1    2    0    0  0.00000000000E+00  0.00000000000E+00  0.41275809198E+03  0.64751376953E+03  0.49890363723E+03 0.  0.
        1    1    3    3  502    0 -0.10687522524E+03  0.12342235636E+03  0.45116092494E+03  0.47979325968E+03  0.50400001928E-02 0. -1.
       -1    1    3    3    0  502  0.10687522524E+03 -0.12342235636E+03 -0.38402832956E+02  0.16772050985E+03  0.50400001928E-02 0.  1.
</event>
<event>
 5   0  0.7220250E-02  0.4883093E+03  0.7818609E-02  0.1016876E+00
       -4   -1    0    0    0  501  0.00000000000E+00  0.00000000000E+00  0.87679714287E+02  0.87688911485E+02  0.12699999809E+01 0.  1.
        4   -1    0    0  501    0  0.00000000000E+00  0.00000000000E+00 -0.67983228917E+03  0.67983347542E+03  0.12699999809E+01 0. -1.
    10030    2    1    2    0    0  0.00000000000E+00  0.00000000000E+00 -0.59215257488E+03  0.76752238690E+03  0.48830926927E+03 0.  0.
        4    1    3    3  502    0 -0.10268195050E+02 -0.90903725612E+02 -0.65187524226E+03  0.65826428396E+03  0.12699999809E+01 0. -1.
       -4    1    3    3    0  502  0.10268195050E+02  0.90903725612E+02  0.59722667380E+02  0.10925810294E+03  0.12699999809E+01 0.  1.
</event>
<event>
 5   0  0.1782124E-01  0.5091995E+03  0.7818609E-02  0.1011405E+00
       -2   -1    0    0    0  501  0.00000000000E+00  0.00000000000E+00  0.12073695438E+03  0.12073695441E+03  0.25500000920E-02 0. -1.
        2   -1    0    0  501    0  0.00000000000E+00  0.00000000000E+00 -0.53687824506E+03  0.53687824506E+03  0.25500000920E-02 0.  1.
    10030    2    1    2    0    0  0.00000000000E+00  0.00000000000E+00 -0.41614129068E+03  0.65761519947E+03  0.50919954514E+03 0.  0.
        3    1    3    3  502    0  0.23051640997E+03 -0.10131933886E+03 -0.15944534852E+03  0.29803733500E+03  0.10100000352E+00 0. -1.
       -3    1    3    3    0  502 -0.23051640997E+03  0.10131933886E+03 -0.25669594216E+03  0.35957786447E+03  0.10100000352E+00 0.  1.
</event>
<event>
 5   0  0.1782124E-01  0.4934032E+03  0.7818609E-02  0.1015515E+00
        2   -1    0    0  501    0  0.00000000000E+00  0.00000000000E+00  0.12180882686E+04  0.12180882686E+04  0.25500000920E-02 0.  1.
       -2   -1    0    0    0  501  0.00000000000E+00  0.00000000000E+00 -0.49964918208E+02  0.49964918273E+02  0.25500000920E-02 0. -1.
    10030    2    1    2    0    0  0.00000000000E+00  0.00000000000E+00  0.11681233504E+04  0.12680531869E+04  0.49340320532E+03 0.  0.
        3    1    3    3  502    0 -0.53415997417E+02 -0.11103751322E+03  0.34781225554E+02  0.12803258169E+03  0.10100000352E+00 0. -1.
       -3    1    3    3    0  502  0.53415997417E+02  0.11103751322E+03  0.11333421249E+04  0.11400206052E+04  0.10100000352E+00 0.  1.
</event>
<event>
 5   0  0.7220250E-02  0.4949092E+03  0.7818609E-02  0.1015116E+00
       -3   -1    0    0    0  501  0.00000000000E+00  0.00000000000E+00  0.27250189126E+03  0.27250190998E+03  0.10100000352E+00 0. -1.
        3   -1    0    0  501    0  0.00000000000E+00  0.00000000000E+00 -0.22470954917E+03  0.22470957187E+03  0.10100000352E+00 0.  1.
    10030    2    1    2    0    0  0.00000000000E+00  0.00000000000E+00  0.47792342087E+02  0.49721148185E+03  0.49490923382E+03 0.  0.
        4    1    3    3  502    0  0.16319710302E+03  0.18499382194E+03  0.44109504461E+01  0.24673280685E+03  0.12699999809E+01 0. -1.
       -4    1    3    3    0  502 -0.16319710302E+03 -0.18499382194E+03  0.43381391641E+02  0.25047867500E+03  0.12699999809E+01 0.  1.
</event>
<event>
 5   0  0.1141970E-01  0.4895139E+03  0.7818609E-02  0.1016553E+00
       -1   -1    0    0    0  501  0.00000000000E+00  0.00000000000E+00  0.15794874259E+03  0.15794874267E+03  0.50400001928E-02 0.  1.
        1   -1    0    0  501    0  0.00000000000E+00  0.00000000000E+00 -0.37927464726E+03  0.37927464729E+03  0.50400001928E-02 0. -1.
    10030    2    1    2    0    0  0.00000000000E+00  0.00000000000E+00 -0.22132590467E+03  0.53722338996E+03  0.48951385541E+03 0.  0.
        3    1    3    3  502    0 -0.18379688099E+02 -0.13453356575E+03 -0.33414926044E+03  0.36068383899E+03  0.10100000352E+00 0. -1.
       -3    1    3    3    0  502  0.18379688099E+02  0.13453356575E+03  0.11282335577E+03  0.17653955097E+03  0.10100000352E+00 0.  1.
</event>
<event>
 5   0  0.1683148E-01  0.5009833E+03  0.7818609E-02  0.1013523E+00
        2   -1    0    0  501    0  0.00000000000E+00  0.00000000000E+00  0.14779352712E+04  0.14779352712E+04  0.25500000920E-02 0.  1.
       -2   -1    0    0    0  501  0.00000000000E+00  0.00000000000E+00 -0.42455219266E+02  0.42455219342E+02  0.25500000920E-02 0. -1.
    10030    2    1    2    0    0  0.00000000000E+00  0.00000000000E+00  0.14354800519E+04  0.15203904906E+04  0.50098329736E+03 0.  0.
        2    1    3    3  502    0 -0.66568473373E+02 -0.14311677508E+03  0.12745300999E+03  0.20287445063E+03  0.25500000920E-02 0. -1.
       -2    1    3    3    0  502  0.66568473373E+02  0.14311677508E+03  0.13080270420E+04  0.13175160399E+04  0.25500000920E-02 0.  1.
</event>
<event>
 5   0  0.1827698E-01  0.4134473E+03  0.7818609E-02  0.1039220E+00
        2   -1    0    0  501    0  0.00000000000E+00  0.00000000000E+00  0.27688944873E+03  0.27688944874E+03  0.25500000920E-02 0.  1.
       -2   -1    0    0    0  501  0.00000000000E+00  0.00000000000E+00 -0.15433837976E+03  0.15433837978E+03  0.25500000920E-02 0. -1.
    10030    2    1    2    0    0  0.00000000000E+00  0.00000000000E+00  0.12255106897E+03  0.43122782851E+03  0.41344730689E+03 0.  0.
        1    1    3    3  502    0  0.12619351571E+03 -0.60856665099E+02  0.21982037541E+03  0.26067093157E+03  0.50400001928E-02 0.  1.
       -1    1    3    3    0  502 -0.12619351571E+03  0.60856665099E+02 -0.97269306439E+02  0.17055689694E+03  0.50400001928E-02 0. -1.
</event>
<event>
 5   0  0.1709372E-01  0.4982510E+03  0.7818609E-02  0.1014236E+00
       -2   -1    0    0    0  501  0.00000000000E+00  0.00000000000E+00  0.35834503689E+03  0.35834503690E+03  0.25500000920E-02 0.  1.
        2   -1    0    0  501    0  0.00000000000E+00  0.00000000000E+00 -0.17319488412E+03  0.17319488413E+03  0.25500000920E-02 0. -1.
    10030    2    1    2    0    0  0.00000000000E+00  0.00000000000E+00  0.18515015278E+03  0.53153992104E+03  0.49825104975E+03 0.  0.
        4    1    3    3  502    0  0.13012658831E+03 -0.20322821823E+03  0.26576800733E+02  0.24278092369E+03  0.12699999809E+01 0. -1.
       -4    1    3    3    0  502 -0.13012658831E+03  0.20322821823E+03  0.15857335205E+03  0.28875899735E+03  0.12699999809E+01 0.  1.
</event>
<event>
 5   0  0.7220250E-02  0.4951916E+03  0.7818609E-02  0.1015042E+00
        3   -1    0    0  501    0  0.00000000000E+00  0.00000000000E+00  0.10538786287E+03  0.10538791127E+03  0.10100000352E+00 0. -1.
       -3   -1    0    0    0  501  0.00000000000E+00  0.00000000000E+00 -0.58169561204E+03  0.58169562081E+03  0.10100000352E+00 0.  1.
    10030    2    1    2    0    0  0.00000000000E+00  0.00000000000E+00 -0.47630774916E+03  0.68708353208E+03  0.49519158731E+03 0.  0.
        4    1    3    3  502    0 -0.74089735658E+02 -0.59572739456E+02 -0.55535669398E+03  0.56343666074E+03  0.12699999809E+01 0.  1.
       -4    1    3    3    0  502  0.74089735658E+02  0.59572739456E+02  0.79048944815E+02  0.12364687134E+03  0.12699999809E+01 0. -1.
</event>
<event>
 5   0  0.1123271E-01  0.4244350E+03  0.7818609E-02  0.1035632E+00
        1   -1    0    0  501    0  0.00000000000E+00  0.00000000000E+00  0.65983060212E+03  0.65983060214E+03  0.50400001928E-02 0.  1.
       -1   -1    0    0    0  501  0.00000000000E+00  0.00000000000E+00 -0.68254299510E+02  0.68254299696E+02  0.50400001928E-02 0. -1.
    10030    2    1    2    0    0  0.00000000000E+00  0.00000000000E+00  0.59157630261E+03  0.72808490184E+03  0.42443503917E+03 0.  0.
        5    1    3    3  502    0  0.98260370431E+02  0.79732813520E+02  0.58792275321E+03  0.60140475197E+03  0.46999998093E+01 0.  1.
       -5    1    3    3    0  502 -0.98260370431E+02 -0.79732813520E+02  0.36535493990E+01  0.12668014987E+03  0.46999998093E+01 0. -1.
</event>
<event>
 5   0  0.1827698E-01  0.4937672E+03  0.7818609E-02  0.1015419E+00
       -2   -1    0    0    0  501  0.00000000000E+00  0.00000000000E+00  0.62294013552E+02  0.62294013604E+02  0.25500000920E-02 0.  1.
        2   -1    0    0  501    0  0.00000000000E+00  0.00000000000E+00 -0.97844875969E+03  0.97844875969E+03  0.25500000920E-02 0. -1.
    10030    2    1    2    0    0  0.00000000000E+00  0.00000000000E+00 -0.91615474614E+03  0.10407427733E+04  0.49376715292E+03 0.  0.
        1    1    3    3  502    0  0.13394292620E+03  0.11373122113E+03 -0.82361430454E+03  0.84214964276E+03  0.50400001928E-02 0.  1.
       -1    1    3    3    0  502 -0.13394292620E+03 -0.11373122113E+03 -0.92540441598E+02  0.19859313053E+03  0.50400001928E-02 0. -1.
</event>
<event>
 5   0  0.1782124E-01  0.4736180E+03  0.7818609E-02  0.1020904E+00
        2   -1    0    0  501    0  0.00000000000E+00  0.00000000000E+00  0.96893297048E+03  0.96893297049E+03  0.25500000920E-02 0. -1.
       -2   -1    0    0    0  501  0.00000000000E+00  0.00000000000E+00 -0.57876543375E+02  0.57876543431E+02  0.25500000920E-02 0.  1.
    10030    2    1    2    0    0  0.00000000000E+00  0.00000000000E+00  0.91105642711E+03  0.10268095139E+04  0.47361795204E+03 0.  0.
        3    1    3    3  502    0  0.49509172797E+02  0.23101555617E+03  0.42062823026E+03  0.48243907768E+03  0.10100000352E+00 0. -1.
       -3    1    3    3    0  502 -0.49509172797E+02 -0.23101555617E+03  0.49042819685E+03  0.54437043623E+03  0.10100000352E+00 0.  1.
</event>
<event>
 5   0  0.1074281E-01  0.4927561E+03  0.7818609E-02  0.1015687E+00
        1   -1    0    0  501    0  0.00000000000E+00  0.00000000000E+00  0.24695892002E+03  0.24695892007E+03  0.50400001928E-02 0.  1.
       -1   -1    0    0    0  501  0.00000000000E+00  0.00000000000E+00 -0.24579859592E+03  0.24579859597E+03  0.50400001928E-02 0. -1.
    10030    2    1    2    0    0  0.00000000000E+00  0.00000000000E+00  0.11603241032E+01  0.49275751605E+03  0.49275614990E+03 0.  0.
        4    1    3    3  502    0 -0.57282379962E+02  0.82382728999E+02  0.22559713603E+03  0.24690861827E+03  0.12699999809E+01 0.  1.
       -4    1    3    3    0  502  0.57282379962E+02 -0.82382728999E+02 -0.22443681192E+03  0.24584889778E+03  0.12699999809E+01 0. -1.
</event>
<event>
 5   0  0.7220250E-02  0.5080054E+03  0.7818609E-02  0.1011710E+00
        3   -1    0    0  501    0  0.00000000000E+00  0.00000000000E+00  0.97899226112E+03  0.97899226633E+03  0.10100000352E+00 0.  1.
       -3   -1    0    0    0  501  0.00000000000E+00  0.00000000000E+00 -0.65901771515E+02  0.65901848910E+02  0.10100000352E+00 0. -1.
    10030    2    1    2    0    0  0.00000000000E+00  0.00000000000E+00  0.91309048961E+03  0.10448941152E+04  0.50800538369E+03 0.  0.
        3    1    3    3  502    0  0.26070292754E+02  0.23955339594E+03  0.29133130362E+03  0.37807331080E+03  0.10100000352E+00 0. -1.
       -3    1    3    3    0  502 -0.26070292754E+02 -0.23955339594E+03  0.62175918599E+03  0.66682080444E+03  0.10100000352E+00 0.  1.
</event>
<event>
 5   0  0.1760649E-01  0.4957737E+03  0.7818609E-02  0.1014888E+00
       -2   -1    0    0    0  501  0.00000000000E+00  0.00000000000E+00  0.14702464031E+03  0.14702464033E+03  0.25500000920E-02 0. -1.
        2   -1    0    0  501    0  0.00000000000E+00  0.00000000000E+00 -0.41794286946E+03  0.41794286947E+03  0.25500000920E-02 0.  1.
    10030    2    1    2    0    0  0.00000000000E+00  0.00000000000E+00 -0.27091822915E+03  0.56496750980E+03  0.49577373896E+03 0.  0.
        5    1    3    3  502    0  0.95631785490E+02  0.22405814204E+03 -0.83507837112E+02  0.25757161774E+03  0.46999998093E+01 0. -1.
       -5    1    3    3    0  502 -0.95631785490E+02 -0.22405814204E+03 -0.18741039204E+03  0.30739589205E+03  0.46999998093E+01 0.  1.
</event>
<event>
 5   0  0.1683148E-01  0.4980243E+03  0.7818609E-02  0.1014296E+00
       -2   -1    0    0    0  501  0.00000000000E+00  0.00000000000E+00  0.29366675293E+02  0.29366675404E+02  0.25500000920E-02 0. -1.
        2   -1    0    0  501    0  0.00000000000E+00  0.00000000000E+00 -0.21114764373E+04  0.21114764373E+04  0.25500000920E-02 0.  1.
    10030    2    1    2    0    0  0.00000000000E+00  0.00000000000E+00 -0.20821097620E+04  0.21408431127E+04  0.49802426866E+03 0.  0.
        2    1    3    3  502    0  0.29728111025E+02 -0.22355551356E+03 -0.58721982455E+03  0.62903732050E+03  0.25500000920E-02 0. -1.
       -2    1    3    3    0  502 -0.29728111025E+02  0.22355551356E+03 -0.14948899375E+04  0.15118057922E+04  0.25500000920E-02 0.  1.
</event>
<event>
 5   0  0.1683148E-01  0.4933102E+03  0.7818609E-02  0.1015540E+00
        2   -1    0    0  501    0  0.00000000000E+00  0.00000000000E+00  0.68658313498E+03  0.68658313499E+03  0.25500000920E-02 0.  1.
       -2   -1    0    0    0  501  0.00000000000E+00  0.00000000000E+00 -0.88610892671E+02  0.88610892708E+02  0.25500000920E-02 0. -1.
    10030    2    1    2    0    0  0.00000000000E+00  0.00000000000E+00  0.59797224231E+03  0.77519402770E+03  0.49331022491E+03 0.  0.
        2    1    3    3  502    0 -0.13391522956E+03 -0.20674403244E+03  0.31900920383E+03  0.40304249874E+03  0.25500000920E-02 0.  1.
       -2    1    3    3    0  502  0.13391522956E+03  0.20674403244E+03  0.27896303848E+03  0.37215152895E+03  0.25500000920E-02 0. -1.
</event>
<event>
 5   0  0.1141970E-01  0.5039295E+03  0.7818609E-02  0.1012758E+00
        1   -1    0    0  501    0  0.00000000000E+00  0.00000000000E+00  0.42165597909E+03  0.42165597912E+03  0.50400001928E-02 0.  1.
       -1   -1    0    0    0  501  0.00000000000E+00  0.00000000000E+00 -0.15056406528E+03  0.15056406537E+03  0.50400001928E-02 0. -1.
    10030    2    1    2    0    0  0.00000000000E+00  0.00000000000E+00  0.27109191381E+03  0.57222004449E+03  0.50392951252E+03 0.  0.
        3    1    3    3  502    0  0.19183879957E+03 -0.14980855205E+03  0.20949849016E+03  0.32114537965E+03  0.10100000352E+00 0. -1.
       -3    1    3    3    0  502 -0.19183879957E+03  0.14980855205E+03  0.61593423646E+02  0.25107466484E+03  0.10100000352E+00 0.  1.
</event>
<event>
 5   0  0.1068522E-01  0.5082186E+03  0.7818609E-02  0.1011656E+00
        1   -1    0    0  501    0  0.00000000000E+00  0.00000000000E+00  0.11125718476E+03  0.11125718487E+03  0.50400001928E-02 0. -1.
       -1   -1    0    0    0  501  0.00000000000E+00  0.00000000000E+00 -0.58038093252E+03  0.58038093254E+03  0.50400001928E-02 0.  1.
    10030    2    1    2    0    0  0.00000000000E+00  0.00000000000E+00 -0.46912374776E+03  0.69163811741E+03  0.50821864856E+03 0.  0.
        2    1    3    3  502    0 -0.20194562383E+03 -0.14008685654E+03 -0.14673133656E+03  0.28624543227E+03  0.25500000920E-02 0.  1.
       -2    1    3    3    0  502  0.20194562383E+03  0.14008685654E+03 -0.32239241120E+03  0.40539268514E+03  0.25500000920E-02 0. -1.
</event>
<event>
 5   0  0.1827698E-01  0.4960964E+03  0.7818609E-02  0.1014803E+00
       -2   -1    0    0    0  501  0.00000000000E+00  0.00000000000E+00  0.23309144086E+03  0.23309144087E+03  0.25500000920E-02 0.  1.
        2   -1    0    0  501    0  0.00000000000E+00  0.00000000000E+00 -0.26396464406E+03  0.26396464407E+03  0.25500000920E-02 0. -1.
    10030    2    1    2    0    0  0.00000000000E+00  0.00000000000E+00 -0.30873203200E+02  0.49705608494E+03  0.49609635848E+03 0.  0.
        1    1    3    3  502    0  0.92606570213E+02  0.49752547666E+02 -0.24054123274E+03  0.26250976652E+03  0.50400001928E-02 0. -1.
       -1    1    3    3    0  502 -0.92606570213E+02 -0.49752547666E+02  0.20966802954E+03  0.23454631842E+03  0.50400001928E-02 0.  1.
</event>
<event>
 5   0  0.7220250E-02  0.5081806E+03  0.7818609E-02  0.1011665E+00
        4   -1    0    0  501    0  0.00000000000E+00  0.00000000000E+00  0.27097182898E+03  0.27097480511E+03  0.12699999809E+01 0. -1.
       -4   -1    0    0    0  501  0.00000000000E+00  0.00000000000E+00 -0.23825449409E+03  0.23825787889E+03  0.12699999809E+01 0.  1.
    10030    2    1    2    0    0  0.00000000000E+00  0.00000000000E+00  0.32717334898E+02  0.50923268400E+03  0.50818058055E+03 0.  0.
        2    1    3    3  502    0 -0.50023872873E+02  0.24755059426E+03 -0.11595162266E+02  0.25282035592E+03  0.25500000920E-02 0. -1.
       -2    1    3    3    0  502  0.50023872873E+02 -0.24755059426E+03  0.44312497164E+02  0.25641232807E+03  0.25500000920E-02 0.  1.
</event>
<event>
 5   0  0.1123271E-01  0.4084129E+03  0.7818609E-02  0.1040905E+00
        1   -1    0    0  501    0  0.00000000000E+00  0.00000000000E+00  0.54846352754E+03  0.54846352757E+03  0.50400001928E-02 0. -1.
       -1   -1    0    0    0  501  0.00000000000E+00  0.00000000000E+00 -0.76031066536E+02  0.76031066703E+02  0.50400001928E-02 0.  1.
    10030    2    1    2    0    0  0.00000000000E+00  0.00000000000E+00  0.47243246101E+03  0.62449459427E+03  0.40841286471E+03 0.  0.
        5    1    3    3  502    0 -0.11432783807E+03 -0.12720537747E+03  0.65766254809E+02  0.18330126264E+03  0.46999998093E+01 0.  1.
       -5    1    3    3    0  502  0.11432783807E+03  0.12720537747E+03  0.40666620620E+03  0.44119333163E+03  0.46999998093E+01 0. -1.
</event>
<event>
 5   0  0.1760649E-01  0.4958090E+03  0.7818609E-02  0.1014879E+00
       -2   -1    0    0    0  501  0.00000000000E+00  0.00000000000E+00  0.11489724234E+03  0.11489724237E+03  0.25500000920E-02 0. -1.
        2   -1    0    0  501    0  0.00000000000E+00  0.00000000000E+00 -0.53488347628E+03  0.53488347629E+03  0.25500000920E-02 0.  1.
    10030    2    1    2    0    0  0.00000000000E+00  0.00000000000E+00 -0.41998623394E+03  0.64978071866E+03  0.49580898100E+03 0.  0.
        5    1    3    3  502    0 -0.16695031128E+03  0.10329747954E+03 -0.40827915006E+03  0.45305267915E+03  0.46999998093E+01 0.  1.
       -5    1    3    3    0  502  0.16695031128E+03 -0.10329747954E+03 -0.11707083880E+02  0.19672803950E+03  0.46999998093E+01 0. -1.
</event>
<event>
 5   0  0.7220250E-02  0.5002000E+03  0.7818609E-02  0.1013727E+00
        4   -1    0    0  501    0  0.00000000000E+00  0.00000000000E+00  0.11905827956E+03  0.11906505294E+03  0.12699999809E+01 0.  1.
       -4   -1    0    0    0  501  0.00000000000E+00  0.00000000000E+00 -0.52535046067E+03  0.52535199574E+03  0.12699999809E+01 0. -1.
    10030    2    1    2    0    0  0.00000000000E+00  0.00000000000E+00 -0.40629218111E+03  0.64441704868E+03  0.50019995621E+03 0.  0.
        4    1    3    3  502    0  0.18387281950E+03 -0.66476474350E+02 -0.22342137112E+01  0.19553756673E+03  0.12699999809E+01 0.  1.
       -4    1    3    3    0  502 -0.18387281950E+03  0.66476474350E+02 -0.40405796740E+03  0.44887948195E+03  0.12699999809E+01 0. -1.
</event>
<event>
 5   0  0.1147245E-01  0.4976008E+03  0.7818609E-02  0.1014407E+00
        1   -1    0    0  501    0  0.00000000000E+00  0.00000000000E+00  0.24382714772E+03  0.24382714777E+03  0.50400001928E-02 0. -1.
       -1   -1    0    0    0  501  0.00000000000E+00  0.00000000000E+00 -0.25387513126E+03  0.25387513131E+03  0.50400001928E-02 0.  1.
    10030    2    1    2    0    0  0.00000000000E+00  0.00000000000E+00 -0.10047983539E+02  0.49770227908E+03  0.49760084066E+03 0.  0.
        1    1    3    3  502    0  0.16980257183E+03  0.12466815163E+03 -0.13743899921E+03  0.25152443213E+03  0.50400001928E-02 0.  1.
       -1    1    3    3    0  502 -0.16980257183E+03 -0.12466815163E+03  0.12739101567E+03  0.24617784695E+03  0.50400001928E-02 0. -1.
</event>
<event>
 5   0  0.1141970E-01  0.4866949E+03  0.7818609E-02  0.1017311E+00
        1   -1    0    0  501    0  0.00000000000E+00  0.00000000000E+00  0.11138913390E+03  0.11138913401E+03  0.50400001928E-02 0.  1.
       -1   -1    0    0    0  501  0.00000000000E+00  0.00000000000E+00 -0.53163147783E+03  0.53163147786E+03  0.50400001928E-02 0. -1.
    10030    2    1    2    0    0  0.00000000000E+00  0.00000000000E+00 -0.42024234394E+03  0.64302061187E+03  0.48669485270E+03 0.  0.
        3    1    3    3  502    0 -0.38668452597E+02  0.11571447937E+03  0.68062133745E+02  0.13970524047E+03  0.10100000352E+00 0.  1.
       -3    1    3    3    0  502  0.38668452597E+02 -0.11571447937E+03 -0.48830447768E+03  0.50331537140E+03  0.10100000352E+00 0. -1.
</event>
<event>
 5   0  0.1683148E-01  0.4987495E+03  0.7818609E-02  0.1014106E+00
        2   -1    0    0  501    0  0.00000000000E+00  0.00000000000E+00  0.28413987364E+03  0.28413987365E+03  0.25500000920E-02 0.  1.
       -2   -1    0    0    0  501  0.00000000000E+00  0.00000000000E+00 -0.21886321239E+03  0.21886321241E+03  0.25500000920E-02 0. -1.
    10030    2    1    2    0    0  0.00000000000E+00  0.00000000000E+00  0.65276661250E+02  0.50300308606E+03  0.49874949833E+03 0.  0.
        2    1    3    3  502    0 -0.31856585870E+02 -0.24686624807E+03  0.47932724990E+02  0.25348635590E+03  0.25500000920E-02 0.  1.
       -2    1    3    3    0  502  0.31856585870E+02  0.24686624807E+03  0.17343936260E+02  0.24951673016E+03  0.25500000920E-02 0. -1.
</event>
<event>
 5   0  0.1827698E-01  0.5035112E+03  0.7818609E-02  0.1012866E+00
       -2   -1    0    0    0  501  0.00000000000E+00  0.00000000000E+00  0.55201806632E+02  0.55201806691E+02  0.25500000920E-02 0.  1.
        2   -1    0    0  501    0  0.00000000000E+00  0.00000000000E+00 -0.11481667469E+04  0.11481667469E+04  0.25500000920E-02 0. -1.
    10030    2    1    2    0    0  0.00000000000E+00  0.00000000000E+00 -0.10929649402E+04  0.12033685536E+04  0.50351118669E+03 0.  0.
        1    1    3    3  502    0 -0.15397819281E+03 -0.15460616019E+03 -0.84659569979E+03  0.87426347720E+03  0.50400001928E-02 0. -1.
       -1    1    3    3    0  502  0.15397819281E+03  0.15460616019E+03 -0.24636924045E+03  0.32910507637E+03  0.50400001928E-02 0.  1.
</event>
<event>
 5   0  0.1147245E-01  0.4853902E+03  0.7818609E-02  0.1017664E+00
        1   -1    0    0  501    0  0.00000000000E+00  0.00000000000E+00  0.49966229739E+03  0.49966229741E+03  0.50400001928E-02 0. -1.
       -1   -1    0    0    0  501  0.00000000000E+00  0.00000000000E+00 -0.11788143379E+03  0.11788143390E+03  0.50400001928E-02 0.  1.
    10030    2    1    2    0    0  0.00000000000E+00  0.00000000000E+00  0.38178086360E+03  0.61754373131E+03  0.48539018559E+03 0.  0.
        1    1    3    3  502    0 -0.16448263490E+03 -0.11771863410E+03  0.36152874304E+03  0.41426470531E+03  0.50400001928E-02 0. -1.
       -1    1    3    3    0  502  0.16448263490E+03  0.11771863410E+03  0.20252120562E+02  0.20327902600E+03  0.50400001928E-02 0.  1.
</event>
<event>
 5   0  0.1827698E-01  0.4948195E+03  0.7818609E-02  0.1015140E+00
        2   -1    0    0  501    0  0.00000000000E+00  0.00000000000E+00  0.54690701924E+03  0.54690701925E+03  0.25500000920E-02 0.  1.
       -2   -1    0    0    0  501  0.00000000000E+00  0.00000000000E+00 -0.11192319887E+03  0.11192319890E+03  0.25500000920E-02 0. -1.
    10030    2    1    2    0    0  0.00000000000E+00  0.00000000000E+00  0.43498382037E+03  0.65883021815E+03  0.49481949473E+03 0.  0.
        1    1    3    3  502    0  0.67389855572E+02 -0.17159377595E+03  0.43718518703E+03  0.47446465027E+03  0.50400001928E-02 0.  1.
       -1    1    3    3    0  502 -0.67389855572E+02  0.17159377595E+03 -0.22013666560E+01  0.18436556788E+03  0.50400001928E-02 0. -1.
</event>
<event>
 5   0  0.1827698E-01  0.5031413E+03  0.7818609E-02  0.1012962E+00
        2   -1    0    0  501    0  0.00000000000E+00  0.00000000000E+00  0.47849018305E+03  0.47849018305E+03  0.25500000920E-02 0. -1.
       -2   -1    0    0    0  501  0.00000000000E+00  0.00000000000E+00 -0.13226561835E+03  0.13226561838E+03  0.25500000920E-02 0.  1.
    10030    2    1    2    0    0  0.00000000000E+00  0.00000000000E+00  0.34622456469E+03  0.61075580143E+03  0.50314133182E+03 0.  0.
        1    1    3    3  502    0  0.11126611241E+02 -0.18121484313E+03  0.38449977769E+03  0.42520900733E+03  0.50400001928E-02 0. -1.
       -1    1    3    3    0  502 -0.11126611241E+02  0.18121484313E+03 -0.38275212992E+02  0.18554679410E+03  0.50400001928E-02 0.  1.
</event>
<event>
 5   0  0.1760649E-01  0.5007044E+03  0.7818609E-02  0.1013595E+00
        2   -1    0    0  501    0  0.00000000000E+00  0.00000000000E+00  0.11703656142E+04  0.11703656142E+04  0.25500000920E-02 0.  1.
       -2   -1    0    0    0  501  0.00000000000E+00  0.00000000000E+00 -0.53552681236E+02  0.53552681297E+02  0.25500000920E-02 0. -1.
    10030    2    1    2    0    0  0.00000000000E+00  0.00000000000E+00  0.11168129330E+04  0.12239182955E+04  0.50070437068E+03 0.  0.
        5    1    3    3  502    0 -0.76468325810E+02 -0.79335556993E+02  0.11077839661E+04  0.11132605000E+04  0.46999998093E+01 0.  1.
       -5    1    3    3    0  502  0.76468325810E+02  0.79335556993E+02  0.90289668927E+01  0.11065779546E+03  0.46999998093E+01 0. -1.
</event>
<event>
 5   0  0.1827698E-01  0.4959276E+03  0.7818609E-02  0.1014847E+00
       -2   -1    0    0    0  501  0.00000000000E+00  0.00000000000E+00  0.89097808213E+02  0.89097808250E+02  0.25500000920E-02 0.  1.
        2   -1    0    0  501    0  0.00000000000E+00  0.00000000000E+00 -0.69009614941E+03  0.69009614942E+03  0.25500000920E-02 0. -1.
    10030    2    1    2    0    0  0.00000000000E+00  0.00000000000E+00 -0.60099834120E+03  0.77919395767E+03  0.49592763337E+03 0.  0.
        1    1    3    3  502    0  0.23951127378E+03  0.55905821024E+02 -0.25093972640E+03  0.35137139526E+03  0.50400001928E-02 0. -1.
       -1    1    3    3    0  502 -0.23951127378E+03 -0.55905821024E+02 -0.35005861479E+03  0.42782256241E+03  0.50400001928E-02 0.  1.
</event>
<event>
 5   0  0.1074281E-01  0.4967935E+03  0.7818609E-02  0.1014619E+00
       -1   -1    0    0    0  501  0.00000000000E+00  0.00000000000E+00  0.28101578543E+03  0.28101578548E+03  0.50400001928E-02 0. -1.
        1   -1    0    0  501    0  0.00000000000E+00  0.00000000000E+00 -0.21956397928E+03  0.21956397933E+03  0.50400001928E-02 0.  1.
    10030    2    1    2    0    0  0.00000000000E+00  0.00000000000E+00  0.61451806157E+02  0.50057976481E+03  0.49679349478E+03 0.  0.
        4    1    3    3  502    0 -0.14221197655E+03 -0.19524890889E+03  0.89071868730E+02  0.25745250707E+03  0.12699999809E+01 0. -1.
       -4    1    3    3    0  502  0.14221197655E+03  0.19524890889E+03 -0.27620062573E+02  0.24312725774E+03  0.12699999809E+01 0.  1.
</event>
<event>
 5   0  0.1147245E-01  0.4945613E+03  0.7818609E-02  0.1015208E+00
        1   -1    0    0  501    0  0.00000000000E+00  0.00000000000E+00  0.14088280827E+04  0.14088280827E+04  0.50400001928E-02 0. -1.
       -1   -1    0    0    0  501  0.00000000000E+00  0.00000000000E+00 -0.43403254402E+02  0.43403254695E+02  0.50400001928E-02 0.  1.
    10030    2    1    2    0    0  0.00000000000E+00  0.00000000000E+00  0.13654248283E+04  0.14522313374E+04  0.49456131633E+03 0.  0.
        1    1    3    3  502    0 -0.20116749970E+03 -0.14365814960E+03  0.66375111731E+03  0.70828777530E+03  0.50400001928E-02 0. -1.
       -1    1    3    3    0  502  0.20116749970E+03  0.14365814960E+03  0.70167371102E+03  0.74394356214E+03  0.50400001928E-02 0.  1.
</event>
<event>
 5   0  0.1147245E-01  0.5005560E+03  0.7818609E-02  0.1013634E+00
        1   -1    0    0  501    0  0.00000000000E+00  0.00000000000E+00  0.98485565427E+03  0.98485565429E+03  0.50400001928E-02 0. -1.
       -1   -1    0    0    0  501  0.00000000000E+00  0.00000000000E+00 -0.63602283173E+02  0.63602283373E+02  0.50400001928E-02 0.  1.
    10030    2    1    2    0    0  0.00000000000E+00  0.00000000000E+00  0.92125337110E+03  0.10484579377E+04  0.50055596418E+03 0.  0.
        1    1    3    3  502    0 -0.10196110526E+03 -0.22574198689E+03  0.38558442735E+03  0.45829124175E+03  0.50400001928E-02 0.  1.
       -1    1    3    3    0  502  0.10196110526E+03  0.22574198689E+03  0.53566894375E+03  0.59016669591E+03  0.50400001928E-02 0. -1.
</event>
<event>
 5   0  0.1760649E-01  0.4986413E+03  0.7818609E-02  0.1014134E+00
       -2   -1    0    0    0  501  0.00000000000E+00  0.00000000000E+00  0.15504700919E+03  0.15504700921E+03  0.25500000920E-02 0. -1.
        2   -1    0    0  501    0  0.00000000000E+00  0.00000000000E+00 -0.40091566539E+03  0.40091566540E+03  0.25500000920E-02 0.  1.
    10030    2    1    2    0    0  0.00000000000E+00  0.00000000000E+00 -0.24586865620E+03  0.55596267461E+03  0.49864125327E+03 0.  0.
        5    1    3    3  502    0  0.86104020702E+02 -0.22048976213E+03 -0.21007966904E+03  0.31652044946E+03  0.46999998093E+01 0.  1.
       -5    1    3    3    0  502 -0.86104020702E+02  0.22048976213E+03 -0.35788987159E+02  0.23944222515E+03  0.46999998093E+01 0. -1.
</event>
<event>
 5   0  0.1827698E-01  0.4895634E+03  0.7818609E-02  0.1016539E+00
       -2   -1    0    0    0  501  0.00000000000E+00  0.00000000000E+00  0.89710017975E+03  0.89710017976E+03  0.25500000920E-02 0.  1.
        2   -1    0    0  501    0  0.00000000000E+00  0.00000000000E+00 -0.66790843635E+02  0.66790843683E+02  0.25500000920E-02 0. -1.
    10030    2    1    2    0    0  0.00000000000E+00  0.00000000000E+00  0.83030933612E+03  0.96389102344E+03  0.48956338857E+03 0.  0.
        1    1    3    3  502    0 -0.46306378528E+02 -0.53828568474E+02  0.87637808047E+03  0.87924987087E+03  0.50400001928E-02 0.  1.
       -1    1    3    3    0  502  0.46306378528E+02  0.53828568474E+02 -0.46068744352E+02  0.84641152567E+02  0.50400001928E-02 0. -1.
</event>
<event>
 5   0  0.1141970E-01  0.5011200E+03  0.7818609E-02  0.1013487E+00
        1   -1    0    0  501    0  0.00000000000E+00  0.00000000000E+00  0.98597807836E+03  0.98597807837E+03  0.50400001928E-02 0.  1.
       -1   -1    0    0    0  501  0.00000000000E+00  0.00000000000E+00 -0.63673145035E+02  0.63673145235E+02  0.50400001928E-02 0. -1.
    10030    2    1    2    0    0  0.00000000000E+00  0.00000000000E+00  0.92230493332E+03  0.10496512236E+04  0.50112004668E+03 0.  0.
        3    1    3    3  502    0 -0.29000104778E+02  0.46321301246E+02  0.97334206928E+03  0.97487510126E+03  0.10100000352E+00 0.  1.
       -3    1    3    3    0  502  0.29000104778E+02 -0.46321301246E+02 -0.51037135953E+02  0.74776122349E+02  0.10100000352E+00 0. -1.
</event>
<event>
 5   0  0.1141970E-01  0.4972200E+03  0.7818609E-02  0.1014507E+00
        1   -1    0    0  501    0  0.00000000000E+00  0.00000000000E+00  0.12562853162E+04  0.12562853162E+04  0.50400001928E-02 0. -1.
       -1   -1    0    0    0  501  0.00000000000E+00  0.00000000000E+00 -0.49198162833E+02  0.49198163091E+02  0.50400001928E-02 0.  1.
    10030    2    1    2    0    0  0.00000000000E+00  0.00000000000E+00  0.12070871533E+04  0.13054834793E+04  0.49721999045E+03 0.  0.
        3    1    3    3  502    0 -0.10454286455E+03  0.17886674504E+03  0.96435007823E+03  0.98635369244E+03  0.10100000352E+00 0. -1.
       -3    1    3    3    0  502  0.10454286455E+03 -0.17886674504E+03  0.24273707511E+03  0.31912978684E+03  0.10100000352E+00 0.  1.
</event>
<event>
 5   0  0.1827698E-01  0.4957237E+03  0.7818609E-02  0.1014901E+00
        2   -1    0    0  501    0  0.00000000000E+00  0.00000000000E+00  0.26848674627E+03  0.26848674628E+03  0.25500000920E-02 0.  1.
       -2   -1    0    0    0  501  0.00000000000E+00  0.00000000000E+00 -0.22882137318E+03  0.22882137320E+03  0.25500000920E-02 0. -1.
    10030    2    1    2    0    0  0.00000000000E+00  0.00000000000E+00  0.39665373089E+02  0.49730811948E+03  0.49572373746E+03 0.  0.
        1    1    3    3  502    0 -0.20457899176E+03 -0.41991746081E+02  0.15374954131E+03  0.25933528894E+03  0.50400001928E-02 0.  1.
       -1    1    3    3    0  502  0.20457899176E+03  0.41991746081E+02 -0.11408416823E+03  0.23797283054E+03  0.50400001928E-02 0. -1.
</event>
<event>
 5   0  0.7220250E-02  0.4974849E+03  0.7818609E-02  0.1014437E+00
       -3   -1    0    0    0  501  0.00000000000E+00  0.00000000000E+00  0.17832502406E+03  0.17832505266E+03  0.10100000352E+00 0.  1.
        3   -1    0    0  501    0  0.00000000000E+00  0.00000000000E+00 -0.34696648548E+03  0.34696650018E+03  0.10100000352E+00 0. -1.
    10030    2    1    2    0    0  0.00000000000E+00  0.00000000000E+00 -0.16864146142E+03  0.52529155284E+03  0.49748494749E+03 0.  0.
        5    1    3    3  502    0  0.18251972077E+03 -0.10387716303E+03 -0.22498399143E+03  0.30780480806E+03  0.46999998093E+01 0. -1.
       -5    1    3    3    0  502 -0.18251972077E+03  0.10387716303E+03  0.56342530011E+02  0.21748674478E+03  0.46999998093E+01 0.  1.
</event>
<event>
 5   0  0.1147245E-01  0.4975454E+03  0.7818609E-02  0.1014422E+00
        1   -1    0    0  501    0  0.00000000000E+00  0.00000000000E+00  0.25782832720E+03  0.25782832725E+03  0.50400001928E-02 0.  1.
       -1   -1    0    0    0  501  0.00000000000E+00  0.00000000000E+00 -0.24003509222E+03  0.24003509228E+03  0.50400001928E-02 0. -1.
    10030    2    1    2    0    0  0.00000000000E+00  0.00000000000E+00  0.17793234974E+02  0.49786341953E+03  0.49754536003E+03 0.  0.
        1    1    3    3  502    0  0.24454746127E+03  0.23853920038E+02 -0.30056097855E+02  0.24753957130E+03  0.50400001928E-02 0. -1.
       -1    1    3    3    0  502 -0.24454746127E+03 -0.23853920038E+02  0.47849332828E+02  0.25032384823E+03  0.50400001928E-02 0.  1.
</event>
<event>
 5   0  0.1068522E-01  0.4965723E+03  0.7818609E-02  0.1014677E+00
       -1   -1    0    0    0  501  0.00000000000E+00  0.00000000000E+00  0.46432647054E+02  0.46432647328E+02  0.50400001928E-02 0.  1.
        1   -1    0    0  501    0  0.00000000000E+00  0.00000000000E+00 -0.13276436937E+04  0.13276436937E+04  0.50400001928E-02 0. -1.
    10030    2    1    2    0    0  0.00000000000E+00  0.00000000000E+00 -0.12812110466E+04  0.13740763410E+04  0.49657229579E+03 0.  0.
        2    1    3    3  502    0  0.12573700969E+03  0.15643082217E+03 -0.23613576117E+03  0.30990401005E+03  0.25500000920E-02 0.  1.
       -2    1    3    3    0  502 -0.12573700969E+03 -0.15643082217E+03 -0.10450752855E+04  0.10641723310E+04  0.25500000920E-02 0. -1.
</event>
<event>
 5   0  0.1074281E-01  0.5004044E+03  0.7818609E-02  0.1013673E+00
        1   -1    0    0  501    0  0.00000000000E+00  0.00000000000E+00  0.47013365779E+03  0.47013365781E+03  0.50400001928E-02 0. -1.
       -1   -1    0    0    0  501  0.00000000000E+00  0.00000000000E+00 -0.13315604228E+03  0.13315604237E+03  0.50400001928E-02 0.  1.
    10030    2    1    2    0    0  0.00000000000E+00  0.00000000000E+00  0.33697761551E+03  0.60328970019E+03  0.50040438547E+03 0.  0.
        4    1    3    3  502    0 -0.30847363479E+02  0.93297525175E+02  0.44589188650E+03  0.45659300847E+03  0.12699999809E+01 0. -1.
       -4    1    3    3    0  502  0.30847363479E+02 -0.93297525175E+02 -0.10891427099E+03  0.14669669172E+03  0.12699999809E+01 0.  1.
</event>
<event>
 5   0  0.1068522E-01  0.5183879E+03  0.7818609E-02  0.1009088E+00
       -1   -1    0    0    0  501  0.00000000000E+00  0.00000000000E+00  0.84017944852E+02  0.84017945003E+02  0.50400001928E-02 0. -1.
        1   -1    0    0  501    0  0.00000000000E+00  0.00000000000E+00 -0.79960912181E+03  0.79960912183E+03  0.50400001928E-02 0.  1.
    10030    2    1    2    0    0  0.00000000000E+00  0.00000000000E+00 -0.71559117696E+03  0.88362706683E+03  0.51838794420E+03 0.  0.
        2    1    3    3  502    0  0.19780751853E+03 -0.14975841002E+03 -0.22994033129E+03  0.33827200848E+03  0.25500000920E-02 0. -1.
       -2    1    3    3    0  502 -0.19780751853E+03  0.14975841002E+03 -0.48565084567E+03  0.54535505835E+03  0.25500000920E-02 0.  1.
</event>
<event>
 5   0  0.1074281E-01  0.4964030E+03  0.7818609E-02  0.1014722E+00
       -1   -1    0    0    0  501  0.00000000000E+00  0.00000000000E+00  0.13837970141E+03  0.13837970150E+03  0.50400001928E-02 0. -1.
        1   -1    0    0  501    0  0.00000000000E+00  0.00000000000E+00 -0.44518080203E+03  0.44518080206E+03  0.50400001928E-02 0.  1.
    10030    2    1    2    0    0  0.00000000000E+00  0.00000000000E+00 -0.30680110063E+03  0.58356050356E+03  0.49640300761E+03 0.  0.
        4    1    3    3  502    0 -0.21814136583E+03 -0.61169790322E+02 -0.27256367155E+03  0.35442907144E+03  0.12699999809E+01 0.  1.
       -4    1    3    3    0  502  0.21814136583E+03  0.61169790322E+02 -0.34237429080E+02  0.22913143212E+03  0.12699999809E+01 0. -1.
</event>
<event>
 5   0  0.1141970E-01  0.5309979E+03  0.7818609E-02  0.1005990E+00
       -1   -1    0    0    0  501  0.00000000000E+00  0.00000000000E+00  0.87329728644E+02  0.87329728789E+02  0.50400001928E-02 0.  1.
        1   -1    0    0  501    0  0.00000000000E+00  0.00000000000E+00 -0.80716726583E+03  0.80716726584E+03  0.50400001928E-02 0. -1.
    10030    2    1    2    0    0  0.00000000000E+00  0.00000000000E+00 -0.71983753718E+03  0.89449699463E+03  0.53099792228E+03 0.  0.
        3    1    3    3  502    0  0.99999034274E+02  0.51601987623E+02 -0.76500905680E+03  0.77324086750E+03  0.10100000352E+00 0. -1.
       -3    1    3    3    0  502 -0.99999034274E+02 -0.51601987623E+02  0.45171519615E+02  0.12125612714E+03  0.10100000352E+00 0.  1.
</event>
<event>
 5   0  0.1074281E-01  0.4955242E+03  0.7818609E-02  0.1014954E+00
        1   -1    0    0  501    0  0.00000000000E+00  0.00000000000E+00  0.76883299454E+03  0.76883299456E+03  0.50400001928E-02 0.  1.
       -1   -1    0    0    0  501  0.00000000000E+00  0.00000000000E+00 -0.79843161548E+02  0.79843161707E+02  0.50400001928E-02 0. -1.
    10030    2    1    2    0    0  0.00000000000E+00  0.00000000000E+00  0.68898983300E+03  0.84867615627E+03  0.49552419542E+03 0.  0.
        4    1    3    3  502    0  0.14663159450E+03  0.12820754473E+03  0.60674500210E+03  0.63724336756E+03  0.12699999809E+01 0.  1.
       -4    1    3    3    0  502 -0.14663159450E+03 -0.12820754473E+03  0.82244830899E+02  0.21143278871E+03  0.12699999809E+01 0. -1.
</event>
<event>
 5   0  0.1782124E-01  0.5014060E+03  0.7818609E-02  0.1013413E+00
        2   -1    0    0  501    0  0.00000000000E+00  0.00000000000E+00  0.88263242831E+03  0.88263242832E+03  0.25500000920E-02 0. -1.
       -2   -1    0    0    0  501  0.00000000000E+00  0.00000000000E+00 -0.71209700776E+02  0.71209700822E+02  0.25500000920E-02 0.  1.
    10030    2    1    2    0    0  0.00000000000E+00  0.00000000000E+00  0.81142272754E+03  0.95384212914E+03  0.50140598776E+03 0.  0.
        3    1    3    3  502    0  0.51684995261E+02  0.24461322134E+03  0.37037633598E+03  0.44686195547E+03  0.10100000352E+00 0.  1.
       -3    1    3    3    0  502 -0.51684995261E+02 -0.24461322134E+03  0.44104639155E+03  0.50698017367E+03  0.10100000352E+00 0. -1.
</event>
<event>
 5   0  0.1068522E-01  0.5017209E+03  0.7818609E-02  0.1013331E+00
        1   -1    0    0  501    0  0.00000000000E+00  0.00000000000E+00  0.31525394386E+03  0.31525394390E+03  0.50400001928E-02 0. -1.
       -1   -1    0    0    0  501  0.00000000000E+00  0.00000000000E+00 -0.19961993527E+03  0.19961993533E+03  0.50400001928E-02 0.  1.
    10030    2    1    2    0    0  0.00000000000E+00  0.00000000000E+00  0.11563400859E+03  0.51487387923E+03  0.50172092598E+03 0.  0.
        2    1    3    3  502    0 -0.19579278009E+03 -0.13067306628E+03  0.14681250153E+03  0.27742417631E+03  0.25500000920E-02 0. -1.
       -2    1    3    3    0  502  0.19579278009E+03  0.13067306628E+03 -0.31178492941E+02  0.23744970292E+03  0.25500000920E-02 0.  1.
</event>
<event>
 5   0  0.1147245E-01  0.5005802E+03  0.7818609E-02  0.1013628E+00
       -1   -1    0    0    0  501  0.00000000000E+00  0.00000000000E+00  0.48914497338E+02  0.48914497598E+02  0.50400001928E-02 0. -1.
        1   -1    0    0  501    0  0.00000000000E+00  0.00000000000E+00 -0.12807071174E+04  0.12807071174E+04  0.50400001928E-02 0.  1.
    10030    2    1    2    0    0  0.00000000000E+00  0.00000000000E+00 -0.12317926200E+04  0.13296216150E+04  0.50058024357E+03 0.  0.
        1    1    3    3  502    0  0.17840723114E+03 -0.70111896699E+02 -0.10433676315E+04  0.10608302563E+04  0.50400001928E-02 0.  1.
       -1    1    3    3    0  502 -0.17840723114E+03  0.70111896699E+02 -0.18842498858E+03  0.26879135873E+03  0.50400001928E-02 0. -1.
</event>
<event>
 5   0  0.7220250E-02  0.4995239E+03  0.7818609E-02  0.1013903E+00
        4   -1    0    0  501    0  0.00000000000E+00  0.00000000000E+00  0.12877200145E+03  0.12877826392E+03  0.12699999809E+01 0.  1.
       -4   -1    0    0    0  501  0.00000000000E+00  0.00000000000E+00 -0.48441113034E+03  0.48441279514E+03  0.12699999809E+01 0. -1.
    10030    2    1    2    0    0  0.00000000000E+00  0.00000000000E+00 -0.35563912888E+03  0.61319105906E+03  0.49952385821E+03 0.  0.
        4    1    3    3  502    0 -0.65783299165E+02 -0.17690451912E+03  0.22977017236E+02  0.19013733867E+03  0.12699999809E+01 0.  1.
       -4    1    3    3    0  502  0.65783299165E+02  0.17690451912E+03 -0.37861614612E+03  0.42305372039E+03  0.12699999809E+01 0. -1.
</event>
<event>
 5   0  0.1827698E-01  0.4922476E+03  0.7818609E-02  0.1015822E+00
        2   -1    0    0  501    0  0.00000000000E+00  0.00000000000E+00  0.78343399565E+03  0.78343399565E+03  0.25500000920E-02 0. -1.
       -2   -1    0    0    0  501  0.00000000000E+00  0.00000000000E+00 -0.77322295302E+02  0.77322295344E+02  0.25500000920E-02 0.  1.
    10030    2    1    2    0    0  0.00000000000E+00  0.00000000000E+00  0.70611170035E+03  0.86075629100E+03  0.49224755878E+03 0.  0.
        1    1    3    3  502    0 -0.72531642622E+02  0.20007651634E+03  0.13686568359E+03  0.25302898439E+03  0.50400001928E-02 0. -1.
       -1    1    3    3    0  502  0.72531642622E+02 -0.20007651634E+03  0.56924601676E+03  0.60772730660E+03  0.50400001928E-02 0.  1.
</event>
<event>
 5   0  0.7220250E-02  0.5107113E+03  0.7818609E-02  0.1011020E+00
        3   -1    0    0  501    0  0.00000000000E+00  0.00000000000E+00  0.20526199950E+03  0.20526202435E+03  0.10100000352E+00 0.  1.
       -3   -1    0    0    0  501  0.00000000000E+00  0.00000000000E+00 -0.31767445779E+03  0.31767447384E+03  0.10100000352E+00 0. -1.
    10030    2    1    2    0    0  0.00000000000E+00  0.00000000000E+00 -0.11241245828E+03  0.52293649819E+03  0.51071128866E+03 0.  0.
        4    1    3    3  502    0 -0.82812610826E+02  0.17744007206E+03 -0.22402577595E+03  0.29754338990E+03  0.12699999809E+01 0. -1.
       -4    1    3    3    0  502  0.82812610826E+02 -0.17744007206E+03  0.11161331766E+03  0.22539310829E+03  0.12699999809E+01 0.  1.
</event>
<event>
 5   0  0.1147245E-01  0.5010728E+03  0.7818609E-02  0.1013499E+00
       -1   -1    0    0    0  501  0.00000000000E+00  0.00000000000E+00  0.91384018464E+03  0.91384018465E+03  0.50400001928E-02 0.  1.
        1   -1    0    0  501    0  0.00000000000E+00  0.00000000000E+00 -0.68686502714E+02  0.68686502899E+02  0.50400001928E-02 0. -1.
    10030    2    1    2    0    0  0.00000000000E+00  0.00000000000E+00  0.84515368192E+03  0.98252668755E+03  0.50107279479E+03 0.  0.
        1    1    3    3  502    0  0.17784532251E+03  0.15725329557E+03  0.57957841436E+03  0.62631357652E+03  0.50400001928E-02 0.  1.
       -1    1    3    3    0  502 -0.17784532251E+03 -0.15725329557E+03  0.26557526756E+03  0.35621311103E+03  0.50400001928E-02 0. -1.
</event>
<event>
 5   0  0.1683148E-01  0.5232289E+03  0.7818609E-02  0.1007888E+00
        2   -1    0    0  501    0  0.00000000000E+00  0.00000000000E+00  0.82737563885E+03  0.82737563886E+03  0.25500000920E-02 0.  1.
       -2   -1    0    0    0  501  0.00000000000E+00  0.00000000000E+00 -0.82721941740E+02  0.82721941779E+02  0.25500000920E-02 0. -1.
    10030    2    1    2    0    0  0.00000000000E+00  0.00000000000E+00  0.74465369711E+03  0.91009758064E+03  0.52322889605E+03 0.  0.
        2    1    3    3  502    0 -0.53497586393E+02  0.57055050698E+02 -0.61910182165E+02  0.99750394597E+02  0.25500000920E-02 0. -1.
       -2    1    3    3    0  502  0.53497586393E+02 -0.57055050698E+02  0.80656387928E+03  0.81034718604E+03  0.25500000920E-02 0.  1.
</event>
<event>
 5   0  0.1123271E-01  0.5033917E+03  0.7818609E-02  0.1012897E+00
        1   -1    0    0  501    0  0.00000000000E+00  0.00000000000E+00  0.13537809147E+04  0.13537809147E+04  0.50400001928E-02 0. -1.
       -1   -1    0    0    0  501  0.00000000000E+00  0.00000000000E+00 -0.46795468562E+02  0.46795468833E+02  0.50400001928E-02 0.  1.
    10030    2    1    2    0    0  0.00000000000E+00  0.00000000000E+00  0.13069854461E+04  0.14005763835E+04  0.50339174578E+03 0.  0.
        5    1    3    3  502    0 -0.10894271795E+03  0.21377272072E+03  0.86467908713E+03  0.89736241599E+03  0.46999998093E+01 0. -1.
       -5    1    3    3    0  502  0.10894271795E+03 -0.21377272072E+03  0.44230635902E+03  0.50321396756E+03  0.46999998093E+01 0.  1.
</event>
<event>
 5   0  0.1074281E-01  0.4970356E+03  0.7818609E-02  0.1014556E+00
        1   -1    0    0  501    0  0.00000000000E+00  0.00000000000E+00  0.15112759212E+03  0.15112759221E+03  0.50400001928E-02 0. -1.
       -1   -1    0    0    0  501  0.00000000000E+00  0.00000000000E+00 -0.40866857341E+03  0.40866857344E+03  0.50400001928E-02 0.  1.
    10030    2    1    2    0    0  0.00000000000E+00  0.00000000000E+00 -0.25754098129E+03  0.55979616565E+03  0.49703560238E+03 0.  0.
        4    1    3    3  502    0 -0.16529721415E+02  0.77781207353E+02 -0.39394982934E+03  0.40189703761E+03  0.12699999809E+01 0.  1.
       -4    1    3    3    0  502  0.16529721415E+02 -0.77781207353E+02  0.13640884805E+03  0.15789912804E+03  0.12699999809E+01 0. -1.
</event>
<event>
 5   0  0.1147245E-01  0.5117664E+03  0.7818609E-02  0.1010753E+00
        1   -1    0    0  501    0  0.00000000000E+00  0.00000000000E+00  0.77266960735E+03  0.77266960737E+03  0.50400001928E-02 0. -1.
       -1   -1    0    0    0  501  0.00000000000E+00  0.00000000000E+00 -0.84740248808E+02  0.84740248958E+02  0.50400001928E-02 0.  1.
    10030    2    1    2    0    0  0.00000000000E+00  0.00000000000E+00  0.68792935854E+03  0.85740985632E+03  0.51176641095E+03 0.  0.
        1    1    3    3  502    0 -0.39936615943E+02 -0.43230657743E+02 -0.73246497582E+02  0.93962080093E+02  0.50400001928E-02 0.  1.
       -1    1    3    3    0  502  0.39936615943E+02  0.43230657743E+02  0.76117585612E+03  0.76344777623E+03  0.50400001928E-02 0. -1.
</event>
<event>
 5   0  0.7220250E-02  0.4998847E+03  0.7818609E-02  0.1013809E+00
       -3   -1    0    0    0  501  0.00000000000E+00  0.00000000000E+00  0.23416688694E+03  0.23416690872E+03  0.10100000352E+00 0.  1.
        3   -1    0    0  501    0  0.00000000000E+00  0.00000000000E+00 -0.26678054851E+03  0.26678056763E+03  0.10100000352E+00 0. -1.
    10030    2    1    2    0    0  0.00000000000E+00  0.00000000000E+00 -0.32613661576E+02  0.50094747635E+03  0.49988470985E+03 0.  0.
        2    1    3    3  502    0 -0.12380828130E+02  0.14664176778E+03  0.18614764728E+03  0.23729315110E+03  0.25500000920E-02 0.  1.
       -2    1    3    3    0  502  0.12380828130E+02 -0.14664176778E+03 -0.21876130886E+03  0.26365432525E+03  0.25500000920E-02 0. -1.
</event>
<event>
 5   0  0.1782124E-01  0.4947643E+03  0.7818609E-02  0.1015155E+00
        2   -1    0    0  501    0  0.00000000000E+00  0.00000000000E+00  0.47262293491E+03  0.47262293492E+03  0.25500000920E-02 0. -1.
       -2   -1    0    0    0  501  0.00000000000E+00  0.00000000000E+00 -0.12948574129E+03  0.12948574131E+03  0.25500000920E-02 0.  1.
    10030    2    1    2    0    0  0.00000000000E+00  0.00000000000E+00  0.34313719362E+03  0.60210867623E+03  0.49476431192E+03 0.  0.
        3    1    3    3  502    0 -0.20756540387E+02 -0.15018571134E+02  0.47100404591E+03  0.47170034229E+03  0.10100000352E+00 0. -1.
       -3    1    3    3    0  502  0.20756540387E+02  0.15018571134E+02 -0.12786685229E+03  0.13040833395E+03  0.10100000352E+00 0.  1.
</event>
<event>
 5   0  0.1709372E-01  0.5075471E+03  0.7818609E-02  0.1011828E+00
        2   -1    0    0  501    0  0.00000000000E+00  0.00000000000E+00  0.71076146891E+03  0.71076146891E+03  0.25500000920E-02 0.  1.
       -2   -1    0    0    0  501  0.00000000000E+00  0.00000000000E+00 -0.90608480706E+02  0.90608480742E+02  0.25500000920E-02 0. -1.
    10030    2    1    2    0    0  0.00000000000E+00  0.00000000000E+00  0.62015298820E+03  0.80136994965E+03  0.50754710858E+03 0.  0.
        4    1    3    3  502    0 -0.21675803117E+03  0.24220962152E+01  0.10174747889E+03  0.23946622515E+03  0.12699999809E+01 0. -1.
       -4    1    3    3    0  502  0.21675803117E+03 -0.24220962152E+01  0.51840550931E+03  0.56190372450E+03  0.12699999809E+01 0.  1.
</event>
<event>
 5   0  0.1074281E-01  0.5013394E+03  0.7818609E-02  0.1013430E+00
        1   -1    0    0  501    0  0.00000000000E+00  0.00000000000E+00  0.63157136360E+03  0.63157136362E+03  0.50400001928E-02 0. -1.
       -1   -1    0    0    0  501  0.00000000000E+00  0.00000000000E+00 -0.99490415509E+02  0.99490415636E+02  0.50400001928E-02 0.  1.
    10030    2    1    2    0    0  0.00000000000E+00  0.00000000000E+00  0.53208094809E+03  0.73106177925E+03  0.50133939579E+03 0.  0.
        4    1    3    3  502    0  0.93931626553E+02 -0.83849414404E+02  0.58210654142E+03  0.59556990625E+03  0.12699999809E+01 0. -1.
       -4    1    3    3    0  502 -0.93931626553E+02  0.83849414404E+02 -0.50025593331E+02  0.13549187301E+03  0.12699999809E+01 0.  1.
</event>
<event>
 5   0  0.1141970E-01  0.4976026E+03  0.7818609E-02  0.1014407E+00
       -1   -1    0    0    0  501  0.00000000000E+00  0.00000000000E+00  0.49620102723E+02  0.49620102979E+02  0.50400001928E-02 0. -1.
        1   -1    0    0  501    0  0.00000000000E+00  0.00000000000E+00 -0.12475201642E+04  0.12475201642E+04  0.50400001928E-02 0.  1.
    10030    2    1    2    0    0  0.00000000000E+00  0.00000000000E+00 -0.11979000614E+04  0.12971402671E+04  0.49760256779E+03 0.  0.
        3    1    3    3  502    0 -0.15011511190E+03 -0.74362531339E+02 -0.11943196248E+03  0.20573851548E+03  0.10100000352E+00 0. -1.
       -3    1    3    3    0  502  0.15011511190E+03  0.74362531339E+02 -0.10784680989E+04  0.10914017517E+04  0.10100000352E+00 0.  1.
</event>
<event>
 5   0  0.1782124E-01  0.4910798E+03  0.7818609E-02  0.1016134E+00
        2   -1    0    0  501    0  0.00000000000E+00  0.00000000000E+00  0.20280731517E+04  0.20280731517E+04  0.25500000920E-02 0. -1.
       -2   -1    0    0    0  501  0.00000000000E+00  0.00000000000E+00 -0.29727649932E+02  0.29727650042E+02  0.25500000920E-02 0.  1.
    10030    2    1    2    0    0  0.00000000000E+00  0.00000000000E+00  0.19983455017E+04  0.20578008017E+04  0.49107982570E+03 0.  0.
        3    1    3    3  502    0  0.36834025820E+02 -0.13656524375E+03  0.18402043040E+04  0.18456323312E+04  0.10100000352E+00 0. -1.
       -3    1    3    3    0  502 -0.36834025820E+02  0.13656524375E+03  0.15814119770E+03  0.21216847049E+03  0.10100000352E+00 0.  1.
</event>
<event>
 5   0  0.1068522E-01  0.4969262E+03  0.7818609E-02  0.1014584E+00
       -1   -1    0    0    0  501  0.00000000000E+00  0.00000000000E+00  0.53436202368E+02  0.53436202606E+02  0.50400001928E-02 0. -1.
        1   -1    0    0  501    0  0.00000000000E+00  0.00000000000E+00 -0.11552825409E+04  0.11552825409E+04  0.50400001928E-02 0.  1.
    10030    2    1    2    0    0  0.00000000000E+00  0.00000000000E+00 -0.11018463385E+04  0.12087187435E+04  0.49692619894E+03 0.  0.
        2    1    3    3  502    0  0.17133717278E+03  0.17993180486E+03 -0.54745702080E+03  0.60119969296E+03  0.25500000920E-02 0. -1.
       -2    1    3    3    0  502 -0.17133717278E+03 -0.17993180486E+03 -0.55438931772E+03  0.60751905055E+03  0.25500000920E-02 0.  1.
</event>
<event>
 5   0  0.1782124E-01  0.4967365E+03  0.7818609E-02  0.1014634E+00
       -2   -1    0    0    0  501  0.00000000000E+00  0.00000000000E+00  0.68953045296E+02  0.68953045343E+02  0.25500000920E-02 0. -1.
        2   -1    0    0  501    0  0.00000000000E+00  0.00000000000E+00 -0.89462036632E+03  0.89462036632E+03  0.25500000920E-02 0.  1.
    10030    2    1    2    0    0  0.00000000000E+00  0.00000000000E+00 -0.82566732102E+03  0.96357341167E+03  0.49673654452E+03 0.  0.
        3    1    3    3  502    0 -0.22467230039E+03  0.84145191186E+02 -0.53747642696E+03  0.58859066889E+03  0.10100000352E+00 0. -1.
       -3    1    3    3    0  502  0.22467230039E+03 -0.84145191186E+02 -0.28819089406E+03  0.37498274278E+03  0.10100000352E+00 0.  1.
</event>
<event>
 5   0  0.1123271E-01  0.5045922E+03  0.7818609E-02  0.1012587E+00
       -1   -1    0    0    0  501  0.00000000000E+00  0.00000000000E+00  0.45437251772E+03  0.45437251775E+03  0.50400001928E-02 0.  1.
        1   -1    0    0  501    0  0.00000000000E+00  0.00000000000E+00 -0.14009059291E+03  0.14009059300E+03  0.50400001928E-02 0. -1.
    10030    2    1    2    0    0  0.00000000000E+00  0.00000000000E+00  0.31428192482E+03  0.59446311075E+03  0.50459217371E+03 0.  0.
        5    1    3    3  502    0 -0.28283987135E+02  0.70503213008E+01  0.45233009351E+03  0.45329272491E+03  0.46999998093E+01 0.  1.
       -5    1    3    3    0  502  0.28283987135E+02 -0.70503213008E+01 -0.13804816870E+03  0.14117038584E+03  0.46999998093E+01 0. -1.
</event>
<event>
 5   0  0.1068522E-01  0.4988236E+03  0.7818609E-02  0.1014086E+00
       -1   -1    0    0    0  501  0.00000000000E+00  0.00000000000E+00  0.43672238557E+02  0.43672238847E+02  0.50400001928E-02 0. -1.
        1   -1    0    0  501    0  0.00000000000E+00  0.00000000000E+00 -0.14243887548E+04  0.14243887548E+04  0.50400001928E-02 0.  1.
    10030    2    1    2    0    0  0.00000000000E+00  0.00000000000E+00 -0.13807165163E+04  0.14680609937E+04  0.49882359895E+03 0.  0.
        2    1    3    3  502    0  0.24623006735E+03  0.36292510457E+02 -0.73780006814E+03  0.77864968563E+03  0.25500000920E-02 0.  1.
       -2    1    3    3    0  502 -0.24623006735E+03 -0.36292510457E+02 -0.64291644814E+03  0.68941130805E+03  0.25500000920E-02 0. -1.
</event>
<event>
 5   0  0.1760649E-01  0.4993032E+03  0.7818609E-02  0.1013961E+00
       -2   -1    0    0    0  501  0.00000000000E+00  0.00000000000E+00  0.89891129907E+02  0.89891129943E+02  0.25500000920E-02 0. -1.
        2   -1    0    0  501    0  0.00000000000E+00  0.00000000000E+00 -0.69334909708E+03  0.69334909708E+03  0.25500000920E-02 0.  1.
    10030    2    1    2    0    0  0.00000000000E+00  0.00000000000E+00 -0.60345796717E+03  0.78324022702E+03  0.49930324963E+03 0.  0.
        5    1    3    3  502    0 -0.19002211516E+03 -0.96514005338E+02 -0.50553784786E+03  0.54864739414E+03  0.46999998093E+01 0.  1.
       -5    1    3    3    0  502  0.19002211516E+03  0.96514005338E+02 -0.97920119312E+02  0.23459283289E+03  0.46999998093E+01 0. -1.
</event>
<event>
 5   0  0.1147245E-01  0.6311821E+03  0.7818609E-02  0.9842745E-01
       -1   -1    0    0    0  501  0.00000000000E+00  0.00000000000E+00  0.99704516931E+02  0.99704517058E+02  0.50400001928E-02 0. -1.
        1   -1    0    0  501    0  0.00000000000E+00  0.00000000000E+00 -0.99892887971E+03  0.99892887972E+03  0.50400001928E-02 0.  1.
    10030    2    1    2    0    0  0.00000000000E+00  0.00000000000E+00 -0.89922436278E+03  0.10986333968E+04  0.63118213370E+03 0.  0.
        1    1    3    3  502    0 -0.28360229179E+03 -0.57564990864E+02 -0.23045087805E+03  0.36993458247E+03  0.50400001928E-02 0. -1.
       -1    1    3    3    0  502  0.28360229179E+03  0.57564990864E+02 -0.66877348472E+03  0.72869881431E+03  0.50400001928E-02 0.  1.
</event>
<event>
 5   0  0.1147245E-01  0.5010035E+03  0.7818609E-02  0.1013517E+00
        1   -1    0    0  501    0  0.00000000000E+00  0.00000000000E+00  0.34941660098E+03  0.34941660102E+03  0.50400001928E-02 0. -1.
       -1   -1    0    0    0  501  0.00000000000E+00  0.00000000000E+00 -0.17958827730E+03  0.17958827737E+03  0.50400001928E-02 0.  1.
    10030    2    1    2    0    0  0.00000000000E+00  0.00000000000E+00  0.16982832368E+03  0.52900487839E+03  0.50100349484E+03 0.  0.
        1    1    3    3  502    0  0.36574366135E+02  0.13572134454E+03 -0.13402255145E+03  0.19421640493E+03  0.50400001928E-02 0.  1.
       -1    1    3    3    0  502 -0.36574366135E+02 -0.13572134454E+03  0.30385087513E+03  0.33478847346E+03  0.50400001928E-02 0. -1.
</event>
<event>
 5   0  0.1782124E-01  0.4667023E+03  0.7818609E-02  0.1022855E+00
       -2   -1    0    0    0  501  0.00000000000E+00  0.00000000000E+00  0.85272792345E+02  0.85272792383E+02  0.25500000920E-02 0. -1.
        2   -1    0    0  501    0  0.00000000000E+00  0.00000000000E+00 -0.63857135980E+03  0.63857135981E+03  0.25500000920E-02 0.  1.
    10030    2    1    2    0    0  0.00000000000E+00  0.00000000000E+00 -0.55329856746E+03  0.72384415219E+03  0.46670231616E+03 0.  0.
        3    1    3    3  502    0 -0.20684531225E+02 -0.71644219951E+01 -0.63697536822E+03  0.63735140127E+03  0.10100000352E+00 0.  1.
       -3    1    3    3    0  502  0.20684531225E+02  0.71644219951E+01  0.83676800766E+02  0.86492750921E+02  0.10100000352E+00 0. -1.
</event>
<event>
 5   0  0.1068522E-01  0.4942942E+03  0.7818609E-02  0.1015279E+00
        1   -1    0    0  501    0  0.00000000000E+00  0.00000000000E+00  0.18430874639E+03  0.18430874646E+03  0.50400001928E-02 0.  1.
       -1   -1    0    0    0  501  0.00000000000E+00  0.00000000000E+00 -0.33140957554E+03  0.33140957558E+03  0.50400001928E-02 0. -1.
    10030    2    1    2    0    0  0.00000000000E+00  0.00000000000E+00 -0.14710082915E+03  0.51571832204E+03  0.49429417734E+03 0.  0.
        2    1    3    3  502    0 -0.22943364593E+03  0.77278059236E+02 -0.12540347687E+03  0.27264946055E+03  0.25500000920E-02 0.  1.
       -2    1    3    3    0  502  0.22943364593E+03 -0.77278059236E+02 -0.21697352273E+02  0.24306886149E+03  0.25500000920E-02 0. -1.
</event>
<event>
 5   0  0.1074281E-01  0.4478537E+03  0.7818609E-02  0.1028364E+00
       -1   -1    0    0    0  501  0.00000000000E+00  0.00000000000E+00  0.41502705667E+03  0.41502705670E+03  0.50400001928E-02 0.  1.
        1   -1    0    0  501    0  0.00000000000E+00  0.00000000000E+00 -0.12081917527E+03  0.12081917537E+03  0.50400001928E-02 0. -1.
    10030    2    1    2    0    0  0.00000000000E+00  0.00000000000E+00  0.29420788140E+03  0.53584623208E+03  0.44785366689E+03 0.  0.
        4    1    3    3  502    0 -0.18574255261E+03 -0.82827213940E+02  0.25922193210E+03  0.32948181468E+03  0.12699999809E+01 0.  1.
       -4    1    3    3    0  502  0.18574255261E+03  0.82827213940E+02  0.34985949300E+02  0.20636441740E+03  0.12699999809E+01 0. -1.
</event>
<event>
 5   0  0.1760649E-01  0.4991711E+03  0.7818609E-02  0.1013996E+00
        2   -1    0    0  501    0  0.00000000000E+00  0.00000000000E+00  0.16156825012E+04  0.16156825012E+04  0.25500000920E-02 0. -1.
       -2   -1    0    0    0  501  0.00000000000E+00  0.00000000000E+00 -0.38555182971E+02  0.38555183055E+02  0.25500000920E-02 0.  1.
    10030    2    1    2    0    0  0.00000000000E+00  0.00000000000E+00  0.15771273182E+04  0.16542376843E+04  0.49917105095E+03 0.  0.
        5    1    3    3  502    0  0.63486091624E+01 -0.24648475778E+03  0.66125356413E+03  0.70574315918E+03  0.46999998093E+01 0.  1.
       -5    1    3    3    0  502 -0.63486091624E+01  0.24648475778E+03  0.91587375410E+03  0.94849452508E+03  0.46999998093E+01 0. -1.
</event>
<event>
 5   0  0.1123271E-01  0.5032699E+03  0.7818609E-02  0.1012929E+00
        1   -1    0    0  501    0  0.00000000000E+00  0.00000000000E+00  0.99185467862E+03  0.99185467863E+03  0.50400001928E-02 0. -1.
       -1   -1    0    0    0  501  0.00000000000E+00  0.00000000000E+00 -0.63840138109E+02  0.63840138308E+02  0.50400001928E-02 0.  1.
    10030    2    1    2    0    0  0.00000000000E+00  0.00000000000E+00  0.92801454051E+03  0.10556948169E+04  0.50326986708E+03 0.  0.
        5    1    3    3  502    0 -0.13079218596E+03 -0.65145543681E+02  0.34381261593E+02  0.15018221904E+03  0.46999998093E+01 0.  1.
       -5    1    3    3    0  502  0.13079218596E+03  0.65145543681E+02  0.89363327892E+03  0.90551259790E+03  0.46999998093E+01 0. -1.
</event>
<event>
 5   0  0.1782124E-01  0.5005262E+03  0.7818609E-02  0.1013642E+00
        2   -1    0    0  501    0  0.00000000000E+00  0.00000000000E+00  0.35440946824E+03  0.35440946825E+03  0.25500000920E-02 0.  1.
       -2   -1    0    0    0  501  0.00000000000E+00  0.00000000000E+00 -0.17672108783E+03  0.17672108784E+03  0.25500000920E-02 0. -1.
    10030    2    1    2    0    0  0.00000000000E+00  0.00000000000E+00  0.17768838042E+03  0.53113055610E+03  0.50052623017E+03 0.  0.
        3    1    3    3  502    0 -0.79198689218E+01 -0.24934119997E+03  0.11001018211E+03  0.27264630695E+03  0.10100000352E+00 0. -1.
       -3    1    3    3    0  502  0.79198689218E+01  0.24934119997E+03  0.67678198309E+02  0.25848424914E+03  0.10100000352E+00 0.  1.
</event>
<event>
 5   0  0.1068522E-01  0.4993861E+03  0.7818609E-02  0.1013939E+00
        1   -1    0    0  501    0  0.00000000000E+00  0.00000000000E+00  0.25589066416E+03  0.25589066421E+03  0.50400001928E-02 0. -1.
       -1   -1    0    0    0  501  0.00000000000E+00  0.00000000000E+00 -0.24364551448E+03  0.24364551453E+03  0.50400001928E-02 0.  1.
    10030    2    1    2    0    0  0.00000000000E+00  0.00000000000E+00  0.12245149683E+02  0.49953617875E+03  0.49938607328E+03 0.  0.
        2    1    3    3  502    0 -0.77726584298E+01  0.22285597815E+02  0.25477233141E+03  0.25586325048E+03  0.25500000920E-02 0. -1.
       -2    1    3    3    0  502  0.77726584298E+01 -0.22285597815E+02 -0.24252718172E+03  0.24367292827E+03  0.25500000920E-02 0.  1.
</event>
<event>
 5   0  0.1068522E-01  0.5057393E+03  0.7818609E-02  0.1012292E+00
       -1   -1    0    0    0  501  0.00000000000E+00  0.00000000000E+00  0.29074339138E+02  0.29074339575E+02  0.50400001928E-02 0. -1.
        1   -1    0    0  501    0  0.00000000000E+00  0.00000000000E+00 -0.21992952062E+04  0.21992952062E+04  0.50400001928E-02 0.  1.
    10030    2    1    2    0    0  0.00000000000E+00  0.00000000000E+00 -0.21702208670E+04  0.22283695457E+04  0.50573928138E+03 0.  0.
        2    1    3    3  502    0 -0.15853104349E+03 -0.10990174646E+03 -0.18055223370E+04  0.18157977296E+04  0.25500000920E-02 0.  1.
       -2    1    3    3    0  502  0.15853104349E+03  0.10990174646E+03 -0.36469853007E+03  0.41257181613E+03  0.25500000920E-02 0. -1.
</event>
<event>
 5   0  0.1074281E-01  0.4940198E+03  0.7818609E-02  0.1015352E+00
        1   -1    0    0  501    0  0.00000000000E+00  0.00000000000E+00  0.98176862728E+03  0.98176862729E+03  0.50400001928E-02 0. -1.
       -1   -1    0    0    0  501  0.00000000000E+00  0.00000000000E+00 -0.62146906600E+02  0.62146906804E+02  0.50400001928E-02 0.  1.
    10030    2    1    2    0    0  0.00000000000E+00  0.00000000000E+00  0.91962172068E+03  0.10439155341E+04  0.49401977003E+03 0.  0.
        4    1    3    3  502    0 -0.15222993337E+02  0.19118845860E+03  0.13090215406E+03  0.23221057914E+03  0.12699999809E+01 0.  1.
       -4    1    3    3    0  502  0.15222993337E+02 -0.19118845860E+03  0.78871956662E+03  0.81170495495E+03  0.12699999809E+01 0. -1.
</event>
<event>
 5   0  0.1068522E-01  0.4967035E+03  0.7818609E-02  0.1014643E+00
       -1   -1    0    0    0  501  0.00000000000E+00  0.00000000000E+00  0.16698592126E+03  0.16698592134E+03  0.50400001928E-02 0.  1.
        1   -1    0    0  501    0  0.00000000000E+00  0.00000000000E+00 -0.36936406617E+03  0.36936406621E+03  0.50400001928E-02 0. -1.
    10030    2    1    2    0    0  0.00000000000E+00  0.00000000000E+00 -0.20237814491E+03  0.53634998755E+03  0.49670352888E+03 0.  0.
        2    1    3    3  502    0  0.99000407687E+02  0.46166119721E+02 -0.34203040319E+03  0.35905039764E+03  0.25500000920E-02 0. -1.
       -2    1    3    3    0  502 -0.99000407687E+02 -0.46166119721E+02  0.13965225828E+03  0.17729958991E+03  0.25500000920E-02 0.  1.
</event>
<event>
 5   0  0.1683148E-01  0.4869983E+03  0.7818609E-02  0.1017229E+00
       -2   -1    0    0    0  501  0.00000000000E+00  0.00000000000E+00  0.62628118511E+02  0.62628118563E+02  0.25500000920E-02 0.  1.
        2   -1    0    0  501    0  0.00000000000E+00  0.00000000000E+00 -0.94672876163E+03  0.94672876163E+03  0.25500000920E-02 0. -1.
    10030    2    1    2    0    0  0.00000000000E+00  0.00000000000E+00 -0.88410064312E+03  0.10093568802E+04  0.48699832077E+03 0.  0.
        2    1    3    3  502    0  0.68116294184E+02  0.22917630196E+03 -0.34639019315E+03  0.42088926433E+03  0.25500000920E-02 0.  1.
       -2    1    3    3    0  502 -0.68116294184E+02 -0.22917630196E+03 -0.53771044997E+03  0.58846761586E+03  0.25500000920E-02 0. -1.
</event>
<event>
 5   0  0.1827698E-01  0.5033267E+03  0.7818609E-02  0.1012914E+00
        2   -1    0    0  501    0  0.00000000000E+00  0.00000000000E+00  0.14555715459E+04  0.14555715459E+04  0.25500000920E-02 0. -1.
       -2   -1    0    0    0  501  0.00000000000E+00  0.00000000000E+00 -0.43511740870E+02  0.43511740945E+02  0.25500000920E-02 0.  1.
    10030    2    1    2    0    0  0.00000000000E+00  0.00000000000E+00  0.14120598050E+04  0.14990832868E+04  0.50332674072E+03 0.  0.
        1    1    3    3  502    0  0.12404530168E+02  0.20042815035E+02  0.14522767139E+04  0.14524679826E+04  0.50400001928E-02 0. -1.
       -1    1    3    3    0  502 -0.12404530168E+02 -0.20042815035E+02 -0.40216908868E+02  0.46615304220E+02  0.50400001928E-02 0.  1.
</event>
<event>
 5   0  0.1782124E-01  0.5001435E+03  0.7818609E-02  0.1013741E+00
       -2   -1    0    0    0  501  0.00000000000E+00  0.00000000000E+00  0.17954414153E+03  0.17954414155E+03  0.25500000920E-02 0. -1.
        2   -1    0    0  501    0  0.00000000000E+00  0.00000000000E+00 -0.34830362650E+03  0.34830362651E+03  0.25500000920E-02 0.  1.
    10030    2    1    2    0    0  0.00000000000E+00  0.00000000000E+00 -0.16875948497E+03  0.52784776806E+03  0.50014348189E+03 0.  0.
        3    1    3    3  502    0 -0.12167873898E+03 -0.10865955668E+03  0.11565336905E+03  0.19997081475E+03  0.10100000352E+00 0. -1.
       -3    1    3    3    0  502  0.12167873898E+03  0.10865955668E+03 -0.28441285402E+03  0.32787695331E+03  0.10100000352E+00 0.  1.
</event>
<event>
 5   0  0.1827698E-01  0.4925436E+03  0.7818609E-02  0.1015744E+00
        2   -1    0    0  501    0  0.00000000000E+00  0.00000000000E+00  0.18376787129E+04  0.18376787129E+04  0.25500000920E-02 0. -1.
       -2   -1    0    0    0  501  0.00000000000E+00  0.00000000000E+00 -0.33003489795E+02  0.33003489894E+02  0.25500000920E-02 0.  1.
    10030    2    1    2    0    0  0.00000000000E+00  0.00000000000E+00  0.18046752231E+04  0.18706822028E+04  0.49254364575E+03 0.  0.
        1    1    3    3  502    0 -0.35136332328E+01 -0.17428459795E+03  0.24163415969E+03  0.29795055606E+03  0.50400001928E-02 0.  1.
       -1    1    3    3    0  502  0.35136332328E+01  0.17428459795E+03  0.15630410635E+04  0.15727316468E+04  0.50400001928E-02 0. -1.
</event>
<event>
 5   0  0.1709372E-01  0.5076889E+03  0.7818609E-02  0.1011791E+00
        2   -1    0    0  501    0  0.00000000000E+00  0.00000000000E+00  0.11149496356E+03  0.11149496359E+03  0.25500000920E-02 0. -1.
       -2   -1    0    0    0  501  0.00000000000E+00  0.00000000000E+00 -0.57793649345E+03  0.57793649345E+03  0.25500000920E-02 0.  1.
    10030    2    1    2    0    0  0.00000000000E+00  0.00000000000E+00 -0.46644152989E+03  0.68943145705E+03  0.50768891377E+03 0.  0.
        4    1    3    3  502    0 -0.99816590733E+02  0.16803460903E+03 -0.13259782337E+02  0.19589899526E+03  0.12699999809E+01 0. -1.
       -4    1    3    3    0  502  0.99816590733E+02 -0.16803460903E+03 -0.45318174755E+03  0.49353246178E+03  0.12699999809E+01 0.  1.
</event>
<event>
 5   0  0.1147245E-01  0.4821353E+03  0.7818609E-02  0.1018550E+00
        1   -1    0    0  501    0  0.00000000000E+00  0.00000000000E+00  0.82480725283E+03  0.82480725284E+03  0.50400001928E-02 0.  1.
       -1   -1    0    0    0  501  0.00000000000E+00  0.00000000000E+00 -0.70457192046E+02  0.70457192226E+02  0.50400001928E-02 0. -1.
    10030    2    1    2    0    0  0.00000000000E+00  0.00000000000E+00  0.75435006078E+03  0.89526444507E+03  0.48213526360E+03 0.  0.
        1    1    3    3  502    0 -0.51818887888E+02 -0.15082716540E+02  0.81344527004E+03  0.81523364311E+03  0.50400001928E-02 0.  1.
       -1    1    3    3    0  502  0.51818887888E+02  0.15082716540E+02 -0.59095209256E+02  0.80030801962E+02  0.50400001928E-02 0. -1.
</event>
<event>
 5   0  0.1147245E-01  0.5021975E+03  0.7818609E-02  0.1013207E+00
        1   -1    0    0  501    0  0.00000000000E+00  0.00000000000E+00  0.95471494812E+02  0.95471494945E+02  0.50400001928E-02 0.  1.
       -1   -1    0    0    0  501  0.00000000000E+00  0.00000000000E+00 -0.66041261682E+03  0.66041261684E+03  0.50400001928E-02 0. -1.
    10030    2    1    2    0    0  0.00000000000E+00  0.00000000000E+00 -0.56494112201E+03  0.75588411179E+03  0.50219749015E+03 0.  0.
        1    1    3    3  502    0  0.18289171870E+03 -0.14917168947E+03 -0.15343928823E+03  0.28150522004E+03  0.50400001928E-02 0.  1.
       -1    1    3    3    0  502 -0.18289171870E+03  0.14917168947E+03 -0.41150183378E+03  0.47437889175E+03  0.50400001928E-02 0. -1.
</event>
<event>
 5   0  0.1123271E-01  0.4933376E+03  0.7818609E-02  0.1015533E+00
        1   -1    0    0  501    0  0.00000000000E+00  0.00000000000E+00  0.14846013586E+04  0.14846013587E+04  0.50400001928E-02 0. -1.
       -1   -1    0    0    0  501  0.00000000000E+00  0.00000000000E+00 -0.40984408051E+02  0.40984408361E+02  0.50400001928E-02 0.  1.
    10030    2    1    2    0    0  0.00000000000E+00  0.00000000000E+00  0.14436169506E+04  0.15255857670E+04  0.49333764551E+03 0.  0.
        5    1    3    3  502    0 -0.19991513905E+03  0.40878365653E+02  0.11501480008E+04  0.11681179810E+04  0.46999998093E+01 0. -1.
       -5    1    3    3    0  502  0.19991513905E+03 -0.40878365653E+02  0.29346894975E+03  0.35746778605E+03  0.46999998093E+01 0.  1.
</event>
<event>
 5   0  0.1074281E-01  0.5043120E+03  0.7818609E-02  0.1012660E+00
       -1   -1    0    0    0  501  0.00000000000E+00  0.00000000000E+00  0.22754002475E+03  0.22754002481E+03  0.50400001928E-02 0.  1.
        1   -1    0    0  501    0  0.00000000000E+00  0.00000000000E+00 -0.27943499586E+03  0.27943499591E+03  0.50400001928E-02 0. -1.
    10030    2    1    2    0    0  0.00000000000E+00  0.00000000000E+00 -0.51894971109E+02  0.50697502072E+03  0.50431199035E+03 0.  0.
        4    1    3    3  502    0 -0.25126214480E+03 -0.10438186023E+02 -0.44467903197E+02  0.25538329713E+03  0.12699999809E+01 0. -1.
       -4    1    3    3    0  502  0.25126214480E+03  0.10438186023E+02 -0.74270679123E+01  0.25159172359E+03  0.12699999809E+01 0.  1.
</event>
<event>
 5   0  0.1074281E-01  0.5092349E+03  0.7818609E-02  0.1011396E+00
       -1   -1    0    0    0  501  0.00000000000E+00  0.00000000000E+00  0.46728050812E+03  0.46728050815E+03  0.50400001928E-02 0.  1.
        1   -1    0    0  501    0  0.00000000000E+00  0.00000000000E+00 -0.13873902213E+03  0.13873902222E+03  0.50400001928E-02 0. -1.
    10030    2    1    2    0    0  0.00000000000E+00  0.00000000000E+00  0.32854148599E+03  0.60601953037E+03  0.50923488016E+03 0.  0.
        4    1    3    3  502    0  0.20568205516E+03 -0.57066083576E+02 -0.91519403370E+00  0.21345748098E+03  0.12699999809E+01 0. -1.
       -4    1    3    3    0  502 -0.20568205516E+03  0.57066083576E+02  0.32945668002E+03  0.39256204939E+03  0.12699999809E+01 0.  1.
</event>
<event>
 5   0  0.1147245E-01  0.5015600E+03  0.7818609E-02  0.1013373E+00
        1   -1    0    0  501    0  0.00000000000E+00  0.00000000000E+00  0.64937972241E+02  0.64937972437E+02  0.50400001928E-02 0.  1.
       -1   -1    0    0    0  501  0.00000000000E+00  0.00000000000E+00 -0.96847203734E+03  0.96847203735E+03  0.50400001928E-02 0. -1.
    10030    2    1    2    0    0  0.00000000000E+00  0.00000000000E+00 -0.90353406510E+03  0.10334100098E+04  0.50156000792E+03 0.  0.
        1    1    3    3  502    0  0.20260305058E+03 -0.74132186829E+02 -0.18833460453E+03  0.28637999322E+03  0.50400001928E-02 0.  1.
       -1    1    3    3    0  502 -0.20260305058E+03  0.74132186829E+02 -0.71519946057E+03  0.74703001657E+03  0.50400001928E-02 0. -1.
</event>
<event>
 5   0  0.1709372E-01  0.5013416E+03  0.7818609E-02  0.1013429E+00
        2   -1    0    0  501    0  0.00000000000E+00  0.00000000000E+00  0.75933385922E+03  0.75933385922E+03  0.25500000920E-02 0.  1.
       -2   -1    0    0    0  501  0.00000000000E+00  0.00000000000E+00 -0.82751265715E+02  0.82751265755E+02  0.25500000920E-02 0. -1.
    10030    2    1    2    0    0  0.00000000000E+00  0.00000000000E+00  0.67658259350E+03  0.84208512498E+03  0.50134155211E+03 0.  0.
        4    1    3    3  502    0 -0.15111699191E+03 -0.74467643587E+02  0.65005987998E+03  0.67153647380E+03  0.12699999809E+01 0.  1.
       -4    1    3    3    0  502  0.15111699191E+03  0.74467643587E+02  0.26522713524E+02  0.17054865118E+03  0.12699999809E+01 0. -1.
</event>
<event>
 5   0  0.1068522E-01  0.4887157E+03  0.7818609E-02  0.1016767E+00
       -1   -1    0    0    0  501  0.00000000000E+00  0.00000000000E+00  0.88994391264E+02  0.88994391407E+02  0.50400001928E-02 0. -1.
        1   -1    0    0  501    0  0.00000000000E+00  0.00000000000E+00 -0.67094980132E+03  0.67094980134E+03  0.50400001928E-02 0.  1.
    10030    2    1    2    0    0  0.00000000000E+00  0.00000000000E+00 -0.58195541005E+03  0.75994419274E+03  0.48871574232E+03 0.  0.
        2    1    3    3  502    0 -0.17998391463E+02  0.20970957877E+03 -0.48400052184E+03  0.52778646693E+03  0.25500000920E-02 0.  1.
       -2    1    3    3    0  502  0.17998391463E+02 -0.20970957877E+03 -0.97954888214E+02  0.23215772582E+03  0.25500000920E-02 0. -1.
</event>
<event>
 5   0  0.1141970E-01  0.5246575E+03  0.7818609E-02  0.1007536E+00
        1   -1    0    0  501    0  0.00000000000E+00  0.00000000000E+00  0.13355150373E+03  0.13355150383E+03  0.50400001928E-02 0.  1.
       -1   -1    0    0    0  501  0.00000000000E+00  0.00000000000E+00 -0.51527964742E+03  0.51527964744E+03  0.50400001928E-02 0. -1.
    10030    2    1    2    0    0  0.00000000000E+00  0.00000000000E+00 -0.38172814369E+03  0.64883115127E+03  0.52465749511E+03 0.  0.
        3    1    3    3  502    0  0.88377920753E+02 -0.23696531581E+03 -0.10471166954E+03  0.27372935852E+03  0.10100000352E+00 0.  1.
       -3    1    3    3    0  502 -0.88377920753E+02  0.23696531581E+03 -0.27701647415E+03  0.37510179275E+03  0.10100000352E+00 0. -1.
</event>
<event>
 5   0  0.1760649E-01  0.5035502E+03  0.7818609E-02  0.1012856E+00
        2   -1    0    0  501    0  0.00000000000E+00  0.00000000000E+00  0.30798075050E+03  0.30798075052E+03  0.25500000920E-02 0. -1.
       -2   -1    0    0    0  501  0.00000000000E+00  0.00000000000E+00 -0.20582685856E+03  0.20582685857E+03  0.25500000920E-02 0.  1.
    10030    2    1    2    0    0  0.00000000000E+00  0.00000000000E+00  0.10215389195E+03  0.51380760909E+03  0.50355023733E+03 0.  0.
        5    1    3    3  502    0 -0.11768731021E+03  0.28045436026E+02 -0.17417254775E+03  0.21212028629E+03  0.46999998093E+01 0.  1.
       -5    1    3    3    0  502  0.11768731021E+03 -0.28045436026E+02  0.27632643970E+03  0.30168732280E+03  0.46999998093E+01 0. -1.
</event>
<event>
 5   0  0.1068522E-01  0.4918152E+03  0.7818609E-02  0.1015938E+00
       -1   -1    0    0    0  501  0.00000000000E+00  0.00000000000E+00  0.37828121910E+03  0.37828121913E+03  0.50400001928E-02 0.  1.
        1   -1    0    0  501    0  0.00000000000E+00  0.00000000000E+00 -0.15985606823E+03  0.15985606831E+03  0.50400001928E-02 0. -1.
    10030    2    1    2    0    0  0.00000000000E+00  0.00000000000E+00  0.21842515086E+03  0.53813728744E+03  0.49181520270E+03 0.  0.
        2    1    3    3  502    0  0.28491299853E+02 -0.58529467559E+02  0.36868256367E+03  0.37438521005E+03  0.25500000920E-02 0.  1.
       -2    1    3    3    0  502 -0.28491299853E+02  0.58529467559E+02 -0.15025741281E+03  0.16375207739E+03  0.25500000920E-02 0. -1.
</event>
<event>
 5   0  0.1141970E-01  0.5047002E+03  0.7818609E-02  0.1012559E+00
        1   -1    0    0  501    0  0.00000000000E+00  0.00000000000E+00  0.12648461040E+04  0.12648461040E+04  0.50400001928E-02 0.  1.
       -1   -1    0    0    0  501  0.00000000000E+00  0.00000000000E+00 -0.50346500218E+02  0.50346500470E+02  0.50400001928E-02 0. -1.
    10030    2    1    2    0    0  0.00000000000E+00  0.00000000000E+00  0.12144996038E+04  0.13151926045E+04  0.50470020734E+03 0.  0.
        3    1    3    3  502    0  0.12860962537E+03  0.10402287845E+03  0.11038707402E+04  0.11161952411E+04  0.10100000352E+00 0.  1.
       -3    1    3    3    0  502 -0.12860962537E+03 -0.10402287845E+03  0.11062886361E+03  0.19899736341E+03  0.10100000352E+00 0. -1.
</event>
<event>
 5   0  0.1123271E-01  0.4971296E+03  0.7818609E-02  0.1014531E+00
        1   -1    0    0  501    0  0.00000000000E+00  0.00000000000E+00  0.61105395390E+02  0.61105395597E+02  0.50400001928E-02 0. -1.
       -1   -1    0    0    0  501  0.00000000000E+00  0.00000000000E+00 -0.10111131513E+04  0.10111131513E+04  0.50400001928E-02 0.  1.
    10030    2    1    2    0    0  0.00000000000E+00  0.00000000000E+00 -0.95000775591E+03  0.10722185469E+04  0.49712963706E+03 0.  0.
        5    1    3    3  502    0 -0.14337917865E+03 -0.15354138620E+03 -0.76138062910E+03  0.78984498385E+03  0.46999998093E+01 0.  1.
       -5    1    3    3    0  502  0.14337917865E+03  0.15354138620E+03 -0.18862712681E+03  0.28237356306E+03  0.46999998093E+01 0. -1.
</event>
<event>
 5   0  0.7220250E-02  0.5004758E+03  0.7818609E-02  0.1013655E+00
       -3   -1    0    0    0  501  0.00000000000E+00  0.00000000000E+00  0.14426634968E+03  0.14426638504E+03  0.10100000352E+00 0.  1.
        3   -1    0    0  501    0  0.00000000000E+00  0.00000000000E+00 -0.43405121800E+03  0.43405122975E+03  0.10100000352E+00 0. -1.
    10030    2    1    2    0    0  0.00000000000E+00  0.00000000000E+00 -0.28978486831E+03  0.57831761479E+03  0.50047576731E+03 0.  0.
        3    1    3    3  502    0 -0.66633116218E+02 -0.23930804687E+03 -0.17976348321E+03  0.30663208176E+03  0.10100000352E+00 0. -1.
       -3    1    3    3    0  502  0.66633116218E+02  0.23930804687E+03 -0.11002138510E+03  0.27168553302E+03  0.10100000352E+00 0.  1.
</event>
<event>
 5   0  0.1683148E-01  0.5077409E+03  0.7818609E-02  0.1011778E+00
        2   -1    0    0  501    0  0.00000000000E+00  0.00000000000E+00  0.40480871767E+02  0.40480871847E+02  0.25500000920E-02 0.  1.
       -2   -1    0    0    0  501  0.00000000000E+00  0.00000000000E+00 -0.15921147839E+04  0.15921147840E+04  0.25500000920E-02 0. -1.
    10030    2    1    2    0    0  0.00000000000E+00  0.00000000000E+00 -0.15516339122E+04  0.16325956558E+04  0.50774085703E+03 0.  0.
        2    1    3    3  502    0 -0.52449866436E+02 -0.88915724090E+02 -0.30055017142E+02  0.10751882878E+03  0.25500000920E-02 0.  1.
       -2    1    3    3    0  502  0.52449866436E+02  0.88915724090E+02 -0.15215788950E+04  0.15250768270E+04  0.25500000920E-02 0. -1.
</event>
<event>
 5   0  0.1683148E-01  0.5530594E+03  0.7818609E-02  0.1000788E+00
        2   -1    0    0  501    0  0.00000000000E+00  0.00000000000E+00  0.22813045834E+04  0.22813045834E+04  0.25500000920E-02 0. -1.
       -2   -1    0    0    0  501  0.00000000000E+00  0.00000000000E+00 -0.33519717354E+02  0.33519717451E+02  0.25500000920E-02 0.  1.
    10030    2    1    2    0    0  0.00000000000E+00  0.00000000000E+00  0.22477848660E+04  0.23148243008E+04  0.55305943603E+03 0.  0.
        2    1    3    3  502    0  0.13896415547E+03  0.19336516226E+03  0.53542452142E+03  0.58598680926E+03  0.25500000920E-02 0.  1.
       -2    1    3    3    0  502 -0.13896415547E+03 -0.19336516226E+03  0.17123603446E+04  0.17288374916E+04  0.25500000920E-02 0. -1.
</event>
<event>
 5   0  0.1782124E-01  0.4949865E+03  0.7818609E-02  0.1015096E+00
       -2   -1    0    0    0  501  0.00000000000E+00  0.00000000000E+00  0.45016629574E+02  0.45016629647E+02  0.25500000920E-02 0.  1.
        2   -1    0    0  501    0  0.00000000000E+00  0.00000000000E+00 -0.13606731889E+04  0.13606731889E+04  0.25500000920E-02 0. -1.
    10030    2    1    2    0    0  0.00000000000E+00  0.00000000000E+00 -0.13156565594E+04  0.14056898186E+04  0.49498654919E+03 0.  0.
        3    1    3    3  502    0 -0.49138094657E+02 -0.17481776626E+03 -0.18028406346E+03  0.25588700140E+03  0.10100000352E+00 0.  1.
       -3    1    3    3    0  502  0.49138094657E+02  0.17481776626E+03 -0.11353724959E+04  0.11498028172E+04  0.10100000352E+00 0. -1.
</event>
<event>
 5   0  0.1709372E-01  0.4978793E+03  0.7818609E-02  0.1014334E+00
       -2   -1    0    0    0  501  0.00000000000E+00  0.00000000000E+00  0.17961555827E+03  0.17961555829E+03  0.25500000920E-02 0. -1.
        2   -1    0    0  501    0  0.00000000000E+00  0.00000000000E+00 -0.34501993659E+03  0.34501993660E+03  0.25500000920E-02 0.  1.
    10030    2    1    2    0    0  0.00000000000E+00  0.00000000000E+00 -0.16540437833E+03  0.52463549489E+03  0.49787929675E+03 0.  0.
        4    1    3    3  502    0  0.18529135955E+03  0.68298609049E+02 -0.24241164191E+03  0.31267012162E+03  0.12699999809E+01 0.  1.
       -4    1    3    3    0  502 -0.18529135955E+03 -0.68298609049E+02  0.77007263580E+02  0.21196537327E+03  0.12699999809E+01 0. -1.
</event>
<event>
 5   0  0.1147245E-01  0.4984912E+03  0.7818609E-02  0.1014173E+00
       -1   -1    0    0    0  501  0.00000000000E+00  0.00000000000E+00  0.21817286383E+02  0.21817286965E+02  0.50400001928E-02 0.  1.
        1   -1    0    0  501    0  0.00000000000E+00  0.00000000000E+00 -0.28474378745E+04  0.28474378745E+04  0.50400001928E-02 0. -1.
    10030    2    1    2    0    0  0.00000000000E+00  0.00000000000E+00 -0.28256205881E+04  0.28692551614E+04  0.49849119714E+03 0.  0.
        1    1    3    3  502    0  0.20792213237E+03  0.13730164293E+03 -0.13764005015E+04  0.13987714948E+04  0.50400001928E-02 0. -1.
       -1    1    3    3    0  502 -0.20792213237E+03 -0.13730164293E+03 -0.14492200866E+04  0.14704836666E+04  0.50400001928E-02 0.  1.
</event>
<event>
 5   0  0.1709372E-01  0.4999894E+03  0.7818609E-02  0.1013782E+00
        2   -1    0    0  501    0  0.00000000000E+00  0.00000000000E+00  0.10989796940E+04  0.10989796940E+04  0.25500000920E-02 0.  1.
       -2   -1    0    0    0  501  0.00000000000E+00  0.00000000000E+00 -0.56868519839E+02  0.56868519896E+02  0.25500000920E-02 0. -1.
    10030    2    1    2    0    0  0.00000000000E+00  0.00000000000E+00  0.10421111742E+04  0.11558482139E+04  0.49998939416E+03 0.  0.
        4    1    3    3  502    0  0.96472812704E+02 -0.20828201970E+03  0.29211886490E+03  0.37151507029E+03  0.12699999809E+01 0.  1.
       -4    1    3    3    0  502 -0.96472812704E+02  0.20828201970E+03  0.74999230931E+03  0.78433314366E+03  0.12699999809E+01 0. -1.
</event>
<event>
 5   0  0.1068522E-01  0.5428725E+03  0.7818609E-02  0.1003157E+00
       -1   -1    0    0    0  501  0.00000000000E+00  0.00000000000E+00  0.34651695937E+03  0.34651695941E+03  0.50400001928E-02 0. -1.
        1   -1    0    0  501    0  0.00000000000E+00  0.00000000000E+00 -0.21262347781E+03  0.21262347787E+03  0.50400001928E-02 0.  1.
    10030    2    1    2    0    0  0.00000000000E+00  0.00000000000E+00  0.13389348156E+03  0.55914043728E+03  0.54287251192E+03 0.  0.
        2    1    3    3  502    0 -0.18116263614E+03 -0.19537731414E+03  0.13572560815E+02  0.26678907404E+03  0.25500000920E-02 0.  1.
       -2    1    3    3    0  502  0.18116263614E+03  0.19537731414E+03  0.12032092074E+03  0.29235136324E+03  0.25500000920E-02 0. -1.
</event>
<event>
 5   0  0.1827698E-01  0.5011452E+03  0.7818609E-02  0.1013480E+00
       -2   -1    0    0    0  501  0.00000000000E+00  0.00000000000E+00  0.92904432097E+02  0.92904432132E+02  0.25500000920E-02 0.  1.
        2   -1    0    0  501    0  0.00000000000E+00  0.00000000000E+00 -0.67581951579E+03  0.67581951579E+03  0.25500000920E-02 0. -1.
    10030    2    1    2    0    0  0.00000000000E+00  0.00000000000E+00 -0.58291508369E+03  0.76872394793E+03  0.50114520183E+03 0.  0.
        1    1    3    3  502    0  0.48131174093E+02 -0.12008315246E+03 -0.62062880213E+03  0.63396899252E+03  0.50400001928E-02 0. -1.
       -1    1    3    3    0  502 -0.48131174093E+02  0.12008315246E+03  0.37713718432E+02  0.13475495541E+03  0.50400001928E-02 0.  1.
</event>
<event>
 5   0  0.1141970E-01  0.4982773E+03  0.7818609E-02  0.1014230E+00
       -1   -1    0    0    0  501  0.00000000000E+00  0.00000000000E+00  0.72821492617E+02  0.72821492792E+02  0.50400001928E-02 0.  1.
        1   -1    0    0  501    0  0.00000000000E+00  0.00000000000E+00 -0.85235924543E+03  0.85235924544E+03  0.50400001928E-02 0. -1.
    10030    2    1    2    0    0  0.00000000000E+00  0.00000000000E+00 -0.77953775281E+03  0.92518073823E+03  0.49827732273E+03 0.  0.
        3    1    3    3  502    0 -0.17180605790E+03 -0.15970561848E+03 -0.23390223865E+03  0.33126043161E+03  0.10100000352E+00 0.  1.
       -3    1    3    3    0  502  0.17180605790E+03  0.15970561848E+03 -0.54563551416E+03  0.59392030662E+03  0.10100000352E+00 0. -1.
</event>
<event>
 5   0  0.1782124E-01  0.4989479E+03  0.7818609E-02  0.1014054E+00
        2   -1    0    0  501    0  0.00000000000E+00  0.00000000000E+00  0.25270490756E+03  0.25270490757E+03  0.25500000920E-02 0.  1.
       -2   -1    0    0    0  501  0.00000000000E+00  0.00000000000E+00 -0.24628427252E+03  0.24628427254E+03  0.25500000920E-02 0. -1.
    10030    2    1    2    0    0  0.00000000000E+00  0.00000000000E+00  0.64206350332E+01  0.49898918011E+03  0.49894787033E+03 0.  0.
        3    1    3    3  502    0  0.10974239760E+03 -0.21747307657E+03  0.57059935622E+02  0.25018748833E+03  0.10100000352E+00 0. -1.
       -3    1    3    3    0  502 -0.10974239760E+03  0.21747307657E+03 -0.50639300589E+02  0.24880169177E+03  0.10100000352E+00 0.  1.
</event>
<event>
 5   0  0.1123271E-01  0.5070537E+03  0.7818609E-02  0.1011954E+00
       -1   -1    0    0    0  501  0.00000000000E+00  0.00000000000E+00  0.85719361364E+02  0.85719361512E+02  0.50400001928E-02 0.  1.
        1   -1    0    0  501    0  0.00000000000E+00  0.00000000000E+00 -0.74984052904E+03  0.74984052906E+03  0.50400001928E-02 0. -1.
    10030    2    1    2    0    0  0.00000000000E+00  0.00000000000E+00 -0.66412116768E+03  0.83555989057E+03  0.50705365137E+03 0.  0.
        5    1    3    3  502    0 -0.53604526159E+02  0.20338015498E+03 -0.98918160698E+02  0.23247327842E+03  0.46999998093E+01 0. -1.
       -5    1    3    3    0  502  0.53604526159E+02 -0.20338015498E+03 -0.56520300698E+03  0.60308661216E+03  0.46999998093E+01 0.  1.
</event>
<event>
 5   0  0.1827698E-01  0.4998075E+03  0.7818609E-02  0.1013829E+00
        2   -1    0    0  501    0  0.00000000000E+00  0.00000000000E+00  0.14212254668E+03  0.14212254671E+03  0.25500000920E-02 0.  1.
       -2   -1    0    0    0  501  0.00000000000E+00  0.00000000000E+00 -0.43942272249E+03  0.43942272250E+03  0.25500000920E-02 0. -1.
    10030    2    1    2    0    0  0.00000000000E+00  0.00000000000E+00 -0.29730017581E+03  0.58154526921E+03  0.49980746853E+03 0.  0.
        1    1    3    3  502    0  0.19574419198E+03  0.77617106982E+02  0.79384837317E+01  0.21072072404E+03  0.50400001928E-02 0.  1.
       -1    1    3    3    0  502 -0.19574419198E+03 -0.77617106982E+02 -0.30523865954E+03  0.37082454516E+03  0.50400001928E-02 0. -1.
</event>
<event>
 5   0  0.1782124E-01  0.4981912E+03  0.7818609E-02  0.1014252E+00
       -2   -1    0    0    0  501  0.00000000000E+00  0.00000000000E+00  0.17029539012E+03  0.17029539014E+03  0.25500000920E-02 0. -1.
        2   -1    0    0  501    0  0.00000000000E+00  0.00000000000E+00 -0.36435883599E+03  0.36435883599E+03  0.25500000920E-02 0.  1.
    10030    2    1    2    0    0  0.00000000000E+00  0.00000000000E+00 -0.19406344586E+03  0.53465422614E+03  0.49819124892E+03 0.  0.
        3    1    3    3  502    0 -0.86532851423E+02  0.15338759365E+03  0.92023339844E+02  0.19870579644E+03  0.10100000352E+00 0. -1.
       -3    1    3    3    0  502  0.86532851423E+02 -0.15338759365E+03 -0.28608678571E+03  0.33594842970E+03  0.10100000352E+00 0.  1.
</event>
<event>
 5   0  0.1123271E-01  0.4983775E+03  0.7818609E-02  0.1014203E+00
        1   -1    0    0  501    0  0.00000000000E+00  0.00000000000E+00  0.59475501074E+03  0.59475501077E+03  0.50400001928E-02 0. -1.
       -1   -1    0    0    0  501  0.00000000000E+00  0.00000000000E+00 -0.10440440488E+03  0.10440440501E+03  0.50400001928E-02 0.  1.
    10030    2    1    2    0    0  0.00000000000E+00  0.00000000000E+00  0.49035060586E+03  0.69915941577E+03  0.49837753962E+03 0.  0.
        5    1    3    3  502    0 -0.47851131822E+02  0.17019745397E+01 -0.97826882096E+02  0.10901750498E+03  0.46999998093E+01 0.  1.
       -5    1    3    3    0  502  0.47851131822E+02 -0.17019745397E+01  0.58817748796E+03  0.59014191079E+03  0.46999998093E+01 0. -1.
</event>
<event>
 5   0  0.1074281E-01  0.4999000E+03  0.7818609E-02  0.1013805E+00
        1   -1    0    0  501    0  0.00000000000E+00  0.00000000000E+00  0.11872574913E+04  0.11872574913E+04  0.50400001928E-02 0.  1.
       -1   -1    0    0    0  501  0.00000000000E+00  0.00000000000E+00 -0.52621280363E+02  0.52621280605E+02  0.50400001928E-02 0. -1.
    10030    2    1    2    0    0  0.00000000000E+00  0.00000000000E+00  0.11346362109E+04  0.12398787719E+04  0.49990002787E+03 0.  0.
        4    1    3    3  502    0 -0.42560658793E+02  0.54812095849E+02 -0.28240388736E+02  0.74932689689E+02  0.12699999809E+01 0. -1.
       -4    1    3    3    0  502  0.42560658793E+02 -0.54812095849E+02  0.11628765996E+04  0.11649460822E+04  0.12699999809E+01 0.  1.
</event>
<event>
 5   0  0.1068522E-01  0.4996313E+03  0.7818609E-02  0.1013875E+00
        1   -1    0    0  501    0  0.00000000000E+00  0.00000000000E+00  0.58222873240E+03  0.58222873242E+03  0.50400001928E-02 0.  1.
       -1   -1    0    0    0  501  0.00000000000E+00  0.00000000000E+00 -0.10718785933E+03  0.10718785944E+03  0.50400001928E-02 0. -1.
    10030    2    1    2    0    0  0.00000000000E+00  0.00000000000E+00  0.47504087308E+03  0.68941659187E+03  0.49963127009E+03 0.  0.
        2    1    3    3  502    0  0.93192124056E+02 -0.49698260042E+02  0.54990707776E+03  0.55995757269E+03  0.25500000920E-02 0.  1.
       -2    1    3    3    0  502 -0.93192124056E+02  0.49698260042E+02 -0.74866204680E+02  0.12945901918E+03  0.25500000920E-02 0. -1.
</event>
<event>
 5   0  0.1709372E-01  0.4981643E+03  0.7818609E-02  0.1014259E+00
       -2   -1    0    0    0  501  0.00000000000E+00  0.00000000000E+00  0.24089370691E+03  0.24089370692E+03  0.25500000920E-02 0.  1.
        2   -1    0    0  501    0  0.00000000000E+00  0.00000000000E+00 -0.25754895954E+03  0.25754895956E+03  0.25500000920E-02 0. -1.
    10030    2    1    2    0    0  0.00000000000E+00  0.00000000000E+00 -0.16655252637E+02  0.49844266648E+03  0.49816432462E+03 0.  0.
        4    1    3    3  502    0 -0.65403535176E+02 -0.90466524747E+02  0.21445907465E+03  0.24177700907E+03  0.12699999809E+01 0.  1.
       -4    1    3    3    0  502  0.65403535176E+02  0.90466524747E+02 -0.23111432729E+03  0.25666565741E+03  0.12699999809E+01 0. -1.
</event>
<event>
 5   0  0.1827698E-01  0.5037497E+03  0.7818609E-02  0.1012805E+00
       -2   -1    0    0    0  501  0.00000000000E+00  0.00000000000E+00  0.11324049978E+03  0.11324049981E+03  0.25500000920E-02 0. -1.
        2   -1    0    0  501    0  0.00000000000E+00  0.00000000000E+00 -0.56023195624E+03  0.56023195625E+03  0.25500000920E-02 0.  1.
    10030    2    1    2    0    0  0.00000000000E+00  0.00000000000E+00 -0.44699145647E+03  0.67347245606E+03  0.50374972647E+03 0.  0.
        1    1    3    3  502    0 -0.12226320546E+03 -0.90362474159E+02  0.44979656060E+02  0.15854601108E+03  0.50400001928E-02 0. -1.
       -1    1    3    3    0  502  0.12226320546E+03  0.90362474159E+02 -0.49197111253E+03  0.51492644497E+03  0.50400001928E-02 0.  1.
</event>
<event>
 5   0  0.1074281E-01  0.5098853E+03  0.7818609E-02  0.1011230E+00
       -1   -1    0    0    0  501  0.00000000000E+00  0.00000000000E+00  0.56401579146E+02  0.56401579371E+02  0.50400001928E-02 0.  1.
        1   -1    0    0  501    0  0.00000000000E+00  0.00000000000E+00 -0.11523747585E+04  0.11523747585E+04  0.50400001928E-02 0. -1.
    10030    2    1    2    0    0  0.00000000000E+00  0.00000000000E+00 -0.10959731794E+04  0.12087763379E+04  0.50988530589E+03 0.  0.
        4    1    3    3  502    0  0.19336451961E+03 -0.72244773890E+02 -0.90267907649E+03  0.92598070868E+03  0.12699999809E+01 0. -1.
       -4    1    3    3    0  502 -0.19336451961E+03  0.72244773890E+02 -0.19329410287E+03  0.28279562922E+03  0.12699999809E+01 0.  1.
</event>
<event>
 5   0  0.1760649E-01  0.5016761E+03  0.7818609E-02  0.1013342E+00
       -2   -1    0    0    0  501  0.00000000000E+00  0.00000000000E+00  0.62785485335E+02  0.62785485387E+02  0.25500000920E-02 0.  1.
        2   -1    0    0  501    0  0.00000000000E+00  0.00000000000E+00 -0.10021379332E+04  0.10021379332E+04  0.25500000920E-02 0. -1.
    10030    2    1    2    0    0  0.00000000000E+00  0.00000000000E+00 -0.93935244783E+03  0.10649234186E+04  0.50167605698E+03 0.  0.
        5    1    3    3  502    0 -0.95945530638E+02  0.89495890492E+02 -0.92337776508E+03  0.93266480919E+03  0.46999998093E+01 0. -1.
       -5    1    3    3    0  502  0.95945530638E+02 -0.89495890492E+02 -0.15974682755E+02  0.13225860937E+03  0.46999998093E+01 0.  1.
</event>
<event>
 5   0  0.1068522E-01  0.4992607E+03  0.7818609E-02  0.1013972E+00
        1   -1    0    0  501    0  0.00000000000E+00  0.00000000000E+00  0.47137151745E+03  0.47137151748E+03  0.50400001928E-02 0. -1.
       -1   -1    0    0    0  501  0.00000000000E+00  0.00000000000E+00 -0.13219997422E+03  0.13219997431E+03  0.50400001928E-02 0.  1.
    10030    2    1    2    0    0  0.00000000000E+00  0.00000000000E+00  0.33917154324E+03  0.60357149179E+03  0.49926066334E+03 0.  0.
        2    1    3    3  502    0 -0.68750995803E+01 -0.24814458964E+03  0.13777692327E+03  0.28391105114E+03  0.25500000920E-02 0.  1.
       -2    1    3    3    0  502  0.68750995803E+01  0.24814458964E+03  0.20139461996E+03  0.31966044066E+03  0.25500000920E-02 0. -1.
</event>
<event>
 5   0  0.1141970E-01  0.4221124E+03  0.7818609E-02  0.1036381E+00
       -1   -1    0    0    0  501  0.00000000000E+00  0.00000000000E+00  0.52859002528E+02  0.52859002769E+02  0.50400001928E-02 0.  1.
        1   -1    0    0  501    0  0.00000000000E+00  0.00000000000E+00 -0.84270838682E+03  0.84270838684E+03  0.50400001928E-02 0. -1.
    10030    2    1    2    0    0  0.00000000000E+00  0.00000000000E+00 -0.78984938429E+03  0.89556738960E+03  0.42211242514E+03 0.  0.
        3    1    3    3  502    0 -0.20376286203E+02  0.24214222547E+02  0.47796459573E+02  0.57323933585E+02  0.10100000352E+00 0.  1.
       -3    1    3    3    0  502  0.20376286203E+02 -0.24214222547E+02 -0.83764584386E+03  0.83824345602E+03  0.10100000352E+00 0. -1.
</event>
<event>
 5   0  0.7220250E-02  0.5046404E+03  0.7818609E-02  0.1012575E+00
       -3   -1    0    0    0  501  0.00000000000E+00  0.00000000000E+00  0.22887849660E+03  0.22887851888E+03  0.10100000352E+00 0. -1.
        3   -1    0    0  501    0  0.00000000000E+00  0.00000000000E+00 -0.27816274572E+03  0.27816276405E+03  0.10100000352E+00 0.  1.
    10030    2    1    2    0    0  0.00000000000E+00  0.00000000000E+00 -0.49284249122E+02  0.50704128294E+03  0.50464039215E+03 0.  0.
        2    1    3    3  502    0 -0.26164826961E+02  0.19630663957E+03  0.13244936531E+03  0.23825139933E+03  0.25500000920E-02 0.  1.
       -2    1    3    3    0  502  0.26164826961E+02 -0.19630663957E+03 -0.18173361443E+03  0.26878988360E+03  0.25500000920E-02 0. -1.
</event>
<event>
 5   0  0.1068522E-01  0.5158911E+03  0.7818609E-02  0.1009712E+00
        1   -1    0    0  501    0  0.00000000000E+00  0.00000000000E+00  0.13897610262E+04  0.13897610263E+04  0.50400001928E-02 0.  1.
       -1   -1    0    0    0  501  0.00000000000E+00  0.00000000000E+00 -0.47875797560E+02  0.47875797825E+02  0.50400001928E-02 0. -1.
    10030    2    1    2    0    0  0.00000000000E+00  0.00000000000E+00  0.13418852287E+04  0.14376368241E+04  0.51589114257E+03 0.  0.
        2    1    3    3  502    0  0.12961200351E+03  0.65312583928E+02  0.12651772376E+04  0.12734749498E+04  0.25500000920E-02 0.  1.
       -2    1    3    3    0  502 -0.12961200351E+03 -0.65312583928E+02  0.76707991033E+02  0.16416187428E+03  0.25500000920E-02 0. -1.
</event>
<event>
 5   0  0.7220250E-02  0.4996741E+03  0.7818609E-02  0.1013864E+00
        3   -1    0    0  501    0  0.00000000000E+00  0.00000000000E+00  0.14386132275E+04  0.14386132310E+04  0.10100000352E+00 0.  1.
       -3   -1    0    0    0  501  0.00000000000E+00  0.00000000000E+00 -0.43387934662E+02  0.43388052218E+02  0.10100000352E+00 0. -1.
    10030    2    1    2    0    0  0.00000000000E+00  0.00000000000E+00  0.13952252928E+04  0.14820012832E+04  0.49967407959E+03 0.  0.
        4    1    3    3  502    0  0.76428889666E+01  0.30950094686E+02  0.14325462522E+04  0.14329014969E+04  0.12699999809E+01 0.  1.
       -4    1    3    3    0  502 -0.76428889666E+01 -0.30950094686E+02 -0.37320959387E+02  0.49099786378E+02  0.12699999809E+01 0. -1.
</event>
<event>
 5   0  0.1709372E-01  0.4926792E+03  0.7818609E-02  0.1015708E+00
       -2   -1    0    0    0  501  0.00000000000E+00  0.00000000000E+00  0.69017573153E+03  0.69017573153E+03  0.25500000920E-02 0. -1.
        2   -1    0    0  501    0  0.00000000000E+00  0.00000000000E+00 -0.87924279758E+02  0.87924279795E+02  0.25500000920E-02 0.  1.
    10030    2    1    2    0    0  0.00000000000E+00  0.00000000000E+00  0.60225145177E+03  0.77810001133E+03  0.49267922269E+03 0.  0.
        4    1    3    3  502    0 -0.69119430351E+02 -0.13093465076E+03 -0.98054364969E+01  0.14838846959E+03  0.12699999809E+01 0.  1.
       -4    1    3    3    0  502  0.69119430351E+02  0.13093465076E+03  0.61205688827E+03  0.62971154174E+03  0.12699999809E+01 0. -1.
</event>
<event>
 5   0  0.1074281E-01  0.4921793E+03  0.7818609E-02  0.1015841E+00
        1   -1    0    0  501    0  0.00000000000E+00  0.00000000000E+00  0.26340840112E+03  0.26340840117E+03  0.50400001928E-02 0.  1.
       -1   -1    0    0    0  501  0.00000000000E+00  0.00000000000E+00 -0.22990955146E+03  0.22990955151E+03  0.50400001928E-02 0. -1.
    10030    2    1    2    0    0  0.00000000000E+00  0.00000000000E+00  0.33498849665E+02  0.49331795268E+03  0.49217926562E+03 0.  0.
        4    1    3    3  502    0  0.15816829197E+02 -0.11582514782E+03  0.23379800822E+03  0.26139770179E+03  0.12699999809E+01 0.  1.
       -4    1    3    3    0  502 -0.15816829197E+02  0.11582514782E+03 -0.20029915856E+03  0.23192025089E+03  0.12699999809E+01 0. -1.
</event>
<event>
 5   0  0.1141970E-01  0.5006996E+03  0.7818609E-02  0.1013596E+00
       -1   -1    0    0    0  501  0.00000000000E+00  0.00000000000E+00  0.13797409264E+03  0.13797409273E+03  0.50400001928E-02 0.  1.
        1   -1    0    0  501    0  0.00000000000E+00  0.00000000000E+00 -0.45425213918E+03  0.45425213920E+03  0.50400001928E-02 0. -1.
    10030    2    1    2    0    0  0.00000000000E+00  0.00000000000E+00 -0.31627804654E+03  0.59222623194E+03  0.50069961761E+03 0.  0.
        3    1    3    3  502    0  0.13173696576E+03 -0.75515987278E+02  0.77287365957E+02  0.17038380093E+03  0.10100000352E+00 0.  1.
       -3    1    3    3    0  502 -0.13173696576E+03  0.75515987278E+02 -0.39356541249E+03  0.42184243100E+03  0.10100000352E+00 0. -1.
</event>
<event>
 5   0  0.1683148E-01  0.5068639E+03  0.7818609E-02  0.1012003E+00
       -2   -1    0    0    0  501  0.00000000000E+00  0.00000000000E+00  0.10532123195E+03  0.10532123198E+03  0.25500000920E-02 0. -1.
        2   -1    0    0  501    0  0.00000000000E+00  0.00000000000E+00 -0.60982731192E+03  0.60982731192E+03  0.25500000920E-02 0.  1.
    10030    2    1    2    0    0  0.00000000000E+00  0.00000000000E+00 -0.50450607997E+03  0.71514854390E+03  0.50686394142E+03 0.  0.
        2    1    3    3  502    0 -0.10404189158E+03  0.14060987240E+03  0.64971299032E+01  0.17503732209E+03  0.25500000920E-02 0. -1.
       -2    1    3    3    0  502  0.10404189158E+03 -0.14060987240E+03 -0.51100320987E+03  0.54011122181E+03  0.25500000920E-02 0.  1.
</event>
<event>
 5   0  0.1709372E-01  0.5034053E+03  0.7818609E-02  0.1012894E+00
       -2   -1    0    0    0  501  0.00000000000E+00  0.00000000000E+00  0.56980357525E+03  0.56980357526E+03  0.25500000920E-02 0.  1.
        2   -1    0    0  501    0  0.00000000000E+00  0.00000000000E+00 -0.11118606846E+03  0.11118606849E+03  0.25500000920E-02 0. -1.
    10030    2    1    2    0    0  0.00000000000E+00  0.00000000000E+00  0.45861750679E+03  0.68098964374E+03  0.50340528141E+03 0.  0.
        4    1    3    3  502    0 -0.10270074199E+03  0.73835560101E+02 -0.65064713792E+02  0.14224683554E+03  0.12699999809E+01 0. -1.
       -4    1    3    3    0  502  0.10270074199E+03 -0.73835560101E+02  0.52368222058E+03  0.53874280821E+03  0.12699999809E+01 0.  1.
</event>
<event>
 5   0  0.1123271E-01  0.4830514E+03  0.7818609E-02  0.1018300E+00
        1   -1    0    0  501    0  0.00000000000E+00  0.00000000000E+00  0.56731619319E+03  0.56731619321E+03  0.50400001928E-02 0.  1.
       -1   -1    0    0    0  501  0.00000000000E+00  0.00000000000E+00 -0.10282567174E+03  0.10282567187E+03  0.50400001928E-02 0. -1.
    10030    2    1    2    0    0  0.00000000000E+00  0.00000000000E+00  0.46449052145E+03  0.67014186508E+03  0.48305142047E+03 0.  0.
        5    1    3    3  502    0 -0.11289132196E+03  0.11342635756E+03 -0.18633824939E+02  0.16118094985E+03  0.46999998093E+01 0. -1.
       -5    1    3    3    0  502  0.11289132196E+03 -0.11342635756E+03  0.48312434639E+03  0.50896091523E+03  0.46999998093E+01 0.  1.
</event>
<event>
 5   0  0.1709372E-01  0.5059672E+03  0.7818609E-02  0.1012233E+00
       -2   -1    0    0    0  501  0.00000000000E+00  0.00000000000E+00  0.12821328596E+03  0.12821328599E+03  0.25500000920E-02 0.  1.
        2   -1    0    0  501    0  0.00000000000E+00  0.00000000000E+00 -0.49917379294E+03  0.49917379295E+03  0.25500000920E-02 0. -1.
    10030    2    1    2    0    0  0.00000000000E+00  0.00000000000E+00 -0.37096050698E+03  0.62738707894E+03  0.50596724111E+03 0.  0.
        4    1    3    3  502    0  0.19345589257E+03  0.84453937259E+02 -0.35837328583E+03  0.41592147671E+03  0.12699999809E+01 0. -1.
       -4    1    3    3    0  502 -0.19345589257E+03 -0.84453937259E+02 -0.12587221153E+02  0.21146560223E+03  0.12699999809E+01 0.  1.
</event>
<event>
 5   0  0.1068522E-01  0.4980810E+03  0.7818609E-02  0.1014281E+00
        1   -1    0    0  501    0  0.00000000000E+00  0.00000000000E+00  0.12082734963E+04  0.12082734963E+04  0.50400001928E-02 0.  1.
       -1   -1    0    0    0  501  0.00000000000E+00  0.00000000000E+00 -0.51330397487E+02  0.51330397734E+02  0.50400001928E-02 0. -1.
    10030    2    1    2    0    0  0.00000000000E+00  0.00000000000E+00  0.11569430988E+04  0.12596038940E+04  0.49808095326E+03 0.  0.
        2    1    3    3  502    0 -0.19200849093E+03 -0.12704381390E+03  0.81856883049E+03  0.85033071302E+03  0.25500000920E-02 0.  1.
       -2    1    3    3    0  502  0.19200849093E+03  0.12704381390E+03  0.33837426830E+03  0.40927318101E+03  0.25500000920E-02 0. -1.
</event>
<event>
 5   0  0.1760649E-01  0.4957436E+03  0.7818609E-02  0.1014896E+00
       -2   -1    0    0    0  501  0.00000000000E+00  0.00000000000E+00  0.28177625337E+03  0.28177625338E+03  0.25500000920E-02 0. -1.
        2   -1    0    0  501    0  0.00000000000E+00  0.00000000000E+00 -0.21804683536E+03  0.21804683538E+03  0.25500000920E-02 0.  1.
    10030    2    1    2    0    0  0.00000000000E+00  0.00000000000E+00  0.63729418012E+02  0.49982308876E+03  0.49574356409E+03 0.  0.
        5    1    3    3  502    0  0.11650934822E+03 -0.13528265142E+02 -0.18824555505E+03  0.22184661632E+03  0.46999998093E+01 0.  1.
       -5    1    3    3    0  502 -0.11650934822E+03  0.13528265142E+02  0.25197497306E+03  0.27797647244E+03  0.46999998093E+01 0. -1.
</event>
<event>
 5   0  0.1068522E-01  0.5002929E+03  0.7818609E-02  0.1013702E+00
       -1   -1    0    0    0  501  0.00000000000E+00  0.00000000000E+00  0.64765201779E+02  0.64765201975E+02  0.50400001928E-02 0.  1.
        1   -1    0    0  501    0  0.00000000000E+00  0.00000000000E+00 -0.96615533313E+03  0.96615533314E+03  0.50400001928E-02 0. -1.
    10030    2    1    2    0    0  0.00000000000E+00  0.00000000000E+00 -0.90139013135E+03  0.10309205351E+04  0.50029289504E+03 0.  0.
        2    1    3    3  502    0  0.53681201293E+02  0.35688468944E+02  0.47355974897E+02  0.79987039906E+02  0.25500000920E-02 0.  1.
       -2    1    3    3    0  502 -0.53681201293E+02 -0.35688468944E+02 -0.94874610625E+03  0.95093349521E+03  0.25500000920E-02 0. -1.
</event>
<event>
 5   0  0.1782124E-01  0.4900018E+03  0.7818609E-02  0.1016422E+00
        2   -1    0    0  501    0  0.00000000000E+00  0.00000000000E+00  0.12281078338E+04  0.12281078338E+04  0.25500000920E-02 0.  1.
       -2   -1    0    0    0  501  0.00000000000E+00  0.00000000000E+00 -0.48876368389E+02  0.48876368455E+02  0.25500000920E-02 0. -1.
    10030    2    1    2    0    0  0.00000000000E+00  0.00000000000E+00  0.11792314654E+04  0.12769842022E+04  0.49000184060E+03 0.  0.
        3    1    3    3  502    0 -0.47519287600E+01  0.22679560189E+03  0.83082413656E+03  0.86123607794E+03  0.10100000352E+00 0.  1.
       -3    1    3    3    0  502  0.47519287600E+01 -0.22679560189E+03  0.34840732881E+03  0.41574812427E+03  0.10100000352E+00 0. -1.
</event>
<event>
 5   0  0.7220250E-02  0.5067691E+03  0.7818609E-02  0.1012027E+00
       -4   -1    0    0    0  501  0.00000000000E+00  0.00000000000E+00  0.17176590577E+03  0.17177060076E+03  0.12699999809E+01 0.  1.
        4   -1    0    0  501    0  0.00000000000E+00  0.00000000000E+00 -0.37377535937E+03  0.37377751695E+03  0.12699999809E+01 0. -1.
    10030    2    1    2    0    0  0.00000000000E+00  0.00000000000E+00 -0.20200945360E+03  0.54554811770E+03  0.50676910855E+03 0.  0.
        2    1    3    3  502    0 -0.18256767309E+03  0.16998360986E+03 -0.53122489696E+02  0.25504388210E+03  0.25500000920E-02 0.  1.
       -2    1    3    3    0  502  0.18256767309E+03 -0.16998360986E+03 -0.14888696391E+03  0.29050423561E+03  0.25500000920E-02 0. -1.
</event>
<event>
 5   0  0.1683148E-01  0.4927143E+03  0.7818609E-02  0.1015698E+00
       -2   -1    0    0    0  501  0.00000000000E+00  0.00000000000E+00  0.88845216990E+02  0.88845217026E+02  0.25500000920E-02 0.  1.
        2   -1    0    0  501    0  0.00000000000E+00  0.00000000000E+00 -0.68311901245E+03  0.68311901246E+03  0.25500000920E-02 0. -1.
    10030    2    1    2    0    0  0.00000000000E+00  0.00000000000E+00 -0.59427379546E+03  0.77196422949E+03  0.49271434689E+03 0.  0.
        2    1    3    3  502    0 -0.15932990099E+03  0.18575918021E+03 -0.34143396207E+03  0.42008289759E+03  0.25500000920E-02 0.  1.
       -2    1    3    3    0  502  0.15932990099E+03 -0.18575918021E+03 -0.25283983339E+03  0.35188133190E+03  0.25500000920E-02 0. -1.
</event>
<event>
 5   0  0.1123271E-01  0.4928130E+03  0.7818609E-02  0.1015672E+00
       -1   -1    0    0    0  501  0.00000000000E+00  0.00000000000E+00  0.10098957023E+03  0.10098957036E+03  0.50400001928E-02 0. -1.
        1   -1    0    0  501    0  0.00000000000E+00  0.00000000000E+00 -0.60121222945E+03  0.60121222947E+03  0.50400001928E-02 0.  1.
    10030    2    1    2    0    0  0.00000000000E+00  0.00000000000E+00 -0.50022265922E+03  0.70220179983E+03  0.49281300601E+03 0.  0.
        5    1    3    3  502    0 -0.16313042120E+03  0.15023427717E+03 -0.97228403974E+02  0.24219274327E+03  0.46999998093E+01 0. -1.
       -5    1    3    3    0  502  0.16313042120E+03 -0.15023427717E+03 -0.40299425525E+03  0.46000905656E+03  0.46999998093E+01 0.  1.
</event>
<event>
 5   0  0.1709372E-01  0.4995347E+03  0.7818609E-02  0.1013900E+00
        2   -1    0    0  501    0  0.00000000000E+00  0.00000000000E+00  0.16266917433E+04  0.16266917433E+04  0.25500000920E-02 0. -1.
       -2   -1    0    0    0  501  0.00000000000E+00  0.00000000000E+00 -0.38350064429E+02  0.38350064514E+02  0.25500000920E-02 0.  1.
    10030    2    1    2    0    0  0.00000000000E+00  0.00000000000E+00  0.15883416789E+04  0.16650418078E+04  0.49953471645E+03 0.  0.
        4    1    3    3  502    0 -0.20028440077E+03  0.12239726574E+03  0.10787083110E+04  0.11039511606E+04  0.12699999809E+01 0. -1.
       -4    1    3    3    0  502  0.20028440077E+03 -0.12239726574E+03  0.50963336787E+03  0.56109064722E+03  0.12699999809E+01 0.  1.
</event>
<event>
 5   0  0.1760649E-01  0.5067729E+03  0.7818609E-02  0.1012026E+00
       -2   -1    0    0    0  501  0.00000000000E+00  0.00000000000E+00  0.62743637185E+02  0.62743637236E+02  0.25500000920E-02 0. -1.
        2   -1    0    0  501    0  0.00000000000E+00  0.00000000000E+00 -0.10232860149E+04  0.10232860149E+04  0.25500000920E-02 0.  1.
    10030    2    1    2    0    0  0.00000000000E+00  0.00000000000E+00 -0.96054237774E+03  0.10860296522E+04  0.50677287412E+03 0.  0.
        5    1    3    3  502    0  0.52473333095E+01  0.21106515108E+03 -0.78034567293E+03  0.80841665728E+03  0.46999998093E+01 0.  1.
       -5    1    3    3    0  502 -0.52473333095E+01 -0.21106515108E+03 -0.18019670480E+03  0.27761299488E+03  0.46999998093E+01 0. -1.
</event>
<event>
 5   0  0.1074281E-01  0.4900867E+03  0.7818609E-02  0.1016399E+00
        1   -1    0    0  501    0  0.00000000000E+00  0.00000000000E+00  0.16419819181E+03  0.16419819189E+03  0.50400001928E-02 0. -1.
       -1   -1    0    0    0  501  0.00000000000E+00  0.00000000000E+00 -0.36569362566E+03  0.36569362570E+03  0.50400001928E-02 0.  1.
    10030    2    1    2    0    0  0.00000000000E+00  0.00000000000E+00 -0.20149543385E+03  0.52989181759E+03  0.49008665405E+03 0.  0.
        4    1    3    3  502    0  0.73643923968E+02  0.97961603212E+01 -0.35321963423E+03  0.36095029464E+03  0.12699999809E+01 0.  1.
       -4    1    3    3    0  502 -0.73643923968E+02 -0.97961603212E+01  0.15172420038E+03  0.16894152295E+03  0.12699999809E+01 0. -1.
</event>
<event>
 5   0  0.7220250E-02  0.4982220E+03  0.7818609E-02  0.1014244E+00
        4   -1    0    0  501    0  0.00000000000E+00  0.00000000000E+00  0.29217228904E+03  0.29217504921E+03  0.12699999809E+01 0.  1.
       -4   -1    0    0    0  501  0.00000000000E+00  0.00000000000E+00 -0.21239053279E+03  0.21239432977E+03  0.12699999809E+01 0. -1.
    10030    2    1    2    0    0  0.00000000000E+00  0.00000000000E+00  0.79781756246E+02  0.50456937899E+03  0.49822196818E+03 0.  0.
        2    1    3    3  502    0  0.10635230912E+03 -0.11988830362E+03  0.23303574981E+03  0.28282446800E+03  0.25500000920E-02 0.  1.
       -2    1    3    3    0  502 -0.10635230912E+03  0.11988830362E+03 -0.15325399357E+03  0.22174491099E+03  0.25500000920E-02 0. -1.
</event>
<event>
 5   0  0.1760649E-01  0.5133132E+03  0.7818609E-02  0.1010361E+00
       -2   -1    0    0    0  501  0.00000000000E+00  0.00000000000E+00  0.61830653564E+02  0.61830653617E+02  0.25500000920E-02 0.  1.
        2   -1    0    0  501    0  0.00000000000E+00  0.00000000000E+00 -0.10653712986E+04  0.10653712986E+04  0.25500000920E-02 0. -1.
    10030    2    1    2    0    0  0.00000000000E+00  0.00000000000E+00 -0.10035406451E+04  0.11272019522E+04  0.51331317425E+03 0.  0.
        5    1    3    3  502    0  0.68771687074E+02 -0.60134653480E+02  0.24818141689E+02  0.94782654781E+02  0.46999998093E+01 0.  1.
       -5    1    3    3    0  502 -0.68771687074E+02  0.60134653480E+02 -0.10283587867E+04  0.10324192975E+04  0.46999998093E+01 0. -1.
</event>
<event>
 5   0  0.1147245E-01  0.4944348E+03  0.7818609E-02  0.1015242E+00
       -1   -1    0    0    0  501  0.00000000000E+00  0.00000000000E+00  0.40695878152E+03  0.40695878155E+03  0.50400001928E-02 0.  1.
        1   -1    0    0  501    0  0.00000000000E+00  0.00000000000E+00 -0.15017843186E+03  0.15017843194E+03  0.50400001928E-02 0. -1.
    10030    2    1    2    0    0  0.00000000000E+00  0.00000000000E+00  0.25678034966E+03  0.55713721350E+03  0.49443475473E+03 0.  0.
        1    1    3    3  502    0  0.93248110708E+02  0.19044058015E+03 -0.14824635651E+02  0.21256197818E+03  0.50400001928E-02 0. -1.
       -1    1    3    3    0  502 -0.93248110708E+02 -0.19044058015E+03  0.27160498531E+03  0.34457523532E+03  0.50400001928E-02 0.  1.
</event>
<event>
 5   0  0.1827698E-01  0.4956628E+03  0.7818609E-02  0.1014917E+00
        2   -1    0    0  501    0  0.00000000000E+00  0.00000000000E+00  0.44716409553E+03  0.44716409553E+03  0.25500000920E-02 0. -1.
       -2   -1    0    0    0  501  0.00000000000E+00  0.00000000000E+00 -0.13735537917E+03  0.13735537920E+03  0.25500000920E-02 0.  1.
    10030    2    1    2    0    0  0.00000000000E+00  0.00000000000E+00  0.30980871635E+03  0.58451947473E+03  0.49566276399E+03 0.  0.
        1    1    3    3  502    0  0.18730806120E+03 -0.91884577689E+02 -0.28415183110E+01  0.20865080795E+03  0.50400001928E-02 0.  1.
       -1    1    3    3    0  502 -0.18730806120E+03  0.91884577689E+02  0.31265023466E+03  0.37586866678E+03  0.50400001928E-02 0. -1.
</event>
<event>
 5   0  0.1074281E-01  0.5070750E+03  0.7818609E-02  0.1011949E+00
        1   -1    0    0  501    0  0.00000000000E+00  0.00000000000E+00  0.14119251710E+03  0.14119251719E+03  0.50400001928E-02 0.  1.
       -1   -1    0    0    0  501  0.00000000000E+00  0.00000000000E+00 -0.45527378275E+03  0.45527378278E+03  0.50400001928E-02 0. -1.
    10030    2    1    2    0    0  0.00000000000E+00  0.00000000000E+00 -0.31408126565E+03  0.59646629997E+03  0.50707495064E+03 0.  0.
        4    1    3    3  502    0  0.12198584412E+03 -0.10301858259E+03 -0.38870152718E+03  0.42021882948E+03  0.12699999809E+01 0. -1.
       -4    1    3    3    0  502 -0.12198584412E+03  0.10301858259E+03  0.74620261523E+02  0.17624747049E+03  0.12699999809E+01 0.  1.
</event>
<event>
 5   0  0.1827698E-01  0.5130991E+03  0.7818609E-02  0.1010415E+00
        2   -1    0    0  501    0  0.00000000000E+00  0.00000000000E+00  0.82992626977E+03  0.82992626978E+03  0.25500000920E-02 0.  1.
       -2   -1    0    0    0  501  0.00000000000E+00  0.00000000000E+00 -0.79305458878E+02  0.79305458919E+02  0.25500000920E-02 0. -1.
    10030    2    1    2    0    0  0.00000000000E+00  0.00000000000E+00  0.75062081090E+03  0.90923172870E+03  0.51309914707E+03 0.  0.
        1    1    3    3  502    0  0.14373397738E+03 -0.99033787112E+02  0.42136258910E+02  0.17956227773E+03  0.50400001928E-02 0. -1.
       -1    1    3    3    0  502 -0.14373397738E+03  0.99033787112E+02  0.70848455199E+03  0.72966945096E+03  0.50400001928E-02 0.  1.
</event>
<event>
 5   0  0.1827698E-01  0.5185848E+03  0.7818609E-02  0.1009039E+00
        2   -1    0    0  501    0  0.00000000000E+00  0.00000000000E+00  0.10762646463E+04  0.10762646463E+04  0.25500000920E-02 0.  1.
       -2   -1    0    0    0  501  0.00000000000E+00  0.00000000000E+00 -0.62468410749E+02  0.62468410801E+02  0.25500000920E-02 0. -1.
    10030    2    1    2    0    0  0.00000000000E+00  0.00000000000E+00  0.10137962356E+04  0.11387330571E+04  0.51858477430E+03 0.  0.
        1    1    3    3  502    0 -0.30766302479E+02  0.16771142962E+03  0.77954882937E+02  0.18748507352E+03  0.50400001928E-02 0. -1.
       -1    1    3    3    0  502  0.30766302479E+02 -0.16771142962E+03  0.93584135266E+03  0.95124798363E+03  0.50400001928E-02 0.  1.
</event>
<event>
 5   0  0.1760649E-01  0.4961666E+03  0.7818609E-02  0.1014784E+00
        2   -1    0    0  501    0  0.00000000000E+00  0.00000000000E+00  0.19718365991E+03  0.19718365992E+03  0.25500000920E-02 0.  1.
       -2   -1    0    0    0  501  0.00000000000E+00  0.00000000000E+00 -0.31212188536E+03  0.31212188538E+03  0.25500000920E-02 0. -1.
    10030    2    1    2    0    0  0.00000000000E+00  0.00000000000E+00 -0.11493822546E+03  0.50930554530E+03  0.49616664822E+03 0.  0.
        5    1    3    3  502    0  0.20743915925E+03 -0.76751967175E+02  0.57759366315E+02  0.22864842806E+03  0.46999998093E+01 0.  1.
       -5    1    3    3    0  502 -0.20743915925E+03  0.76751967175E+02 -0.17269759177E+03  0.28065711724E+03  0.46999998093E+01 0. -1.
</event>
<event>
 5   0  0.1782124E-01  0.5003143E+03  0.7818609E-02  0.1013697E+00
       -2   -1    0    0    0  501  0.00000000000E+00  0.00000000000E+00  0.12673128919E+03  0.12673128922E+03  0.25500000920E-02 0.  1.
        2   -1    0    0  501    0  0.00000000000E+00  0.00000000000E+00 -0.49378960932E+03  0.49378960932E+03  0.25500000920E-02 0. -1.
    10030    2    1    2    0    0  0.00000000000E+00  0.00000000000E+00 -0.36705832012E+03  0.62052089854E+03  0.50031427638E+03 0.  0.
        3    1    3    3  502    0  0.64387346082E+02 -0.24026306771E+03 -0.21649568338E+03  0.32976122144E+03  0.10100000352E+00 0. -1.
       -3    1    3    3    0  502 -0.64387346082E+02  0.24026306771E+03 -0.15056263674E+03  0.29075967710E+03  0.10100000352E+00 0.  1.
</event>
<event>
 5   0  0.1068522E-01  0.4987190E+03  0.7818609E-02  0.1014114E+00
        1   -1    0    0  501    0  0.00000000000E+00  0.00000000000E+00  0.10243940285E+04  0.10243940285E+04  0.50400001928E-02 0.  1.
       -1   -1    0    0    0  501  0.00000000000E+00  0.00000000000E+00 -0.60699445424E+02  0.60699445633E+02  0.50400001928E-02 0. -1.
    10030    2    1    2    0    0  0.00000000000E+00  0.00000000000E+00  0.96369458308E+03  0.10850934741E+04  0.49871895711E+03 0.  0.
        2    1    3    3  502    0 -0.21251197292E+03 -0.68297663659E+02  0.72368236808E+03  0.75732560988E+03  0.25500000920E-02 0.  1.
       -2    1    3    3    0  502  0.21251197292E+03  0.68297663659E+02  0.24001221500E+03  0.32776786427E+03  0.25500000920E-02 0. -1.
</event>
<event>
 5   0  0.1141970E-01  0.4976520E+03  0.7818609E-02  0.1014394E+00
       -1   -1    0    0    0  501  0.00000000000E+00  0.00000000000E+00  0.22704954175E+03  0.22704954180E+03  0.50400001928E-02 0. -1.
        1   -1    0    0  501    0  0.00000000000E+00  0.00000000000E+00 -0.27269104209E+03  0.27269104214E+03  0.50400001928E-02 0.  1.
    10030    2    1    2    0    0  0.00000000000E+00  0.00000000000E+00 -0.45641500344E+02  0.49974058394E+03  0.49765199154E+03 0.  0.
        3    1    3    3  502    0 -0.38881054225E+02 -0.24114111437E+03 -0.70492003799E+02  0.25422412596E+03  0.10100000352E+00 0. -1.
       -3    1    3    3    0  502  0.38881054225E+02  0.24114111437E+03  0.24850503456E+02  0.24551645798E+03  0.10100000352E+00 0.  1.
</event>
<event>
 5   0  0.1123271E-01  0.4873524E+03  0.7818609E-02  0.1017134E+00
        1   -1    0    0  501    0  0.00000000000E+00  0.00000000000E+00  0.78885545505E+03  0.78885545506E+03  0.50400001928E-02 0. -1.
       -1   -1    0    0    0  501  0.00000000000E+00  0.00000000000E+00 -0.75271176930E+02  0.75271177099E+02  0.50400001928E-02 0.  1.
    10030    2    1    2    0    0  0.00000000000E+00  0.00000000000E+00  0.71358427812E+03  0.86412663216E+03  0.48735235142E+03 0.  0.
        5    1    3    3  502    0  0.11970012055E+03  0.17049415739E+03  0.58079083472E+03  0.61703845930E+03  0.46999998093E+01 0. -1.
       -5    1    3    3    0  502 -0.11970012055E+03 -0.17049415739E+03  0.13279344340E+03  0.24708817287E+03  0.46999998093E+01 0.  1.
</event>
<event>
 5   0  0.7220250E-02  0.5069838E+03  0.7818609E-02  0.1011972E+00
       -3   -1    0    0    0  501  0.00000000000E+00  0.00000000000E+00  0.56624170045E+03  0.56624170945E+03  0.10100000352E+00 0. -1.
        3   -1    0    0  501    0  0.00000000000E+00  0.00000000000E+00 -0.11348177612E+03  0.11348182107E+03  0.10100000352E+00 0.  1.
    10030    2    1    2    0    0  0.00000000000E+00  0.00000000000E+00  0.45275992432E+03  0.67972353052E+03  0.50698375602E+03 0.  0.
        4    1    3    3  502    0  0.16932375554E+03 -0.16220335574E+03  0.97252102382E+02  0.25385044243E+03  0.12699999809E+01 0.  1.
       -4    1    3    3    0  502 -0.16932375554E+03  0.16220335574E+03  0.35550782194E+03  0.42587308810E+03  0.12699999809E+01 0. -1.
</event>
<event>
 5   0  0.1068522E-01  0.5019398E+03  0.7818609E-02  0.1013274E+00
        1   -1    0    0  501    0  0.00000000000E+00  0.00000000000E+00  0.10887840890E+04  0.10887840890E+04  0.50400001928E-02 0. -1.
       -1   -1    0    0    0  501  0.00000000000E+00  0.00000000000E+00 -0.57849744515E+02  0.57849744734E+02  0.50400001928E-02 0.  1.
    10030    2    1    2    0    0  0.00000000000E+00  0.00000000000E+00  0.10309343445E+04  0.11466338337E+04  0.50193976337E+03 0.  0.
        2    1    3    3  502    0  0.27032319126E+02 -0.17522359906E+03  0.92124227542E+03  0.93814784867E+03  0.25500000920E-02 0. -1.
       -2    1    3    3    0  502 -0.27032319126E+02  0.17522359906E+03  0.10969206905E+03  0.20848598506E+03  0.25500000920E-02 0.  1.
</event>
<event>
 5   0  0.7220250E-02  0.4951488E+03  0.7818609E-02  0.1015053E+00
       -3   -1    0    0    0  501  0.00000000000E+00  0.00000000000E+00  0.41489092067E+03  0.41489093296E+03  0.10100000352E+00 0. -1.
        3   -1    0    0  501    0  0.00000000000E+00  0.00000000000E+00 -0.14773295096E+03  0.14773298548E+03  0.10100000352E+00 0.  1.
    10030    2    1    2    0    0  0.00000000000E+00  0.00000000000E+00  0.26715796971E+03  0.56262391845E+03  0.49514875828E+03 0.  0.
        5    1    3    3  502    0  0.15808179189E+03 -0.64004200227E+01 -0.82731504298E+02  0.17859846053E+03  0.46999998093E+01 0.  1.
       -5    1    3    3    0  502 -0.15808179189E+03  0.64004200227E+01  0.34988947401E+03  0.38402545791E+03  0.46999998093E+01 0. -1.
</event>
<event>
 5   0  0.1147245E-01  0.4962968E+03  0.7818609E-02  0.1014750E+00
        1   -1    0    0  501    0  0.00000000000E+00  0.00000000000E+00  0.46290414891E+03  0.46290414894E+03  0.50400001928E-02 0.  1.
       -1   -1    0    0    0  501  0.00000000000E+00  0.00000000000E+00 -0.13302460259E+03  0.13302460269E+03  0.50400001928E-02 0. -1.
    10030    2    1    2    0    0  0.00000000000E+00  0.00000000000E+00  0.32987954632E+03  0.59592875163E+03  0.49629684860E+03 0.  0.
        1    1    3    3  502    0 -0.97132361568E+00  0.17638448522E+03 -0.44642676565E+02  0.18194889033E+03  0.50400001928E-02 0. -1.
       -1    1    3    3    0  502  0.97132361568E+00 -0.17638448522E+03  0.37452222289E+03  0.41397986129E+03  0.50400001928E-02 0.  1.
</event>
<event>
 5   0  0.1709372E-01  0.4969898E+03  0.7818609E-02  0.1014568E+00
       -2   -1    0    0    0  501  0.00000000000E+00  0.00000000000E+00  0.30111047880E+02  0.30111047988E+02  0.25500000920E-02 0.  1.
        2   -1    0    0  501    0  0.00000000000E+00  0.00000000000E+00 -0.20507329055E+04  0.20507329055E+04  0.25500000920E-02 0. -1.
    10030    2    1    2    0    0  0.00000000000E+00  0.00000000000E+00 -0.20206218577E+04  0.20808439535E+04  0.49698980602E+03 0.  0.
        4    1    3    3  502    0 -0.65064765063E+02 -0.69438406653E+02 -0.19714106361E+04  0.19737063168E+04  0.12699999809E+01 0. -1.
       -4    1    3    3    0  502  0.65064765063E+02  0.69438406653E+02 -0.49211221523E+02  0.10713763669E+03  0.12699999809E+01 0.  1.
</event>
<event>
 5   0  0.1141970E-01  0.5042009E+03  0.7818609E-02  0.1012688E+00
       -1   -1    0    0    0  501  0.00000000000E+00  0.00000000000E+00  0.32582271843E+03  0.32582271846E+03  0.50400001928E-02 0. -1.
        1   -1    0    0  501    0  0.00000000000E+00  0.00000000000E+00 -0.19505894973E+03  0.19505894980E+03  0.50400001928E-02 0.  1.
    10030    2    1    2    0    0  0.00000000000E+00  0.00000000000E+00  0.13076376869E+03  0.52088166826E+03  0.50420090155E+03 0.  0.
        3    1    3    3  502    0 -0.18677578091E+03 -0.15371410725E+03  0.13873378601E+03  0.27885532573E+03  0.10100000352E+00 0.  1.
       -3    1    3    3    0  502  0.18677578091E+03  0.15371410725E+03 -0.79700173149E+01  0.24202634254E+03  0.10100000352E+00 0. -1.
</event>
<event>
 5   0  0.1683148E-01  0.4817708E+03  0.7818609E-02  0.1018650E+00
       -2   -1    0    0    0  501  0.00000000000E+00  0.00000000000E+00  0.12238416730E+03  0.12238416733E+03  0.25500000920E-02 0. -1.
        2   -1    0    0  501    0  0.00000000000E+00  0.00000000000E+00 -0.47412806293E+03  0.47412806293E+03  0.25500000920E-02 0.  1.
    10030    2    1    2    0    0  0.00000000000E+00  0.00000000000E+00 -0.35174389562E+03  0.59651223026E+03  0.48177076784E+03 0.  0.
        2    1    3    3  502    0 -0.25574941653E+02 -0.10555678750E+03 -0.44209048633E+03  0.45523654415E+03  0.25500000920E-02 0.  1.
       -2    1    3    3    0  502  0.25574941653E+02  0.10555678750E+03  0.90346590702E+02  0.14127568611E+03  0.25500000920E-02 0. -1.
</event>
<event>
 5   0  0.1123271E-01  0.5040573E+03  0.7818609E-02  0.1012725E+00
       -1   -1    0    0    0  501  0.00000000000E+00  0.00000000000E+00  0.98083632123E+02  0.98083632252E+02  0.50400001928E-02 0.  1.
        1   -1    0    0  501    0  0.00000000000E+00  0.00000000000E+00 -0.64759477717E+03  0.64759477719E+03  0.50400001928E-02 0. -1.
    10030    2    1    2    0    0  0.00000000000E+00  0.00000000000E+00 -0.54951114504E+03  0.74567840944E+03  0.50405732985E+03 0.  0.
        5    1    3    3  502    0 -0.71970376480E+02 -0.13978649252E+03 -0.56606540932E+03  0.58751352002E+03  0.46999998093E+01 0. -1.
       -5    1    3    3    0  502  0.71970376480E+02  0.13978649252E+03  0.16554264275E+02  0.15816488942E+03  0.46999998093E+01 0.  1.
</event>
<event>
 5   0  0.1709372E-01  0.4961762E+03  0.7818609E-02  0.1014782E+00
       -2   -1    0    0    0  501  0.00000000000E+00  0.00000000000E+00  0.36020762404E+02  0.36020762495E+02  0.25500000920E-02 0.  1.
        2   -1    0    0  501    0  0.00000000000E+00  0.00000000000E+00 -0.17086733623E+04  0.17086733623E+04  0.25500000920E-02 0. -1.
    10030    2    1    2    0    0  0.00000000000E+00  0.00000000000E+00 -0.16726525999E+04  0.17446941248E+04  0.49617624808E+03 0.  0.
        4    1    3    3  502    0 -0.19455054684E+03 -0.12678462361E+03 -0.11433087012E+04  0.11666536141E+04  0.12699999809E+01 0. -1.
       -4    1    3    3    0  502  0.19455054684E+03  0.12678462361E+03 -0.52934389860E+03  0.57804051065E+03  0.12699999809E+01 0.  1.
</event>
<event>
 5   0  0.1827698E-01  0.5002923E+03  0.7818609E-02  0.1013703E+00
       -2   -1    0    0    0  501  0.00000000000E+00  0.00000000000E+00  0.74523704047E+02  0.74523704091E+02  0.25500000920E-02 0.  1.
        2   -1    0    0  501    0  0.00000000000E+00  0.00000000000E+00 -0.83964009592E+03  0.83964009592E+03  0.25500000920E-02 0. -1.
    10030    2    1    2    0    0  0.00000000000E+00  0.00000000000E+00 -0.76511639187E+03  0.91416380001E+03  0.50029227472E+03 0.  0.
        1    1    3    3  502    0  0.63772938773E+02 -0.11072099803E+03 -0.77551230229E+03  0.78596784804E+03  0.50400001928E-02 0. -1.
       -1    1    3    3    0  502 -0.63772938773E+02  0.11072099803E+03  0.10395910419E+02  0.12819595197E+03  0.50400001928E-02 0.  1.
</event>
<event>
 5   0  0.1827698E-01  0.4944242E+03  0.7818609E-02  0.1015245E+00
        2   -1    0    0  501    0  0.00000000000E+00  0.00000000000E+00  0.67492268464E+03  0.67492268465E+03  0.25500000920E-02 0. -1.
       -2   -1    0    0    0  501  0.00000000000E+00  0.00000000000E+00 -0.90549371326E+02  0.90549371362E+02  0.25500000920E-02 0.  1.
    10030    2    1    2    0    0  0.00000000000E+00  0.00000000000E+00  0.58437331331E+03  0.76547205601E+03  0.49442420978E+03 0.  0.
        1    1    3    3  502    0  0.12381263564E+03  0.77314025589E+01 -0.38871282734E+02  0.13000123067E+03  0.50400001928E-02 0.  1.
       -1    1    3    3    0  502 -0.12381263564E+03 -0.77314025589E+01  0.62324459605E+03  0.63547082534E+03  0.50400001928E-02 0. -1.
</event>
<event>
 5   0  0.1068522E-01  0.4891117E+03  0.7818609E-02  0.1016661E+00
        1   -1    0    0  501    0  0.00000000000E+00  0.00000000000E+00  0.54294282387E+03  0.54294282390E+03  0.50400001928E-02 0.  1.
       -1   -1    0    0    0  501  0.00000000000E+00  0.00000000000E+00 -0.11015445568E+03  0.11015445579E+03  0.50400001928E-02 0. -1.
    10030    2    1    2    0    0  0.00000000000E+00  0.00000000000E+00  0.43278836819E+03  0.65309727969E+03  0.48911173068E+03 0.  0.
        2    1    3    3  502    0  0.18089033016E+03 -0.87822331243E+02  0.30539369770E+02  0.20338811795E+03  0.25500000920E-02 0. -1.
       -2    1    3    3    0  502 -0.18089033016E+03  0.87822331243E+02  0.40224899842E+03  0.44970916174E+03  0.25500000920E-02 0.  1.
</event>
<event>
 5   0  0.1709372E-01  0.4953694E+03  0.7818609E-02  0.1014995E+00
       -2   -1    0    0    0  501  0.00000000000E+00  0.00000000000E+00  0.42765051382E+02  0.42765051458E+02  0.25500000920E-02 0. -1.
        2   -1    0    0  501    0  0.00000000000E+00  0.00000000000E+00 -0.14345290068E+04  0.14345290068E+04  0.25500000920E-02 0.  1.
    10030    2    1    2    0    0  0.00000000000E+00  0.00000000000E+00 -0.13917639554E+04  0.14772940582E+04  0.49536938437E+03 0.  0.
        4    1    3    3  502    0  0.21346641226E+03  0.35743649741E+02 -0.10549943920E+04  0.10769681043E+04  0.12699999809E+01 0. -1.
       -4    1    3    3    0  502 -0.21346641226E+03 -0.35743649741E+02 -0.33676956343E+03  0.40032595396E+03  0.12699999809E+01 0.  1.
</event>
<event>
 5   0  0.1709372E-01  0.4960284E+03  0.7818609E-02  0.1014821E+00
       -2   -1    0    0    0  501  0.00000000000E+00  0.00000000000E+00  0.12144391736E+03  0.12144391739E+03  0.25500000920E-02 0. -1.
        2   -1    0    0  501    0  0.00000000000E+00  0.00000000000E+00 -0.50649749298E+03  0.50649749298E+03  0.25500000920E-02 0.  1.
    10030    2    1    2    0    0  0.00000000000E+00  0.00000000000E+00 -0.38505357561E+03  0.62794141037E+03  0.49602838504E+03 0.  0.
        4    1    3    3  502    0 -0.12257105715E+03  0.33304459348E+02  0.77140616137E+02  0.14861069484E+03  0.12699999809E+01 0. -1.
       -4    1    3    3    0  502  0.12257105715E+03 -0.33304459348E+02 -0.46219419175E+03  0.47933071553E+03  0.12699999809E+01 0.  1.
</event>
<event>
 5   0  0.7220250E-02  0.4857045E+03  0.7818609E-02  0.1017579E+00
        4   -1    0    0  501    0  0.00000000000E+00  0.00000000000E+00  0.31743101170E+03  0.31743355224E+03  0.12699999809E+01 0.  1.
       -4   -1    0    0    0  501  0.00000000000E+00  0.00000000000E+00 -0.18578989974E+03  0.18579424034E+03  0.12699999809E+01 0. -1.
    10030    2    1    2    0    0  0.00000000000E+00  0.00000000000E+00  0.13164111196E+03  0.50322779258E+03  0.48570446659E+03 0.  0.
        2    1    3    3  502    0  0.17587445416E+03  0.61639467074E+02  0.22714947009E+03  0.29381648915E+03  0.25500000920E-02 0.  1.
       -2    1    3    3    0  502 -0.17587445416E+03 -0.61639467074E+02 -0.95508358129E+02  0.20941130343E+03  0.25500000920E-02 0. -1.
</event>
<event>
 5   0  0.1709372E-01  0.5045635E+03  0.7818609E-02  0.1012595E+00
        2   -1    0    0  501    0  0.00000000000E+00  0.00000000000E+00  0.18209763195E+04  0.18209763195E+04  0.25500000920E-02 0. -1.
       -2   -1    0    0    0  501  0.00000000000E+00  0.00000000000E+00 -0.34951623195E+02  0.34951623288E+02  0.25500000920E-02 0.  1.
    10030    2    1    2    0    0  0.00000000000E+00  0.00000000000E+00  0.17860246963E+04  0.18559279427E+04  0.50456348759E+03 0.  0.
        4    1    3    3  502    0  0.18306560673E+03  0.99705530204E+02  0.37035602855E+03  0.42499342337E+03  0.12699999809E+01 0.  1.
       -4    1    3    3    0  502 -0.18306560673E+03 -0.99705530204E+02  0.14156686677E+04  0.14309345194E+04  0.12699999809E+01 0. -1.
</event>
<event>
 5   0  0.1141970E-01  0.5162464E+03  0.7818609E-02  0.1009623E+00
       -1   -1    0    0    0  501  0.00000000000E+00  0.00000000000E+00  0.42454917730E+02  0.42454918029E+02  0.50400001928E-02 0. -1.
        1   -1    0    0  501    0  0.00000000000E+00  0.00000000000E+00 -0.15693727596E+04  0.15693727596E+04  0.50400001928E-02 0.  1.
    10030    2    1    2    0    0  0.00000000000E+00  0.00000000000E+00 -0.15269178419E+04  0.16118276776E+04  0.51624642040E+03 0.  0.
        3    1    3    3  502    0 -0.73702539372E+02  0.19810999301E+03 -0.30090910227E+03  0.36773078695E+03  0.10100000352E+00 0. -1.
       -3    1    3    3    0  502  0.73702539372E+02 -0.19810999301E+03 -0.12260087396E+04  0.12440968907E+04  0.10100000352E+00 0.  1.
</event>
<event>
 5   0  0.1141970E-01  0.5015793E+03  0.7818609E-02  0.1013368E+00
        1   -1    0    0  501    0  0.00000000000E+00  0.00000000000E+00  0.39661592641E+02  0.39661592961E+02  0.50400001928E-02 0.  1.
       -1   -1    0    0    0  501  0.00000000000E+00  0.00000000000E+00 -0.15858021861E+04  0.15858021861E+04  0.50400001928E-02 0. -1.
    10030    2    1    2    0    0  0.00000000000E+00  0.00000000000E+00 -0.15461405935E+04  0.16254637791E+04  0.50157926824E+03 0.  0.
        3    1    3    3  502    0 -0.20996578432E+03  0.13702823315E+03 -0.75443614551E+03  0.79500709124E+03  0.10100000352E+00 0.  1.
       -3    1    3    3    0  502  0.20996578432E+03 -0.13702823315E+03 -0.79170444796E+03  0.83045668784E+03  0.10100000352E+00 0. -1.
</event>
<event>
 5   0  0.1141970E-01  0.4967980E+03  0.7818609E-02  0.1014618E+00
       -1   -1    0    0    0  501  0.00000000000E+00  0.00000000000E+00  0.74721782536E+03  0.74721782538E+03  0.50400001928E-02 0.  1.
        1   -1    0    0  501    0  0.00000000000E+00  0.00000000000E+00 -0.82575723509E+02  0.82575723662E+02  0.50400001928E-02 0. -1.
    10030    2    1    2    0    0  0.00000000000E+00  0.00000000000E+00  0.66464210185E+03  0.82979354904E+03  0.49679795740E+03 0.  0.
        3    1    3    3  502    0 -0.39756363347E+02  0.10116140303E+03  0.70538872774E+03  0.71371385395E+03  0.10100000352E+00 0.  1.
       -3    1    3    3    0  502  0.39756363347E+02 -0.10116140303E+03 -0.40746625892E+02  0.11607969509E+03  0.10100000352E+00 0. -1.
</event>
<event>
 5   0  0.7220250E-02  0.4882228E+03  0.7818609E-02  0.1016899E+00
       -4   -1    0    0    0  501  0.00000000000E+00  0.00000000000E+00  0.87077351564E+03  0.87077444177E+03  0.12699999809E+01 0.  1.
        4   -1    0    0  501    0  0.00000000000E+00  0.00000000000E+00 -0.68426986521E+02  0.68438771061E+02  0.12699999809E+01 0. -1.
    10030    2    1    2    0    0  0.00000000000E+00  0.00000000000E+00  0.80234652912E+03  0.93921321283E+03  0.48822280402E+03 0.  0.
        1    1    3    3  502    0  0.16457666397E+03 -0.10584153706E+02  0.74740818951E+03  0.76538650655E+03  0.50400001928E-02 0.  1.
       -1    1    3    3    0  502 -0.16457666397E+03  0.10584153706E+02  0.54938339611E+02  0.17382670629E+03  0.50400001928E-02 0. -1.
</event>
<event>
 5   0  0.1782124E-01  0.4983358E+03  0.7818609E-02  0.1014214E+00
        2   -1    0    0  501    0  0.00000000000E+00  0.00000000000E+00  0.10444383076E+04  0.10444383076E+04  0.25500000920E-02 0.  1.
       -2   -1    0    0    0  501  0.00000000000E+00  0.00000000000E+00 -0.59443103146E+02  0.59443103201E+02  0.25500000920E-02 0. -1.
    10030    2    1    2    0    0  0.00000000000E+00  0.00000000000E+00  0.98499520448E+03  0.11038814108E+04  0.49833584692E+03 0.  0.
        3    1    3    3  502    0  0.14884155470E+03 -0.22812808137E+00  0.49853984251E+02  0.15696907464E+03  0.10100000352E+00 0. -1.
       -3    1    3    3    0  502 -0.14884155470E+03  0.22812808137E+00  0.93514122023E+03  0.94691233619E+03  0.10100000352E+00 0.  1.
</event>
<event>
 5   0  0.1760649E-01  0.4911844E+03  0.7818609E-02  0.1016106E+00
       -2   -1    0    0    0  501  0.00000000000E+00  0.00000000000E+00  0.88517384280E+02  0.88517384317E+02  0.25500000920E-02 0. -1.
        2   -1    0    0  501    0  0.00000000000E+00  0.00000000000E+00 -0.68139758361E+03  0.68139758362E+03  0.25500000920E-02 0.  1.
    10030    2    1    2    0    0  0.00000000000E+00  0.00000000000E+00 -0.59288019933E+03  0.76991496794E+03  0.49118441251E+03 0.  0.
        5    1    3    3  502    0 -0.55757588995E+01  0.16787770704E+03 -0.15695445287E+02  0.16876744535E+03  0.46999998093E+01 0. -1.
       -5    1    3    3    0  502  0.55757588995E+01 -0.16787770704E+03 -0.57718475405E+03  0.60114752259E+03  0.46999998093E+01 0.  1.
</event>
<event>
 5   0  0.1683148E-01  0.5000175E+03  0.7818609E-02  0.1013774E+00
        2   -1    0    0  501    0  0.00000000000E+00  0.00000000000E+00  0.12375347470E+04  0.12375347470E+04  0.25500000920E-02 0. -1.
       -2   -1    0    0    0  501  0.00000000000E+00  0.00000000000E+00 -0.50507159650E+02  0.50507159714E+02  0.25500000920E-02 0.  1.
    10030    2    1    2    0    0  0.00000000000E+00  0.00000000000E+00  0.11870275873E+04  0.12880419067E+04  0.50001746002E+03 0.  0.
        2    1    3    3  502    0  0.12908218754E+03  0.21011372078E+03  0.69954898157E+03  0.74174036187E+03  0.25500000920E-02 0.  1.
       -2    1    3    3    0  502 -0.12908218754E+03 -0.21011372078E+03  0.48747860574E+03  0.54630154481E+03  0.25500000920E-02 0. -1.
</event>
<event>
 5   0  0.1068522E-01  0.5036706E+03  0.7818609E-02  0.1012825E+00
       -1   -1    0    0    0  501  0.00000000000E+00  0.00000000000E+00  0.48901044034E+03  0.48901044037E+03  0.50400001928E-02 0.  1.
        1   -1    0    0  501    0  0.00000000000E+00  0.00000000000E+00 -0.12969257682E+03  0.12969257692E+03  0.50400001928E-02 0. -1.
    10030    2    1    2    0    0  0.00000000000E+00  0.00000000000E+00  0.35931786352E+03  0.61870301729E+03  0.50367062308E+03 0.  0.
        2    1    3    3  502    0 -0.20045988084E+03  0.14129965096E+03  0.10940126250E+03  0.26854867609E+03  0.25500000920E-02 0. -1.
       -2    1    3    3    0  502  0.20045988084E+03 -0.14129965096E+03  0.24991660102E+03  0.35015434120E+03  0.25500000920E-02 0.  1.
</event>
<event>
 5   0  0.1827698E-01  0.5031862E+03  0.7818609E-02  0.1012951E+00
       -2   -1    0    0    0  501  0.00000000000E+00  0.00000000000E+00  0.46571550873E+02  0.46571550943E+02  0.25500000920E-02 0.  1.
        2   -1    0    0  501    0  0.00000000000E+00  0.00000000000E+00 -0.13591790775E+04  0.13591790775E+04  0.25500000920E-02 0. -1.
    10030    2    1    2    0    0  0.00000000000E+00  0.00000000000E+00 -0.13126075266E+04  0.14057506285E+04  0.50318615881E+03 0.  0.
        1    1    3    3  502    0  0.26289248623E+02 -0.23211928010E+03 -0.91731049986E+03  0.94658810364E+03  0.50400001928E-02 0. -1.
       -1    1    3    3    0  502 -0.26289248623E+02  0.23211928010E+03 -0.39529702678E+03  0.45916252481E+03  0.50400001928E-02 0.  1.
</event>
<event>
 5   0  0.1123271E-01  0.4564944E+03  0.7818609E-02  0.1025803E+00
        1   -1    0    0  501    0  0.00000000000E+00  0.00000000000E+00  0.95881899184E+02  0.95881899316E+02  0.50400001928E-02 0.  1.
       -1   -1    0    0    0  501  0.00000000000E+00  0.00000000000E+00 -0.54334323521E+03  0.54334323524E+03  0.50400001928E-02 0. -1.
    10030    2    1    2    0    0  0.00000000000E+00  0.00000000000E+00 -0.44746133603E+03  0.63922513455E+03  0.45649438704E+03 0.  0.
        5    1    3    3  502    0  0.15256100932E+03  0.60421632138E+02 -0.16661115749E+01  0.16416607787E+03  0.46999998093E+01 0.  1.
       -5    1    3    3    0  502 -0.15256100932E+03 -0.60421632138E+02 -0.44579522446E+03  0.47505905669E+03  0.46999998093E+01 0. -1.
</event>
<event>
 5   0  0.7220250E-02  0.4833810E+03  0.7818609E-02  0.1018210E+00
       -4   -1    0    0    0  501  0.00000000000E+00  0.00000000000E+00  0.15542799488E+03  0.15543318337E+03  0.12699999809E+01 0. -1.
        4   -1    0    0  501    0  0.00000000000E+00  0.00000000000E+00 -0.37581607670E+03  0.37581822256E+03  0.12699999809E+01 0.  1.
    10030    2    1    2    0    0  0.00000000000E+00  0.00000000000E+00 -0.22038808182E+03  0.53125140593E+03  0.48338095710E+03 0.  0.
        2    1    3    3  502    0 -0.17493991214E+02  0.24031229621E+03 -0.13099591328E+03  0.27425529848E+03  0.25500000920E-02 0.  1.
       -2    1    3    3    0  502  0.17493991214E+02 -0.24031229621E+03 -0.89392168544E+02  0.25699610745E+03  0.25500000920E-02 0. -1.
</event>
<event>
 5   0  0.1147245E-01  0.4962627E+03  0.7818609E-02  0.1014759E+00
        1   -1    0    0  501    0  0.00000000000E+00  0.00000000000E+00  0.65438970641E+03  0.65438970643E+03  0.50400001928E-02 0. -1.
       -1   -1    0    0    0  501  0.00000000000E+00  0.00000000000E+00 -0.94086379847E+02  0.94086379982E+02  0.50400001928E-02 0.  1.
    10030    2    1    2    0    0  0.00000000000E+00  0.00000000000E+00  0.56030332656E+03  0.74847608641E+03  0.49626266651E+03 0.  0.
        1    1    3    3  502    0 -0.18054088212E+03  0.15569288180E+03  0.17638097060E+03  0.29655611674E+03  0.50400001928E-02 0.  1.
       -1    1    3    3    0  502  0.18054088212E+03 -0.15569288180E+03  0.38392235596E+03  0.45191996967E+03  0.50400001928E-02 0. -1.
</event>
<event>
 5   0  0.7220250E-02  0.4994695E+03  0.7818609E-02  0.1013917E+00
       -3   -1    0    0    0  501  0.00000000000E+00  0.00000000000E+00  0.22374371679E+03  0.22374373959E+03  0.10100000352E+00 0.  1.
        3   -1    0    0  501    0  0.00000000000E+00  0.00000000000E+00 -0.27874501365E+03  0.27874503195E+03  0.10100000352E+00 0. -1.
    10030    2    1    2    0    0  0.00000000000E+00  0.00000000000E+00 -0.55001296860E+02  0.50248877154E+03  0.49946954148E+03 0.  0.
        4    1    3    3  502    0 -0.51258894228E+02 -0.14759012482E+03 -0.22350009538E+03  0.27269804678E+03  0.12699999809E+01 0. -1.
       -4    1    3    3    0  502  0.51258894228E+02  0.14759012482E+03  0.16849879852E+03  0.22979072476E+03  0.12699999809E+01 0.  1.
</event>
<event>
 5   0  0.1147245E-01  0.4990965E+03  0.7818609E-02  0.1014015E+00
        1   -1    0    0  501    0  0.00000000000E+00  0.00000000000E+00  0.60972769523E+03  0.60972769525E+03  0.50400001928E-02 0.  1.
       -1   -1    0    0    0  501  0.00000000000E+00  0.00000000000E+00 -0.10213464851E+03  0.10213464863E+03  0.50400001928E-02 0. -1.
    10030    2    1    2    0    0  0.00000000000E+00  0.00000000000E+00  0.50759304672E+03  0.71186234388E+03  0.49909647920E+03 0.  0.
        1    1    3    3  502    0  0.93232544636E+01  0.22927209245E+03  0.11389011432E+03  0.25617098511E+03  0.50400001928E-02 0. -1.
       -1    1    3    3    0  502 -0.93232544636E+01 -0.22927209245E+03  0.39370293240E+03  0.45569135876E+03  0.50400001928E-02 0.  1.
</event>
<event>
 5   0  0.1068522E-01  0.4856400E+03  0.7818609E-02  0.1017597E+00
        1   -1    0    0  501    0  0.00000000000E+00  0.00000000000E+00  0.12058035165E+04  0.12058035165E+04  0.50400001928E-02 0.  1.
       -1   -1    0    0    0  501  0.00000000000E+00  0.00000000000E+00 -0.48898151409E+02  0.48898151668E+02  0.50400001928E-02 0. -1.
    10030    2    1    2    0    0  0.00000000000E+00  0.00000000000E+00  0.11569053651E+04  0.12547016681E+04  0.48564004401E+03 0.  0.
        2    1    3    3  502    0  0.55141683293E+02  0.23639931569E+03  0.56288201714E+03  0.61299380659E+03  0.25500000920E-02 0. -1.
       -2    1    3    3    0  502 -0.55141683293E+02 -0.23639931569E+03  0.59402334791E+03  0.64170786155E+03  0.25500000920E-02 0.  1.
</event>
<event>
 5   0  0.1141970E-01  0.4957870E+03  0.7818609E-02  0.1014884E+00
        1   -1    0    0  501    0  0.00000000000E+00  0.00000000000E+00  0.10689247115E+04  0.10689247116E+04  0.50400001928E-02 0.  1.
       -1   -1    0    0    0  501  0.00000000000E+00  0.00000000000E+00 -0.57488782658E+02  0.57488782878E+02  0.50400001928E-02 0. -1.
    10030    2    1    2    0    0  0.00000000000E+00  0.00000000000E+00  0.10114359289E+04  0.11264134944E+04  0.49578697260E+03 0.  0.
        3    1    3    3  502    0 -0.13042131213E+02  0.67110889472E+02  0.10470824049E+04  0.10493119372E+04  0.10100000352E+00 0.  1.
       -3    1    3    3    0  502  0.13042131213E+02 -0.67110889472E+02 -0.35646476033E+02  0.77101557227E+02  0.10100000352E+00 0. -1.
</event>
<event>
 5   0  0.1074281E-01  0.4972398E+03  0.7818609E-02  0.1014502E+00
        1   -1    0    0  501    0  0.00000000000E+00  0.00000000000E+00  0.10664504550E+04  0.10664504550E+04  0.50400001928E-02 0.  1.
       -1   -1    0    0    0  501  0.00000000000E+00  0.00000000000E+00 -0.57960371338E+02  0.57960371557E+02  0.50400001928E-02 0. -1.
    10030    2    1    2    0    0  0.00000000000E+00  0.00000000000E+00  0.10084900836E+04  0.11244108265E+04  0.49723983957E+03 0.  0.
        4    1    3    3  502    0  0.41654718591E+02 -0.10128061661E+03  0.10089638757E+04  0.10148904346E+04  0.12699999809E+01 0.  1.
       -4    1    3    3    0  502 -0.41654718591E+02  0.10128061661E+03 -0.47379202017E+00  0.10952039198E+03  0.12699999809E+01 0. -1.
</event>
<event>
 5   0  0.7220250E-02  0.4961532E+03  0.7818609E-02  0.1014788E+00
        4   -1    0    0  501    0  0.00000000000E+00  0.00000000000E+00  0.85414040676E+02  0.85423481810E+02  0.12699999809E+01 0. -1.
       -4   -1    0    0    0  501  0.00000000000E+00  0.00000000000E+00 -0.72046400722E+03  0.72046512656E+03  0.12699999809E+01 0.  1.
    10030    2    1    2    0    0  0.00000000000E+00  0.00000000000E+00 -0.63504996654E+03  0.80588860837E+03  0.49615319116E+03 0.  0.
        1    1    3    3  502    0 -0.14773019258E+02  0.24406307246E+03 -0.24944152228E+03  0.34929371380E+03  0.50400001928E-02 0. -1.
       -1    1    3    3    0  502  0.14773019258E+02 -0.24406307246E+03 -0.38560844426E+03  0.45659489457E+03  0.50400001928E-02 0.  1.
</event>
<event>
 5   0  0.1683148E-01  0.4991105E+03  0.7818609E-02  0.1014011E+00
        2   -1    0    0  501    0  0.00000000000E+00  0.00000000000E+00  0.55762834183E+03  0.55762834184E+03  0.25500000920E-02 0. -1.
       -2   -1    0    0    0  501  0.00000000000E+00  0.00000000000E+00 -0.11168341095E+03  0.11168341098E+03  0.25500000920E-02 0.  1.
    10030    2    1    2    0    0  0.00000000000E+00  0.00000000000E+00  0.44594493088E+03  0.66931175282E+03  0.49911054997E+03 0.  0.
        2    1    3    3  502    0 -0.18671504510E+03 -0.16543256184E+03  0.21374045027E+03  0.32850482595E+03  0.25500000920E-02 0.  1.
       -2    1    3    3    0  502  0.18671504510E+03  0.16543256184E+03  0.23220448061E+03  0.34080692687E+03  0.25500000920E-02 0. -1.
</event>
<event>
 5   0  0.7220250E-02  0.5013994E+03  0.7818609E-02  0.1013414E+00
       -4   -1    0    0    0  501  0.00000000000E+00  0.00000000000E+00  0.10440806023E+04  0.10440813747E+04  0.12699999809E+01 0.  1.
        4   -1    0    0  501    0  0.00000000000E+00  0.00000000000E+00 -0.60189337689E+02  0.60202734750E+02  0.12699999809E+01 0. -1.
    10030    2    1    2    0    0  0.00000000000E+00  0.00000000000E+00  0.98389126460E+03  0.11042841094E+04  0.50139941545E+03 0.  0.
        5    1    3    3  502    0 -0.30350738894E+02 -0.44428678822E+02 -0.47230495182E+02  0.71748759757E+02  0.46999998093E+01 0. -1.
       -5    1    3    3    0  502  0.30350738894E+02  0.44428678822E+02  0.10311217598E+04  0.10325353497E+04  0.46999998093E+01 0.  1.
</event>
<event>
 5   0  0.1123271E-01  0.5030101E+03  0.7818609E-02  0.1012996E+00
       -1   -1    0    0    0  501  0.00000000000E+00  0.00000000000E+00  0.17043483641E+03  0.17043483648E+03  0.50400001928E-02 0. -1.
        1   -1    0    0  501    0  0.00000000000E+00  0.00000000000E+00 -0.37113769607E+03  0.37113769610E+03  0.50400001928E-02 0.  1.
    10030    2    1    2    0    0  0.00000000000E+00  0.00000000000E+00 -0.20070285966E+03  0.54157253259E+03  0.50301010942E+03 0.  0.
        5    1    3    3  502    0 -0.36365185218E+02 -0.18970187839E+02  0.16676179074E+03  0.17179604061E+03  0.46999998093E+01 0. -1.
       -5    1    3    3    0  502  0.36365185218E+02  0.18970187839E+02 -0.36746465040E+03  0.36977649197E+03  0.46999998093E+01 0.  1.
</event>
<event>
 5   0  0.1123271E-01  0.4978679E+03  0.7818609E-02  0.1014337E+00
       -1   -1    0    0    0  501  0.00000000000E+00  0.00000000000E+00  0.16317933493E+03  0.16317933501E+03  0.50400001928E-02 0.  1.
        1   -1    0    0  501    0  0.00000000000E+00  0.00000000000E+00 -0.37975458140E+03  0.37975458143E+03  0.50400001928E-02 0. -1.
    10030    2    1    2    0    0  0.00000000000E+00  0.00000000000E+00 -0.21657524647E+03  0.54293391644E+03  0.49786785419E+03 0.  0.
        5    1    3    3  502    0  0.13777577811E+03  0.29737653199E+02 -0.33198879523E+03  0.36070090547E+03  0.46999998093E+01 0. -1.
       -5    1    3    3    0  502 -0.13777577811E+03 -0.29737653199E+02  0.11541354876E+03  0.18223301097E+03  0.46999998093E+01 0.  1.
</event>
<event>
 5   0  0.1782124E-01  0.4990999E+03  0.7818609E-02  0.1014014E+00
       -2   -1    0    0    0  501  0.00000000000E+00  0.00000000000E+00  0.70157771250E+02  0.70157771296E+02  0.25500000920E-02 0.  1.
        2   -1    0    0  501    0  0.00000000000E+00  0.00000000000E+00 -0.88764468277E+03  0.88764468278E+03  0.25500000920E-02 0. -1.
    10030    2    1    2    0    0  0.00000000000E+00  0.00000000000E+00 -0.81748691152E+03  0.95780245407E+03  0.49909988030E+03 0.  0.
        3    1    3    3  502    0 -0.23460705947E+03 -0.64165178490E+02 -0.30159322765E+03  0.38744822577E+03  0.10100000352E+00 0.  1.
       -3    1    3    3    0  502  0.23460705947E+03  0.64165178490E+02 -0.51589368387E+03  0.57035422830E+03  0.10100000352E+00 0. -1.
</event>
<event>
 5   0  0.1782124E-01  0.5028773E+03  0.7818609E-02  0.1013031E+00
        2   -1    0    0  501    0  0.00000000000E+00  0.00000000000E+00  0.26357697458E+03  0.26357697459E+03  0.25500000920E-02 0. -1.
       -2   -1    0    0    0  501  0.00000000000E+00  0.00000000000E+00 -0.23985930504E+03  0.23985930505E+03  0.25500000920E-02 0.  1.
    10030    2    1    2    0    0  0.00000000000E+00  0.00000000000E+00  0.23717669545E+02  0.50343627964E+03  0.50287728107E+03 0.  0.
        3    1    3    3  502    0 -0.33955629119E+02 -0.19698128147E+03 -0.14084520971E+03  0.24452401375E+03  0.10100000352E+00 0.  1.
       -3    1    3    3    0  502  0.33955629119E+02  0.19698128147E+03  0.16456287926E+03  0.25891226589E+03  0.10100000352E+00 0. -1.
</event>
<event>
 5   0  0.1709372E-01  0.4754245E+03  0.7818609E-02  0.1020400E+00
       -2   -1    0    0    0  501  0.00000000000E+00  0.00000000000E+00  0.27633686641E+03  0.27633686642E+03  0.25500000920E-02 0.  1.
        2   -1    0    0  501    0  0.00000000000E+00  0.00000000000E+00 -0.20448635112E+03  0.20448635113E+03  0.25500000920E-02 0. -1.
    10030    2    1    2    0    0  0.00000000000E+00  0.00000000000E+00  0.71850515296E+02  0.48082321756E+03  0.47542451556E+03 0.  0.
        4    1    3    3  502    0 -0.11375399526E+03 -0.13769607355E+02 -0.17470863931E+03  0.20893610285E+03  0.12699999809E+01 0. -1.
       -4    1    3    3    0  502  0.11375399526E+03  0.13769607355E+02  0.24655915461E+03  0.27188711471E+03  0.12699999809E+01 0.  1.
</event>
<event>
 5   0  0.1782124E-01  0.4926150E+03  0.7818609E-02  0.1015725E+00
        2   -1    0    0  501    0  0.00000000000E+00  0.00000000000E+00  0.39296459277E+03  0.39296459278E+03  0.25500000920E-02 0.  1.
       -2   -1    0    0    0  501  0.00000000000E+00  0.00000000000E+00 -0.15438383416E+03  0.15438383418E+03  0.25500000920E-02 0. -1.
    10030    2    1    2    0    0  0.00000000000E+00  0.00000000000E+00  0.23858075861E+03  0.54734842696E+03  0.49261498365E+03 0.  0.
        3    1    3    3  502    0 -0.81625811816E+02  0.23015415633E+03  0.83567584677E+02  0.25810319688E+03  0.10100000352E+00 0.  1.
       -3    1    3    3    0  502  0.81625811816E+02 -0.23015415633E+03  0.15501317393E+03  0.28924523008E+03  0.10100000352E+00 0. -1.
</event>
<event>
 5   0  0.1827698E-01  0.4998747E+03  0.7818609E-02  0.1013812E+00
       -2   -1    0    0    0  501  0.00000000000E+00  0.00000000000E+00  0.15507753775E+03  0.15507753778E+03  0.25500000920E-02 0.  1.
        2   -1    0    0  501    0  0.00000000000E+00  0.00000000000E+00 -0.40282218276E+03  0.40282218277E+03  0.25500000920E-02 0. -1.
    10030    2    1    2    0    0  0.00000000000E+00  0.00000000000E+00 -0.24774464501E+03  0.55789972055E+03  0.49987467335E+03 0.  0.
        1    1    3    3  502    0 -0.12330253379E+03  0.40254297111E+02 -0.36231853145E+03  0.38483586310E+03  0.50400001928E-02 0. -1.
       -1    1    3    3    0  502  0.12330253379E+03 -0.40254297111E+02  0.11457388644E+03  0.17306385744E+03  0.50400001928E-02 0.  1.
</event>
<event>
 5   0  0.1782124E-01  0.4972989E+03  0.7818609E-02  0.1014486E+00
        2   -1    0    0  501    0  0.00000000000E+00  0.00000000000E+00  0.58330150026E+03  0.58330150027E+03  0.25500000920E-02 0. -1.
       -2   -1    0    0    0  501  0.00000000000E+00  0.00000000000E+00 -0.10599415190E+03  0.10599415193E+03  0.25500000920E-02 0.  1.
    10030    2    1    2    0    0  0.00000000000E+00  0.00000000000E+00  0.47730734836E+03  0.68929565221E+03  0.49729889538E+03 0.  0.
        3    1    3    3  502    0  0.45163874280E+02  0.24029472707E+03  0.30133765929E+03  0.38805376755E+03  0.10100000352E+00 0. -1.
       -3    1    3    3    0  502 -0.45163874280E+02 -0.24029472707E+03  0.17596968907E+03  0.30124188466E+03  0.10100000352E+00 0.  1.
</event>
<event>
 5   0  0.1760649E-01  0.4972416E+03  0.7818609E-02  0.1014501E+00
        2   -1    0    0  501    0  0.00000000000E+00  0.00000000000E+00  0.48896744841E+03  0.48896744842E+03  0.25500000920E-02 0.  1.
       -2   -1    0    0    0  501  0.00000000000E+00  0.00000000000E+00 -0.12641393547E+03  0.12641393550E+03  0.25500000920E-02 0. -1.
    10030    2    1    2    0    0  0.00000000000E+00  0.00000000000E+00  0.36255351295E+03  0.61538138392E+03  0.49724158909E+03 0.  0.
        5    1    3    3  502    0 -0.14231598346E+03  0.18823394041E+03  0.84583371417E+02  0.25072353737E+03  0.46999998093E+01 0. -1.
       -5    1    3    3    0  502  0.14231598346E+03 -0.18823394041E+03  0.27797014153E+03  0.36465784655E+03  0.46999998093E+01 0.  1.
</event>
<event>
 5   0  0.1141970E-01  0.5006772E+03  0.7818609E-02  0.1013602E+00
        1   -1    0    0  501    0  0.00000000000E+00  0.00000000000E+00  0.67773105471E+03  0.67773105473E+03  0.50400001928E-02 0. -1.
       -1   -1    0    0    0  501  0.00000000000E+00  0.00000000000E+00 -0.92469436005E+02  0.92469436143E+02  0.50400001928E-02 0.  1.
    10030    2    1    2    0    0  0.00000000000E+00  0.00000000000E+00  0.58526161871E+03  0.77020049088E+03  0.50067717524E+03 0.  0.
        3    1    3    3  502    0 -0.16097940621E+03 -0.42137497293E+02  0.58033921495E+03  0.60372473240E+03  0.10100000352E+00 0. -1.
       -3    1    3    3    0  502  0.16097940621E+03  0.42137497293E+02  0.49224037588E+01  0.16647575848E+03  0.10100000352E+00 0.  1.
</event>
<event>
 5   0  0.7220250E-02  0.5030863E+03  0.7818609E-02  0.1012976E+00
        3   -1    0    0  501    0  0.00000000000E+00  0.00000000000E+00  0.18281061512E+03  0.18281064302E+03  0.10100000352E+00 0. -1.
       -3   -1    0    0    0  501  0.00000000000E+00  0.00000000000E+00 -0.34611747867E+03  0.34611749341E+03  0.10100000352E+00 0.  1.
    10030    2    1    2    0    0  0.00000000000E+00  0.00000000000E+00 -0.16330686355E+03  0.52892813643E+03  0.50308631648E+03 0.  0.
        4    1    3    3  502    0 -0.98541499802E+02  0.16852332382E+03  0.85119322671E+02  0.21297288524E+03  0.12699999809E+01 0. -1.
       -4    1    3    3    0  502  0.98541499802E+02 -0.16852332382E+03 -0.24842618622E+03  0.31595525119E+03  0.12699999809E+01 0.  1.
</event>
<event>
 5   0  0.1147245E-01  0.4922323E+03  0.7818609E-02  0.1015827E+00
       -1   -1    0    0    0  501  0.00000000000E+00  0.00000000000E+00  0.24743192411E+03  0.24743192416E+03  0.50400001928E-02 0.  1.
        1   -1    0    0  501    0  0.00000000000E+00  0.00000000000E+00 -0.24480734207E+03  0.24480734212E+03  0.50400001928E-02 0. -1.
    10030    2    1    2    0    0  0.00000000000E+00  0.00000000000E+00  0.26245820354E+01  0.49223926628E+03  0.49223226920E+03 0.  0.
        1    1    3    3  502    0  0.17200363740E+03 -0.14106113893E+03  0.10662122117E+03  0.24668113228E+03  0.50400001928E-02 0.  1.
       -1    1    3    3    0  502 -0.17200363740E+03  0.14106113893E+03 -0.10399663914E+03  0.24555813400E+03  0.50400001928E-02 0. -1.
</event>
<event>
 5   0  0.1141970E-01  0.4983715E+03  0.7818609E-02  0.1014205E+00
        1   -1    0    0  501    0  0.00000000000E+00  0.00000000000E+00  0.60430144982E+03  0.60430144984E+03  0.50400001928E-02 0. -1.
       -1   -1    0    0    0  501  0.00000000000E+00  0.00000000000E+00 -0.10275259312E+03  0.10275259324E+03  0.50400001928E-02 0.  1.
    10030    2    1    2    0    0  0.00000000000E+00  0.00000000000E+00  0.50154885670E+03  0.70705404309E+03  0.49837151221E+03 0.  0.
        3    1    3    3  502    0 -0.77011684211E+02 -0.13736491828E+03  0.52475301211E+03  0.54787375754E+03  0.10100000352E+00 0. -1.
       -3    1    3    3    0  502  0.77011684211E+02  0.13736491828E+03 -0.23204155407E+02  0.15918028555E+03  0.10100000352E+00 0.  1.
</event>
<event>
 5   0  0.1074281E-01  0.5128327E+03  0.7818609E-02  0.1010483E+00
       -1   -1    0    0    0  501  0.00000000000E+00  0.00000000000E+00  0.19172381072E+03  0.19172381079E+03  0.50400001928E-02 0.  1.
        1   -1    0    0  501    0  0.00000000000E+00  0.00000000000E+00 -0.34293785227E+03  0.34293785231E+03  0.50400001928E-02 0. -1.
    10030    2    1    2    0    0  0.00000000000E+00  0.00000000000E+00 -0.15121404155E+03  0.53466166310E+03  0.51283272870E+03 0.  0.
        4    1    3    3  502    0 -0.24118155245E+03  0.27864789520E+02  0.10382515549E+02  0.24301110523E+03  0.12699999809E+01 0.  1.
       -4    1    3    3    0  502  0.24118155245E+03 -0.27864789520E+02 -0.16159655710E+03  0.29165055786E+03  0.12699999809E+01 0. -1.
</event>
<event>
 5   0  0.1068522E-01  0.4771026E+03  0.7818609E-02  0.1019934E+00
       -1   -1    0    0    0  501  0.00000000000E+00  0.00000000000E+00  0.33038168375E+03  0.33038168379E+03  0.50400001928E-02 0.  1.
        1   -1    0    0  501    0  0.00000000000E+00  0.00000000000E+00 -0.17224541518E+03  0.17224541525E+03  0.50400001928E-02 0. -1.
    10030    2    1    2    0    0  0.00000000000E+00  0.00000000000E+00  0.15813626857E+03  0.50262709904E+03  0.47710263179E+03 0.  0.
        2    1    3    3  502    0  0.96838218103E+02  0.57113071968E+02 -0.14258559844E+03  0.18157697091E+03  0.25500000920E-02 0. -1.
       -2    1    3    3    0  502 -0.96838218103E+02 -0.57113071968E+02  0.30072186701E+03  0.32105012814E+03  0.25500000920E-02 0.  1.
</event>
<event>
 5   0  0.1709372E-01  0.5573158E+03  0.7818609E-02  0.9998146E-01
        2   -1    0    0  501    0  0.00000000000E+00  0.00000000000E+00  0.26642532580E+03  0.26642532581E+03  0.25500000920E-02 0. -1.
       -2   -1    0    0    0  501  0.00000000000E+00  0.00000000000E+00 -0.29145213953E+03  0.29145213955E+03  0.25500000920E-02 0.  1.
    10030    2    1    2    0    0  0.00000000000E+00  0.00000000000E+00 -0.25026813733E+02  0.55787746536E+03  0.55731582155E+03 0.  0.
        4    1    3    3  502    0  0.25867451807E+01 -0.26911339645E+02 -0.29013331802E+03  0.29139297619E+03  0.12699999809E+01 0.  1.
       -4    1    3    3    0  502 -0.25867451807E+01  0.26911339645E+02  0.26510650428E+03  0.26648448916E+03  0.12699999809E+01 0. -1.
</event>
<event>
 5   0  0.1760649E-01  0.4926354E+03  0.7818609E-02  0.1015719E+00
       -2   -1    0    0    0  501  0.00000000000E+00  0.00000000000E+00  0.62300180464E+02  0.62300180516E+02  0.25500000920E-02 0.  1.
        2   -1    0    0  501    0  0.00000000000E+00  0.00000000000E+00 -0.97387202764E+03  0.97387202765E+03  0.25500000920E-02 0. -1.
    10030    2    1    2    0    0  0.00000000000E+00  0.00000000000E+00 -0.91157184718E+03  0.10361722082E+04  0.49263537469E+03 0.  0.
        5    1    3    3  502    0 -0.56123226503E+02 -0.15649836926E+03 -0.73647303827E+02  0.18189989415E+03  0.46999998093E+01 0.  1.
       -5    1    3    3    0  502  0.56123226503E+02  0.15649836926E+03 -0.83792454335E+03  0.85427231401E+03  0.46999998093E+01 0. -1.
</event>
<event>
 5   0  0.1074281E-01  0.4899779E+03  0.7818609E-02  0.1016428E+00
        1   -1    0    0  501    0  0.00000000000E+00  0.00000000000E+00  0.79114985821E+02  0.79114985981E+02  0.50400001928E-02 0.  1.
       -1   -1    0    0    0  501  0.00000000000E+00  0.00000000000E+00 -0.75863730548E+03  0.75863730550E+03  0.50400001928E-02 0. -1.
    10030    2    1    2    0    0  0.00000000000E+00  0.00000000000E+00 -0.67952231966E+03  0.83775229148E+03  0.48997787599E+03 0.  0.
        4    1    3    3  502    0 -0.17593804703E+03  0.34741692525E+02 -0.62512875262E+03  0.65034510211E+03  0.12699999809E+01 0. -1.
       -4    1    3    3    0  502  0.17593804703E+03 -0.34741692525E+02 -0.54393567044E+02  0.18740718937E+03  0.12699999809E+01 0.  1.
</event>
<event>
 5   0  0.1782124E-01  0.5198820E+03  0.7818609E-02  0.1008716E+00
        2   -1    0    0  501    0  0.00000000000E+00  0.00000000000E+00  0.67269207797E+03  0.67269207798E+03  0.25500000920E-02 0. -1.
       -2   -1    0    0    0  501  0.00000000000E+00  0.00000000000E+00 -0.10044615615E+03  0.10044615618E+03  0.25500000920E-02 0.  1.
    10030    2    1    2    0    0  0.00000000000E+00  0.00000000000E+00  0.57224592183E+03  0.77313823416E+03  0.51988203861E+03 0.  0.
        3    1    3    3  502    0 -0.17257141625E+03 -0.15743109042E+03  0.11653741360E+03  0.26104869452E+03  0.10100000352E+00 0.  1.
       -3    1    3    3    0  502  0.17257141625E+03  0.15743109042E+03  0.45570850823E+03  0.51208953964E+03  0.10100000352E+00 0. -1.
</event>
<event>
 5   0  0.1827698E-01  0.4943925E+03  0.7818609E-02  0.1015253E+00
        2   -1    0    0  501    0  0.00000000000E+00  0.00000000000E+00  0.11573828800E+04  0.11573828800E+04  0.25500000920E-02 0. -1.
       -2   -1    0    0    0  501  0.00000000000E+00  0.00000000000E+00 -0.52796688732E+02  0.52796688793E+02  0.25500000920E-02 0.  1.
    10030    2    1    2    0    0  0.00000000000E+00  0.00000000000E+00  0.11045861913E+04  0.12101795688E+04  0.49439249064E+03 0.  0.
        1    1    3    3  502    0 -0.15282385128E+03 -0.14106868308E+03  0.87933462892E+03  0.90359553590E+03  0.50400001928E-02 0. -1.
       -1    1    3    3    0  502  0.15282385128E+03  0.14106868308E+03  0.22525156239E+03  0.30658403293E+03  0.50400001928E-02 0.  1.
</event>
<event>
 5   0  0.7220250E-02  0.4912083E+03  0.7818609E-02  0.1016099E+00
        3   -1    0    0  501    0  0.00000000000E+00  0.00000000000E+00  0.41376067648E+03  0.41376068880E+03  0.10100000352E+00 0. -1.
       -3   -1    0    0    0  501  0.00000000000E+00  0.00000000000E+00 -0.14578809774E+03  0.14578813272E+03  0.10100000352E+00 0.  1.
    10030    2    1    2    0    0  0.00000000000E+00  0.00000000000E+00  0.26797257874E+03  0.55954882153E+03  0.49120828649E+03 0.  0.
        1    1    3    3  502    0  0.11094169013E+03 -0.21903236247E+03  0.14102317799E+03  0.28314443518E+03  0.50400001928E-02 0.  1.
       -1    1    3    3    0  502 -0.11094169013E+03  0.21903236247E+03  0.12694940075E+03  0.27640438635E+03  0.50400001928E-02 0. -1.
</event>
<event>
 5   0  0.1683148E-01  0.5033241E+03  0.7818609E-02  0.1012915E+00
        2   -1    0    0  501    0  0.00000000000E+00  0.00000000000E+00  0.13507549953E+04  0.13507549953E+04  0.25500000920E-02 0. -1.
       -2   -1    0    0    0  501  0.00000000000E+00  0.00000000000E+00 -0.46887697622E+02  0.46887697691E+02  0.25500000920E-02 0.  1.
    10030    2    1    2    0    0  0.00000000000E+00  0.00000000000E+00  0.13038672977E+04  0.13976426930E+04  0.50332411757E+03 0.  0.
        2    1    3    3  502    0  0.17223153407E+03 -0.14136518037E+03  0.32708107734E+03  0.39576488817E+03  0.25500000920E-02 0.  1.
       -2    1    3    3    0  502 -0.17223153407E+03  0.14136518037E+03  0.97678622036E+03  0.10018778048E+04  0.25500000920E-02 0. -1.
</event>
<event>
 5   0  0.7220250E-02  0.5016171E+03  0.7818609E-02  0.1013358E+00
       -4   -1    0    0    0  501  0.00000000000E+00  0.00000000000E+00  0.28380248232E+03  0.28380532390E+03  0.12699999809E+01 0. -1.
        4   -1    0    0  501    0  0.00000000000E+00  0.00000000000E+00 -0.22164464876E+03  0.22164828721E+03  0.12699999809E+01 0.  1.
    10030    2    1    2    0    0  0.00000000000E+00  0.00000000000E+00  0.62157833563E+02  0.50545361111E+03  0.50161714156E+03 0.  0.
        2    1    3    3  502    0  0.28838647754E+01  0.20129478573E+03 -0.11965471857E+03  0.23419043345E+03  0.25500000920E-02 0.  1.
       -2    1    3    3    0  502 -0.28838647754E+01 -0.20129478573E+03  0.18181255213E+03  0.27126317766E+03  0.25500000920E-02 0. -1.
</event>
<event>
 5   0  0.1074281E-01  0.4975449E+03  0.7818609E-02  0.1014422E+00
       -1   -1    0    0    0  501  0.00000000000E+00  0.00000000000E+00  0.10689846790E+03  0.10689846802E+03  0.50400001928E-02 0. -1.
        1   -1    0    0  501    0  0.00000000000E+00  0.00000000000E+00 -0.57893942917E+03  0.57893942919E+03  0.50400001928E-02 0.  1.
    10030    2    1    2    0    0  0.00000000000E+00  0.00000000000E+00 -0.47204096127E+03  0.68583789721E+03  0.49754492475E+03 0.  0.
        4    1    3    3  502    0  0.17053475614E+03 -0.17115728021E+03 -0.31767753399E+03  0.39912096678E+03  0.12699999809E+01 0. -1.
       -4    1    3    3    0  502 -0.17053475614E+03  0.17115728021E+03 -0.15436342727E+03  0.28671693044E+03  0.12699999809E+01 0.  1.
</event>
<event>
 5   0  0.1760649E-01  0.4917515E+03  0.7818609E-02  0.1015955E+00
       -2   -1    0    0    0  501  0.00000000000E+00  0.00000000000E+00  0.50295702841E+02  0.50295702906E+02  0.25500000920E-02 0.  1.
        2   -1    0    0  501    0  0.00000000000E+00  0.00000000000E+00 -0.12019888301E+04  0.12019888301E+04  0.25500000920E-02 0. -1.
    10030    2    1    2    0    0  0.00000000000E+00  0.00000000000E+00 -0.11516931273E+04  0.12522845331E+04  0.49175145373E+03 0.  0.
        5    1    3    3  502    0  0.15896810738E+03 -0.83950644091E+02 -0.14885398034E+03  0.23344842529E+03  0.46999998093E+01 0.  1.
       -5    1    3    3    0  502 -0.15896810738E+03  0.83950644091E+02 -0.10028391470E+04  0.10188361078E+04  0.46999998093E+01 0. -1.
</event>
<event>
 5   0  0.1760649E-01  0.4968855E+03  0.7818609E-02  0.1014595E+00
        2   -1    0    0  501    0  0.00000000000E+00  0.00000000000E+00  0.64059485146E+03  0.64059485147E+03  0.25500000920E-02 0.  1.
       -2   -1    0    0    0  501  0.00000000000E+00  0.00000000000E+00 -0.96353871104E+02  0.96353871137E+02  0.25500000920E-02 0. -1.
    10030    2    1    2    0    0  0.00000000000E+00  0.00000000000E+00  0.54424098036E+03  0.73694872261E+03  0.49688547478E+03 0.  0.
        5    1    3    3  502    0 -0.15417588866E+02  0.14067281929E+03 -0.30654225512E+02  0.14487344710E+03  0.46999998093E+01 0.  1.
       -5    1    3    3    0  502  0.15417588866E+02 -0.14067281929E+03  0.57489520587E+03  0.59207527551E+03  0.46999998093E+01 0. -1.
</event>
<event>
 5   0  0.1123271E-01  0.4993241E+03  0.7818609E-02  0.1013955E+00
       -1   -1    0    0    0  501  0.00000000000E+00  0.00000000000E+00  0.22837209264E+03  0.22837209269E+03  0.50400001928E-02 0. -1.
        1   -1    0    0  501    0  0.00000000000E+00  0.00000000000E+00 -0.27293676068E+03  0.27293676073E+03  0.50400001928E-02 0.  1.
    10030    2    1    2    0    0  0.00000000000E+00  0.00000000000E+00 -0.44564668045E+02  0.50130885343E+03  0.49932410004E+03 0.  0.
        5    1    3    3  502    0  0.21257561048E+03  0.12910437541E+03 -0.43644109802E+02  0.25255341661E+03  0.46999998093E+01 0.  1.
       -5    1    3    3    0  502 -0.21257561048E+03 -0.12910437541E+03 -0.92055824336E+00  0.24875543682E+03  0.46999998093E+01 0. -1.
</event>
<event>
 5   0  0.1074281E-01  0.4996470E+03  0.7818609E-02  0.1013871E+00
        1   -1    0    0  501    0  0.00000000000E+00  0.00000000000E+00  0.14108384837E+04  0.14108384837E+04  0.50400001928E-02 0. -1.
       -1   -1    0    0    0  501  0.00000000000E+00  0.00000000000E+00 -0.44237372613E+02  0.44237372900E+02  0.50400001928E-02 0.  1.
    10030    2    1    2    0    0  0.00000000000E+00  0.00000000000E+00  0.13666011111E+04  0.14550758566E+04  0.49964702707E+03 0.  0.
        4    1    3    3  502    0 -0.71473580011E+02  0.18623140247E+03  0.11212908346E+04  0.11388965522E+04  0.12699999809E+01 0. -1.
       -4    1    3    3    0  502  0.71473580011E+02 -0.18623140247E+03  0.24531027653E+03  0.31617930448E+03  0.12699999809E+01 0.  1.
</event>
<event>
 5   0  0.1141970E-01  0.4995236E+03  0.7818609E-02  0.1013903E+00
        1   -1    0    0  501    0  0.00000000000E+00  0.00000000000E+00  0.19732270237E+03  0.19732270244E+03  0.50400001928E-02 0. -1.
       -1   -1    0    0    0  501  0.00000000000E+00  0.00000000000E+00 -0.31613676627E+03  0.31613676631E+03  0.50400001928E-02 0.  1.
    10030    2    1    2    0    0  0.00000000000E+00  0.00000000000E+00 -0.11881406390E+03  0.51345946875E+03  0.49952361733E+03 0.  0.
        3    1    3    3  502    0  0.59728142154E+02 -0.16453088492E+03  0.12372939048E+03  0.21435212928E+03  0.10100000352E+00 0. -1.
       -3    1    3    3    0  502 -0.59728142154E+02  0.16453088492E+03 -0.24254345438E+03  0.29910733947E+03  0.10100000352E+00 0.  1.
</event>
<event>
 5   0  0.7220250E-02  0.4984508E+03  0.7818609E-02  0.1014184E+00
       -3   -1    0    0    0  501  0.00000000000E+00  0.00000000000E+00  0.14151775351E+03  0.14151778955E+03  0.10100000352E+00 0.  1.
        3   -1    0    0  501    0  0.00000000000E+00  0.00000000000E+00 -0.43890806081E+03  0.43890807243E+03  0.10100000352E+00 0. -1.
    10030    2    1    2    0    0  0.00000000000E+00  0.00000000000E+00 -0.29739030729E+03  0.58042586198E+03  0.49845078632E+03 0.  0.
        1    1    3    3  502    0  0.38003689810E+02 -0.16970811331E+03 -0.35657053004E+03  0.39672114524E+03  0.50400001928E-02 0. -1.
       -1    1    3    3    0  502 -0.38003689810E+02  0.16970811331E+03  0.59180222742E+02  0.18370471674E+03  0.50400001928E-02 0.  1.
</event>
<event>
 5   0  0.7220250E-02  0.4942740E+03  0.7818609E-02  0.1015284E+00
        3   -1    0    0  501    0  0.00000000000E+00  0.00000000000E+00  0.45036431333E+02  0.45036544585E+02  0.10100000352E+00 0. -1.
       -3   -1    0    0    0  501  0.00000000000E+00  0.00000000000E+00 -0.13561603585E+04  0.13561603622E+04  0.10100000352E+00 0.  1.
    10030    2    1    2    0    0  0.00000000000E+00  0.00000000000E+00 -0.13111239271E+04  0.14011969068E+04  0.49427403266E+03 0.  0.
        2    1    3    3  502    0  0.14988297029E+03 -0.18893278158E+03 -0.50247425137E+03  0.55735166101E+03  0.25500000920E-02 0. -1.
       -2    1    3    3    0  502 -0.14988297029E+03  0.18893278158E+03 -0.80864967577E+03  0.84384524580E+03  0.25500000920E-02 0.  1.
</event>
<event>
 5   0  0.1141970E-01  0.4949537E+03  0.7818609E-02  0.1015105E+00
        1   -1    0    0  501    0  0.00000000000E+00  0.00000000000E+00  0.72870541444E+03  0.72870541446E+03  0.50400001928E-02 0.  1.
       -1   -1    0    0    0  501  0.00000000000E+00  0.00000000000E+00 -0.84046035681E+02  0.84046035832E+02  0.50400001928E-02 0. -1.
    10030    2    1    2    0    0  0.00000000000E+00  0.00000000000E+00  0.64465937876E+03  0.81275145029E+03  0.49495374059E+03 0.  0.
        3    1    3    3  502    0  0.20681131072E+03  0.11852338607E+03  0.21308438872E+03  0.31972437850E+03  0.10100000352E+00 0. -1.
       -3    1    3    3    0  502 -0.20681131072E+03 -0.11852338607E+03  0.43157499004E+03  0.49302707179E+03  0.10100000352E+00 0.  1.
</event>
<event>
 5   0  0.1074281E-01  0.4035844E+03  0.7818609E-02  0.1042546E+00
       -1   -1    0    0    0  501  0.00000000000E+00  0.00000000000E+00  0.81487899520E+02  0.81487899676E+02  0.50400001928E-02 0.  1.
        1   -1    0    0  501    0  0.00000000000E+00  0.00000000000E+00 -0.49970720800E+03  0.49970720803E+03  0.50400001928E-02 0. -1.
    10030    2    1    2    0    0  0.00000000000E+00  0.00000000000E+00 -0.41821930848E+03  0.58119510770E+03  0.40358439419E+03 0.  0.
        4    1    3    3  502    0 -0.11870251831E+03 -0.14880138500E+03 -0.30556661515E+03  0.36000654053E+03  0.12699999809E+01 0. -1.
       -4    1    3    3    0  502  0.11870251831E+03  0.14880138500E+03 -0.11265269333E+03  0.22118856717E+03  0.12699999809E+01 0.  1.
</event>
<event>
 5   0  0.1123271E-01  0.4898512E+03  0.7818609E-02  0.1016462E+00
        1   -1    0    0  501    0  0.00000000000E+00  0.00000000000E+00  0.64131167847E+03  0.64131167848E+03  0.50400001928E-02 0. -1.
       -1   -1    0    0    0  501  0.00000000000E+00  0.00000000000E+00 -0.93540408827E+02  0.93540408963E+02  0.50400001928E-02 0.  1.
    10030    2    1    2    0    0  0.00000000000E+00  0.00000000000E+00  0.54777126964E+03  0.73485208745E+03  0.48985122903E+03 0.  0.
        5    1    3    3  502    0 -0.20220333952E+03 -0.67367202918E+02  0.92982186123E+02  0.23257753003E+03  0.46999998093E+01 0.  1.
       -5    1    3    3    0  502  0.20220333952E+03  0.67367202918E+02  0.45478908351E+03  0.50227455741E+03  0.46999998093E+01 0. -1.
</event>
<event>
 5   0  0.1827698E-01  0.5019760E+03  0.7818609E-02  0.1013264E+00
       -2   -1    0    0    0  501  0.00000000000E+00  0.00000000000E+00  0.88681962875E+03  0.88681962875E+03  0.25500000920E-02 0. -1.
        2   -1    0    0  501    0  0.00000000000E+00  0.00000000000E+00 -0.71034704890E+02  0.71034704936E+02  0.25500000920E-02 0.  1.
    10030    2    1    2    0    0  0.00000000000E+00  0.00000000000E+00  0.81578492386E+03  0.95785433369E+03  0.50197597808E+03 0.  0.
        1    1    3    3  502    0  0.17890188119E+01 -0.25083941213E+03  0.39177331773E+03  0.46519882177E+03  0.50400001928E-02 0.  1.
       -1    1    3    3    0  502 -0.17890188119E+01  0.25083941213E+03  0.42401160613E+03  0.49265551192E+03  0.50400001928E-02 0. -1.
</event>
<event>
 5   0  0.1147245E-01  0.5070008E+03  0.7818609E-02  0.1011968E+00
       -1   -1    0    0    0  501  0.00000000000E+00  0.00000000000E+00  0.53164782552E+02  0.53164782791E+02  0.50400001928E-02 0. -1.
        1   -1    0    0  501    0  0.00000000000E+00  0.00000000000E+00 -0.12087412121E+04  0.12087412121E+04  0.50400001928E-02 0.  1.
    10030    2    1    2    0    0  0.00000000000E+00  0.00000000000E+00 -0.11555764296E+04  0.12619059949E+04  0.50700084363E+03 0.  0.
        1    1    3    3  502    0  0.15294765297E+03 -0.12473364659E+03 -0.97376793560E+03  0.99356703828E+03  0.50400001928E-02 0.  1.
       -1    1    3    3    0  502 -0.15294765297E+03  0.12473364659E+03 -0.18180849396E+03  0.26833895662E+03  0.50400001928E-02 0. -1.
</event>
<event>
 5   0  0.1709372E-01  0.5031727E+03  0.7818609E-02  0.1012954E+00
       -2   -1    0    0    0  501  0.00000000000E+00  0.00000000000E+00  0.88465270896E+02  0.88465270933E+02  0.25500000920E-02 0. -1.
        2   -1    0    0  501    0  0.00000000000E+00  0.00000000000E+00 -0.71548640667E+03  0.71548640667E+03  0.25500000920E-02 0.  1.
    10030    2    1    2    0    0  0.00000000000E+00  0.00000000000E+00 -0.62702113577E+03  0.80395167761E+03  0.50317272901E+03 0.  0.
        4    1    3    3  502    0 -0.81155296945E+02  0.15688761725E+03 -0.59974771024E+03  0.62521903003E+03  0.12699999809E+01 0.  1.
       -4    1    3    3    0  502  0.81155296945E+02 -0.15688761725E+03 -0.27273425530E+02  0.17873264758E+03  0.12699999809E+01 0. -1.
</event>
<event>
 5   0  0.1760649E-01  0.4971658E+03  0.7818609E-02  0.1014521E+00
       -2   -1    0    0    0  501  0.00000000000E+00  0.00000000000E+00  0.44207205017E+02  0.44207205091E+02  0.25500000920E-02 0.  1.
        2   -1    0    0  501    0  0.00000000000E+00  0.00000000000E+00 -0.13978143665E+04  0.13978143665E+04  0.25500000920E-02 0. -1.
    10030    2    1    2    0    0  0.00000000000E+00  0.00000000000E+00 -0.13536071615E+04  0.14420215716E+04  0.49716583282E+03 0.  0.
        5    1    3    3  502    0 -0.25996027449E+02 -0.20541024398E+03 -0.27802958791E+03  0.34668675130E+03  0.46999998093E+01 0.  1.
       -5    1    3    3    0  502  0.25996027449E+02  0.20541024398E+03 -0.10755775736E+04  0.10953348203E+04  0.46999998093E+01 0. -1.
</event>
<event>
 5   0  0.7220250E-02  0.5014477E+03  0.7818609E-02  0.1013402E+00
       -4   -1    0    0    0  501  0.00000000000E+00  0.00000000000E+00  0.30525663540E+03  0.30525927727E+03  0.12699999809E+01 0.  1.
        4   -1    0    0  501    0  0.00000000000E+00  0.00000000000E+00 -0.20592760367E+03  0.20593151981E+03  0.12699999809E+01 0. -1.
    10030    2    1    2    0    0  0.00000000000E+00  0.00000000000E+00  0.99329031735E+02  0.51119079708E+03  0.50144767870E+03 0.  0.
        4    1    3    3  502    0  0.81536978853E+02  0.14377381151E+03 -0.14252343270E+03  0.21825152821E+03  0.12699999809E+01 0. -1.
       -4    1    3    3    0  502 -0.81536978853E+02 -0.14377381151E+03  0.24185246443E+03  0.29293926887E+03  0.12699999809E+01 0.  1.
</event>
<event>
 5   0  0.1147245E-01  0.4956542E+03  0.7818609E-02  0.1014919E+00
        1   -1    0    0  501    0  0.00000000000E+00  0.00000000000E+00  0.22089933627E+03  0.22089933633E+03  0.50400001928E-02 0.  1.
       -1   -1    0    0    0  501  0.00000000000E+00  0.00000000000E+00 -0.27803736544E+03  0.27803736549E+03  0.50400001928E-02 0. -1.
    10030    2    1    2    0    0  0.00000000000E+00  0.00000000000E+00 -0.57138029176E+02  0.49893670182E+03  0.49565419199E+03 0.  0.
        1    1    3    3  502    0 -0.24710328364E+03 -0.18171708882E+02 -0.33898004287E+02  0.25007862465E+03  0.50400001928E-02 0.  1.
       -1    1    3    3    0  502  0.24710328364E+03  0.18171708882E+02 -0.23240024889E+02  0.24885807716E+03  0.50400001928E-02 0. -1.
</event>
<event>
 5   0  0.1683148E-01  0.4996720E+03  0.7818609E-02  0.1013865E+00
       -2   -1    0    0    0  501  0.00000000000E+00  0.00000000000E+00  0.44184639939E+02  0.44184640013E+02  0.25500000920E-02 0.  1.
        2   -1    0    0  501    0  0.00000000000E+00  0.00000000000E+00 -0.14126637008E+04  0.14126637008E+04  0.25500000920E-02 0. -1.
    10030    2    1    2    0    0  0.00000000000E+00  0.00000000000E+00 -0.13684790608E+04  0.14568483408E+04  0.49967204056E+03 0.  0.
        2    1    3    3  502    0  0.41579891396E+02 -0.22580171444E+03 -0.39704485158E+03  0.45865010169E+03  0.25500000920E-02 0.  1.
       -2    1    3    3    0  502 -0.41579891396E+02  0.22580171444E+03 -0.97143420926E+03  0.99819823910E+03  0.25500000920E-02 0. -1.
</event>
<event>
 5   0  0.1141970E-01  0.4973535E+03  0.7818609E-02  0.1014472E+00
       -1   -1    0    0    0  501  0.00000000000E+00  0.00000000000E+00  0.73341493565E+02  0.73341493738E+02  0.50400001928E-02 0. -1.
        1   -1    0    0  501    0  0.00000000000E+00  0.00000000000E+00 -0.84318071858E+03  0.84318071859E+03  0.50400001928E-02 0.  1.
    10030    2    1    2    0    0  0.00000000000E+00  0.00000000000E+00 -0.76983922501E+03  0.91652221233E+03  0.49735352952E+03 0.  0.
        3    1    3    3  502    0 -0.19535527425E+03  0.11793551765E+03 -0.56704601780E+03  0.61123945063E+03  0.10100000352E+00 0. -1.
       -3    1    3    3    0  502  0.19535527425E+03 -0.11793551765E+03 -0.20279320721E+03  0.30528276170E+03  0.10100000352E+00 0.  1.
</event>
<event>
 5   0  0.1141970E-01  0.5292119E+03  0.7818609E-02  0.1006423E+00
       -1   -1    0    0    0  501  0.00000000000E+00  0.00000000000E+00  0.56221608043E+02  0.56221608269E+02  0.50400001928E-02 0. -1.
        1   -1    0    0  501    0  0.00000000000E+00  0.00000000000E+00 -0.12453627807E+04  0.12453627807E+04  0.50400001928E-02 0.  1.
    10030    2    1    2    0    0  0.00000000000E+00  0.00000000000E+00 -0.11891411727E+04  0.13015843890E+04  0.52921186035E+03 0.  0.
        3    1    3    3  502    0 -0.13502962546E+03 -0.14841754805E+03 -0.10188251599E+04  0.10383956302E+04  0.10100000352E+00 0.  1.
       -3    1    3    3    0  502  0.13502962546E+03  0.14841754805E+03 -0.17031601282E+03  0.26318875877E+03  0.10100000352E+00 0. -1.
</event>
<event>
 5   0  0.1683148E-01  0.4928020E+03  0.7818609E-02  0.1015675E+00
        2   -1    0    0  501    0  0.00000000000E+00  0.00000000000E+00  0.89158306959E+03  0.89158306959E+03  0.25500000920E-02 0. -1.
       -2   -1    0    0    0  501  0.00000000000E+00  0.00000000000E+00 -0.68096246028E+02  0.68096246075E+02  0.25500000920E-02 0.  1.
    10030    2    1    2    0    0  0.00000000000E+00  0.00000000000E+00  0.82348682356E+03  0.95967931567E+03  0.49280202956E+03 0.  0.
        2    1    3    3  502    0  0.42831688137E+02  0.20258276495E+03  0.67184348878E+03  0.70302774027E+03  0.25500000920E-02 0. -1.
       -2    1    3    3    0  502 -0.42831688137E+02 -0.20258276495E+03  0.15164333478E+03  0.25665157540E+03  0.25500000920E-02 0.  1.
</event>
<event>
 5   0  0.1141970E-01  0.5064253E+03  0.7818609E-02  0.1012115E+00
       -1   -1    0    0    0  501  0.00000000000E+00  0.00000000000E+00  0.53143788211E+02  0.53143788450E+02  0.50400001928E-02 0. -1.
        1   -1    0    0  501    0  0.00000000000E+00  0.00000000000E+00 -0.12064747177E+04  0.12064747177E+04  0.50400001928E-02 0.  1.
    10030    2    1    2    0    0  0.00000000000E+00  0.00000000000E+00 -0.11533309295E+04  0.12596185061E+04  0.50642526412E+03 0.  0.
        3    1    3    3  502    0 -0.62677929785E+02  0.14867705216E+03 -0.91275712128E+02  0.18537706047E+03  0.10100000352E+00 0. -1.
       -3    1    3    3    0  502  0.62677929785E+02 -0.14867705216E+03 -0.10620552173E+04  0.10742414457E+04  0.10100000352E+00 0.  1.
</event>
<event>
 5   0  0.1782124E-01  0.4268648E+03  0.7818609E-02  0.1034855E+00
       -2   -1    0    0    0  501  0.00000000000E+00  0.00000000000E+00  0.96124801995E+03  0.96124801995E+03  0.25500000920E-02 0. -1.
        2   -1    0    0  501    0  0.00000000000E+00  0.00000000000E+00 -0.47389846236E+02  0.47389846305E+02  0.25500000920E-02 0.  1.
    10030    2    1    2    0    0  0.00000000000E+00  0.00000000000E+00  0.91385817371E+03  0.10086378663E+04  0.42686483058E+03 0.  0.
        3    1    3    3  502    0 -0.85406770044E+02  0.88569552499E+02  0.86901262021E+03  0.87767979713E+03  0.10100000352E+00 0. -1.
       -3    1    3    3    0  502  0.85406770044E+02 -0.88569552499E+02  0.44845553498E+02  0.13095806912E+03  0.10100000352E+00 0.  1.
</event>
<event>
 5   0  0.1782124E-01  0.4935336E+03  0.7818609E-02  0.1015481E+00
       -2   -1    0    0    0  501  0.00000000000E+00  0.00000000000E+00  0.12469792602E+03  0.12469792605E+03  0.25500000920E-02 0.  1.
        2   -1    0    0  501    0  0.00000000000E+00  0.00000000000E+00 -0.48833092807E+03  0.48833092807E+03  0.25500000920E-02 0. -1.
    10030    2    1    2    0    0  0.00000000000E+00  0.00000000000E+00 -0.36363300205E+03  0.61302885412E+03  0.49353360150E+03 0.  0.
        3    1    3    3  502    0 -0.21181716004E+03 -0.10614034077E+03 -0.26752796951E+03  0.35735627306E+03  0.10100000352E+00 0. -1.
       -3    1    3    3    0  502  0.21181716004E+03  0.10614034077E+03 -0.96105032534E+02  0.25567258106E+03  0.10100000352E+00 0.  1.
</event>
<event>
 5   0  0.1683148E-01  0.5000138E+03  0.7818609E-02  0.1013775E+00
        2   -1    0    0  501    0  0.00000000000E+00  0.00000000000E+00  0.31532546157E+03  0.31532546158E+03  0.25500000920E-02 0. -1.
       -2   -1    0    0    0  501  0.00000000000E+00  0.00000000000E+00 -0.19821881345E+03  0.19821881347E+03  0.25500000920E-02 0.  1.
    10030    2    1    2    0    0  0.00000000000E+00  0.00000000000E+00  0.11710664812E+03  0.51354427505E+03  0.50001375522E+03 0.  0.
        2    1    3    3  502    0  0.20541203984E+02 -0.15511911430E+03 -0.14170910198E+03  0.21110506928E+03  0.25500000920E-02 0.  1.
       -2    1    3    3    0  502 -0.20541203984E+02  0.15511911430E+03  0.25881575010E+03  0.30243920578E+03  0.25500000920E-02 0. -1.
</event>
<event>
 5   0  0.1074281E-01  0.4881546E+03  0.7818609E-02  0.1016918E+00
       -1   -1    0    0    0  501  0.00000000000E+00  0.00000000000E+00  0.74873804947E+02  0.74873805117E+02  0.50400001928E-02 0.  1.
        1   -1    0    0  501    0  0.00000000000E+00  0.00000000000E+00 -0.79565519342E+03  0.79565519344E+03  0.50400001928E-02 0. -1.
    10030    2    1    2    0    0  0.00000000000E+00  0.00000000000E+00 -0.72078138847E+03  0.87052899855E+03  0.48815461419E+03 0.  0.
        4    1    3    3  502    0  0.15443002849E+03  0.16505073905E+02 -0.24621766200E+02  0.15725423821E+03  0.12699999809E+01 0.  1.
       -4    1    3    3    0  502 -0.15443002849E+03 -0.16505073905E+02 -0.69615962227E+03  0.71327476035E+03  0.12699999809E+01 0. -1.
</event>
<event>
 5   0  0.1827698E-01  0.5064271E+03  0.7818609E-02  0.1012115E+00
        2   -1    0    0  501    0  0.00000000000E+00  0.00000000000E+00  0.27371043499E+03  0.27371043500E+03  0.25500000920E-02 0.  1.
       -2   -1    0    0    0  501  0.00000000000E+00  0.00000000000E+00 -0.23425160541E+03  0.23425160542E+03  0.25500000920E-02 0. -1.
    10030    2    1    2    0    0  0.00000000000E+00  0.00000000000E+00  0.39458829584E+02  0.50796204043E+03  0.50642712732E+03 0.  0.
        1    1    3    3  502    0  0.10871023971E+03 -0.15637181637E+03  0.18710953550E+03  0.26698321946E+03  0.50400001928E-02 0.  1.
       -1    1    3    3    0  502 -0.10871023971E+03  0.15637181637E+03 -0.14765070592E+03  0.24097882097E+03  0.50400001928E-02 0. -1.
</event>
<event>
 5   0  0.1683148E-01  0.4887583E+03  0.7818609E-02  0.1016756E+00
        2   -1    0    0  501    0  0.00000000000E+00  0.00000000000E+00  0.40954972312E+03  0.40954972313E+03  0.25500000920E-02 0.  1.
       -2   -1    0    0    0  501  0.00000000000E+00  0.00000000000E+00 -0.14582154762E+03  0.14582154765E+03  0.25500000920E-02 0. -1.
    10030    2    1    2    0    0  0.00000000000E+00  0.00000000000E+00  0.26372817549E+03  0.55537127077E+03  0.48875832254E+03 0.  0.
        2    1    3    3  502    0 -0.15143272638E+03  0.18616874776E+03  0.18431223307E+03  0.30259159362E+03  0.25500000920E-02 0.  1.
       -2    1    3    3    0  502  0.15143272638E+03 -0.18616874776E+03  0.79415942427E+02  0.25277967715E+03  0.25500000920E-02 0. -1.
</event>
<event>
 5   0  0.1709372E-01  0.5048268E+03  0.7818609E-02  0.1012527E+00
       -2   -1    0    0    0  501  0.00000000000E+00  0.00000000000E+00  0.34387680975E+02  0.34387681070E+02  0.25500000920E-02 0. -1.
        2   -1    0    0  501    0  0.00000000000E+00  0.00000000000E+00 -0.18527717226E+04  0.18527717226E+04  0.25500000920E-02 0.  1.
    10030    2    1    2    0    0  0.00000000000E+00  0.00000000000E+00 -0.18183840417E+04  0.18871594037E+04  0.50482679409E+03 0.  0.
        4    1    3    3  502    0  0.67480628453E+02 -0.23633126328E+03 -0.69429056231E+03  0.73651008074E+03  0.12699999809E+01 0. -1.
       -4    1    3    3    0  502 -0.67480628453E+02  0.23633126328E+03 -0.11240934794E+04  0.11506493230E+04  0.12699999809E+01 0.  1.
</event>
<event>
 5   0  0.1782124E-01  0.5005315E+03  0.7818609E-02  0.1013640E+00
        2   -1    0    0  501    0  0.00000000000E+00  0.00000000000E+00  0.43169958190E+03  0.43169958191E+03  0.25500000920E-02 0. -1.
       -2   -1    0    0    0  501  0.00000000000E+00  0.00000000000E+00 -0.14508455717E+03  0.14508455719E+03  0.25500000920E-02 0.  1.
    10030    2    1    2    0    0  0.00000000000E+00  0.00000000000E+00  0.28661502473E+03  0.57678413910E+03  0.50053148824E+03 0.  0.
        3    1    3    3  502    0 -0.10652953462E+03 -0.10068465983E+03 -0.90442122352E+02  0.17223742383E+03  0.10100000352E+00 0.  1.
       -3    1    3    3    0  502  0.10652953462E+03  0.10068465983E+03  0.37705714708E+03  0.40454671527E+03  0.10100000352E+00 0. -1.
</event>
<event>
 5   0  0.7220250E-02  0.4977423E+03  0.7818609E-02  0.1014370E+00
       -4   -1    0    0    0  501  0.00000000000E+00  0.00000000000E+00  0.34441832156E+03  0.34442066304E+03  0.12699999809E+01 0. -1.
        4   -1    0    0  501    0  0.00000000000E+00  0.00000000000E+00 -0.17982510218E+03  0.17982958676E+03  0.12699999809E+01 0.  1.
    10030    2    1    2    0    0  0.00000000000E+00  0.00000000000E+00  0.16459321938E+03  0.52425024980E+03  0.49774229934E+03 0.  0.
        4    1    3    3  502    0 -0.53782235183E+02 -0.22785599842E+03 -0.66044141493E+01  0.23421382543E+03  0.12699999809E+01 0.  1.
       -4    1    3    3    0  502  0.53782235183E+02  0.22785599842E+03  0.17119763353E+03  0.29003642437E+03  0.12699999809E+01 0. -1.
</event>
<event>
 5   0  0.1827698E-01  0.5046916E+03  0.7818609E-02  0.1012562E+00
       -2   -1    0    0    0  501  0.00000000000E+00  0.00000000000E+00  0.17334223474E+03  0.17334223476E+03  0.25500000920E-02 0. -1.
        2   -1    0    0  501    0  0.00000000000E+00  0.00000000000E+00 -0.36735653807E+03  0.36735653808E+03  0.25500000920E-02 0.  1.
    10030    2    1    2    0    0  0.00000000000E+00  0.00000000000E+00 -0.19401430332E+03  0.54069877284E+03  0.50469160193E+03 0.  0.
        1    1    3    3  502    0 -0.12227072346E+03  0.17506378255E+03  0.47051675229E+02  0.21865799309E+03  0.50400001928E-02 0. -1.
       -1    1    3    3    0  502  0.12227072346E+03 -0.17506378255E+03 -0.24106597855E+03  0.32204077974E+03  0.50400001928E-02 0.  1.
</event>
<event>
 5   0  0.1709372E-01  0.4971836E+03  0.7818609E-02  0.1014517E+00
        2   -1    0    0  501    0  0.00000000000E+00  0.00000000000E+00  0.49129084427E+03  0.49129084428E+03  0.25500000920E-02 0. -1.
       -2   -1    0    0    0  501  0.00000000000E+00  0.00000000000E+00 -0.12578673897E+03  0.12578673900E+03  0.25500000920E-02 0.  1.
    10030    2    1    2    0    0  0.00000000000E+00  0.00000000000E+00  0.36550410530E+03  0.61707758327E+03  0.49718356046E+03 0.  0.
        4    1    3    3  502    0 -0.24210462348E+03  0.20287155691E+02  0.24807507307E+03  0.34723057494E+03  0.12699999809E+01 0. -1.
       -4    1    3    3    0  502  0.24210462348E+03 -0.20287155691E+02  0.11742903222E+03  0.26984700833E+03  0.12699999809E+01 0.  1.
</event>
<event>
 5   0  0.1074281E-01  0.4953801E+03  0.7818609E-02  0.1014992E+00
        1   -1    0    0  501    0  0.00000000000E+00  0.00000000000E+00  0.56352310447E+03  0.56352310449E+03  0.50400001928E-02 0.  1.
       -1   -1    0    0    0  501  0.00000000000E+00  0.00000000000E+00 -0.10886930212E+03  0.10886930224E+03  0.50400001928E-02 0. -1.
    10030    2    1    2    0    0  0.00000000000E+00  0.00000000000E+00  0.45465380235E+03  0.67239240674E+03  0.49538012541E+03 0.  0.
        4    1    3    3  502    0  0.34718272245E+02  0.22350085429E+03  0.90305755972E+02  0.24354616145E+03  0.12699999809E+01 0. -1.
       -4    1    3    3    0  502 -0.34718272245E+02 -0.22350085429E+03  0.36434804638E+03  0.42884624528E+03  0.12699999809E+01 0.  1.
</event>
<event>
 5   0  0.7220250E-02  0.5017513E+03  0.7818609E-02  0.1013323E+00
        4   -1    0    0  501    0  0.00000000000E+00  0.00000000000E+00  0.85221609737E+03  0.85221704367E+03  0.12699999809E+01 0. -1.
       -4   -1    0    0    0  501  0.00000000000E+00  0.00000000000E+00 -0.73846415119E+02  0.73857334949E+02  0.12699999809E+01 0.  1.
    10030    2    1    2    0    0  0.00000000000E+00  0.00000000000E+00  0.77836968225E+03  0.92607437862E+03  0.50175132534E+03 0.  0.
        3    1    3    3  502    0 -0.22303472225E+03  0.89790463299E+01  0.17782801665E+03  0.28539082730E+03  0.10100000352E+00 0.  1.
       -3    1    3    3    0  502  0.22303472225E+03 -0.89790463299E+01  0.60054166560E+03  0.64068355131E+03  0.10100000352E+00 0. -1.
</event>
<event>
 5   0  0.1141970E-01  0.4911240E+03  0.7818609E-02  0.1016122E+00
       -1   -1    0    0    0  501  0.00000000000E+00  0.00000000000E+00  0.31888645735E+03  0.31888645739E+03  0.50400001928E-02 0.  1.
        1   -1    0    0  501    0  0.00000000000E+00  0.00000000000E+00 -0.18909772132E+03  0.18909772139E+03  0.50400001928E-02 0. -1.
    10030    2    1    2    0    0  0.00000000000E+00  0.00000000000E+00  0.12978873603E+03  0.50798417878E+03  0.49112402699E+03 0.  0.
        3    1    3    3  502    0 -0.62628340193E+02  0.80396870416E+02  0.29598021779E+03  0.31303396827E+03  0.10100000352E+00 0.  1.
       -3    1    3    3    0  502  0.62628340193E+02 -0.80396870416E+02 -0.16619148176E+03  0.19495021051E+03  0.10100000352E+00 0. -1.
</event>
<event>
 5   0  0.1123271E-01  0.5130756E+03  0.7818609E-02  0.1010421E+00
       -1   -1    0    0    0  501  0.00000000000E+00  0.00000000000E+00  0.95260957724E+02  0.95260957858E+02  0.50400001928E-02 0.  1.
        1   -1    0    0  501    0  0.00000000000E+00  0.00000000000E+00 -0.69085651887E+03  0.69085651889E+03  0.50400001928E-02 0. -1.
    10030    2    1    2    0    0  0.00000000000E+00  0.00000000000E+00 -0.59559556115E+03  0.78611747675E+03  0.51307564237E+03 0.  0.
        5    1    3    3  502    0  0.16714793262E+03  0.13567750238E+03 -0.51143891426E+03  0.55492221892E+03  0.46999998093E+01 0. -1.
       -5    1    3    3    0  502 -0.16714793262E+03 -0.13567750238E+03 -0.84156646892E+02  0.23119525783E+03  0.46999998093E+01 0.  1.
</event>
<event>
 5   0  0.1147245E-01  0.4990510E+03  0.7818609E-02  0.1014027E+00
       -1   -1    0    0    0  501  0.00000000000E+00  0.00000000000E+00  0.16923934660E+03  0.16923934668E+03  0.50400001928E-02 0. -1.
        1   -1    0    0  501    0  0.00000000000E+00  0.00000000000E+00 -0.36789898664E+03  0.36789898668E+03  0.50400001928E-02 0.  1.
    10030    2    1    2    0    0  0.00000000000E+00  0.00000000000E+00 -0.19865964004E+03  0.53713833336E+03  0.49905103605E+03 0.  0.
        1    1    3    3  502    0 -0.12939163245E+03 -0.12877681944E+03  0.83762590237E+02  0.20085277026E+03  0.50400001928E-02 0. -1.
       -1    1    3    3    0  502  0.12939163245E+03  0.12877681944E+03 -0.28242223028E+03  0.33628556310E+03  0.50400001928E-02 0.  1.
</event>
<event>
 5   0  0.1709372E-01  0.4978107E+03  0.7818609E-02  0.1014352E+00
       -2   -1    0    0    0  501  0.00000000000E+00  0.00000000000E+00  0.13304982641E+03  0.13304982644E+03  0.25500000920E-02 0. -1.
        2   -1    0    0  501    0  0.00000000000E+00  0.00000000000E+00 -0.46564416474E+03  0.46564416475E+03  0.25500000920E-02 0.  1.
    10030    2    1    2    0    0  0.00000000000E+00  0.00000000000E+00 -0.33259433833E+03  0.59869399118E+03  0.49781070819E+03 0.  0.
        4    1    3    3  502    0  0.13030533119E+03  0.19898373763E+03 -0.25449570362E+03  0.34834420225E+03  0.12699999809E+01 0.  1.
       -4    1    3    3    0  502 -0.13030533119E+03 -0.19898373763E+03 -0.78098634712E+02  0.25034978894E+03  0.12699999809E+01 0. -1.
</event>
<event>
 5   0  0.1147245E-01  0.5016431E+03  0.7818609E-02  0.1013351E+00
       -1   -1    0    0    0  501  0.00000000000E+00  0.00000000000E+00  0.75120977201E+03  0.75120977203E+03  0.50400001928E-02 0.  1.
        1   -1    0    0  501    0  0.00000000000E+00  0.00000000000E+00 -0.83746858547E+02  0.83746858699E+02  0.50400001928E-02 0. -1.
    10030    2    1    2    0    0  0.00000000000E+00  0.00000000000E+00  0.66746291347E+03  0.83495663073E+03  0.50164313446E+03 0.  0.
        1    1    3    3  502    0 -0.15545020921E+02 -0.18911106019E+03  0.60707840848E+02  0.19922370022E+03  0.50400001928E-02 0. -1.
       -1    1    3    3    0  502  0.15545020921E+02  0.18911106019E+03  0.60675507262E+03  0.63573293051E+03  0.50400001928E-02 0.  1.
</event>
<event>
 5   0  0.1760649E-01  0.4785146E+03  0.7818609E-02  0.1019544E+00
        2   -1    0    0  501    0  0.00000000000E+00  0.00000000000E+00  0.77432245205E+03  0.77432245206E+03  0.25500000920E-02 0. -1.
       -2   -1    0    0    0  501  0.00000000000E+00  0.00000000000E+00 -0.73927937209E+02  0.73927937253E+02  0.25500000920E-02 0.  1.
    10030    2    1    2    0    0  0.00000000000E+00  0.00000000000E+00  0.70039451484E+03  0.84825038931E+03  0.47851462521E+03 0.  0.
        5    1    3    3  502    0 -0.39461977385E+00 -0.15530246687E+03  0.27673088896E+02  0.15781920601E+03  0.46999998093E+01 0.  1.
       -5    1    3    3    0  502  0.39461977385E+00  0.15530246687E+03  0.67272142595E+03  0.69043118329E+03  0.46999998093E+01 0. -1.
</event>
<event>
 5   0  0.1760649E-01  0.4926268E+03  0.7818609E-02  0.1015722E+00
       -2   -1    0    0    0  501  0.00000000000E+00  0.00000000000E+00  0.16962873129E+03  0.16962873130E+03  0.25500000920E-02 0. -1.
        2   -1    0    0  501    0  0.00000000000E+00  0.00000000000E+00 -0.35766517059E+03  0.35766517060E+03  0.25500000920E-02 0.  1.
    10030    2    1    2    0    0  0.00000000000E+00  0.00000000000E+00 -0.18803643930E+03  0.52729390190E+03  0.49262679229E+03 0.  0.
        5    1    3    3  502    0  0.12866510825E+03 -0.17771118742E+03 -0.21374793699E+03  0.30634334787E+03  0.46999998093E+01 0.  1.
       -5    1    3    3    0  502 -0.12866510825E+03  0.17771118742E+03  0.25711497687E+02  0.22095055403E+03  0.46999998093E+01 0. -1.
</event>
<event>
 5   0  0.1760649E-01  0.5016010E+03  0.7818609E-02  0.1013362E+00
       -2   -1    0    0    0  501  0.00000000000E+00  0.00000000000E+00  0.37969907493E+03  0.37969907494E+03  0.25500000920E-02 0.  1.
        2   -1    0    0  501    0  0.00000000000E+00  0.00000000000E+00 -0.16565985170E+03  0.16565985172E+03  0.25500000920E-02 0. -1.
    10030    2    1    2    0    0  0.00000000000E+00  0.00000000000E+00  0.21403922323E+03  0.54535892666E+03  0.50160100659E+03 0.  0.
        5    1    3    3  502    0 -0.19889209038E+03  0.89049898750E+02 -0.27862821457E+02  0.21974160940E+03  0.46999998093E+01 0. -1.
       -5    1    3    3    0  502  0.19889209038E+03 -0.89049898750E+02  0.24190204468E+03  0.32561731726E+03  0.46999998093E+01 0.  1.
</event>
<event>
 5   0  0.7220250E-02  0.4907792E+03  0.7818609E-02  0.1016214E+00
       -3   -1    0    0    0  501  0.00000000000E+00  0.00000000000E+00  0.35457153153E+03  0.35457154592E+03  0.10100000352E+00 0. -1.
        3   -1    0    0  501    0  0.00000000000E+00  0.00000000000E+00 -0.16982766660E+03  0.16982769663E+03  0.10100000352E+00 0.  1.
    10030    2    1    2    0    0  0.00000000000E+00  0.00000000000E+00  0.18474386494E+03  0.52439924255E+03  0.49077924768E+03 0.  0.
        3    1    3    3  502    0 -0.24419481427E+03 -0.14180434614E+02  0.11330656113E+03  0.26957481158E+03  0.10100000352E+00 0.  1.
       -3    1    3    3    0  502  0.24419481427E+03  0.14180434614E+02  0.71437303807E+02  0.25482443097E+03  0.10100000352E+00 0. -1.
</event>
<event>
 5   0  0.1683148E-01  0.4920991E+03  0.7818609E-02  0.1015862E+00
        2   -1    0    0  501    0  0.00000000000E+00  0.00000000000E+00  0.52387405991E+03  0.52387405992E+03  0.25500000920E-02 0.  1.
       -2   -1    0    0    0  501  0.00000000000E+00  0.00000000000E+00 -0.11556283693E+03  0.11556283696E+03  0.25500000920E-02 0. -1.
    10030    2    1    2    0    0  0.00000000000E+00  0.00000000000E+00  0.40831122298E+03  0.63943689688E+03  0.49209906551E+03 0.  0.
        2    1    3    3  502    0  0.15741939639E+03  0.11052536521E+03  0.47754024003E+01  0.19240459243E+03  0.25500000920E-02 0. -1.
       -2    1    3    3    0  502 -0.15741939639E+03 -0.11052536521E+03  0.40353582058E+03  0.44703230444E+03  0.25500000920E-02 0.  1.
</event>
<event>
 5   0  0.1074281E-01  0.5025606E+03  0.7818609E-02  0.1013113E+00
       -1   -1    0    0    0  501  0.00000000000E+00  0.00000000000E+00  0.80942842415E+02  0.80942842572E+02  0.50400001928E-02 0. -1.
        1   -1    0    0  501    0  0.00000000000E+00  0.00000000000E+00 -0.78007860452E+03  0.78007860454E+03  0.50400001928E-02 0.  1.
    10030    2    1    2    0    0  0.00000000000E+00  0.00000000000E+00 -0.69913576211E+03  0.86102144711E+03  0.50256056205E+03 0.  0.
        4    1    3    3  502    0  0.22117028674E+03 -0.82263715199E+02 -0.49751094016E+03  0.55063814166E+03  0.12699999809E+01 0.  1.
       -4    1    3    3    0  502 -0.22117028674E+03  0.82263715199E+02 -0.20162482195E+03  0.31038330545E+03  0.12699999809E+01 0. -1.
</event>
<event>
 5   0  0.1827698E-01  0.5072942E+03  0.7818609E-02  0.1011892E+00
        2   -1    0    0  501    0  0.00000000000E+00  0.00000000000E+00  0.31802986261E+03  0.31802986262E+03  0.25500000920E-02 0. -1.
       -2   -1    0    0    0  501  0.00000000000E+00  0.00000000000E+00 -0.20229812168E+03  0.20229812170E+03  0.25500000920E-02 0.  1.
    10030    2    1    2    0    0  0.00000000000E+00  0.00000000000E+00  0.11573174093E+03  0.52032798432E+03  0.50729417049E+03 0.  0.
        1    1    3    3  502    0  0.15749645388E+03  0.19581569032E+03  0.22514027840E+02  0.25230100878E+03  0.50400001928E-02 0.  1.
       -1    1    3    3    0  502 -0.15749645388E+03 -0.19581569032E+03  0.93217713093E+02  0.26802697554E+03  0.50400001928E-02 0. -1.
</event>
<event>
 5   0  0.1760649E-01  0.4963135E+03  0.7818609E-02  0.1014746E+00
        2   -1    0    0  501    0  0.00000000000E+00  0.00000000000E+00  0.69526708333E+03  0.69526708334E+03  0.25500000920E-02 0.  1.
       -2   -1    0    0    0  501  0.00000000000E+00  0.00000000000E+00 -0.88572817687E+02  0.88572817724E+02  0.25500000920E-02 0. -1.
    10030    2    1    2    0    0  0.00000000000E+00  0.00000000000E+00  0.60669426564E+03  0.78383990106E+03  0.49631346801E+03 0.  0.
        5    1    3    3  502    0  0.25596393131E+02  0.15964524661E+03  0.60057031326E+03  0.62197151966E+03  0.46999998093E+01 0.  1.
       -5    1    3    3    0  502 -0.25596393131E+02 -0.15964524661E+03  0.61239523867E+01  0.16186838140E+03  0.46999998093E+01 0. -1.
</event>
<event>
 5   0  0.1709372E-01  0.4842521E+03  0.7818609E-02  0.1017973E+00
        2   -1    0    0  501    0  0.00000000000E+00  0.00000000000E+00  0.11746180337E+04  0.11746180337E+04  0.25500000920E-02 0. -1.
       -2   -1    0    0    0  501  0.00000000000E+00  0.00000000000E+00 -0.49909872125E+02  0.49909872190E+02  0.25500000920E-02 0.  1.
    10030    2    1    2    0    0  0.00000000000E+00  0.00000000000E+00  0.11247081616E+04  0.12245279059E+04  0.48425214878E+03 0.  0.
        4    1    3    3  502    0 -0.21237655630E+03 -0.10032637036E+03  0.41373538986E+03  0.47576020008E+03  0.12699999809E+01 0. -1.
       -4    1    3    3    0  502  0.21237655630E+03  0.10032637036E+03  0.71097277169E+03  0.74876770579E+03  0.12699999809E+01 0.  1.
</event>
<event>
 5   0  0.1782124E-01  0.4882243E+03  0.7818609E-02  0.1016899E+00
       -2   -1    0    0    0  501  0.00000000000E+00  0.00000000000E+00  0.18184804548E+03  0.18184804550E+03  0.25500000920E-02 0.  1.
        2   -1    0    0  501    0  0.00000000000E+00  0.00000000000E+00 -0.32769520009E+03  0.32769520010E+03  0.25500000920E-02 0. -1.
    10030    2    1    2    0    0  0.00000000000E+00  0.00000000000E+00 -0.14584715461E+03  0.50954324560E+03  0.48822425854E+03 0.  0.
        3    1    3    3  502    0  0.12550915627E+03 -0.14528532758E+03  0.84425689960E+02  0.20973335940E+03  0.10100000352E+00 0.  1.
       -3    1    3    3    0  502 -0.12550915627E+03  0.14528532758E+03 -0.23027284457E+03  0.29980988620E+03  0.10100000352E+00 0. -1.
</event>
<event>
 5   0  0.1760649E-01  0.4889002E+03  0.7818609E-02  0.1016717E+00
       -2   -1    0    0    0  501  0.00000000000E+00  0.00000000000E+00  0.48958324893E+02  0.48958324959E+02  0.25500000920E-02 0.  1.
        2   -1    0    0  501    0  0.00000000000E+00  0.00000000000E+00 -0.12205455006E+04  0.12205455006E+04  0.25500000920E-02 0. -1.
    10030    2    1    2    0    0  0.00000000000E+00  0.00000000000E+00 -0.11715871757E+04  0.12695038256E+04  0.48890024835E+03 0.  0.
        5    1    3    3  502    0  0.80615612256E+02  0.91216973226E+02 -0.35484906302E+02  0.12688846172E+03  0.46999998093E+01 0.  1.
       -5    1    3    3    0  502 -0.80615612256E+02 -0.91216973226E+02 -0.11361022694E+04  0.11426153639E+04  0.46999998093E+01 0. -1.
</event>
<event>
 5   0  0.1074281E-01  0.4579935E+03  0.7818609E-02  0.1025365E+00
       -1   -1    0    0    0  501  0.00000000000E+00  0.00000000000E+00  0.71761908853E+03  0.71761908854E+03  0.50400001928E-02 0.  1.
        1   -1    0    0  501    0  0.00000000000E+00  0.00000000000E+00 -0.73074294643E+02  0.73074294817E+02  0.50400001928E-02 0. -1.
    10030    2    1    2    0    0  0.00000000000E+00  0.00000000000E+00  0.64454479388E+03  0.79069338336E+03  0.45799348813E+03 0.  0.
        4    1    3    3  502    0  0.96892371695E+01 -0.13024935926E+03 -0.24575251793E+01  0.13063854422E+03  0.12699999809E+01 0. -1.
       -4    1    3    3    0  502 -0.96892371695E+01  0.13024935926E+03  0.64700231906E+03  0.66005483914E+03  0.12699999809E+01 0.  1.
</event>
<event>
 5   0  0.1141970E-01  0.5005639E+03  0.7818609E-02  0.1013632E+00
        1   -1    0    0  501    0  0.00000000000E+00  0.00000000000E+00  0.58928860655E+03  0.58928860657E+03  0.50400001928E-02 0.  1.
       -1   -1    0    0    0  501  0.00000000000E+00  0.00000000000E+00 -0.10629946720E+03  0.10629946732E+03  0.50400001928E-02 0. -1.
    10030    2    1    2    0    0  0.00000000000E+00  0.00000000000E+00  0.48298913934E+03  0.69558807389E+03  0.50056394179E+03 0.  0.
        3    1    3    3  502    0 -0.77712836003E+02 -0.51804995389E+02 -0.81176108738E+02  0.12374414434E+03  0.10100000352E+00 0. -1.
       -3    1    3    3    0  502  0.77712836003E+02  0.51804995389E+02  0.56416524808E+03  0.57184392956E+03  0.10100000352E+00 0.  1.
</event>
<event>
 5   0  0.1123271E-01  0.5420517E+03  0.7818609E-02  0.1003351E+00
        1   -1    0    0  501    0  0.00000000000E+00  0.00000000000E+00  0.87707207026E+02  0.87707207171E+02  0.50400001928E-02 0.  1.
       -1   -1    0    0    0  501  0.00000000000E+00  0.00000000000E+00 -0.83750243724E+03  0.83750243726E+03  0.50400001928E-02 0. -1.
    10030    2    1    2    0    0  0.00000000000E+00  0.00000000000E+00 -0.74979523021E+03  0.92520964443E+03  0.54205165703E+03 0.  0.
        5    1    3    3  502    0 -0.10926257596E+03  0.14815055107E+03 -0.71432808834E+03  0.73768123474E+03  0.46999998093E+01 0. -1.
       -5    1    3    3    0  502  0.10926257596E+03 -0.14815055107E+03 -0.35467141870E+02  0.18752840969E+03  0.46999998093E+01 0.  1.
</event>
<event>
 5   0  0.1827698E-01  0.4922960E+03  0.7818609E-02  0.1015810E+00
       -2   -1    0    0    0  501  0.00000000000E+00  0.00000000000E+00  0.32617332874E+03  0.32617332875E+03  0.25500000920E-02 0.  1.
        2   -1    0    0  501    0  0.00000000000E+00  0.00000000000E+00 -0.18575660243E+03  0.18575660245E+03  0.25500000920E-02 0. -1.
    10030    2    1    2    0    0  0.00000000000E+00  0.00000000000E+00  0.14041672631E+03  0.51192993120E+03  0.49229604653E+03 0.  0.
        1    1    3    3  502    0  0.45919082088E+02 -0.62435179085E+01 -0.18117939761E+03  0.18701207918E+03  0.50400001928E-02 0. -1.
       -1    1    3    3    0  502 -0.45919082088E+02  0.62435179085E+01  0.32159612392E+03  0.32491785202E+03  0.50400001928E-02 0.  1.
</event>
<event>
 5   0  0.1760649E-01  0.5045250E+03  0.7818609E-02  0.1012605E+00
       -2   -1    0    0    0  501  0.00000000000E+00  0.00000000000E+00  0.39377144758E+02  0.39377144840E+02  0.25500000920E-02 0.  1.
        2   -1    0    0  501    0  0.00000000000E+00  0.00000000000E+00 -0.16160735145E+04  0.16160735145E+04  0.25500000920E-02 0. -1.
    10030    2    1    2    0    0  0.00000000000E+00  0.00000000000E+00 -0.15766963697E+04  0.16554506593E+04  0.50452496782E+03 0.  0.
        5    1    3    3  502    0  0.20159176277E+03  0.20943101615E+01 -0.12856501561E+04  0.13013692938E+04  0.46999998093E+01 0. -1.
       -5    1    3    3    0  502 -0.20159176277E+03 -0.20943101615E+01 -0.29104621363E+03  0.35408136554E+03  0.46999998093E+01 0.  1.
</event>
<event>
 5   0  0.1123271E-01  0.5057291E+03  0.7818609E-02  0.1012294E+00
        1   -1    0    0  501    0  0.00000000000E+00  0.00000000000E+00  0.26893631994E+03  0.26893631999E+03  0.50400001928E-02 0.  1.
       -1   -1    0    0    0  501  0.00000000000E+00  0.00000000000E+00 -0.23775325596E+03  0.23775325601E+03  0.50400001928E-02 0. -1.
    10030    2    1    2    0    0  0.00000000000E+00  0.00000000000E+00  0.31183063985E+02  0.50668957600E+03  0.50572912013E+03 0.  0.
        5    1    3    3  502    0  0.82055481923E+02  0.42604318958E+02  0.25134707897E+03  0.26785382993E+03  0.46999998093E+01 0.  1.
       -5    1    3    3    0  502 -0.82055481923E+02 -0.42604318958E+02 -0.22016401498E+03  0.23883574606E+03  0.46999998093E+01 0. -1.
</event>
<event>
 5   0  0.1147245E-01  0.4895487E+03  0.7818609E-02  0.1016543E+00
        1   -1    0    0  501    0  0.00000000000E+00  0.00000000000E+00  0.83815944756E+03  0.83815944757E+03  0.50400001928E-02 0. -1.
       -1   -1    0    0    0  501  0.00000000000E+00  0.00000000000E+00 -0.71483397756E+02  0.71483397933E+02  0.50400001928E-02 0.  1.
    10030    2    1    2    0    0  0.00000000000E+00  0.00000000000E+00  0.76667604980E+03  0.90964284551E+03  0.48954871161E+03 0.  0.
        1    1    3    3  502    0 -0.22331391180E+03  0.10019810133E+03  0.37889305685E+03  0.45107506168E+03  0.50400001928E-02 0.  1.
       -1    1    3    3    0  502  0.22331391180E+03 -0.10019810133E+03  0.38778299295E+03  0.45856778383E+03  0.50400001928E-02 0. -1.
</event>
<event>
 5   0  0.7220250E-02  0.5065380E+03  0.7818609E-02  0.1012086E+00
       -3   -1    0    0    0  501  0.00000000000E+00  0.00000000000E+00  0.25851535845E+03  0.25851537818E+03  0.10100000352E+00 0.  1.
        3   -1    0    0  501    0  0.00000000000E+00  0.00000000000E+00 -0.24812902691E+03  0.24812904747E+03  0.10100000352E+00 0. -1.
    10030    2    1    2    0    0  0.00000000000E+00  0.00000000000E+00  0.10386331541E+02  0.50664442565E+03  0.50653795332E+03 0.  0.
        3    1    3    3  502    0 -0.19196931786E+03 -0.14926121203E+03 -0.65631575712E+02  0.25187028873E+03  0.10100000352E+00 0. -1.
       -3    1    3    3    0  502  0.19196931786E+03  0.14926121203E+03  0.76017907253E+02  0.25477413691E+03  0.10100000352E+00 0.  1.
</event>
<event>
 5   0  0.1683148E-01  0.4934672E+03  0.7818609E-02  0.1015498E+00
        2   -1    0    0  501    0  0.00000000000E+00  0.00000000000E+00  0.63751385151E+03  0.63751385151E+03  0.25500000920E-02 0. -1.
       -2   -1    0    0    0  501  0.00000000000E+00  0.00000000000E+00 -0.95491998430E+02  0.95491998464E+02  0.25500000920E-02 0.  1.
    10030    2    1    2    0    0  0.00000000000E+00  0.00000000000E+00  0.54202185308E+03  0.73300584997E+03  0.49346720953E+03 0.  0.
        2    1    3    3  502    0  0.36838324008E+01  0.45135277695E+02  0.63128782324E+03  0.63291000916E+03  0.25500000920E-02 0. -1.
       -2    1    3    3    0  502 -0.36838324008E+01 -0.45135277695E+02 -0.89265970162E+02  0.10009584082E+03  0.25500000920E-02 0.  1.
</event>
<event>
 5   0  0.1074281E-01  0.4999023E+03  0.7818609E-02  0.1013804E+00
        1   -1    0    0  501    0  0.00000000000E+00  0.00000000000E+00  0.43767434739E+03  0.43767434742E+03  0.50400001928E-02 0. -1.
       -1   -1    0    0    0  501  0.00000000000E+00  0.00000000000E+00 -0.14274445632E+03  0.14274445641E+03  0.50400001928E-02 0.  1.
    10030    2    1    2    0    0  0.00000000000E+00  0.00000000000E+00  0.29492989107E+03  0.58041880382E+03  0.49990233765E+03 0.  0.
        4    1    3    3  502    0  0.43309636185E+02 -0.20904421385E+03  0.29839780568E+03  0.36690335412E+03  0.12699999809E+01 0. -1.
       -4    1    3    3    0  502 -0.43309636185E+02  0.20904421385E+03 -0.34679146068E+01  0.21351544970E+03  0.12699999809E+01 0.  1.
</event>
<event>
 5   0  0.1709372E-01  0.4973330E+03  0.7818609E-02  0.1014477E+00
       -2   -1    0    0    0  501  0.00000000000E+00  0.00000000000E+00  0.53066010140E+02  0.53066010201E+02  0.25500000920E-02 0.  1.
        2   -1    0    0  501    0  0.00000000000E+00  0.00000000000E+00 -0.11652475461E+04  0.11652475461E+04  0.25500000920E-02 0. -1.
    10030    2    1    2    0    0  0.00000000000E+00  0.00000000000E+00 -0.11121815360E+04  0.12183135563E+04  0.49733303987E+03 0.  0.
        4    1    3    3  502    0 -0.51895463020E+02  0.21621393978E+03 -0.28339444331E+03  0.36021608825E+03  0.12699999809E+01 0.  1.
       -4    1    3    3    0  502  0.51895463020E+02 -0.21621393978E+03 -0.82878709268E+03  0.85809746808E+03  0.12699999809E+01 0. -1.
</event>
<event>
 5   0  0.1827698E-01  0.4974198E+03  0.7818609E-02  0.1014455E+00
        2   -1    0    0  501    0  0.00000000000E+00  0.00000000000E+00  0.24294382678E+03  0.24294382679E+03  0.25500000920E-02 0. -1.
       -2   -1    0    0    0  501  0.00000000000E+00  0.00000000000E+00 -0.25461283269E+03  0.25461283270E+03  0.25500000920E-02 0.  1.
    10030    2    1    2    0    0  0.00000000000E+00  0.00000000000E+00 -0.11669005908E+02  0.49755665949E+03  0.49741980631E+03 0.  0.
        1    1    3    3  502    0 -0.18030638248E+03 -0.56108716268E+02  0.15606810298E+03  0.24498128989E+03  0.50400001928E-02 0. -1.
       -1    1    3    3    0  502  0.18030638248E+03  0.56108716268E+02 -0.16773710889E+03  0.25257536960E+03  0.50400001928E-02 0.  1.
</event>
<event>
 5   0  0.1760649E-01  0.4978604E+03  0.7818609E-02  0.1014339E+00
        2   -1    0    0  501    0  0.00000000000E+00  0.00000000000E+00  0.14387219713E+03  0.14387219715E+03  0.25500000920E-02 0. -1.
       -2   -1    0    0    0  501  0.00000000000E+00  0.00000000000E+00 -0.43070345019E+03  0.43070345019E+03  0.25500000920E-02 0.  1.
    10030    2    1    2    0    0  0.00000000000E+00  0.00000000000E+00 -0.28683125306E+03  0.57457564734E+03  0.49786042903E+03 0.  0.
        5    1    3    3  502    0  0.43605256642E+00  0.14171361409E+03  0.92711326430E+02  0.16941197893E+03  0.46999998093E+01 0. -1.
       -5    1    3    3    0  502 -0.43605256642E+00 -0.14171361409E+03 -0.37954257949E+03  0.40516366841E+03  0.46999998093E+01 0.  1.
</event>
<event>
 5   0  0.1147245E-01  0.5020016E+03  0.7818609E-02  0.1013258E+00
       -1   -1    0    0    0  501  0.00000000000E+00  0.00000000000E+00  0.21171769036E+02  0.21171769636E+02  0.50400001928E-02 0. -1.
        1   -1    0    0  501    0  0.00000000000E+00  0.00000000000E+00 -0.29757263733E+04  0.29757263733E+04  0.50400001928E-02 0.  1.
    10030    2    1    2    0    0  0.00000000000E+00  0.00000000000E+00 -0.29545546043E+04  0.29968981429E+04  0.50200156332E+03 0.  0.
        1    1    3    3  502    0 -0.93053453359E+02  0.98791525024E+02 -0.21675652811E+03  0.25573834891E+03  0.50400001928E-02 0. -1.
       -1    1    3    3    0  502  0.93053453359E+02 -0.98791525024E+02 -0.27377980761E+04  0.27411597940E+04  0.50400001928E-02 0.  1.
</event>
<event>
 5   0  0.1123271E-01  0.5058771E+03  0.7818609E-02  0.1012256E+00
        1   -1    0    0  501    0  0.00000000000E+00  0.00000000000E+00  0.27237508947E+03  0.27237508951E+03  0.50400001928E-02 0.  1.
       -1   -1    0    0    0  501  0.00000000000E+00  0.00000000000E+00 -0.23488900198E+03  0.23488900203E+03  0.50400001928E-02 0. -1.
    10030    2    1    2    0    0  0.00000000000E+00  0.00000000000E+00  0.37486087486E+02  0.50726409155E+03  0.50587711138E+03 0.  0.
        5    1    3    3  502    0  0.22797895830E+03  0.10900039438E+03  0.86990170204E+01  0.25288980663E+03  0.46999998093E+01 0.  1.
       -5    1    3    3    0  502 -0.22797895830E+03 -0.10900039438E+03  0.28787070466E+02  0.25437428492E+03  0.46999998093E+01 0. -1.
</event>
<event>
 5   0  0.1709372E-01  0.5114321E+03  0.7818609E-02  0.1010837E+00
        2   -1    0    0  501    0  0.00000000000E+00  0.00000000000E+00  0.76382295879E+03  0.76382295879E+03  0.25500000920E-02 0.  1.
       -2   -1    0    0    0  501  0.00000000000E+00  0.00000000000E+00 -0.85609762838E+02  0.85609762876E+02  0.25500000920E-02 0. -1.
    10030    2    1    2    0    0  0.00000000000E+00  0.00000000000E+00  0.67821319595E+03  0.84943272167E+03  0.51143211620E+03 0.  0.
        4    1    3    3  502    0  0.52202140751E+02 -0.24606741381E+03  0.26272633166E+03  0.36373200834E+03  0.12699999809E+01 0. -1.
       -4    1    3    3    0  502 -0.52202140751E+02  0.24606741381E+03  0.41548686429E+03  0.48570071333E+03  0.12699999809E+01 0.  1.
</event>
<event>
 5   0  0.7220250E-02  0.5006996E+03  0.7818609E-02  0.1013596E+00
        3   -1    0    0  501    0  0.00000000000E+00  0.00000000000E+00  0.69834263034E+03  0.69834263765E+03  0.10100000352E+00 0.  1.
       -3   -1    0    0    0  501  0.00000000000E+00  0.00000000000E+00 -0.89748194288E+02  0.89748251120E+02  0.10100000352E+00 0. -1.
    10030    2    1    2    0    0  0.00000000000E+00  0.00000000000E+00  0.60859443605E+03  0.78809088877E+03  0.50069957196E+03 0.  0.
        4    1    3    3  502    0  0.21494088303E+03  0.88602495709E+01  0.10275827717E+03  0.23840923566E+03  0.12699999809E+01 0. -1.
       -4    1    3    3    0  502 -0.21494088303E+03 -0.88602495709E+01  0.50583615889E+03  0.54968165310E+03  0.12699999809E+01 0.  1.
</event>
<event>
 5   0  0.1068522E-01  0.4979296E+03  0.7818609E-02  0.1014321E+00
       -1   -1    0    0    0  501  0.00000000000E+00  0.00000000000E+00  0.22159232295E+03  0.22159232301E+03  0.50400001928E-02 0.  1.
        1   -1    0    0  501    0  0.00000000000E+00  0.00000000000E+00 -0.27971845817E+03  0.27971845821E+03  0.50400001928E-02 0. -1.
    10030    2    1    2    0    0  0.00000000000E+00  0.00000000000E+00 -0.58126135220E+02  0.50131078122E+03  0.49792956507E+03 0.  0.
        2    1    3    3  502    0  0.12466216225E+03 -0.52440440244E+02 -0.23951073262E+03  0.27505644060E+03  0.25500000920E-02 0. -1.
       -2    1    3    3    0  502 -0.12466216225E+03  0.52440440244E+02  0.18138459740E+03  0.22625434062E+03  0.25500000920E-02 0.  1.
</event>
<event>
 5   0  0.1709372E-01  0.4993935E+03  0.7818609E-02  0.1013937E+00
       -2   -1    0    0    0  501  0.00000000000E+00  0.00000000000E+00  0.13889349691E+03  0.13889349694E+03  0.25500000920E-02 0.  1.
        2   -1    0    0  501    0  0.00000000000E+00  0.00000000000E+00 -0.44889410966E+03  0.44889410966E+03  0.25500000920E-02 0. -1.
    10030    2    1    2    0    0  0.00000000000E+00  0.00000000000E+00 -0.31000061274E+03  0.58778760660E+03  0.49939352276E+03 0.  0.
        4    1    3    3  502    0  0.22575928761E+02  0.24825543152E+03 -0.17191101167E+03  0.30281255039E+03  0.12699999809E+01 0.  1.
       -4    1    3    3    0  502 -0.22575928761E+02 -0.24825543152E+03 -0.13808960108E+03  0.28497505622E+03  0.12699999809E+01 0. -1.
</event>
<event>
 5   0  0.7220250E-02  0.5012143E+03  0.7818609E-02  0.1013462E+00
       -4   -1    0    0    0  501  0.00000000000E+00  0.00000000000E+00  0.33562488774E+02  0.33586508492E+02  0.12699999809E+01 0. -1.
        4   -1    0    0  501    0  0.00000000000E+00  0.00000000000E+00 -0.18705603490E+04  0.18705607801E+04  0.12699999809E+01 0.  1.
    10030    2    1    2    0    0  0.00000000000E+00  0.00000000000E+00 -0.18369978602E+04  0.19041472886E+04  0.50121428379E+03 0.  0.
        4    1    3    3  502    0  0.12003588894E+03 -0.65994816544E+02 -0.17157458440E+04  0.17212057821E+04  0.12699999809E+01 0.  1.
       -4    1    3    3    0  502 -0.12003588894E+03  0.65994816544E+02 -0.12125201622E+03  0.18294150645E+03  0.12699999809E+01 0. -1.
</event>
<event>
 5   0  0.1827698E-01  0.5039210E+03  0.7818609E-02  0.1012761E+00
       -2   -1    0    0    0  501  0.00000000000E+00  0.00000000000E+00  0.91009746908E+02  0.91009746943E+02  0.25500000920E-02 0.  1.
        2   -1    0    0  501    0  0.00000000000E+00  0.00000000000E+00 -0.69755262981E+03  0.69755262981E+03  0.25500000920E-02 0. -1.
    10030    2    1    2    0    0  0.00000000000E+00  0.00000000000E+00 -0.60654288290E+03  0.78856237676E+03  0.50392097916E+03 0.  0.
        1    1    3    3  502    0  0.39898095896E+02  0.46338108364E+02 -0.68576526989E+03  0.68848608102E+03  0.50400001928E-02 0. -1.
       -1    1    3    3    0  502 -0.39898095896E+02 -0.46338108364E+02  0.79222386990E+02  0.10007629574E+03  0.50400001928E-02 0.  1.
</event>
<event>
 5   0  0.1147245E-01  0.4993516E+03  0.7818609E-02  0.1013948E+00
       -1   -1    0    0    0  501  0.00000000000E+00  0.00000000000E+00  0.62553144553E+02  0.62553144756E+02  0.50400001928E-02 0. -1.
        1   -1    0    0  501    0  0.00000000000E+00  0.00000000000E+00 -0.99656066457E+03  0.99656066458E+03  0.50400001928E-02 0.  1.
    10030    2    1    2    0    0  0.00000000000E+00  0.00000000000E+00 -0.93400752001E+03  0.10591138093E+04  0.49935159325E+03 0.  0.
        1    1    3    3  502    0  0.11947312371E+01  0.22241779267E+03 -0.70759132644E+03  0.74172541223E+03  0.50400001928E-02 0.  1.
       -1    1    3    3    0  502 -0.11947312371E+01 -0.22241779267E+03 -0.22641619358E+03  0.31738839710E+03  0.50400001928E-02 0. -1.
</event>
<event>
 5   0  0.1074281E-01  0.5021027E+03  0.7818609E-02  0.1013232E+00
        1   -1    0    0  501    0  0.00000000000E+00  0.00000000000E+00  0.46703982529E+03  0.46703982531E+03  0.50400001928E-02 0.  1.
       -1   -1    0    0    0  501  0.00000000000E+00  0.00000000000E+00 -0.13494946386E+03  0.13494946396E+03  0.50400001928E-02 0. -1.
    10030    2    1    2    0    0  0.00000000000E+00  0.00000000000E+00  0.33209036142E+03  0.60198928927E+03  0.50210267500E+03 0.  0.
        4    1    3    3  502    0  0.23812874179E+03 -0.56774288024E+02  0.23276192377E+03  0.33779926510E+03  0.12699999809E+01 0.  1.
       -4    1    3    3    0  502 -0.23812874179E+03  0.56774288024E+02  0.99328437655E+02  0.26419002417E+03  0.12699999809E+01 0. -1.
</event>
<event>
 5   0  0.1147245E-01  0.4712329E+03  0.7818609E-02  0.1021573E+00
       -1   -1    0    0    0  501  0.00000000000E+00  0.00000000000E+00  0.23846444897E+03  0.23846444902E+03  0.50400001928E-02 0.  1.
        1   -1    0    0  501    0  0.00000000000E+00  0.00000000000E+00 -0.23280241718E+03  0.23280241724E+03  0.50400001928E-02 0. -1.
    10030    2    1    2    0    0  0.00000000000E+00  0.00000000000E+00  0.56620317856E+01  0.47126686626E+03  0.47123285182E+03 0.  0.
        1    1    3    3  502    0 -0.11630299145E+03 -0.63560375445E+02  0.19764957664E+03  0.23797407908E+03  0.50400001928E-02 0.  1.
       -1    1    3    3    0  502  0.11630299145E+03  0.63560375445E+02 -0.19198754485E+03  0.23329278718E+03  0.50400001928E-02 0. -1.
</event>
<event>
 5   0  0.1782124E-01  0.4997536E+03  0.7818609E-02  0.1013843E+00
        2   -1    0    0  501    0  0.00000000000E+00  0.00000000000E+00  0.93921450902E+03  0.93921450902E+03  0.25500000920E-02 0.  1.
       -2   -1    0    0    0  501  0.00000000000E+00  0.00000000000E+00 -0.66479394392E+02  0.66479394441E+02  0.25500000920E-02 0. -1.
    10030    2    1    2    0    0  0.00000000000E+00  0.00000000000E+00  0.87273511463E+03  0.10056939035E+04  0.49975358644E+03 0.  0.
        3    1    3    3  502    0 -0.24481029503E+03 -0.43093418928E+02  0.38509023527E+03  0.45834880037E+03  0.10100000352E+00 0. -1.
       -3    1    3    3    0  502  0.24481029503E+03  0.43093418928E+02  0.48764487936E+03  0.54734510309E+03  0.10100000352E+00 0.  1.
</event>
<event>
 5   0  0.1683148E-01  0.4981144E+03  0.7818609E-02  0.1014272E+00
        2   -1    0    0  501    0  0.00000000000E+00  0.00000000000E+00  0.43112659393E+03  0.43112659394E+03  0.25500000920E-02 0.  1.
       -2   -1    0    0    0  501  0.00000000000E+00  0.00000000000E+00 -0.14387769233E+03  0.14387769235E+03  0.25500000920E-02 0. -1.
    10030    2    1    2    0    0  0.00000000000E+00  0.00000000000E+00  0.28724890160E+03  0.57500428629E+03  0.49811444245E+03 0.  0.
        2    1    3    3  502    0  0.58146671833E+02 -0.13928454770E+03 -0.85068224963E+02  0.17325652536E+03  0.25500000920E-02 0. -1.
       -2    1    3    3    0  502 -0.58146671833E+02  0.13928454770E+03  0.37231712656E+03  0.40174776093E+03  0.25500000920E-02 0.  1.
</event>
<event>
 5   0  0.1068522E-01  0.4535229E+03  0.7818609E-02  0.1026677E+00
       -1   -1    0    0    0  501  0.00000000000E+00  0.00000000000E+00  0.24637142734E+03  0.24637142740E+03  0.50400001928E-02 0. -1.
        1   -1    0    0  501    0  0.00000000000E+00  0.00000000000E+00 -0.20871232605E+03  0.20871232611E+03  0.50400001928E-02 0.  1.
    10030    2    1    2    0    0  0.00000000000E+00  0.00000000000E+00  0.37659101292E+02  0.45508375351E+03  0.45352289336E+03 0.  0.
        2    1    3    3  502    0 -0.55927552032E+02 -0.56162217823E+02  0.23201938198E+03  0.24518376661E+03  0.25500000920E-02 0. -1.
       -2    1    3    3    0  502  0.55927552032E+02  0.56162217823E+02 -0.19436028069E+03  0.20989998690E+03  0.25500000920E-02 0.  1.
</event>
<event>
 5   0  0.1709372E-01  0.5147422E+03  0.7818609E-02  0.1010001E+00
        2   -1    0    0  501    0  0.00000000000E+00  0.00000000000E+00  0.61995000218E+03  0.61995000219E+03  0.25500000920E-02 0.  1.
       -2   -1    0    0    0  501  0.00000000000E+00  0.00000000000E+00 -0.10684711853E+03  0.10684711856E+03  0.25500000920E-02 0. -1.
    10030    2    1    2    0    0  0.00000000000E+00  0.00000000000E+00  0.51310288366E+03  0.72679712075E+03  0.51474215439E+03 0.  0.
        4    1    3    3  502    0 -0.19451207236E+02  0.81490865711E+01  0.61872351732E+03  0.61908413068E+03  0.12699999809E+01 0.  1.
       -4    1    3    3    0  502  0.19451207236E+02 -0.81490865711E+01 -0.10562063366E+03  0.10771299007E+03  0.12699999809E+01 0. -1.
</event>
<event>
 5   0  0.1760649E-01  0.5042049E+03  0.7818609E-02  0.1012687E+00
       -2   -1    0    0    0  501  0.00000000000E+00  0.00000000000E+00  0.85763199584E+02  0.85763199622E+02  0.25500000920E-02 0. -1.
        2   -1    0    0  501    0  0.00000000000E+00  0.00000000000E+00 -0.74105961883E+03  0.74105961883E+03  0.25500000920E-02 0.  1.
    10030    2    1    2    0    0  0.00000000000E+00  0.00000000000E+00 -0.65529641925E+03  0.82682281846E+03  0.50420489490E+03 0.  0.
        5    1    3    3  502    0  0.24178261539E+03 -0.60813404684E+02 -0.38848772273E+03  0.46162961777E+03  0.46999998093E+01 0.  1.
       -5    1    3    3    0  502 -0.24178261539E+03  0.60813404684E+02 -0.26680869651E+03  0.36519320068E+03  0.46999998093E+01 0. -1.
</event>
<event>
 5   0  0.1068522E-01  0.5012783E+03  0.7818609E-02  0.1013446E+00
       -1   -1    0    0    0  501  0.00000000000E+00  0.00000000000E+00  0.69445503045E+02  0.69445503228E+02  0.50400001928E-02 0.  1.
        1   -1    0    0  501    0  0.00000000000E+00  0.00000000000E+00 -0.90459413463E+03  0.90459413464E+03  0.50400001928E-02 0. -1.
    10030    2    1    2    0    0  0.00000000000E+00  0.00000000000E+00 -0.83514863158E+03  0.97403963787E+03  0.50127834514E+03 0.  0.
        2    1    3    3  502    0 -0.13983418858E+03 -0.11384644485E+03 -0.79308925874E+02  0.19698862665E+03  0.25500000920E-02 0.  1.
       -2    1    3    3    0  502  0.13983418858E+03  0.11384644485E+03 -0.75583970571E+03  0.77705101121E+03  0.25500000920E-02 0. -1.
</event>
<event>
 5   0  0.1709372E-01  0.4922195E+03  0.7818609E-02  0.1015830E+00
        2   -1    0    0  501    0  0.00000000000E+00  0.00000000000E+00  0.14623926325E+03  0.14623926327E+03  0.25500000920E-02 0. -1.
       -2   -1    0    0    0  501  0.00000000000E+00  0.00000000000E+00 -0.41418435402E+03  0.41418435403E+03  0.25500000920E-02 0.  1.
    10030    2    1    2    0    0  0.00000000000E+00  0.00000000000E+00 -0.26794509077E+03  0.56042361730E+03  0.49221952334E+03 0.  0.
        4    1    3    3  502    0  0.29338612746E+02  0.19233548755E+03 -0.30557013054E+03  0.36225462253E+03  0.12699999809E+01 0.  1.
       -4    1    3    3    0  502 -0.29338612746E+02 -0.19233548755E+03  0.37625039772E+02  0.19816899476E+03  0.12699999809E+01 0. -1.
</event>
<event>
 5   0  0.1074281E-01  0.4970464E+03  0.7818609E-02  0.1014553E+00
       -1   -1    0    0    0  501  0.00000000000E+00  0.00000000000E+00  0.10877011343E+03  0.10877011354E+03  0.50400001928E-02 0. -1.
        1   -1    0    0  501    0  0.00000000000E+00  0.00000000000E+00 -0.56783785438E+03  0.56783785440E+03  0.50400001928E-02 0.  1.
    10030    2    1    2    0    0  0.00000000000E+00  0.00000000000E+00 -0.45906774095E+03  0.67660796794E+03  0.49704642791E+03 0.  0.
        4    1    3    3  502    0  0.17262366274E+03  0.26683924436E+02  0.11109332113E+02  0.17503139981E+03  0.12699999809E+01 0. -1.
       -4    1    3    3    0  502 -0.17262366274E+03 -0.26683924436E+02 -0.47017707306E+03  0.50157656813E+03  0.12699999809E+01 0.  1.
</event>
<event>
 5   0  0.1827698E-01  0.4073582E+03  0.7818609E-02  0.1041261E+00
        2   -1    0    0  501    0  0.00000000000E+00  0.00000000000E+00  0.63719268667E+02  0.63719268718E+02  0.25500000920E-02 0. -1.
       -2   -1    0    0    0  501  0.00000000000E+00  0.00000000000E+00 -0.65106175939E+03  0.65106175939E+03  0.25500000920E-02 0.  1.
    10030    2    1    2    0    0  0.00000000000E+00  0.00000000000E+00 -0.58734249072E+03  0.71478102811E+03  0.40735821673E+03 0.  0.
        1    1    3    3  502    0 -0.16579394067E+03  0.11557806824E+03 -0.33803566505E+03  0.39384518721E+03  0.50400001928E-02 0. -1.
       -1    1    3    3    0  502  0.16579394067E+03 -0.11557806824E+03 -0.24930682568E+03  0.32093584090E+03  0.50400001928E-02 0.  1.
</event>
<event>
 5   0  0.7220250E-02  0.5021117E+03  0.7818609E-02  0.1013229E+00
        3   -1    0    0  501    0  0.00000000000E+00  0.00000000000E+00  0.12115818863E+04  0.12115818905E+04  0.10100000352E+00 0.  1.
       -3   -1    0    0    0  501  0.00000000000E+00  0.00000000000E+00 -0.52022059119E+02  0.52022157163E+02  0.10100000352E+00 0. -1.
    10030    2    1    2    0    0  0.00000000000E+00  0.00000000000E+00  0.11595598272E+04  0.12636040477E+04  0.50211173705E+03 0.  0.
        5    1    3    3  502    0  0.14959621597E+02  0.18220988939E+03  0.14693758609E+03  0.23459961269E+03  0.46999998093E+01 0. -1.
       -5    1    3    3    0  502 -0.14959621597E+02 -0.18220988939E+03  0.10126222411E+04  0.10290044350E+04  0.46999998093E+01 0.  1.
</event>
<event>
 5   0  0.1068522E-01  0.5019338E+03  0.7818609E-02  0.1013275E+00
       -1   -1    0    0    0  501  0.00000000000E+00  0.00000000000E+00  0.42440047577E+02  0.42440047876E+02  0.50400001928E-02 0.  1.
        1   -1    0    0  501    0  0.00000000000E+00  0.00000000000E+00 -0.14840792880E+04  0.14840792880E+04  0.50400001928E-02 0. -1.
    10030    2    1    2    0    0  0.00000000000E+00  0.00000000000E+00 -0.14416392404E+04  0.15265193359E+04  0.50193384355E+03 0.  0.
        2    1    3    3  502    0 -0.21831453017E+03 -0.11420220717E+03 -0.86607096083E+03  0.90043449923E+03  0.25500000920E-02 0. -1.
       -2    1    3    3    0  502  0.21831453017E+03  0.11420220717E+03 -0.57556827960E+03  0.62608483666E+03  0.25500000920E-02 0.  1.
</event>
<event>
 5   0  0.1683148E-01  0.4982901E+03  0.7818609E-02  0.1014226E+00
        2   -1    0    0  501    0  0.00000000000E+00  0.00000000000E+00  0.27139914955E+03  0.27139914957E+03  0.25500000920E-02 0. -1.
       -2   -1    0    0    0  501  0.00000000000E+00  0.00000000000E+00 -0.22871570483E+03  0.22871570484E+03  0.25500000920E-02 0.  1.
    10030    2    1    2    0    0  0.00000000000E+00  0.00000000000E+00  0.42683444724E+02  0.50011485441E+03  0.49829006728E+03 0.  0.
        2    1    3    3  502    0 -0.29036586578E+02  0.20746636469E+03  0.15669787151E+03  0.26160970696E+03  0.25500000920E-02 0. -1.
       -2    1    3    3    0  502  0.29036586578E+02 -0.20746636469E+03 -0.11401442678E+03  0.23850514745E+03  0.25500000920E-02 0.  1.
</event>
<event>
 5   0  0.1683148E-01  0.4997076E+03  0.7818609E-02  0.1013855E+00
       -2   -1    0    0    0  501  0.00000000000E+00  0.00000000000E+00  0.60190348512E+02  0.60190348566E+02  0.25500000920E-02 0.  1.
        2   -1    0    0  501    0  0.00000000000E+00  0.00000000000E+00 -0.10371584426E+04  0.10371584426E+04  0.25500000920E-02 0. -1.
    10030    2    1    2    0    0  0.00000000000E+00  0.00000000000E+00 -0.97696809409E+03  0.10973487912E+04  0.49970762713E+03 0.  0.
        2    1    3    3  502    0  0.25913586461E+02 -0.17015222037E+03 -0.90752807222E+02  0.19457482902E+03  0.25500000920E-02 0.  1.
       -2    1    3    3    0  502 -0.25913586461E+02  0.17015222037E+03 -0.88621528687E+03  0.90277396215E+03  0.25500000920E-02 0. -1.
</event>
<event>
 5   0  0.1074281E-01  0.4996387E+03  0.7818609E-02  0.1013873E+00
        1   -1    0    0  501    0  0.00000000000E+00  0.00000000000E+00  0.24300352642E+03  0.24300352648E+03  0.50400001928E-02 0. -1.
       -1   -1    0    0    0  501  0.00000000000E+00  0.00000000000E+00 -0.25682631696E+03  0.25682631701E+03  0.50400001928E-02 0.  1.
    10030    2    1    2    0    0  0.00000000000E+00  0.00000000000E+00 -0.13822790536E+02  0.49982984348E+03  0.49963867234E+03 0.  0.
        4    1    3    3  502    0  0.22483162263E+03  0.10735818431E+02 -0.11532061921E+03  0.25291297801E+03  0.12699999809E+01 0.  1.
       -4    1    3    3    0  502 -0.22483162263E+03 -0.10735818431E+02  0.10149782867E+03  0.24691686548E+03  0.12699999809E+01 0. -1.
</event>
<event>
 5   0  0.1123271E-01  0.5044910E+03  0.7818609E-02  0.1012613E+00
       -1   -1    0    0    0  501  0.00000000000E+00  0.00000000000E+00  0.17148879704E+03  0.17148879711E+03  0.50400001928E-02 0. -1.
        1   -1    0    0  501    0  0.00000000000E+00  0.00000000000E+00 -0.37103171042E+03  0.37103171046E+03  0.50400001928E-02 0.  1.
    10030    2    1    2    0    0  0.00000000000E+00  0.00000000000E+00 -0.19954291338E+03  0.54252050757E+03  0.50449095815E+03 0.  0.
        5    1    3    3  502    0  0.20357726873E+03 -0.14203566781E+02 -0.25913220981E+03  0.32987427577E+03  0.46999998093E+01 0.  1.
       -5    1    3    3    0  502 -0.20357726873E+03  0.14203566781E+02  0.59589296425E+02  0.21264623181E+03  0.46999998093E+01 0. -1.
</event>
<event>
 5   0  0.7220250E-02  0.4971227E+03  0.7818609E-02  0.1014533E+00
       -4   -1    0    0    0  501  0.00000000000E+00  0.00000000000E+00  0.24415375746E+03  0.24415706048E+03  0.12699999809E+01 0. -1.
        4   -1    0    0  501    0  0.00000000000E+00  0.00000000000E+00 -0.25304191844E+03  0.25304510544E+03  0.12699999809E+01 0.  1.
    10030    2    1    2    0    0  0.00000000000E+00  0.00000000000E+00 -0.88881609777E+01  0.49720216592E+03  0.49712271562E+03 0.  0.
        4    1    3    3  502    0  0.43688165890E+02 -0.24390094315E+03 -0.24063784839E+02  0.24895181170E+03  0.12699999809E+01 0. -1.
       -4    1    3    3    0  502 -0.43688165890E+02  0.24390094315E+03  0.15175623861E+02  0.24825035422E+03  0.12699999809E+01 0.  1.
</event>
<event>
 5   0  0.1782124E-01  0.4970686E+03  0.7818609E-02  0.1014547E+00
        2   -1    0    0  501    0  0.00000000000E+00  0.00000000000E+00  0.89866948384E+03  0.89866948385E+03  0.25500000920E-02 0.  1.
       -2   -1    0    0    0  501  0.00000000000E+00  0.00000000000E+00 -0.68734176227E+02  0.68734176275E+02  0.25500000920E-02 0. -1.
    10030    2    1    2    0    0  0.00000000000E+00  0.00000000000E+00  0.82993530762E+03  0.96740366012E+03  0.49706863388E+03 0.  0.
        3    1    3    3  502    0 -0.34526367481E+02  0.59056460254E+02 -0.50050297653E+02  0.84763070056E+02  0.10100000352E+00 0. -1.
       -3    1    3    3    0  502  0.34526367481E+02 -0.59056460254E+02  0.87998560527E+03  0.88264059007E+03  0.10100000352E+00 0.  1.
</event>
<event>
 5   0  0.7220250E-02  0.5095404E+03  0.7818609E-02  0.1011318E+00
       -4   -1    0    0    0  501  0.00000000000E+00  0.00000000000E+00  0.99816093285E+02  0.99824172316E+02  0.12699999809E+01 0.  1.
        4   -1    0    0  501    0  0.00000000000E+00  0.00000000000E+00 -0.65023949582E+03  0.65024073606E+03  0.12699999809E+01 0. -1.
    10030    2    1    2    0    0  0.00000000000E+00  0.00000000000E+00 -0.55042340254E+03  0.75006490837E+03  0.50954042500E+03 0.  0.
        1    1    3    3  502    0 -0.24252016432E+03 -0.62556633829E+02 -0.20650503973E+03  0.32461314514E+03  0.50400001928E-02 0.  1.
       -1    1    3    3    0  502  0.24252016432E+03  0.62556633829E+02 -0.34391836281E+03  0.42545176323E+03  0.50400001928E-02 0. -1.
</event>
<event>
 5   0  0.1147245E-01  0.5024478E+03  0.7818609E-02  0.1013142E+00
        1   -1    0    0  501    0  0.00000000000E+00  0.00000000000E+00  0.76258934378E+03  0.76258934379E+03  0.50400001928E-02 0.  1.
       -1   -1    0    0    0  501  0.00000000000E+00  0.00000000000E+00 -0.82762030166E+02  0.82762030319E+02  0.50400001928E-02 0. -1.
    10030    2    1    2    0    0  0.00000000000E+00  0.00000000000E+00  0.67982731361E+03  0.84535137411E+03  0.50244777777E+03 0.  0.
        1    1    3    3  502    0  0.11271685433E+03 -0.22189919365E+03  0.28238657615E+03  0.37641269879E+03  0.50400001928E-02 0.  1.
       -1    1    3    3    0  502 -0.11271685433E+03  0.22189919365E+03  0.39744073746E+03  0.46893867532E+03  0.50400001928E-02 0. -1.
</event>
<event>
 5   0  0.1827698E-01  0.5033674E+03  0.7818609E-02  0.1012904E+00
       -2   -1    0    0    0  501  0.00000000000E+00  0.00000000000E+00  0.11193793001E+03  0.11193793004E+03  0.25500000920E-02 0. -1.
        2   -1    0    0  501    0  0.00000000000E+00  0.00000000000E+00 -0.56589117057E+03  0.56589117058E+03  0.25500000920E-02 0.  1.
    10030    2    1    2    0    0  0.00000000000E+00  0.00000000000E+00 -0.45395324056E+03  0.67782910061E+03  0.50336740560E+03 0.  0.
        1    1    3    3  502    0 -0.21465741665E+03  0.76724701997E+02 -0.37062808657E+03  0.43512028797E+03  0.50400001928E-02 0.  1.
       -1    1    3    3    0  502  0.21465741665E+03 -0.76724701997E+02 -0.83325153990E+02  0.24270881264E+03  0.50400001928E-02 0. -1.
</event>
<event>
 5   0  0.1123271E-01  0.4923445E+03  0.7818609E-02  0.1015797E+00
        1   -1    0    0  501    0  0.00000000000E+00  0.00000000000E+00  0.24722951265E+04  0.24722951265E+04  0.50400001928E-02 0. -1.
       -1   -1    0    0    0  501  0.00000000000E+00  0.00000000000E+00 -0.24511948195E+02  0.24511948713E+02  0.50400001928E-02 0.  1.
    10030    2    1    2    0    0  0.00000000000E+00  0.00000000000E+00  0.24477831783E+04  0.24968070752E+04  0.49234447581E+03 0.  0.
        5    1    3    3  502    0 -0.40982065014E+02  0.22073932121E+03  0.17353930868E+04  0.17498618898E+04  0.46999998093E+01 0. -1.
       -5    1    3    3    0  502  0.40982065014E+02 -0.22073932121E+03  0.71239009148E+03  0.74694518541E+03  0.46999998093E+01 0.  1.
</event>
<event>
 5   0  0.1123271E-01  0.4940504E+03  0.7818609E-02  0.1015344E+00
        1   -1    0    0  501    0  0.00000000000E+00  0.00000000000E+00  0.52320621583E+03  0.52320621585E+03  0.50400001928E-02 0.  1.
       -1   -1    0    0    0  501  0.00000000000E+00  0.00000000000E+00 -0.11662982908E+03  0.11662982919E+03  0.50400001928E-02 0. -1.
    10030    2    1    2    0    0  0.00000000000E+00  0.00000000000E+00  0.40657638675E+03  0.63983604504E+03  0.49405040863E+03 0.  0.
        5    1    3    3  502    0 -0.17985931129E+03 -0.16257550900E+03  0.14227903505E+03  0.28115046114E+03  0.46999998093E+01 0.  1.
       -5    1    3    3    0  502  0.17985931129E+03  0.16257550900E+03  0.26429735170E+03  0.35868558390E+03  0.46999998093E+01 0. -1.
</event>
<event>
 5   0  0.1683148E-01  0.4967349E+03  0.7818609E-02  0.1014635E+00
       -2   -1    0    0    0  501  0.00000000000E+00  0.00000000000E+00  0.82959288791E+02  0.82959288830E+02  0.25500000920E-02 0. -1.
        2   -1    0    0  501    0  0.00000000000E+00  0.00000000000E+00 -0.74357428510E+03  0.74357428510E+03  0.25500000920E-02 0.  1.
    10030    2    1    2    0    0  0.00000000000E+00  0.00000000000E+00 -0.66061499631E+03  0.82653357393E+03  0.49673491471E+03 0.  0.
        2    1    3    3  502    0 -0.11846946824E+03  0.19000647249E+03 -0.50912354400E+03  0.55618725044E+03  0.25500000920E-02 0.  1.
       -2    1    3    3    0  502  0.11846946824E+03 -0.19000647249E+03 -0.15149145230E+03  0.27034632349E+03  0.25500000920E-02 0. -1.
</event>
<event>
 5   0  0.1683148E-01  0.4957598E+03  0.7818609E-02  0.1014892E+00
       -2   -1    0    0    0  501  0.00000000000E+00  0.00000000000E+00  0.14351621212E+03  0.14351621214E+03  0.25500000920E-02 0. -1.
        2   -1    0    0  501    0  0.00000000000E+00  0.00000000000E+00 -0.42813587813E+03  0.42813587814E+03  0.25500000920E-02 0.  1.
    10030    2    1    2    0    0  0.00000000000E+00  0.00000000000E+00 -0.28461966602E+03  0.57165209028E+03  0.49575977856E+03 0.  0.
        2    1    3    3  502    0  0.46059317072E+01 -0.12258014690E+03 -0.39068433705E+03  0.40948914301E+03  0.25500000920E-02 0.  1.
       -2    1    3    3    0  502 -0.46059317072E+01  0.12258014690E+03  0.10606467103E+03  0.16216294727E+03  0.25500000920E-02 0. -1.
</event>
<event>
 5   0  0.1147245E-01  0.4980503E+03  0.7818609E-02  0.1014289E+00
        1   -1    0    0  501    0  0.00000000000E+00  0.00000000000E+00  0.37497169807E+03  0.37497169810E+03  0.50400001928E-02 0. -1.
       -1   -1    0    0    0  501  0.00000000000E+00  0.00000000000E+00 -0.16538188661E+03  0.16538188669E+03  0.50400001928E-02 0.  1.
    10030    2    1    2    0    0  0.00000000000E+00  0.00000000000E+00  0.20958981146E+03  0.54035358479E+03  0.49805030622E+03 0.  0.
        1    1    3    3  502    0 -0.11406626006E+03 -0.42673385523E+02  0.34045726708E+03  0.36158440266E+03  0.50400001928E-02 0. -1.
       -1    1    3    3    0  502  0.11406626006E+03  0.42673385523E+02 -0.13086745562E+03  0.17876918213E+03  0.50400001928E-02 0.  1.
</event>
<event>
 5   0  0.1760649E-01  0.4952939E+03  0.7818609E-02  0.1015015E+00
        2   -1    0    0  501    0  0.00000000000E+00  0.00000000000E+00  0.18285269478E+04  0.18285269478E+04  0.25500000920E-02 0.  1.
       -2   -1    0    0    0  501  0.00000000000E+00  0.00000000000E+00 -0.33540124356E+02  0.33540124453E+02  0.25500000920E-02 0. -1.
    10030    2    1    2    0    0  0.00000000000E+00  0.00000000000E+00  0.17949868234E+04  0.18620670722E+04  0.49529393822E+03 0.  0.
        5    1    3    3  502    0 -0.18891767766E+02  0.18350033048E+03  0.15184137316E+04  0.15295854407E+04  0.46999998093E+01 0.  1.
       -5    1    3    3    0  502  0.18891767766E+02 -0.18350033048E+03  0.27657309187E+03  0.33248163155E+03  0.46999998093E+01 0. -1.
</event>
<event>
 5   0  0.1074281E-01  0.4995555E+03  0.7818609E-02  0.1013895E+00
       -1   -1    0    0    0  501  0.00000000000E+00  0.00000000000E+00  0.33501141748E+03  0.33501141752E+03  0.50400001928E-02 0.  1.
        1   -1    0    0  501    0  0.00000000000E+00  0.00000000000E+00 -0.18622924317E+03  0.18622924324E+03  0.50400001928E-02 0. -1.
    10030    2    1    2    0    0  0.00000000000E+00  0.00000000000E+00  0.14878217431E+03  0.52124066075E+03  0.49955549344E+03 0.  0.
        4    1    3    3  502    0  0.55350934993E+02 -0.10502338249E+03 -0.15490659570E+03  0.19516993407E+03  0.12699999809E+01 0. -1.
       -4    1    3    3    0  502 -0.55350934993E+02  0.10502338249E+03  0.30368877001E+03  0.32607072669E+03  0.12699999809E+01 0.  1.
</event>
<event>
 5   0  0.1683148E-01  0.5157880E+03  0.7818609E-02  0.1009738E+00
        2   -1    0    0  501    0  0.00000000000E+00  0.00000000000E+00  0.11936067958E+04  0.11936067959E+04  0.25500000920E-02 0.  1.
       -2   -1    0    0    0  501  0.00000000000E+00  0.00000000000E+00 -0.55721301018E+02  0.55721301076E+02  0.25500000920E-02 0. -1.
    10030    2    1    2    0    0  0.00000000000E+00  0.00000000000E+00  0.11378854948E+04  0.12493280969E+04  0.51578803246E+03 0.  0.
        2    1    3    3  502    0 -0.21980600085E+03 -0.92243401140E+02  0.80732449901E+03  0.84178166396E+03  0.25500000920E-02 0. -1.
       -2    1    3    3    0  502  0.21980600085E+03  0.92243401140E+02  0.33056099582E+03  0.40754643297E+03  0.25500000920E-02 0.  1.
</event>
<event>
 5   0  0.1141970E-01  0.4998159E+03  0.7818609E-02  0.1013827E+00
       -1   -1    0    0    0  501  0.00000000000E+00  0.00000000000E+00  0.71634357275E+02  0.71634357452E+02  0.50400001928E-02 0.  1.
        1   -1    0    0  501    0  0.00000000000E+00  0.00000000000E+00 -0.87184406748E+03  0.87184406750E+03  0.50400001928E-02 0. -1.
    10030    2    1    2    0    0  0.00000000000E+00  0.00000000000E+00 -0.80020971021E+03  0.94347842495E+03  0.49981592415E+03 0.  0.
        3    1    3    3  502    0  0.17790079832E+03  0.16554246755E+03 -0.29002097890E+03  0.37837174975E+03  0.10100000352E+00 0. -1.
       -3    1    3    3    0  502 -0.17790079832E+03 -0.16554246755E+03 -0.51018873131E+03  0.56510667521E+03  0.10100000352E+00 0.  1.
</event>
<event>
 5   0  0.1123271E-01  0.4942418E+03  0.7818609E-02  0.1015293E+00
        1   -1    0    0  501    0  0.00000000000E+00  0.00000000000E+00  0.45184704734E+03  0.45184704737E+03  0.50400001928E-02 0. -1.
       -1   -1    0    0    0  501  0.00000000000E+00  0.00000000000E+00 -0.13515356509E+03  0.13515356519E+03  0.50400001928E-02 0.  1.
    10030    2    1    2    0    0  0.00000000000E+00  0.00000000000E+00  0.31669348225E+03  0.58700061256E+03  0.49424180058E+03 0.  0.
        5    1    3    3  502    0 -0.63655589503E+02 -0.62153935788E+02  0.43210998252E+03  0.44119867724E+03  0.46999998093E+01 0. -1.
       -5    1    3    3    0  502  0.63655589503E+02  0.62153935788E+02 -0.11541650027E+03  0.14580193532E+03  0.46999998093E+01 0.  1.
</event>
<event>
 5   0  0.7220250E-02  0.4996702E+03  0.7818609E-02  0.1013865E+00
        4   -1    0    0  501    0  0.00000000000E+00  0.00000000000E+00  0.49979531519E+03  0.49979692875E+03  0.12699999809E+01 0.  1.
       -4   -1    0    0    0  501  0.00000000000E+00  0.00000000000E+00 -0.12488123110E+03  0.12488768867E+03  0.12699999809E+01 0. -1.
    10030    2    1    2    0    0  0.00000000000E+00  0.00000000000E+00  0.37491408409E+03  0.62468461742E+03  0.49967019203E+03 0.  0.
        1    1    3    3  502    0 -0.22300152287E+03 -0.11095318658E+03  0.21174063378E+03  0.32691647990E+03  0.50400001928E-02 0.  1.
       -1    1    3    3    0  502  0.22300152287E+03  0.11095318658E+03  0.16317345031E+03  0.29776813753E+03  0.50400001928E-02 0. -1.
</event>
<event>
 5   0  0.1123271E-01  0.4891046E+03  0.7818609E-02  0.1016663E+00
       -1   -1    0    0    0  501  0.00000000000E+00  0.00000000000E+00  0.30021538548E+03  0.30021538552E+03  0.50400001928E-02 0.  1.
        1   -1    0    0  501    0  0.00000000000E+00  0.00000000000E+00 -0.19920970988E+03  0.19920970994E+03  0.50400001928E-02 0. -1.
    10030    2    1    2    0    0  0.00000000000E+00  0.00000000000E+00  0.10100567560E+03  0.49942509546E+03  0.48910456906E+03 0.  0.
        5    1    3    3  502    0  0.64502827095E+02 -0.23398028279E+03  0.20275105897E+02  0.24359917355E+03  0.46999998093E+01 0. -1.
       -5    1    3    3    0  502 -0.64502827095E+02  0.23398028279E+03  0.80730569706E+02  0.25582592191E+03  0.46999998093E+01 0.  1.
</event>
<event>
 5   0  0.1683148E-01  0.3753325E+03  0.7818609E-02  0.1052673E+00
       -2   -1    0    0    0  501  0.00000000000E+00  0.00000000000E+00  0.38971714301E+03  0.38971714302E+03  0.25500000920E-02 0. -1.
        2   -1    0    0  501    0  0.00000000000E+00  0.00000000000E+00 -0.90369685417E+02  0.90369685453E+02  0.25500000920E-02 0.  1.
    10030    2    1    2    0    0  0.00000000000E+00  0.00000000000E+00  0.29934745760E+03  0.48008682848E+03  0.37533246929E+03 0.  0.
        2    1    3    3  502    0 -0.11070869121E+02  0.74280316335E+02  0.36965799785E+03  0.37720970947E+03  0.25500000920E-02 0. -1.
       -2    1    3    3    0  502  0.11070869121E+02 -0.74280316335E+02 -0.70310540252E+02  0.10287711901E+03  0.25500000920E-02 0.  1.
</event>
<event>
 5   0  0.1683148E-01  0.5041577E+03  0.7818609E-02  0.1012699E+00
        2   -1    0    0  501    0  0.00000000000E+00  0.00000000000E+00  0.45379345394E+03  0.45379345394E+03  0.25500000920E-02 0. -1.
       -2   -1    0    0    0  501  0.00000000000E+00  0.00000000000E+00 -0.14002789657E+03  0.14002789659E+03  0.25500000920E-02 0.  1.
    10030    2    1    2    0    0  0.00000000000E+00  0.00000000000E+00  0.31376555736E+03  0.59382135054E+03  0.50415768502E+03 0.  0.
        2    1    3    3  502    0 -0.12504118813E+02  0.16284863039E+03  0.38304107206E+03  0.41640904445E+03  0.25500000920E-02 0. -1.
       -2    1    3    3    0  502  0.12504118813E+02 -0.16284863039E+03 -0.69275514698E+02  0.17741230609E+03  0.25500000920E-02 0.  1.
</event>
<event>
 5   0  0.1068522E-01  0.5010272E+03  0.7818609E-02  0.1013511E+00
       -1   -1    0    0    0  501  0.00000000000E+00  0.00000000000E+00  0.62164522894E+02  0.62164523098E+02  0.50400001928E-02 0.  1.
        1   -1    0    0  501    0  0.00000000000E+00  0.00000000000E+00 -0.10095318627E+04  0.10095318627E+04  0.50400001928E-02 0. -1.
    10030    2    1    2    0    0  0.00000000000E+00  0.00000000000E+00 -0.94736733981E+03  0.10716963858E+04  0.50102721166E+03 0.  0.
        2    1    3    3  502    0 -0.76774423181E+02  0.23636241109E+03 -0.40619275415E+03  0.47618699580E+03  0.25500000920E-02 0.  1.
       -2    1    3    3    0  502  0.76774423181E+02 -0.23636241109E+03 -0.54117458565E+03  0.59550939001E+03  0.25500000920E-02 0. -1.
</event>
<event>
 5   0  0.1709372E-01  0.4967149E+03  0.7818609E-02  0.1014640E+00
        2   -1    0    0  501    0  0.00000000000E+00  0.00000000000E+00  0.56451042514E+03  0.56451042515E+03  0.25500000920E-02 0. -1.
       -2   -1    0    0    0  501  0.00000000000E+00  0.00000000000E+00 -0.10926532391E+03  0.10926532394E+03  0.25500000920E-02 0.  1.
    10030    2    1    2    0    0  0.00000000000E+00  0.00000000000E+00  0.45524510123E+03  0.67377574909E+03  0.49671486576E+03 0.  0.
        4    1    3    3  502    0 -0.92634652180E+02  0.22736610773E+03  0.27843612455E+03  0.37122070805E+03  0.12699999809E+01 0. -1.
       -4    1    3    3    0  502  0.92634652180E+02 -0.22736610773E+03  0.17680897667E+03  0.30255504104E+03  0.12699999809E+01 0.  1.
</event>
<event>
 5   0  0.1123271E-01  0.5023758E+03  0.7818609E-02  0.1013161E+00
        1   -1    0    0  501    0  0.00000000000E+00  0.00000000000E+00  0.71161932542E+03  0.71161932544E+03  0.50400001928E-02 0. -1.
       -1   -1    0    0    0  501  0.00000000000E+00  0.00000000000E+00 -0.88664486575E+02  0.88664486718E+02  0.50400001928E-02 0.  1.
    10030    2    1    2    0    0  0.00000000000E+00  0.00000000000E+00  0.62295483885E+03  0.80028381216E+03  0.50237580431E+03 0.  0.
        5    1    3    3  502    0  0.17196996551E+03  0.11232410195E+03  0.81274559604E+02  0.22094799604E+03  0.46999998093E+01 0.  1.
       -5    1    3    3    0  502 -0.17196996551E+03 -0.11232410195E+03  0.54168027925E+03  0.57933581612E+03  0.46999998093E+01 0. -1.
</event>
<event>
 5   0  0.1123271E-01  0.4997012E+03  0.7818609E-02  0.1013857E+00
       -1   -1    0    0    0  501  0.00000000000E+00  0.00000000000E+00  0.23464323256E+03  0.23464323261E+03  0.50400001928E-02 0.  1.
        1   -1    0    0  501    0  0.00000000000E+00  0.00000000000E+00 -0.26604359918E+03  0.26604359922E+03  0.50400001928E-02 0. -1.
    10030    2    1    2    0    0  0.00000000000E+00  0.00000000000E+00 -0.31400366616E+02  0.50068683184E+03  0.49970123129E+03 0.  0.
        5    1    3    3  502    0  0.97248472890E+02  0.20906332811E+03 -0.11200687620E+03  0.25638325015E+03  0.46999998093E+01 0. -1.
       -5    1    3    3    0  502 -0.97248472890E+02 -0.20906332811E+03  0.80606509588E+02  0.24430358169E+03  0.46999998093E+01 0.  1.
</event>
<event>
 5   0  0.1141970E-01  0.4898562E+03  0.7818609E-02  0.1016461E+00
       -1   -1    0    0    0  501  0.00000000000E+00  0.00000000000E+00  0.32525541927E+03  0.32525541931E+03  0.50400001928E-02 0. -1.
        1   -1    0    0  501    0  0.00000000000E+00  0.00000000000E+00 -0.18443895182E+03  0.18443895189E+03  0.50400001928E-02 0.  1.
    10030    2    1    2    0    0  0.00000000000E+00  0.00000000000E+00  0.14081646745E+03  0.50969437120E+03  0.48985617739E+03 0.  0.
        3    1    3    3  502    0  0.17110859972E+02  0.83032890462E+02  0.30950216713E+03  0.32090316933E+03  0.10100000352E+00 0. -1.
       -3    1    3    3    0  502 -0.17110859972E+02 -0.83032890462E+02 -0.16868569968E+03  0.18879120187E+03  0.10100000352E+00 0.  1.
</event>
<event>
 5   0  0.1683148E-01  0.4929683E+03  0.7818609E-02  0.1015631E+00
       -2   -1    0    0    0  501  0.00000000000E+00  0.00000000000E+00  0.14894758753E+03  0.14894758756E+03  0.25500000920E-02 0.  1.
        2   -1    0    0  501    0  0.00000000000E+00  0.00000000000E+00 -0.40789133108E+03  0.40789133109E+03  0.25500000920E-02 0. -1.
    10030    2    1    2    0    0  0.00000000000E+00  0.00000000000E+00 -0.25894374355E+03  0.55683891865E+03  0.49296827382E+03 0.  0.
        2    1    3    3  502    0 -0.10319958133E+03  0.13800641723E+03  0.69595867600E+02  0.18584808199E+03  0.25500000920E-02 0.  1.
       -2    1    3    3    0  502  0.10319958133E+03 -0.13800641723E+03 -0.32853961115E+03  0.37099083666E+03  0.25500000920E-02 0. -1.
</event>
<event>
 5   0  0.1074281E-01  0.5224398E+03  0.7818609E-02  0.1008082E+00
       -1   -1    0    0    0  501  0.00000000000E+00  0.00000000000E+00  0.72372707127E+02  0.72372707303E+02  0.50400001928E-02 0.  1.
        1   -1    0    0  501    0  0.00000000000E+00  0.00000000000E+00 -0.94283948437E+03  0.94283948439E+03  0.50400001928E-02 0. -1.
    10030    2    1    2    0    0  0.00000000000E+00  0.00000000000E+00 -0.87046677725E+03  0.10152121917E+04  0.52243983756E+03 0.  0.
        4    1    3    3  502    0 -0.25388980028E+03  0.19545781545E+02 -0.32205617158E+03  0.41056529178E+03  0.12699999809E+01 0.  1.
       -4    1    3    3    0  502  0.25388980028E+03 -0.19545781545E+02 -0.54841060567E+03  0.60464689991E+03  0.12699999809E+01 0. -1.
</event>
<event>
 5   0  0.1683148E-01  0.4950551E+03  0.7818609E-02  0.1015078E+00
        2   -1    0    0  501    0  0.00000000000E+00  0.00000000000E+00  0.26637692285E+03  0.26637692286E+03  0.25500000920E-02 0.  1.
       -2   -1    0    0    0  501  0.00000000000E+00  0.00000000000E+00 -0.23001199498E+03  0.23001199499E+03  0.25500000920E-02 0. -1.
    10030    2    1    2    0    0  0.00000000000E+00  0.00000000000E+00  0.36364927869E+02  0.49638891785E+03  0.49505509773E+03 0.  0.
        2    1    3    3  502    0  0.87139330399E+02 -0.17037408903E+02  0.24985985816E+03  0.26516690015E+03  0.25500000920E-02 0.  1.
       -2    1    3    3    0  502 -0.87139330399E+02  0.17037408903E+02 -0.21349493029E+03  0.23122201771E+03  0.25500000920E-02 0. -1.
</event>
<event>
 5   0  0.1683148E-01  0.5043783E+03  0.7818609E-02  0.1012642E+00
       -2   -1    0    0    0  501  0.00000000000E+00  0.00000000000E+00  0.16563557343E+03  0.16563557345E+03  0.25500000920E-02 0. -1.
        2   -1    0    0  501    0  0.00000000000E+00  0.00000000000E+00 -0.38397164164E+03  0.38397164165E+03  0.25500000920E-02 0.  1.
    10030    2    1    2    0    0  0.00000000000E+00  0.00000000000E+00 -0.21833606821E+03  0.54960721510E+03  0.50437828285E+03 0.  0.
        2    1    3    3  502    0 -0.40354852339E+02 -0.15698261623E+03 -0.31969579756E+03  0.35843752439E+03  0.25500000920E-02 0.  1.
       -2    1    3    3    0  502  0.40354852339E+02  0.15698261623E+03  0.10135972935E+03  0.19116969071E+03  0.25500000920E-02 0. -1.
</event>
<event>
 5   0  0.1141970E-01  0.5017540E+03  0.7818609E-02  0.1013322E+00
       -1   -1    0    0    0  501  0.00000000000E+00  0.00000000000E+00  0.21806264643E+03  0.21806264649E+03  0.50400001928E-02 0.  1.
        1   -1    0    0  501    0  0.00000000000E+00  0.00000000000E+00 -0.28862933873E+03  0.28862933877E+03  0.50400001928E-02 0. -1.
    10030    2    1    2    0    0  0.00000000000E+00  0.00000000000E+00 -0.70566692293E+02  0.50669198526E+03  0.50175403323E+03 0.  0.
        3    1    3    3  502    0 -0.93436602635E+02  0.14043572842E+03 -0.22281683062E+03  0.27946366980E+03  0.10100000352E+00 0. -1.
       -3    1    3    3    0  502  0.93436602635E+02 -0.14043572842E+03  0.15225013832E+03  0.22722831546E+03  0.10100000352E+00 0.  1.
</event>
<event>
 5   0  0.1147245E-01  0.5399932E+03  0.7818609E-02  0.1003837E+00
       -1   -1    0    0    0  501  0.00000000000E+00  0.00000000000E+00  0.67123541834E+02  0.67123542024E+02  0.50400001928E-02 0.  1.
        1   -1    0    0  501    0  0.00000000000E+00  0.00000000000E+00 -0.10860296324E+04  0.10860296324E+04  0.50400001928E-02 0. -1.
    10030    2    1    2    0    0  0.00000000000E+00  0.00000000000E+00 -0.10189060905E+04  0.11531531744E+04  0.53999316876E+03 0.  0.
        1    1    3    3  502    0 -0.10198500957E+03 -0.19140365899E+03 -0.85287539075E+03  0.88001859925E+03  0.50400001928E-02 0. -1.
       -1    1    3    3    0  502  0.10198500957E+03  0.19140365899E+03 -0.16603069979E+03  0.27313457516E+03  0.50400001928E-02 0.  1.
</event>
<event>
 5   0  0.1141970E-01  0.4902154E+03  0.7818609E-02  0.1016365E+00
        1   -1    0    0  501    0  0.00000000000E+00  0.00000000000E+00  0.82375565726E+03  0.82375565727E+03  0.50400001928E-02 0. -1.
       -1   -1    0    0    0  501  0.00000000000E+00  0.00000000000E+00 -0.72931562667E+02  0.72931562841E+02  0.50400001928E-02 0.  1.
    10030    2    1    2    0    0  0.00000000000E+00  0.00000000000E+00  0.75082409459E+03  0.89668722012E+03  0.49021541153E+03 0.  0.
        3    1    3    3  502    0  0.11310096381E+03 -0.21219836421E+03  0.46232751754E+03  0.52112063619E+03  0.10100000352E+00 0. -1.
       -3    1    3    3    0  502 -0.11310096381E+03  0.21219836421E+03  0.28849657705E+03  0.37556658393E+03  0.10100000352E+00 0.  1.
</event>
<event>
 5   0  0.1123271E-01  0.4992142E+03  0.7818609E-02  0.1013984E+00
       -1   -1    0    0    0  501  0.00000000000E+00  0.00000000000E+00  0.46057842112E+02  0.46057842388E+02  0.50400001928E-02 0. -1.
        1   -1    0    0  501    0  0.00000000000E+00  0.00000000000E+00 -0.13527274828E+04  0.13527274828E+04  0.50400001928E-02 0.  1.
    10030    2    1    2    0    0  0.00000000000E+00  0.00000000000E+00 -0.13066696407E+04  0.13987853252E+04  0.49921421865E+03 0.  0.
        5    1    3    3  502    0  0.29742678681E+02  0.40690510693E+02  0.31524487306E+02  0.59634116860E+02  0.46999998093E+01 0. -1.
       -5    1    3    3    0  502 -0.29742678681E+02 -0.40690510693E+02 -0.13381941280E+04  0.13391512084E+04  0.46999998093E+01 0.  1.
</event>
<event>
 5   0  0.1074281E-01  0.5001543E+03  0.7818609E-02  0.1013739E+00
       -1   -1    0    0    0  501  0.00000000000E+00  0.00000000000E+00  0.15826665416E+03  0.15826665424E+03  0.50400001928E-02 0.  1.
        1   -1    0    0  501    0  0.00000000000E+00  0.00000000000E+00 -0.39514696132E+03  0.39514696136E+03  0.50400001928E-02 0. -1.
    10030    2    1    2    0    0  0.00000000000E+00  0.00000000000E+00 -0.23688030717E+03  0.55341361559E+03  0.50015432618E+03 0.  0.
        4    1    3    3  502    0  0.18812440606E+03 -0.79941844417E+02 -0.27784893516E+03  0.34493931976E+03  0.12699999809E+01 0. -1.
       -4    1    3    3    0  502 -0.18812440606E+03  0.79941844417E+02  0.40968627997E+02  0.20847429583E+03  0.12699999809E+01 0.  1.
</event>
<event>
 5   0  0.1068522E-01  0.5004801E+03  0.7818609E-02  0.1013654E+00
       -1   -1    0    0    0  501  0.00000000000E+00  0.00000000000E+00  0.55770637977E+03  0.55770637979E+03  0.50400001928E-02 0. -1.
        1   -1    0    0  501    0  0.00000000000E+00  0.00000000000E+00 -0.11228144101E+03  0.11228144112E+03  0.50400001928E-02 0.  1.
    10030    2    1    2    0    0  0.00000000000E+00  0.00000000000E+00  0.44542493876E+03  0.66998782091E+03  0.50048007363E+03 0.  0.
        2    1    3    3  502    0 -0.94083311478E+02 -0.20791955219E+03  0.85290407628E+02  0.24363222965E+03  0.25500000920E-02 0. -1.
       -2    1    3    3    0  502  0.94083311478E+02  0.20791955219E+03  0.36013453113E+03  0.42635559126E+03  0.25500000920E-02 0.  1.
</event>
<event>
 5   0  0.1827698E-01  0.4907537E+03  0.7818609E-02  0.1016221E+00
       -2   -1    0    0    0  501  0.00000000000E+00  0.00000000000E+00  0.15859229842E+03  0.15859229844E+03  0.25500000920E-02 0. -1.
        2   -1    0    0  501    0  0.00000000000E+00  0.00000000000E+00 -0.37965139616E+03  0.37965139617E+03  0.25500000920E-02 0.  1.
    10030    2    1    2    0    0  0.00000000000E+00  0.00000000000E+00 -0.22105909774E+03  0.53824369461E+03  0.49075365520E+03 0.  0.
        1    1    3    3  502    0 -0.13087190701E+03 -0.36597389134E+01 -0.33814277175E+03  0.36260361809E+03  0.50400001928E-02 0.  1.
       -1    1    3    3    0  502  0.13087190701E+03  0.36597389134E+01  0.11708367402E+03  0.17564007652E+03  0.50400001928E-02 0. -1.
</event>
<event>
 5   0  0.1782124E-01  0.5041037E+03  0.7818609E-02  0.1012713E+00
        2   -1    0    0  501    0  0.00000000000E+00  0.00000000000E+00  0.18603959083E+04  0.18603959083E+04  0.25500000920E-02 0.  1.
       -2   -1    0    0    0  501  0.00000000000E+00  0.00000000000E+00 -0.34148712019E+02  0.34148712114E+02  0.25500000920E-02 0. -1.
    10030    2    1    2    0    0  0.00000000000E+00  0.00000000000E+00  0.18262471963E+04  0.18945446204E+04  0.50410365683E+03 0.  0.
        3    1    3    3  502    0 -0.21949601157E+03 -0.11241552410E+03  0.71732070614E+03  0.75852801847E+03  0.10100000352E+00 0.  1.
       -3    1    3    3    0  502  0.21949601157E+03  0.11241552410E+03  0.11089264902E+04  0.11360166020E+04  0.10100000352E+00 0. -1.
</event>
<event>
 5   0  0.1123271E-01  0.4913420E+03  0.7818609E-02  0.1016064E+00
       -1   -1    0    0    0  501  0.00000000000E+00  0.00000000000E+00  0.65625404942E+02  0.65625405135E+02  0.50400001928E-02 0.  1.
        1   -1    0    0  501    0  0.00000000000E+00  0.00000000000E+00 -0.91967794040E+03  0.91967794041E+03  0.50400001928E-02 0. -1.
    10030    2    1    2    0    0  0.00000000000E+00  0.00000000000E+00 -0.85405253545E+03  0.98530334554E+03  0.49134198826E+03 0.  0.
        5    1    3    3  502    0 -0.17411003591E+03 -0.15718574332E+03 -0.57316090493E+03  0.61931992980E+03  0.46999998093E+01 0. -1.
       -5    1    3    3    0  502  0.17411003591E+03  0.15718574332E+03 -0.28089163052E+03  0.36598341575E+03  0.46999998093E+01 0.  1.
</event>
<event>
 5   0  0.1683148E-01  0.5722225E+03  0.7818609E-02  0.9964773E-01
       -2   -1    0    0    0  501  0.00000000000E+00  0.00000000000E+00  0.49293615755E+02  0.49293615821E+02  0.25500000920E-02 0. -1.
        2   -1    0    0  501    0  0.00000000000E+00  0.00000000000E+00 -0.16606539522E+04  0.16606539522E+04  0.25500000920E-02 0.  1.
    10030    2    1    2    0    0  0.00000000000E+00  0.00000000000E+00 -0.16113603365E+04  0.17099475680E+04  0.57222246681E+03 0.  0.
        2    1    3    3  502    0 -0.72636119055E+02  0.13473846307E+03 -0.83354946878E+02  0.17429430971E+03  0.25500000920E-02 0. -1.
       -2    1    3    3    0  502  0.72636119055E+02 -0.13473846307E+03 -0.15280053896E+04  0.15356532583E+04  0.25500000920E-02 0.  1.
</event>
<event>
 5   0  0.1709372E-01  0.5203418E+03  0.7818609E-02  0.1008602E+00
        2   -1    0    0  501    0  0.00000000000E+00  0.00000000000E+00  0.43958374550E+03  0.43958374550E+03  0.25500000920E-02 0.  1.
       -2   -1    0    0    0  501  0.00000000000E+00  0.00000000000E+00 -0.15398405337E+03  0.15398405339E+03  0.25500000920E-02 0. -1.
    10030    2    1    2    0    0  0.00000000000E+00  0.00000000000E+00  0.28559969213E+03  0.59356779889E+03  0.52034176051E+03 0.  0.
        4    1    3    3  502    0  0.24545317641E+02 -0.25560439029E+02  0.43681422246E+03  0.43825116828E+03  0.12699999809E+01 0.  1.
       -4    1    3    3    0  502 -0.24545317641E+02  0.25560439029E+02 -0.15121453033E+03  0.15531663061E+03  0.12699999809E+01 0. -1.
</event>
<event>
 5   0  0.1074281E-01  0.4986165E+03  0.7818609E-02  0.1014141E+00
        1   -1    0    0  501    0  0.00000000000E+00  0.00000000000E+00  0.74254193081E+03  0.74254193083E+03  0.50400001928E-02 0. -1.
       -1   -1    0    0    0  501  0.00000000000E+00  0.00000000000E+00 -0.83705192635E+02  0.83705192787E+02  0.50400001928E-02 0.  1.
    10030    2    1    2    0    0  0.00000000000E+00  0.00000000000E+00  0.65883673817E+03  0.82624712361E+03  0.49861654777E+03 0.  0.
        4    1    3    3  502    0 -0.16178335456E+03  0.18914413000E+03  0.35306569670E+03  0.43197957685E+03  0.12699999809E+01 0. -1.
       -4    1    3    3    0  502  0.16178335456E+03 -0.18914413000E+03  0.30577104147E+03  0.39426754676E+03  0.12699999809E+01 0.  1.
</event>
<event>
 5   0  0.1760649E-01  0.4997763E+03  0.7818609E-02  0.1013837E+00
       -2   -1    0    0    0  501  0.00000000000E+00  0.00000000000E+00  0.66684097302E+02  0.66684097351E+02  0.25500000920E-02 0. -1.
        2   -1    0    0  501    0  0.00000000000E+00  0.00000000000E+00 -0.93641638832E+03  0.93641638832E+03  0.25500000920E-02 0.  1.
    10030    2    1    2    0    0  0.00000000000E+00  0.00000000000E+00 -0.86973229101E+03  0.10031004857E+04  0.49977627627E+03 0.  0.
        5    1    3    3  502    0  0.86257573869E+02  0.10223873276E+03 -0.11330846450E+02  0.13432648885E+03  0.46999998093E+01 0. -1.
       -5    1    3    3    0  502 -0.86257573869E+02 -0.10223873276E+03 -0.85840144456E+03  0.86877399682E+03  0.46999998093E+01 0.  1.
</event>
<event>
 5   0  0.1827698E-01  0.5034367E+03  0.7818609E-02  0.1012886E+00
       -2   -1    0    0    0  501  0.00000000000E+00  0.00000000000E+00  0.13609220286E+03  0.13609220289E+03  0.25500000920E-02 0.  1.
        2   -1    0    0  501    0  0.00000000000E+00  0.00000000000E+00 -0.46558232232E+03  0.46558232232E+03  0.25500000920E-02 0. -1.
    10030    2    1    2    0    0  0.00000000000E+00  0.00000000000E+00 -0.32949011945E+03  0.60167452521E+03  0.50343668467E+03 0.  0.
        1    1    3    3  502    0  0.60881853251E+02  0.47420197946E+02 -0.45109600329E+03  0.45764929743E+03  0.50400001928E-02 0. -1.
       -1    1    3    3    0  502 -0.60881853251E+02 -0.47420197946E+02  0.12160588384E+03  0.14402522778E+03  0.50400001928E-02 0.  1.
</event>
<event>
 5   0  0.1074281E-01  0.5052859E+03  0.7818609E-02  0.1012408E+00
       -1   -1    0    0    0  501  0.00000000000E+00  0.00000000000E+00  0.26103132470E+03  0.26103132475E+03  0.50400001928E-02 0. -1.
        1   -1    0    0  501    0  0.00000000000E+00  0.00000000000E+00 -0.24452413096E+03  0.24452413101E+03  0.50400001928E-02 0.  1.
    10030    2    1    2    0    0  0.00000000000E+00  0.00000000000E+00  0.16507193739E+02  0.50555545576E+03  0.50528589076E+03 0.  0.
        4    1    3    3  502    0 -0.20631103117E+03  0.61100146785E+02  0.14072277788E+03  0.25710305839E+03  0.12699999809E+01 0. -1.
       -4    1    3    3    0  502  0.20631103117E+03 -0.61100146785E+02 -0.12421558414E+03  0.24845239737E+03  0.12699999809E+01 0.  1.
</event>
<event>
 5   0  0.7220250E-02  0.4988507E+03  0.7818609E-02  0.1014079E+00
       -3   -1    0    0    0  501  0.00000000000E+00  0.00000000000E+00  0.10946240747E+03  0.10946245407E+03  0.10100000352E+00 0.  1.
        3   -1    0    0  501    0  0.00000000000E+00  0.00000000000E+00 -0.56835025883E+03  0.56835026781E+03  0.10100000352E+00 0. -1.
    10030    2    1    2    0    0  0.00000000000E+00  0.00000000000E+00 -0.45888785136E+03  0.67781272187E+03  0.49885070493E+03 0.  0.
        2    1    3    3  502    0 -0.16527459708E+03  0.30862890409E+02 -0.47978131978E+03  0.50838796727E+03  0.25500000920E-02 0. -1.
       -2    1    3    3    0  502  0.16527459708E+03 -0.30862890409E+02  0.20893468415E+02  0.16942475461E+03  0.25500000920E-02 0.  1.
</event>
<event>
 5   0  0.1147245E-01  0.5094332E+03  0.7818609E-02  0.1011346E+00
       -1   -1    0    0    0  501  0.00000000000E+00  0.00000000000E+00  0.91797885487E+02  0.91797885625E+02  0.50400001928E-02 0.  1.
        1   -1    0    0  501    0  0.00000000000E+00  0.00000000000E+00 -0.70677592356E+03  0.70677592358E+03  0.50400001928E-02 0. -1.
    10030    2    1    2    0    0  0.00000000000E+00  0.00000000000E+00 -0.61497803807E+03  0.79857380920E+03  0.50943315698E+03 0.  0.
        1    1    3    3  502    0  0.14763536702E+03  0.19552304695E+03 -0.41671493244E+03  0.48340128095E+03  0.50400001928E-02 0. -1.
       -1    1    3    3    0  502 -0.14763536702E+03 -0.19552304695E+03 -0.19826310564E+03  0.31517252825E+03  0.50400001928E-02 0.  1.
</event>
<event>
 5   0  0.1709372E-01  0.4979925E+03  0.7818609E-02  0.1014304E+00
        2   -1    0    0  501    0  0.00000000000E+00  0.00000000000E+00  0.93136587410E+03  0.93136587410E+03  0.25500000920E-02 0. -1.
       -2   -1    0    0    0  501  0.00000000000E+00  0.00000000000E+00 -0.66567974417E+02  0.66567974466E+02  0.25500000920E-02 0.  1.
    10030    2    1    2    0    0  0.00000000000E+00  0.00000000000E+00  0.86479789968E+03  0.99793384857E+03  0.49799252889E+03 0.  0.
        4    1    3    3  502    0 -0.38657509834E+02  0.22566196268E+03  0.62853489851E+03  0.66893606272E+03  0.12699999809E+01 0. -1.
       -4    1    3    3    0  502  0.38657509834E+02 -0.22566196268E+03  0.23626300117E+03  0.32899778585E+03  0.12699999809E+01 0.  1.
</event>
<event>
 5   0  0.1782124E-01  0.5193135E+03  0.7818609E-02  0.1008857E+00
       -2   -1    0    0    0  501  0.00000000000E+00  0.00000000000E+00  0.11786593190E+03  0.11786593193E+03  0.25500000920E-02 0.  1.
        2   -1    0    0  501    0  0.00000000000E+00  0.00000000000E+00 -0.57201968379E+03  0.57201968379E+03  0.25500000920E-02 0. -1.
    10030    2    1    2    0    0  0.00000000000E+00  0.00000000000E+00 -0.45415375188E+03  0.68988561572E+03  0.51931352036E+03 0.  0.
        3    1    3    3  502    0 -0.13259533411E+03 -0.88223936019E+02 -0.49951302530E+03  0.52428833495E+03  0.10100000352E+00 0. -1.
       -3    1    3    3    0  502  0.13259533411E+03  0.88223936019E+02  0.45359273420E+02  0.16559728077E+03  0.10100000352E+00 0.  1.
</event>
<event>
 5   0  0.1683148E-01  0.4995859E+03  0.7818609E-02  0.1013887E+00
        2   -1    0    0  501    0  0.00000000000E+00  0.00000000000E+00  0.20782576832E+03  0.20782576834E+03  0.25500000920E-02 0. -1.
       -2   -1    0    0    0  501  0.00000000000E+00  0.00000000000E+00 -0.30023474851E+03  0.30023474852E+03  0.25500000920E-02 0.  1.
    10030    2    1    2    0    0  0.00000000000E+00  0.00000000000E+00 -0.92408980186E+02  0.50806051685E+03  0.49958589769E+03 0.  0.
        2    1    3    3  502    0  0.17056787981E+03  0.12918214295E+03  0.84881602718E+02  0.23018756302E+03  0.25500000920E-02 0. -1.
       -2    1    3    3    0  502 -0.17056787981E+03 -0.12918214295E+03 -0.17729058290E+03  0.27787295384E+03  0.25500000920E-02 0.  1.
</event>
<event>
 5   0  0.1683148E-01  0.5046613E+03  0.7818609E-02  0.1012569E+00
        2   -1    0    0  501    0  0.00000000000E+00  0.00000000000E+00  0.19836045007E+04  0.19836045007E+04  0.25500000920E-02 0. -1.
       -2   -1    0    0    0  501  0.00000000000E+00  0.00000000000E+00 -0.32098516997E+02  0.32098517098E+02  0.25500000920E-02 0.  1.
    10030    2    1    2    0    0  0.00000000000E+00  0.00000000000E+00  0.19515059837E+04  0.20157030178E+04  0.50466132360E+03 0.  0.
        2    1    3    3  502    0  0.22877174229E+02  0.24234036212E+03  0.71025193960E+03  0.75080625592E+03  0.25500000920E-02 0. -1.
       -2    1    3    3    0  502 -0.22877174229E+02 -0.24234036212E+03  0.12412540441E+04  0.12648967619E+04  0.25500000920E-02 0.  1.
</event>
<event>
 5   0  0.1709372E-01  0.5036672E+03  0.7818609E-02  0.1012826E+00
       -2   -1    0    0    0  501  0.00000000000E+00  0.00000000000E+00  0.64867940109E+02  0.64867940159E+02  0.25500000920E-02 0.  1.
        2   -1    0    0  501    0  0.00000000000E+00  0.00000000000E+00 -0.97768111240E+03  0.97768111240E+03  0.25500000920E-02 0. -1.
    10030    2    1    2    0    0  0.00000000000E+00  0.00000000000E+00 -0.91281317229E+03  0.10425490526E+04  0.50366719120E+03 0.  0.
        4    1    3    3  502    0 -0.24416135610E+03 -0.20217350737E+02 -0.57701431759E+03  0.62687370713E+03  0.12699999809E+01 0.  1.
       -4    1    3    3    0  502  0.24416135610E+03  0.20217350737E+02 -0.33579885470E+03  0.41567534543E+03  0.12699999809E+01 0. -1.
</event>
<event>
 5   0  0.1760649E-01  0.5021187E+03  0.7818609E-02  0.1013227E+00
        2   -1    0    0  501    0  0.00000000000E+00  0.00000000000E+00  0.74831972101E+03  0.74831972101E+03  0.25500000920E-02 0. -1.
       -2   -1    0    0    0  501  0.00000000000E+00  0.00000000000E+00 -0.84229760681E+02  0.84229760720E+02  0.25500000920E-02 0.  1.
    10030    2    1    2    0    0  0.00000000000E+00  0.00000000000E+00  0.66408996033E+03  0.83254948173E+03  0.50211867534E+03 0.  0.
        5    1    3    3  502    0 -0.72861141943E+02  0.73864768395E+02 -0.46939728358E+02  0.11397446254E+03  0.46999998093E+01 0.  1.
       -5    1    3    3    0  502  0.72861141943E+02 -0.73864768395E+02  0.71102968869E+03  0.71857501919E+03  0.46999998093E+01 0. -1.
</event>
<event>
 5   0  0.1760649E-01  0.4898457E+03  0.7818609E-02  0.1016464E+00
       -2   -1    0    0    0  501  0.00000000000E+00  0.00000000000E+00  0.81215018436E+02  0.81215018476E+02  0.25500000920E-02 0.  1.
        2   -1    0    0  501    0  0.00000000000E+00  0.00000000000E+00 -0.73862192109E+03  0.73862192110E+03  0.25500000920E-02 0. -1.
    10030    2    1    2    0    0  0.00000000000E+00  0.00000000000E+00 -0.65740690265E+03  0.81983693957E+03  0.48984566123E+03 0.  0.
        5    1    3    3  502    0 -0.20868134089E+03 -0.11719313509E+03 -0.24201202947E+03  0.34040276931E+03  0.46999998093E+01 0.  1.
       -5    1    3    3    0  502  0.20868134089E+03  0.11719313509E+03 -0.41539487318E+03  0.47943417026E+03  0.46999998093E+01 0. -1.
</event>
<event>
 5   0  0.1782124E-01  0.5074851E+03  0.7818609E-02  0.1011843E+00
       -2   -1    0    0    0  501  0.00000000000E+00  0.00000000000E+00  0.11161481732E+03  0.11161481735E+03  0.25500000920E-02 0.  1.
        2   -1    0    0  501    0  0.00000000000E+00  0.00000000000E+00 -0.57685243540E+03  0.57685243540E+03  0.25500000920E-02 0. -1.
    10030    2    1    2    0    0  0.00000000000E+00  0.00000000000E+00 -0.46523761807E+03  0.68846725276E+03  0.50748509027E+03 0.  0.
        3    1    3    3  502    0 -0.10374470560E+02 -0.23052777973E+03 -0.37577065810E+03  0.44096970935E+03  0.10100000352E+00 0. -1.
       -3    1    3    3    0  502  0.10374470560E+02  0.23052777973E+03 -0.89466959969E+02  0.24749754341E+03  0.10100000352E+00 0.  1.
</event>
<event>
 5   0  0.1074281E-01  0.5058361E+03  0.7818609E-02  0.1012267E+00
        1   -1    0    0  501    0  0.00000000000E+00  0.00000000000E+00  0.61980904370E+03  0.61980904373E+03  0.50400001928E-02 0. -1.
       -1   -1    0    0    0  501  0.00000000000E+00  0.00000000000E+00 -0.10320523207E+03  0.10320523220E+03  0.50400001928E-02 0.  1.
    10030    2    1    2    0    0  0.00000000000E+00  0.00000000000E+00  0.51660381163E+03  0.72301427592E+03  0.50583608510E+03 0.  0.
        4    1    3    3  502    0 -0.55300925813E+02  0.24143402953E+03  0.33142712219E+03  0.41375612773E+03  0.12699999809E+01 0. -1.
       -4    1    3    3    0  502  0.55300925813E+02 -0.24143402953E+03  0.18517668944E+03  0.30925814819E+03  0.12699999809E+01 0.  1.
</event>
<event>
 5   0  0.1147245E-01  0.5010691E+03  0.7818609E-02  0.1013500E+00
       -1   -1    0    0    0  501  0.00000000000E+00  0.00000000000E+00  0.31104498318E+03  0.31104498322E+03  0.50400001928E-02 0. -1.
        1   -1    0    0  501    0  0.00000000000E+00  0.00000000000E+00 -0.20179577380E+03  0.20179577387E+03  0.50400001928E-02 0.  1.
    10030    2    1    2    0    0  0.00000000000E+00  0.00000000000E+00  0.10924920938E+03  0.51284075709E+03  0.50106910939E+03 0.  0.
        1    1    3    3  502    0 -0.12007628647E+03  0.14897065279E+03 -0.11090619457E+03  0.22115775814E+03  0.50400001928E-02 0.  1.
       -1    1    3    3    0  502  0.12007628647E+03 -0.14897065279E+03  0.22015540395E+03  0.29168299895E+03  0.50400001928E-02 0. -1.
</event>
<event>
 5   0  0.1683148E-01  0.5014813E+03  0.7818609E-02  0.1013393E+00
        2   -1    0    0  501    0  0.00000000000E+00  0.00000000000E+00  0.43459590973E+03  0.43459590973E+03  0.25500000920E-02 0. -1.
       -2   -1    0    0    0  501  0.00000000000E+00  0.00000000000E+00 -0.14466514881E+03  0.14466514884E+03  0.25500000920E-02 0.  1.
    10030    2    1    2    0    0  0.00000000000E+00  0.00000000000E+00  0.28993076091E+03  0.57926105857E+03  0.50148133350E+03 0.  0.
        2    1    3    3  502    0 -0.21070360272E+03  0.29523867105E+02 -0.82899392942E+01  0.21292343701E+03  0.25500000920E-02 0.  1.
       -2    1    3    3    0  502  0.21070360272E+03 -0.29523867105E+02  0.29822070021E+03  0.36633762156E+03  0.25500000920E-02 0. -1.
</event>
<event>
 5   0  0.1709372E-01  0.4987697E+03  0.7818609E-02  0.1014101E+00
        2   -1    0    0  501    0  0.00000000000E+00  0.00000000000E+00  0.93215695635E+03  0.93215695635E+03  0.25500000920E-02 0.  1.
       -2   -1    0    0    0  501  0.00000000000E+00  0.00000000000E+00 -0.66719228558E+02  0.66719228607E+02  0.25500000920E-02 0. -1.
    10030    2    1    2    0    0  0.00000000000E+00  0.00000000000E+00  0.86543772779E+03  0.99887618496E+03  0.49876965845E+03 0.  0.
        4    1    3    3  502    0 -0.13114026604E+02  0.17245158297E+03  0.79253121576E+03  0.81118362102E+03  0.12699999809E+01 0.  1.
       -4    1    3    3    0  502  0.13114026604E+02 -0.17245158297E+03  0.72906512031E+02  0.18769256394E+03  0.12699999809E+01 0. -1.
</event>
<event>
 5   0  0.1123271E-01  0.4990558E+03  0.7818609E-02  0.1014026E+00
        1   -1    0    0  501    0  0.00000000000E+00  0.00000000000E+00  0.92449191947E+03  0.92449191949E+03  0.50400001928E-02 0. -1.
       -1   -1    0    0    0  501  0.00000000000E+00  0.00000000000E+00 -0.67349618077E+02  0.67349618266E+02  0.50400001928E-02 0.  1.
    10030    2    1    2    0    0  0.00000000000E+00  0.00000000000E+00  0.85714230140E+03  0.99184153775E+03  0.49905581969E+03 0.  0.
        5    1    3    3  502    0 -0.14174830585E+03  0.62204801138E+02  0.81741883762E+03  0.83196013461E+03  0.46999998093E+01 0. -1.
       -5    1    3    3    0  502  0.14174830585E+03 -0.62204801138E+02  0.39723463780E+02  0.15988140314E+03  0.46999998093E+01 0.  1.
</event>
<event>
 5   0  0.1123271E-01  0.4983696E+03  0.7818609E-02  0.1014205E+00
        1   -1    0    0  501    0  0.00000000000E+00  0.00000000000E+00  0.92196928200E+03  0.92196928201E+03  0.50400001928E-02 0. -1.
       -1   -1    0    0    0  501  0.00000000000E+00  0.00000000000E+00 -0.67348293743E+02  0.67348293931E+02  0.50400001928E-02 0.  1.
    10030    2    1    2    0    0  0.00000000000E+00  0.00000000000E+00  0.85462098826E+03  0.98931757594E+03  0.49836957422E+03 0.  0.
        5    1    3    3  502    0  0.20399065266E+03  0.10466236962E+03  0.23377953711E+03  0.32747726632E+03  0.46999998093E+01 0.  1.
       -5    1    3    3    0  502 -0.20399065266E+03 -0.10466236962E+03  0.62084145115E+03  0.66184030963E+03  0.46999998093E+01 0. -1.
</event>
<event>
 5   0  0.1709372E-01  0.4971635E+03  0.7818609E-02  0.1014522E+00
        2   -1    0    0  501    0  0.00000000000E+00  0.00000000000E+00  0.16230731732E+04  0.16230731732E+04  0.25500000920E-02 0. -1.
       -2   -1    0    0    0  501  0.00000000000E+00  0.00000000000E+00 -0.38071539874E+02  0.38071539959E+02  0.25500000920E-02 0.  1.
    10030    2    1    2    0    0  0.00000000000E+00  0.00000000000E+00  0.15850016334E+04  0.16611447132E+04  0.49716353489E+03 0.  0.
        4    1    3    3  502    0 -0.14341915505E+03 -0.14829506705E+03  0.12558483879E+04  0.12726811334E+04  0.12699999809E+01 0. -1.
       -4    1    3    3    0  502  0.14341915505E+03  0.14829506705E+03  0.32915324542E+03  0.38846357979E+03  0.12699999809E+01 0.  1.
</event>
<event>
 5   0  0.7220250E-02  0.5016039E+03  0.7818609E-02  0.1013361E+00
       -3   -1    0    0    0  501  0.00000000000E+00  0.00000000000E+00  0.14177487157E+03  0.14177490755E+03  0.10100000352E+00 0.  1.
        3   -1    0    0  501    0  0.00000000000E+00  0.00000000000E+00 -0.44367244517E+03  0.44367245667E+03  0.10100000352E+00 0. -1.
    10030    2    1    2    0    0  0.00000000000E+00  0.00000000000E+00 -0.30189757360E+03  0.58544736422E+03  0.50160389884E+03 0.  0.
        3    1    3    3  502    0 -0.75558128048E+02  0.12032149281E+03 -0.39217181202E+03  0.41711513121E+03  0.10100000352E+00 0. -1.
       -3    1    3    3    0  502  0.75558128048E+02 -0.12032149281E+03  0.90274238417E+02  0.16833223301E+03  0.10100000352E+00 0.  1.
</event>
<event>
 5   0  0.1123271E-01  0.5041582E+03  0.7818609E-02  0.1012699E+00
        1   -1    0    0  501    0  0.00000000000E+00  0.00000000000E+00  0.91285618268E+02  0.91285618407E+02  0.50400001928E-02 0.  1.
       -1   -1    0    0    0  501  0.00000000000E+00  0.00000000000E+00 -0.69609948722E+03  0.69609948724E+03  0.50400001928E-02 0. -1.
    10030    2    1    2    0    0  0.00000000000E+00  0.00000000000E+00 -0.60481386895E+03  0.78738510565E+03  0.50415819791E+03 0.  0.
        5    1    3    3  502    0  0.22987746279E+03 -0.91064640457E+02 -0.37868467636E+03  0.45228375026E+03  0.46999998093E+01 0. -1.
       -5    1    3    3    0  502 -0.22987746279E+03  0.91064640457E+02 -0.22612919259E+03  0.33510135538E+03  0.46999998093E+01 0.  1.
</event>
<event>
 5   0  0.1068522E-01  0.4866177E+03  0.7818609E-02  0.1017332E+00
       -1   -1    0    0    0  501  0.00000000000E+00  0.00000000000E+00  0.18282997204E+03  0.18282997211E+03  0.50400001928E-02 0.  1.
        1   -1    0    0  501    0  0.00000000000E+00  0.00000000000E+00 -0.32379370199E+03  0.32379370203E+03  0.50400001928E-02 0. -1.
    10030    2    1    2    0    0  0.00000000000E+00  0.00000000000E+00 -0.14096372995E+03  0.50662367414E+03  0.48661768775E+03 0.  0.
        2    1    3    3  502    0 -0.72334760877E+01  0.17907137234E+03 -0.24180832312E+03  0.30098196741E+03  0.25500000920E-02 0. -1.
       -2    1    3    3    0  502  0.72334760877E+01 -0.17907137234E+03  0.10084459317E+03  0.20564170673E+03  0.25500000920E-02 0.  1.
</event>
<event>
 5   0  0.1074281E-01  0.5007770E+03  0.7818609E-02  0.1013576E+00
        1   -1    0    0  501    0  0.00000000000E+00  0.00000000000E+00  0.76174315710E+03  0.76174315712E+03  0.50400001928E-02 0. -1.
       -1   -1    0    0    0  501  0.00000000000E+00  0.00000000000E+00 -0.82303853352E+02  0.82303853507E+02  0.50400001928E-02 0.  1.
    10030    2    1    2    0    0  0.00000000000E+00  0.00000000000E+00  0.67943930375E+03  0.84404701062E+03  0.50077698496E+03 0.  0.
        4    1    3    3  502    0  0.20378980682E+02  0.17186578424E+03  0.64469110039E+03  0.66751882255E+03  0.12699999809E+01 0. -1.
       -4    1    3    3    0  502 -0.20378980682E+02 -0.17186578424E+03  0.34748203362E+02  0.17652818807E+03  0.12699999809E+01 0.  1.
</event>
<event>
 5   0  0.1074281E-01  0.4899734E+03  0.7818609E-02  0.1016430E+00
       -1   -1    0    0    0  501  0.00000000000E+00  0.00000000000E+00  0.68864727603E+02  0.68864727788E+02  0.50400001928E-02 0.  1.
        1   -1    0    0  501    0  0.00000000000E+00  0.00000000000E+00 -0.87154177438E+03  0.87154177439E+03  0.50400001928E-02 0. -1.
    10030    2    1    2    0    0  0.00000000000E+00  0.00000000000E+00 -0.80267704678E+03  0.94040650218E+03  0.48997341553E+03 0.  0.
        4    1    3    3  502    0 -0.18928043932E+03  0.45538346304E+02 -0.11591032791E+03  0.22657811613E+03  0.12699999809E+01 0.  1.
       -4    1    3    3    0  502  0.18928043932E+03 -0.45538346304E+02 -0.68676671887E+03  0.71382838605E+03  0.12699999809E+01 0. -1.
</event>
<event>
 5   0  0.1147245E-01  0.4961195E+03  0.7818609E-02  0.1014797E+00
       -1   -1    0    0    0  501  0.00000000000E+00  0.00000000000E+00  0.83457476708E+02  0.83457476860E+02  0.50400001928E-02 0.  1.
        1   -1    0    0  501    0  0.00000000000E+00  0.00000000000E+00 -0.73730526801E+03  0.73730526803E+03  0.50400001928E-02 0. -1.
    10030    2    1    2    0    0  0.00000000000E+00  0.00000000000E+00 -0.65384779130E+03  0.82076274489E+03  0.49611949085E+03 0.  0.
        1    1    3    3  502    0  0.24596232418E+02  0.16945820757E+03 -0.62384706732E+03  0.64692056869E+03  0.50400001928E-02 0. -1.
       -1    1    3    3    0  502 -0.24596232418E+02 -0.16945820757E+03 -0.30000723985E+02  0.17384217620E+03  0.50400001928E-02 0.  1.
</event>
<event>
 5   0  0.7220250E-02  0.4998920E+03  0.7818609E-02  0.1013807E+00
       -4   -1    0    0    0  501  0.00000000000E+00  0.00000000000E+00  0.10843505767E+03  0.10844249458E+03  0.12699999809E+01 0.  1.
        4   -1    0    0  501    0  0.00000000000E+00  0.00000000000E+00 -0.57610509445E+03  0.57610649428E+03  0.12699999809E+01 0. -1.
    10030    2    1    2    0    0  0.00000000000E+00  0.00000000000E+00 -0.46767003678E+03  0.68454898886E+03  0.49989204319E+03 0.  0.
        4    1    3    3  502    0 -0.26673632585E+02 -0.15356400514E+03  0.33733478081E+02  0.15947710429E+03  0.12699999809E+01 0.  1.
       -4    1    3    3    0  502  0.26673632585E+02  0.15356400514E+03 -0.50140351486E+03  0.52507188457E+03  0.12699999809E+01 0. -1.
</event>
<event>
 5   0  0.1123271E-01  0.4969374E+03  0.7818609E-02  0.1014581E+00
        1   -1    0    0  501    0  0.00000000000E+00  0.00000000000E+00  0.41094966528E+03  0.41094966531E+03  0.50400001928E-02 0.  1.
       -1   -1    0    0    0  501  0.00000000000E+00  0.00000000000E+00 -0.15022934419E+03  0.15022934428E+03  0.50400001928E-02 0. -1.
    10030    2    1    2    0    0  0.00000000000E+00  0.00000000000E+00  0.26072032109E+03  0.56117900959E+03  0.49693741555E+03 0.  0.
        5    1    3    3  502    0  0.17761714238E+03  0.35031804879E+02 -0.61747849773E+02  0.19133730313E+03  0.46999998093E+01 0. -1.
       -5    1    3    3    0  502 -0.17761714238E+03 -0.35031804879E+02  0.32246817086E+03  0.36984170646E+03  0.46999998093E+01 0.  1.
</event>
<event>
 5   0  0.1782124E-01  0.4996330E+03  0.7818609E-02  0.1013875E+00
       -2   -1    0    0    0  501  0.00000000000E+00  0.00000000000E+00  0.96623229130E+02  0.96623229164E+02  0.25500000920E-02 0.  1.
        2   -1    0    0  501    0  0.00000000000E+00  0.00000000000E+00 -0.64589327434E+03  0.64589327434E+03  0.25500000920E-02 0. -1.
    10030    2    1    2    0    0  0.00000000000E+00  0.00000000000E+00 -0.54927004521E+03  0.74251650351E+03  0.49963304076E+03 0.  0.
        3    1    3    3  502    0 -0.10022635493E+03  0.14633551190E+03 -0.53607826719E+03  0.56465858979E+03  0.10100000352E+00 0. -1.
       -3    1    3    3    0  502  0.10022635493E+03 -0.14633551190E+03 -0.13191778014E+02  0.17785791372E+03  0.10100000352E+00 0.  1.
</event>
<event>
 5   0  0.1141970E-01  0.5185562E+03  0.7818609E-02  0.1009046E+00
       -1   -1    0    0    0  501  0.00000000000E+00  0.00000000000E+00  0.92424492175E+02  0.92424492313E+02  0.50400001928E-02 0.  1.
        1   -1    0    0  501    0  0.00000000000E+00  0.00000000000E+00 -0.72735187319E+03  0.72735187321E+03  0.50400001928E-02 0. -1.
    10030    2    1    2    0    0  0.00000000000E+00  0.00000000000E+00 -0.63492738102E+03  0.81977636552E+03  0.51855617854E+03 0.  0.
        3    1    3    3  502    0 -0.22725471604E+03 -0.81224357298E+01 -0.12055377018E+03  0.25737890673E+03  0.10100000352E+00 0. -1.
       -3    1    3    3    0  502  0.22725471604E+03  0.81224357298E+01 -0.51437361083E+03  0.56239745879E+03  0.10100000352E+00 0.  1.
</event>
<event>
 5   0  0.7220250E-02  0.5028404E+03  0.7818609E-02  0.1013040E+00
        3   -1    0    0  501    0  0.00000000000E+00  0.00000000000E+00  0.78676500632E+03  0.78676501280E+03  0.10100000352E+00 0.  1.
       -3   -1    0    0    0  501  0.00000000000E+00  0.00000000000E+00 -0.80344300923E+02  0.80344364406E+02  0.10100000352E+00 0. -1.
    10030    2    1    2    0    0  0.00000000000E+00  0.00000000000E+00  0.70642070540E+03  0.86710937721E+03  0.50284039121E+03 0.  0.
        1    1    3    3  502    0  0.17447991008E+03  0.57498427483E+01  0.41209841032E+02  0.17937265883E+03  0.50400001928E-02 0. -1.
       -1    1    3    3    0  502 -0.17447991008E+03 -0.57498427483E+01  0.66521086436E+03  0.68773671838E+03  0.50400001928E-02 0.  1.
</event>
<event>
 5   0  0.7220250E-02  0.5063834E+03  0.7818609E-02  0.1012126E+00
        4   -1    0    0  501    0  0.00000000000E+00  0.00000000000E+00  0.84365174361E+03  0.84365269952E+03  0.12699999809E+01 0.  1.
       -4   -1    0    0    0  501  0.00000000000E+00  0.00000000000E+00 -0.75980064824E+02  0.75990678050E+02  0.12699999809E+01 0. -1.
    10030    2    1    2    0    0  0.00000000000E+00  0.00000000000E+00  0.76767167879E+03  0.91964337757E+03  0.50638338785E+03 0.  0.
        1    1    3    3  502    0 -0.98507623344E+02 -0.16354283294E+03  0.68585525841E+03  0.71193219170E+03  0.50400001928E-02 0.  1.
       -1    1    3    3    0  502  0.98507623344E+02  0.16354283294E+03  0.81816420377E+02  0.20771118586E+03  0.50400001928E-02 0. -1.
</event>
<event>
 5   0  0.1760649E-01  0.4777494E+03  0.7818609E-02  0.1019756E+00
        2   -1    0    0  501    0  0.00000000000E+00  0.00000000000E+00  0.36756244065E+03  0.36756244066E+03  0.25500000920E-02 0. -1.
       -2   -1    0    0    0  501  0.00000000000E+00  0.00000000000E+00 -0.15524201004E+03  0.15524201006E+03  0.25500000920E-02 0.  1.
    10030    2    1    2    0    0  0.00000000000E+00  0.00000000000E+00  0.21232043061E+03  0.52280445072E+03  0.47774944107E+03 0.  0.
        5    1    3    3  502    0  0.52309160447E+02 -0.18713366103E+03 -0.45801871430E+02  0.19968764805E+03  0.46999998093E+01 0.  1.
       -5    1    3    3    0  502 -0.52309160447E+02  0.18713366103E+03  0.25812230204E+03  0.32311680267E+03  0.46999998093E+01 0. -1.
</event>
<event>
 5   0  0.1782124E-01  0.4945401E+03  0.7818609E-02  0.1015214E+00
        2   -1    0    0  501    0  0.00000000000E+00  0.00000000000E+00  0.48511558385E+03  0.48511558386E+03  0.25500000920E-02 0.  1.
       -2   -1    0    0    0  501  0.00000000000E+00  0.00000000000E+00 -0.12603690559E+03  0.12603690561E+03  0.25500000920E-02 0. -1.
    10030    2    1    2    0    0  0.00000000000E+00  0.00000000000E+00  0.35907867826E+03  0.61115248947E+03  0.49454005722E+03 0.  0.
        3    1    3    3  502    0  0.11568762278E+03 -0.18259415389E+03  0.31149651804E+02  0.21839084713E+03  0.10100000352E+00 0.  1.
       -3    1    3    3    0  502 -0.11568762278E+03  0.18259415389E+03  0.32792902646E+03  0.39276164234E+03  0.10100000352E+00 0. -1.
</event>
<event>
 5   0  0.1147245E-01  0.4961445E+03  0.7818609E-02  0.1014790E+00
        1   -1    0    0  501    0  0.00000000000E+00  0.00000000000E+00  0.94691373827E+02  0.94691373961E+02  0.50400001928E-02 0.  1.
       -1   -1    0    0    0  501  0.00000000000E+00  0.00000000000E+00 -0.64989922289E+03  0.64989922291E+03  0.50400001928E-02 0. -1.
    10030    2    1    2    0    0  0.00000000000E+00  0.00000000000E+00 -0.55520784907E+03  0.74459059687E+03  0.49614453669E+03 0.  0.
        1    1    3    3  502    0  0.13038402456E+03 -0.66380507497E+02  0.23047155844E+02  0.14811325752E+03  0.50400001928E-02 0.  1.
       -1    1    3    3    0  502 -0.13038402456E+03  0.66380507497E+02 -0.57825500491E+03  0.59647733936E+03  0.50400001928E-02 0. -1.
</event>
<event>
 5   0  0.1709372E-01  0.4114468E+03  0.7818609E-02  0.1039887E+00
       -2   -1    0    0    0  501  0.00000000000E+00  0.00000000000E+00  0.44187749758E+02  0.44187749832E+02  0.25500000920E-02 0.  1.
        2   -1    0    0  501    0  0.00000000000E+00  0.00000000000E+00 -0.95777949128E+03  0.95777949129E+03  0.25500000920E-02 0. -1.
    10030    2    1    2    0    0  0.00000000000E+00  0.00000000000E+00 -0.91359174152E+03  0.10019672411E+04  0.41144681563E+03 0.  0.
        4    1    3    3  502    0  0.19264526964E+02 -0.91442171699E+02 -0.90309911729E+03  0.90792203482E+03  0.12699999809E+01 0. -1.
       -4    1    3    3    0  502 -0.19264526964E+02  0.91442171699E+02 -0.10492624234E+02  0.94045206296E+02  0.12699999809E+01 0.  1.
</event>
<event>
 5   0  0.1827698E-01  0.5016160E+03  0.7818609E-02  0.1013358E+00
       -2   -1    0    0    0  501  0.00000000000E+00  0.00000000000E+00  0.84664200131E+02  0.84664200169E+02  0.25500000920E-02 0. -1.
        2   -1    0    0  501    0  0.00000000000E+00  0.00000000000E+00 -0.74298997858E+03  0.74298997859E+03  0.25500000920E-02 0.  1.
    10030    2    1    2    0    0  0.00000000000E+00  0.00000000000E+00 -0.65832577845E+03  0.82765417875E+03  0.50161599759E+03 0.  0.
        1    1    3    3  502    0  0.26302536990E+02  0.28312852132E+01  0.82355764902E+02  0.86500356450E+02  0.50400001928E-02 0. -1.
       -1    1    3    3    0  502 -0.26302536990E+02 -0.28312852132E+01 -0.74068154335E+03  0.74115382230E+03  0.50400001928E-02 0.  1.
</event>
<event>
 5   0  0.1782124E-01  0.5049760E+03  0.7818609E-02  0.1012488E+00
       -2   -1    0    0    0  501  0.00000000000E+00  0.00000000000E+00  0.67375320249E+02  0.67375320297E+02  0.25500000920E-02 0. -1.
        2   -1    0    0  501    0  0.00000000000E+00  0.00000000000E+00 -0.94619499741E+03  0.94619499741E+03  0.25500000920E-02 0.  1.
    10030    2    1    2    0    0  0.00000000000E+00  0.00000000000E+00 -0.87881967716E+03  0.10135703177E+04  0.50497600337E+03 0.  0.
        3    1    3    3  502    0 -0.19309093767E+03 -0.78042705853E+02 -0.15290214700E+03  0.25836766614E+03  0.10100000352E+00 0. -1.
       -3    1    3    3    0  502  0.19309093767E+03  0.78042705853E+02 -0.72591753016E+03  0.75520265157E+03  0.10100000352E+00 0.  1.
</event>
<event>
 5   0  0.1123271E-01  0.4791416E+03  0.7818609E-02  0.1019371E+00
        1   -1    0    0  501    0  0.00000000000E+00  0.00000000000E+00  0.12334818845E+04  0.12334818845E+04  0.50400001928E-02 0. -1.
       -1   -1    0    0    0  501  0.00000000000E+00  0.00000000000E+00 -0.46530205340E+02  0.46530205613E+02  0.50400001928E-02 0.  1.
    10030    2    1    2    0    0  0.00000000000E+00  0.00000000000E+00  0.11869516791E+04  0.12800120901E+04  0.47914158888E+03 0.  0.
        5    1    3    3  502    0 -0.18408329868E+03  0.53772372783E+02  0.97684748987E+03  0.99550551851E+03  0.46999998093E+01 0. -1.
       -5    1    3    3    0  502  0.18408329868E+03 -0.53772372783E+02  0.21010418924E+03  0.28450657156E+03  0.46999998093E+01 0.  1.
</event>
<event>
 5   0  0.7220250E-02  0.4850769E+03  0.7818609E-02  0.1017749E+00
       -4   -1    0    0    0  501  0.00000000000E+00  0.00000000000E+00  0.96171056749E+03  0.96171140605E+03  0.12699999809E+01 0.  1.
        4   -1    0    0  501    0  0.00000000000E+00  0.00000000000E+00 -0.61159493386E+02  0.61172677979E+02  0.12699999809E+01 0. -1.
    10030    2    1    2    0    0  0.00000000000E+00  0.00000000000E+00  0.90055107410E+03  0.10228840840E+04  0.48507691378E+03 0.  0.
        5    1    3    3  502    0  0.82437548319E+02  0.19521906982E+03  0.20169528029E+03  0.29259102974E+03  0.46999998093E+01 0. -1.
       -5    1    3    3    0  502 -0.82437548319E+02 -0.19521906982E+03  0.69885579382E+03  0.73029305429E+03  0.46999998093E+01 0.  1.
</event>
<event>
 5   0  0.1147245E-01  0.5008850E+03  0.7818609E-02  0.1013548E+00
       -1   -1    0    0    0  501  0.00000000000E+00  0.00000000000E+00  0.47250452678E+02  0.47250452946E+02  0.50400001928E-02 0. -1.
        1   -1    0    0  501    0  0.00000000000E+00  0.00000000000E+00 -0.13274253087E+04  0.13274253087E+04  0.50400001928E-02 0.  1.
    10030    2    1    2    0    0  0.00000000000E+00  0.00000000000E+00 -0.12801748561E+04  0.13746757617E+04  0.50088500447E+03 0.  0.
        1    1    3    3  502    0 -0.16844314034E+03 -0.80275668303E+02 -0.18163231685E+03  0.26039887289E+03  0.50400001928E-02 0. -1.
       -1    1    3    3    0  502  0.16844314034E+03  0.80275668303E+02 -0.10985425392E+04  0.11142768888E+04  0.50400001928E-02 0.  1.
</event>
<event>
 5   0  0.1683148E-01  0.5065525E+03  0.7818609E-02  0.1012083E+00
        2   -1    0    0  501    0  0.00000000000E+00  0.00000000000E+00  0.66131378961E+03  0.66131378962E+03  0.25500000920E-02 0.  1.
       -2   -1    0    0    0  501  0.00000000000E+00  0.00000000000E+00 -0.97002160927E+02  0.97002160960E+02  0.25500000920E-02 0. -1.
    10030    2    1    2    0    0  0.00000000000E+00  0.00000000000E+00  0.56431162869E+03  0.75831595058E+03  0.50655253097E+03 0.  0.
        2    1    3    3  502    0 -0.14632151478E+03 -0.93927280268E+01  0.59131956506E+03  0.60922658925E+03  0.25500000920E-02 0.  1.
       -2    1    3    3    0  502  0.14632151478E+03  0.93927280268E+01 -0.27007936373E+02  0.14908936132E+03  0.25500000920E-02 0. -1.
</event>
<event>
 5   0  0.1709372E-01  0.5035873E+03  0.7818609E-02  0.1012847E+00
        2   -1    0    0  501    0  0.00000000000E+00  0.00000000000E+00  0.11312331231E+04  0.11312331231E+04  0.25500000920E-02 0. -1.
       -2   -1    0    0    0  501  0.00000000000E+00  0.00000000000E+00 -0.56045079516E+02  0.56045079574E+02  0.25500000920E-02 0.  1.
    10030    2    1    2    0    0  0.00000000000E+00  0.00000000000E+00  0.10751880436E+04  0.11872782027E+04  0.50358733254E+03 0.  0.
        4    1    3    3  502    0  0.16369436480E+03  0.17358632326E+02  0.98679284394E+03  0.10004293563E+04  0.12699999809E+01 0. -1.
       -4    1    3    3    0  502 -0.16369436480E+03 -0.17358632326E+02  0.88395199692E+02  0.18684884643E+03  0.12699999809E+01 0.  1.
</event>
<event>
 5   0  0.1068522E-01  0.5051257E+03  0.7818609E-02  0.1012450E+00
       -1   -1    0    0    0  501  0.00000000000E+00  0.00000000000E+00  0.64294994689E+02  0.64294994887E+02  0.50400001928E-02 0. -1.
        1   -1    0    0  501    0  0.00000000000E+00  0.00000000000E+00 -0.99211427108E+03  0.99211427109E+03  0.50400001928E-02 0.  1.
    10030    2    1    2    0    0  0.00000000000E+00  0.00000000000E+00 -0.92781927639E+03  0.10564092660E+04  0.50512565526E+03 0.  0.
        2    1    3    3  502    0  0.79613706089E+02  0.17185365890E+03 -0.11448054938E+03  0.22130932757E+03  0.25500000920E-02 0. -1.
       -2    1    3    3    0  502 -0.79613706089E+02 -0.17185365890E+03 -0.81333872701E+03  0.83509993841E+03  0.25500000920E-02 0.  1.
</event>
<event>
 5   0  0.7220250E-02  0.4987058E+03  0.7818609E-02  0.1014117E+00
       -3   -1    0    0    0  501  0.00000000000E+00  0.00000000000E+00  0.52073189201E+03  0.52073190181E+03  0.10100000352E+00 0.  1.
        3   -1    0    0  501    0  0.00000000000E+00  0.00000000000E+00 -0.11940281537E+03  0.11940285808E+03  0.10100000352E+00 0. -1.
    10030    2    1    2    0    0  0.00000000000E+00  0.00000000000E+00  0.40132907665E+03  0.64013475989E+03  0.49870580813E+03 0.  0.
        4    1    3    3  502    0 -0.16904423344E+03 -0.16491190451E+03  0.97950160334E+02  0.25567114800E+03  0.12699999809E+01 0. -1.
       -4    1    3    3    0  502  0.16904423344E+03  0.16491190451E+03  0.30337891631E+03  0.38446361189E+03  0.12699999809E+01 0.  1.
</event>
<event>
 5   0  0.1141970E-01  0.4923553E+03  0.7818609E-02  0.1015794E+00
       -1   -1    0    0    0  501  0.00000000000E+00  0.00000000000E+00  0.43955632471E+02  0.43955632760E+02  0.50400001928E-02 0. -1.
        1   -1    0    0  501    0  0.00000000000E+00  0.00000000000E+00 -0.13787411013E+04  0.13787411013E+04  0.50400001928E-02 0.  1.
    10030    2    1    2    0    0  0.00000000000E+00  0.00000000000E+00 -0.13347854689E+04  0.14226967341E+04  0.49235530803E+03 0.  0.
        3    1    3    3  502    0 -0.15658651643E+03  0.10557267850E+03 -0.21107340001E+03  0.28322591330E+03  0.10100000352E+00 0. -1.
       -3    1    3    3    0  502  0.15658651643E+03 -0.10557267850E+03 -0.11237120689E+04  0.11394708208E+04  0.10100000352E+00 0.  1.
</event>
<event>
 5   0  0.7220250E-02  0.5132329E+03  0.7818609E-02  0.1010382E+00
        4   -1    0    0  501    0  0.00000000000E+00  0.00000000000E+00  0.49352460758E+03  0.49352624164E+03  0.12699999809E+01 0. -1.
       -4   -1    0    0    0  501  0.00000000000E+00  0.00000000000E+00 -0.13342719116E+03  0.13343323514E+03  0.12699999809E+01 0.  1.
    10030    2    1    2    0    0  0.00000000000E+00  0.00000000000E+00  0.36009741643E+03  0.62695947678E+03  0.51323292588E+03 0.  0.
        3    1    3    3  502    0  0.24650762142E+03 -0.47355145196E+01  0.26697541227E+03  0.36340654021E+03  0.10100000352E+00 0. -1.
       -3    1    3    3    0  502 -0.24650762142E+03  0.47355145196E+01  0.93122004161E+02  0.26355293657E+03  0.10100000352E+00 0.  1.
</event>
<event>
 5   0  0.1123271E-01  0.5025013E+03  0.7818609E-02  0.1013128E+00
       -1   -1    0    0    0  501  0.00000000000E+00  0.00000000000E+00  0.23748146325E+03  0.23748146331E+03  0.50400001928E-02 0. -1.
        1   -1    0    0  501    0  0.00000000000E+00  0.00000000000E+00 -0.26581821549E+03  0.26581821553E+03  0.50400001928E-02 0.  1.
    10030    2    1    2    0    0  0.00000000000E+00  0.00000000000E+00 -0.28336752234E+02  0.50329967884E+03  0.50250133850E+03 0.  0.
        5    1    3    3  502    0 -0.14389744018E+03 -0.59969041897E+02 -0.21146368685E+03  0.26275794970E+03  0.46999998093E+01 0.  1.
       -5    1    3    3    0  502  0.14389744018E+03  0.59969041897E+02  0.18312693462E+03  0.24054172914E+03  0.46999998093E+01 0. -1.
</event>
<event>
 5   0  0.1683148E-01  0.4767796E+03  0.7818609E-02  0.1020024E+00
       -2   -1    0    0    0  501  0.00000000000E+00  0.00000000000E+00  0.35967063060E+03  0.35967063061E+03  0.25500000920E-02 0. -1.
        2   -1    0    0  501    0  0.00000000000E+00  0.00000000000E+00 -0.15800482622E+03  0.15800482624E+03  0.25500000920E-02 0.  1.
    10030    2    1    2    0    0  0.00000000000E+00  0.00000000000E+00  0.20166580438E+03  0.51767545686E+03  0.47677959476E+03 0.  0.
        2    1    3    3  502    0 -0.41763272123E+02 -0.49818539915E+02 -0.14819488190E+03  0.16182639106E+03  0.25500000920E-02 0.  1.
       -2    1    3    3    0  502  0.41763272123E+02  0.49818539915E+02  0.34986068628E+03  0.35584906579E+03  0.25500000920E-02 0. -1.
</event>
<event>
 5   0  0.1782124E-01  0.4987524E+03  0.7818609E-02  0.1014105E+00
        2   -1    0    0  501    0  0.00000000000E+00  0.00000000000E+00  0.62056092202E+03  0.62056092203E+03  0.25500000920E-02 0.  1.
       -2   -1    0    0    0  501  0.00000000000E+00  0.00000000000E+00 -0.10021335399E+03  0.10021335403E+03  0.25500000920E-02 0. -1.
    10030    2    1    2    0    0  0.00000000000E+00  0.00000000000E+00  0.52034756803E+03  0.72077427605E+03  0.49875240898E+03 0.  0.
        3    1    3    3  502    0  0.93435991055E+02  0.56667740619E+02  0.58411722044E+03  0.59425117136E+03  0.10100000352E+00 0.  1.
       -3    1    3    3    0  502 -0.93435991055E+02 -0.56667740619E+02 -0.63769652409E+02  0.12652310469E+03  0.10100000352E+00 0. -1.
</event>
<event>
 5   0  0.1683148E-01  0.4550033E+03  0.7818609E-02  0.1026240E+00
        2   -1    0    0  501    0  0.00000000000E+00  0.00000000000E+00  0.59620900118E+03  0.59620900119E+03  0.25500000920E-02 0. -1.
       -2   -1    0    0    0  501  0.00000000000E+00  0.00000000000E+00 -0.86810181460E+02  0.86810181497E+02  0.25500000920E-02 0.  1.
    10030    2    1    2    0    0  0.00000000000E+00  0.00000000000E+00  0.50939881972E+03  0.68301918268E+03  0.45500334766E+03 0.  0.
        2    1    3    3  502    0  0.13034604818E+03 -0.57657719523E+02  0.52088031045E+03  0.54002852028E+03  0.25500000920E-02 0. -1.
       -2    1    3    3    0  502 -0.13034604818E+03  0.57657719523E+02 -0.11481490732E+02  0.14299066240E+03  0.25500000920E-02 0.  1.
</event>
<event>
 5   0  0.1147245E-01  0.5013725E+03  0.7818609E-02  0.1013421E+00
        1   -1    0    0  501    0  0.00000000000E+00  0.00000000000E+00  0.46039576537E+03  0.46039576539E+03  0.50400001928E-02 0. -1.
       -1   -1    0    0    0  501  0.00000000000E+00  0.00000000000E+00 -0.13649907715E+03  0.13649907724E+03  0.50400001928E-02 0.  1.
    10030    2    1    2    0    0  0.00000000000E+00  0.00000000000E+00  0.32389668822E+03  0.59689484263E+03  0.50137250475E+03 0.  0.
        1    1    3    3  502    0 -0.74236347098E+02  0.33928752678E+02 -0.12023644366E+03  0.14532376921E+03  0.50400001928E-02 0.  1.
       -1    1    3    3    0  502  0.74236347098E+02 -0.33928752678E+02  0.44413313188E+03  0.45157107342E+03  0.50400001928E-02 0. -1.
</event>
<event>
 5   0  0.1141970E-01  0.5246179E+03  0.7818609E-02  0.1007546E+00
        1   -1    0    0  501    0  0.00000000000E+00  0.00000000000E+00  0.26490339042E+03  0.26490339047E+03  0.50400001928E-02 0.  1.
       -1   -1    0    0    0  501  0.00000000000E+00  0.00000000000E+00 -0.25973996089E+03  0.25973996094E+03  0.50400001928E-02 0. -1.
    10030    2    1    2    0    0  0.00000000000E+00  0.00000000000E+00  0.51634295288E+01  0.52464335140E+03  0.52461794209E+03 0.  0.
        3    1    3    3  502    0  0.15713433492E+03 -0.12751926877E+03  0.16948384524E+03  0.26396429137E+03  0.10100000352E+00 0.  1.
       -3    1    3    3    0  502 -0.15713433492E+03  0.12751926877E+03 -0.16432041572E+03  0.26067906003E+03  0.10100000352E+00 0. -1.
</event>
<event>
 5   0  0.1760649E-01  0.5012600E+03  0.7818609E-02  0.1013451E+00
       -2   -1    0    0    0  501  0.00000000000E+00  0.00000000000E+00  0.14092630242E+03  0.14092630245E+03  0.25500000920E-02 0. -1.
        2   -1    0    0  501    0  0.00000000000E+00  0.00000000000E+00 -0.44573232546E+03  0.44573232546E+03  0.25500000920E-02 0.  1.
    10030    2    1    2    0    0  0.00000000000E+00  0.00000000000E+00 -0.30480602303E+03  0.58665862791E+03  0.50126004631E+03 0.  0.
        5    1    3    3  502    0  0.70033984668E+02  0.87540449497E+02  0.10988795650E+03  0.15705267361E+03  0.46999998093E+01 0. -1.
       -5    1    3    3    0  502 -0.70033984668E+02 -0.87540449497E+02 -0.41469397954E+03  0.42960595430E+03  0.46999998093E+01 0.  1.
</event>
<event>
 5   0  0.1141970E-01  0.5003885E+03  0.7818609E-02  0.1013678E+00
        1   -1    0    0  501    0  0.00000000000E+00  0.00000000000E+00  0.75699995141E+03  0.75699995142E+03  0.50400001928E-02 0.  1.
       -1   -1    0    0    0  501  0.00000000000E+00  0.00000000000E+00 -0.82691097440E+02  0.82691097593E+02  0.50400001928E-02 0. -1.
    10030    2    1    2    0    0  0.00000000000E+00  0.00000000000E+00  0.67430885397E+03  0.83969104902E+03  0.50038847635E+03 0.  0.
        3    1    3    3  502    0  0.42337014827E+02  0.20658606882E+03  0.11122425513E+03  0.23841365687E+03  0.10100000352E+00 0. -1.
       -3    1    3    3    0  502 -0.42337014827E+02 -0.20658606882E+03  0.56308459884E+03  0.60127739214E+03  0.10100000352E+00 0.  1.
</event>
<event>
 5   0  0.1068522E-01  0.4957012E+03  0.7818609E-02  0.1014907E+00
        1   -1    0    0  501    0  0.00000000000E+00  0.00000000000E+00  0.39574357535E+03  0.39574357538E+03  0.50400001928E-02 0. -1.
       -1   -1    0    0    0  501  0.00000000000E+00  0.00000000000E+00 -0.15522659788E+03  0.15522659797E+03  0.50400001928E-02 0.  1.
    10030    2    1    2    0    0  0.00000000000E+00  0.00000000000E+00  0.24051697746E+03  0.55097017334E+03  0.49570123610E+03 0.  0.
        2    1    3    3  502    0  0.23984944416E+02  0.22041540450E+03 -0.28705433562E+01  0.22173513056E+03  0.25500000920E-02 0.  1.
       -2    1    3    3    0  502 -0.23984944416E+02 -0.22041540450E+03  0.24338752082E+03  0.32923504278E+03  0.25500000920E-02 0. -1.
</event>
<event>
 5   0  0.1760649E-01  0.4708149E+03  0.7818609E-02  0.1021690E+00
       -2   -1    0    0    0  501  0.00000000000E+00  0.00000000000E+00  0.72355487843E+02  0.72355487888E+02  0.25500000920E-02 0.  1.
        2   -1    0    0  501    0  0.00000000000E+00  0.00000000000E+00 -0.76589446256E+03  0.76589446256E+03  0.25500000920E-02 0. -1.
    10030    2    1    2    0    0  0.00000000000E+00  0.00000000000E+00 -0.69353897471E+03  0.83824995045E+03  0.47081489991E+03 0.  0.
        5    1    3    3  502    0 -0.40491651678E+02 -0.90316294001E+02  0.33416490804E+02  0.10457226532E+03  0.46999998093E+01 0.  1.
       -5    1    3    3    0  502  0.40491651678E+02  0.90316294001E+02 -0.72695546552E+03  0.73367768513E+03  0.46999998093E+01 0. -1.
</event>
<event>
 5   0  0.1147245E-01  0.4822283E+03  0.7818609E-02  0.1018525E+00
        1   -1    0    0  501    0  0.00000000000E+00  0.00000000000E+00  0.13099852800E+04  0.13099852800E+04  0.50400001928E-02 0. -1.
       -1   -1    0    0    0  501  0.00000000000E+00  0.00000000000E+00 -0.44379153022E+02  0.44379153308E+02  0.50400001928E-02 0.  1.
    10030    2    1    2    0    0  0.00000000000E+00  0.00000000000E+00  0.12656061270E+04  0.13543644333E+04  0.48222831687E+03 0.  0.
        1    1    3    3  502    0 -0.23812071594E+03  0.20101586776E+02  0.72296107970E+03  0.76143172506E+03  0.50400001928E-02 0. -1.
       -1    1    3    3    0  502  0.23812071594E+03 -0.20101586776E+02  0.54264504726E+03  0.59293270823E+03  0.50400001928E-02 0.  1.
</event>
<event>
 5   0  0.1782124E-01  0.4968797E+03  0.7818609E-02  0.1014597E+00
        2   -1    0    0  501    0  0.00000000000E+00  0.00000000000E+00  0.65927423379E+03  0.65927423380E+03  0.25500000920E-02 0.  1.
       -2   -1    0    0    0  501  0.00000000000E+00  0.00000000000E+00 -0.93621666129E+02  0.93621666164E+02  0.25500000920E-02 0. -1.
    10030    2    1    2    0    0  0.00000000000E+00  0.00000000000E+00  0.56565256766E+03  0.75289589996E+03  0.49687967243E+03 0.  0.
        3    1    3    3  502    0 -0.65127595508E+02  0.20472010626E+03  0.93751411456E+02  0.23439552674E+03  0.10100000352E+00 0.  1.
       -3    1    3    3    0  502  0.65127595508E+02 -0.20472010626E+03  0.47190115621E+03  0.51850037322E+03  0.10100000352E+00 0. -1.
</event>
<event>
 5   0  0.1709372E-01  0.4911843E+03  0.7818609E-02  0.1016106E+00
        2   -1    0    0  501    0  0.00000000000E+00  0.00000000000E+00  0.40262625333E+03  0.40262625334E+03  0.25500000920E-02 0.  1.
       -2   -1    0    0    0  501  0.00000000000E+00  0.00000000000E+00 -0.14980520473E+03  0.14980520475E+03  0.25500000920E-02 0. -1.
    10030    2    1    2    0    0  0.00000000000E+00  0.00000000000E+00  0.25282104860E+03  0.55243145809E+03  0.49118431701E+03 0.  0.
        4    1    3    3  502    0 -0.16082711906E+03 -0.75956295143E+00 -0.82334263421E+02  0.18068337775E+03  0.12699999809E+01 0. -1.
       -4    1    3    3    0  502  0.16082711906E+03  0.75956295143E+00  0.33515531202E+03  0.37174808034E+03  0.12699999809E+01 0.  1.
</event>
<event>
 5   0  0.1782124E-01  0.5078603E+03  0.7818609E-02  0.1011747E+00
        2   -1    0    0  501    0  0.00000000000E+00  0.00000000000E+00  0.68504259145E+03  0.68504259146E+03  0.25500000920E-02 0. -1.
       -2   -1    0    0    0  501  0.00000000000E+00  0.00000000000E+00 -0.94126278462E+02  0.94126278497E+02  0.25500000920E-02 0.  1.
    10030    2    1    2    0    0  0.00000000000E+00  0.00000000000E+00  0.59091631299E+03  0.77916886995E+03  0.50786025533E+03 0.  0.
        3    1    3    3  502    0  0.14868750123E+03  0.36282532098E+02  0.60632631147E+03  0.62534470602E+03  0.10100000352E+00 0. -1.
       -3    1    3    3    0  502 -0.14868750123E+03 -0.36282532098E+02 -0.15409998483E+02  0.15382416394E+03  0.10100000352E+00 0.  1.
</event>
<event>
 5   0  0.7220250E-02  0.4922666E+03  0.7818609E-02  0.1015817E+00
       -4   -1    0    0    0  501  0.00000000000E+00  0.00000000000E+00  0.15388455235E+03  0.15388979287E+03  0.12699999809E+01 0.  1.
        4   -1    0    0  501    0  0.00000000000E+00  0.00000000000E+00 -0.39366918558E+03  0.39367123412E+03  0.12699999809E+01 0. -1.
    10030    2    1    2    0    0  0.00000000000E+00  0.00000000000E+00 -0.23978463323E+03  0.54756102699E+03  0.49226660251E+03 0.  0.
        4    1    3    3  502    0  0.11358195785E+03  0.10726905062E+03  0.91661708057E+02  0.18113804679E+03  0.12699999809E+01 0.  1.
       -4    1    3    3    0  502 -0.11358195785E+03 -0.10726905062E+03 -0.33144634129E+03  0.36642298021E+03  0.12699999809E+01 0. -1.
</event>
<event>
 5   0  0.1709372E-01  0.5103227E+03  0.7818609E-02  0.1011119E+00
       -2   -1    0    0    0  501  0.00000000000E+00  0.00000000000E+00  0.67464220092E+02  0.67464220140E+02  0.25500000920E-02 0.  1.
        2   -1    0    0  501    0  0.00000000000E+00  0.00000000000E+00 -0.96506425824E+03  0.96506425825E+03  0.25500000920E-02 0. -1.
    10030    2    1    2    0    0  0.00000000000E+00  0.00000000000E+00 -0.89760003815E+03  0.10325284784E+04  0.51032267262E+03 0.  0.
        4    1    3    3  502    0 -0.41552142168E+02  0.22883618462E+03 -0.23646958033E+03  0.33168065248E+03  0.12699999809E+01 0. -1.
       -4    1    3    3    0  502  0.41552142168E+02 -0.22883618462E+03 -0.66113045782E+03  0.70084782590E+03  0.12699999809E+01 0.  1.
</event>
<event>
 5   0  0.1141970E-01  0.5116137E+03  0.7818609E-02  0.1010791E+00
        1   -1    0    0  501    0  0.00000000000E+00  0.00000000000E+00  0.12963018221E+04  0.12963018221E+04  0.50400001928E-02 0. -1.
       -1   -1    0    0    0  501  0.00000000000E+00  0.00000000000E+00 -0.50479860955E+02  0.50479861206E+02  0.50400001928E-02 0.  1.
    10030    2    1    2    0    0  0.00000000000E+00  0.00000000000E+00  0.12458219611E+04  0.13467816833E+04  0.51161366639E+03 0.  0.
        3    1    3    3  502    0 -0.13233199461E+03 -0.12946629318E+03  0.15820249598E+03  0.24351861901E+03  0.10100000352E+00 0.  1.
       -3    1    3    3    0  502  0.13233199461E+03  0.12946629318E+03  0.10876194651E+04  0.11032630643E+04  0.10100000352E+00 0. -1.
</event>
<event>
 5   0  0.7220250E-02  0.5111008E+03  0.7818609E-02  0.1010921E+00
        4   -1    0    0  501    0  0.00000000000E+00  0.00000000000E+00  0.24550035826E+03  0.24550364316E+03  0.12699999809E+01 0.  1.
       -4   -1    0    0    0  501  0.00000000000E+00  0.00000000000E+00 -0.26600523027E+03  0.26600826196E+03  0.12699999809E+01 0. -1.
    10030    2    1    2    0    0  0.00000000000E+00  0.00000000000E+00 -0.20504872011E+02  0.51151190512E+03  0.51110075259E+03 0.  0.
        2    1    3    3  502    0  0.81301065338E+02  0.12867687995E+03  0.19518907752E+03  0.24752046107E+03  0.25500000920E-02 0.  1.
       -2    1    3    3    0  502 -0.81301065338E+02 -0.12867687995E+03 -0.21569394953E+03  0.26399144405E+03  0.25500000920E-02 0. -1.
</event>
<event>
 5   0  0.7220250E-02  0.5036340E+03  0.7818609E-02  0.1012835E+00
       -3   -1    0    0    0  501  0.00000000000E+00  0.00000000000E+00  0.23469925608E+03  0.23469927781E+03  0.10100000352E+00 0.  1.
        3   -1    0    0  501    0  0.00000000000E+00  0.00000000000E+00 -0.27018316316E+03  0.27018318203E+03  0.10100000352E+00 0. -1.
    10030    2    1    2    0    0  0.00000000000E+00  0.00000000000E+00 -0.35483907079E+02  0.50488245984E+03  0.50363398475E+03 0.  0.
        2    1    3    3  502    0  0.70058401185E+02  0.20759936458E+03  0.10668713496E+03  0.24369616436E+03  0.25500000920E-02 0.  1.
       -2    1    3    3    0  502 -0.70058401185E+02 -0.20759936458E+03 -0.14217104204E+03  0.26118629549E+03  0.25500000920E-02 0. -1.
</event>
<event>
 5   0  0.7220250E-02  0.4492858E+03  0.7818609E-02  0.1027935E+00
       -3   -1    0    0    0  501  0.00000000000E+00  0.00000000000E+00  0.13862675288E+03  0.13862678967E+03  0.10100000352E+00 0. -1.
        3   -1    0    0  501    0  0.00000000000E+00  0.00000000000E+00 -0.36403088212E+03  0.36403089613E+03  0.10100000352E+00 0.  1.
    10030    2    1    2    0    0  0.00000000000E+00  0.00000000000E+00 -0.22540412924E+03  0.50265768580E+03  0.44928579726E+03 0.  0.
        4    1    3    3  502    0 -0.14837922561E+03 -0.13776107887E+03 -0.22156645921E+03  0.30014632796E+03  0.12699999809E+01 0.  1.
       -4    1    3    3    0  502  0.14837922561E+03  0.13776107887E+03 -0.38376700256E+01  0.20251135784E+03  0.12699999809E+01 0. -1.
</event>
<event>
 5   0  0.1123271E-01  0.4976024E+03  0.7818609E-02  0.1014407E+00
        1   -1    0    0  501    0  0.00000000000E+00  0.00000000000E+00  0.75402859378E+03  0.75402859380E+03  0.50400001928E-02 0. -1.
       -1   -1    0    0    0  501  0.00000000000E+00  0.00000000000E+00 -0.82095076342E+02  0.82095076496E+02  0.50400001928E-02 0.  1.
    10030    2    1    2    0    0  0.00000000000E+00  0.00000000000E+00  0.67193351744E+03  0.83612367030E+03  0.49760239164E+03 0.  0.
        5    1    3    3  502    0  0.61451826953E+02 -0.17616128808E+03  0.59502652903E+02  0.19588716689E+03  0.46999998093E+01 0.  1.
       -5    1    3    3    0  502 -0.61451826953E+02  0.17616128808E+03  0.61243086454E+03  0.64023650340E+03  0.46999998093E+01 0. -1.
</event>
<event>
 5   0  0.7220250E-02  0.4974663E+03  0.7818609E-02  0.1014442E+00
       -4   -1    0    0    0  501  0.00000000000E+00  0.00000000000E+00  0.16006129834E+03  0.16006633665E+03  0.12699999809E+01 0. -1.
        4   -1    0    0  501    0  0.00000000000E+00  0.00000000000E+00 -0.38651593477E+03  0.38651802122E+03  0.12699999809E+01 0.  1.
    10030    2    1    2    0    0  0.00000000000E+00  0.00000000000E+00 -0.22645463643E+03  0.54658435787E+03  0.49746633847E+03 0.  0.
        1    1    3    3  502    0  0.99239740406E+00 -0.15708349708E+03  0.98666431768E+02  0.18550276195E+03  0.50400001928E-02 0. -1.
       -1    1    3    3    0  502 -0.99239740406E+00  0.15708349708E+03 -0.32512106819E+03  0.36108159592E+03  0.50400001928E-02 0.  1.
</event>
<event>
 5   0  0.1141970E-01  0.5127588E+03  0.7818609E-02  0.1010501E+00
       -1   -1    0    0    0  501  0.00000000000E+00  0.00000000000E+00  0.67811352444E+02  0.67811352632E+02  0.50400001928E-02 0.  1.
        1   -1    0    0  501    0  0.00000000000E+00  0.00000000000E+00 -0.96931257984E+03  0.96931257985E+03  0.50400001928E-02 0. -1.
    10030    2    1    2    0    0  0.00000000000E+00  0.00000000000E+00 -0.90150122740E+03  0.10371239325E+04  0.51275880133E+03 0.  0.
        3    1    3    3  502    0 -0.73963859504E+02  0.22501518450E+03 -0.25228588127E+03  0.34605008577E+03  0.10100000352E+00 0.  1.
       -3    1    3    3    0  502  0.73963859504E+02 -0.22501518450E+03 -0.64921534613E+03  0.69107384672E+03  0.10100000352E+00 0. -1.
</event>
<event>
 5   0  0.1141970E-01  0.4964629E+03  0.7818609E-02  0.1014706E+00
        1   -1    0    0  501    0  0.00000000000E+00  0.00000000000E+00  0.13395690645E+04  0.13395690645E+04  0.50400001928E-02 0. -1.
       -1   -1    0    0    0  501  0.00000000000E+00  0.00000000000E+00 -0.45999018314E+02  0.45999018590E+02  0.50400001928E-02 0.  1.
    10030    2    1    2    0    0  0.00000000000E+00  0.00000000000E+00  0.12935700461E+04  0.13855680831E+04  0.49646293770E+03 0.  0.
        3    1    3    3  502    0 -0.46105843497E+02 -0.13129094746E+03  0.73085945103E+02  0.15717705705E+03  0.10100000352E+00 0.  1.
       -3    1    3    3    0  502  0.46105843497E+02  0.13129094746E+03  0.12204841010E+04  0.12283910260E+04  0.10100000352E+00 0. -1.
</event>
<event>
 5   0  0.1760649E-01  0.4971152E+03  0.7818609E-02  0.1014535E+00
       -2   -1    0    0    0  501  0.00000000000E+00  0.00000000000E+00  0.16236226688E+03  0.16236226690E+03  0.25500000920E-02 0.  1.
        2   -1    0    0  501    0  0.00000000000E+00  0.00000000000E+00 -0.38051257362E+03  0.38051257362E+03  0.25500000920E-02 0. -1.
    10030    2    1    2    0    0  0.00000000000E+00  0.00000000000E+00 -0.21815030674E+03  0.54287484052E+03  0.49711521415E+03 0.  0.
        5    1    3    3  502    0 -0.43179724085E+02 -0.20923931832E+03  0.29547349448E+02  0.21573297560E+03  0.46999998093E+01 0.  1.
       -5    1    3    3    0  502  0.43179724085E+02  0.20923931832E+03 -0.24769765619E+03  0.32714186492E+03  0.46999998093E+01 0. -1.
</event>
<event>
 5   0  0.1147245E-01  0.4972292E+03  0.7818609E-02  0.1014505E+00
       -1   -1    0    0    0  501  0.00000000000E+00  0.00000000000E+00  0.13960165893E+03  0.13960165902E+03  0.50400001928E-02 0. -1.
        1   -1    0    0  501    0  0.00000000000E+00  0.00000000000E+00 -0.44275417281E+03  0.44275417284E+03  0.50400001928E-02 0.  1.
    10030    2    1    2    0    0  0.00000000000E+00  0.00000000000E+00 -0.30315251388E+03  0.58235583186E+03  0.49722919085E+03 0.  0.
        1    1    3    3  502    0  0.43704069552E+02 -0.16943033156E+03 -0.35842702664E+03  0.39885663640E+03  0.50400001928E-02 0.  1.
       -1    1    3    3    0  502 -0.43704069552E+02  0.16943033156E+03  0.55274512769E+02  0.18349919546E+03  0.50400001928E-02 0. -1.
</event>
<event>
 5   0  0.1123271E-01  0.5004974E+03  0.7818609E-02  0.1013649E+00
        1   -1    0    0  501    0  0.00000000000E+00  0.00000000000E+00  0.23284760570E+03  0.23284760575E+03  0.50400001928E-02 0. -1.
       -1   -1    0    0    0  501  0.00000000000E+00  0.00000000000E+00 -0.26895024951E+03  0.26895024955E+03  0.50400001928E-02 0.  1.
    10030    2    1    2    0    0  0.00000000000E+00  0.00000000000E+00 -0.36102643809E+02  0.50179785530E+03  0.50049743925E+03 0.  0.
        5    1    3    3  502    0  0.15966080971E+03 -0.13306795198E+03  0.12160769057E+03  0.24085093815E+03  0.46999998093E+01 0. -1.
       -5    1    3    3    0  502 -0.15966080971E+03  0.13306795198E+03 -0.15771033438E+03  0.26094691715E+03  0.46999998093E+01 0.  1.
</event>
<event>
 5   0  0.1074281E-01  0.4840646E+03  0.7818609E-02  0.1018024E+00
       -1   -1    0    0    0  501  0.00000000000E+00  0.00000000000E+00  0.42211948021E+03  0.42211948024E+03  0.50400001928E-02 0.  1.
        1   -1    0    0  501    0  0.00000000000E+00  0.00000000000E+00 -0.13877501544E+03  0.13877501553E+03  0.50400001928E-02 0. -1.
    10030    2    1    2    0    0  0.00000000000E+00  0.00000000000E+00  0.28334446477E+03  0.56089449577E+03  0.48406461312E+03 0.  0.
        4    1    3    3  502    0 -0.18004152312E+03 -0.10381931499E+02  0.32870848746E+03  0.37493148331E+03  0.12699999809E+01 0.  1.
       -4    1    3    3    0  502  0.18004152312E+03  0.10381931499E+02 -0.45364022694E+02  0.18596301246E+03  0.12699999809E+01 0. -1.
</event>
<event>
 5   0  0.1068522E-01  0.5098346E+03  0.7818609E-02  0.1011243E+00
       -1   -1    0    0    0  501  0.00000000000E+00  0.00000000000E+00  0.10987986786E+03  0.10987986798E+03  0.50400001928E-02 0.  1.
        1   -1    0    0  501    0  0.00000000000E+00  0.00000000000E+00 -0.59139882130E+03  0.59139882132E+03  0.50400001928E-02 0. -1.
    10030    2    1    2    0    0  0.00000000000E+00  0.00000000000E+00 -0.48151895343E+03  0.70127868930E+03  0.50983457861E+03 0.  0.
        2    1    3    3  502    0 -0.96306401323E+02  0.23575406674E+03 -0.22520221845E+03  0.33995726514E+03  0.25500000920E-02 0.  1.
       -2    1    3    3    0  502  0.96306401323E+02 -0.23575406674E+03 -0.25631673498E+03  0.36132142416E+03  0.25500000920E-02 0. -1.
</event>
<event>
 5   0  0.1683148E-01  0.4964111E+03  0.7818609E-02  0.1014720E+00
       -2   -1    0    0    0  501  0.00000000000E+00  0.00000000000E+00  0.23751066633E+03  0.23751066635E+03  0.25500000920E-02 0.  1.
        2   -1    0    0  501    0  0.00000000000E+00  0.00000000000E+00 -0.25938199911E+03  0.25938199913E+03  0.25500000920E-02 0. -1.
    10030    2    1    2    0    0  0.00000000000E+00  0.00000000000E+00 -0.21871332781E+02  0.49689266547E+03  0.49641108550E+03 0.  0.
        2    1    3    3  502    0 -0.12939678247E+03  0.93147985442E+02  0.17947483910E+03  0.24006518361E+03  0.25500000920E-02 0.  1.
       -2    1    3    3    0  502  0.12939678247E+03 -0.93147985442E+02 -0.20134617188E+03  0.25682748187E+03  0.25500000920E-02 0. -1.
</event>
<event>
 5   0  0.1782124E-01  0.5157069E+03  0.7818609E-02  0.1009759E+00
        2   -1    0    0  501    0  0.00000000000E+00  0.00000000000E+00  0.28046574409E+03  0.28046574410E+03  0.25500000920E-02 0. -1.
       -2   -1    0    0    0  501  0.00000000000E+00  0.00000000000E+00 -0.23706422265E+03  0.23706422266E+03  0.25500000920E-02 0.  1.
    10030    2    1    2    0    0  0.00000000000E+00  0.00000000000E+00  0.43401521445E+02  0.51752996677E+03  0.51570686871E+03 0.  0.
        3    1    3    3  502    0 -0.23022108889E+03 -0.93367734043E+02  0.91003562881E+02  0.26457691167E+03  0.10100000352E+00 0. -1.
       -3    1    3    3    0  502  0.23022108889E+03  0.93367734043E+02 -0.47602041436E+02  0.25295305509E+03  0.10100000352E+00 0.  1.
</event>
<event>
 5   0  0.1709372E-01  0.5031503E+03  0.7818609E-02  0.1012960E+00
        2   -1    0    0  501    0  0.00000000000E+00  0.00000000000E+00  0.12710292595E+03  0.12710292598E+03  0.25500000920E-02 0. -1.
       -2   -1    0    0    0  501  0.00000000000E+00  0.00000000000E+00 -0.49794329727E+03  0.49794329728E+03  0.25500000920E-02 0.  1.
    10030    2    1    2    0    0  0.00000000000E+00  0.00000000000E+00 -0.37084037132E+03  0.62504622326E+03  0.50315027597E+03 0.  0.
        4    1    3    3  502    0  0.51516111200E+02 -0.10117297710E+03 -0.46430410128E+03  0.47798513824E+03  0.12699999809E+01 0.  1.
       -4    1    3    3    0  502 -0.51516111200E+02  0.10117297710E+03  0.93463729963E+02  0.14706108502E+03  0.12699999809E+01 0. -1.
</event>
<event>
 5   0  0.1141970E-01  0.3915933E+03  0.7818609E-02  0.1046730E+00
        1   -1    0    0  501    0  0.00000000000E+00  0.00000000000E+00  0.84233772209E+02  0.84233772359E+02  0.50400001928E-02 0.  1.
       -1   -1    0    0    0  501  0.00000000000E+00  0.00000000000E+00 -0.45511836899E+03  0.45511836901E+03  0.50400001928E-02 0. -1.
    10030    2    1    2    0    0  0.00000000000E+00  0.00000000000E+00 -0.37088459678E+03  0.53935214137E+03  0.39159334555E+03 0.  0.
        3    1    3    3  502    0 -0.36714660469E+02  0.18960607928E+03 -0.14106980110E+03  0.23916339723E+03  0.10100000352E+00 0. -1.
       -3    1    3    3    0  502  0.36714660469E+02 -0.18960607928E+03 -0.22981479568E+03  0.30018874414E+03  0.10100000352E+00 0.  1.
</event>
<event>
 5   0  0.1709372E-01  0.4977935E+03  0.7818609E-02  0.1014356E+00
        2   -1    0    0  501    0  0.00000000000E+00  0.00000000000E+00  0.16009339459E+04  0.16009339459E+04  0.25500000920E-02 0.  1.
       -2   -1    0    0    0  501  0.00000000000E+00  0.00000000000E+00 -0.38695910056E+02  0.38695910140E+02  0.25500000920E-02 0. -1.
    10030    2    1    2    0    0  0.00000000000E+00  0.00000000000E+00  0.15622380358E+04  0.16396298560E+04  0.49779351560E+03 0.  0.
        4    1    3    3  502    0 -0.10156465219E+02 -0.10637356522E+03  0.40714504894E+02  0.11435809098E+03  0.12699999809E+01 0. -1.
       -4    1    3    3    0  502  0.10156465219E+02  0.10637356522E+03  0.15215235309E+04  0.15252717650E+04  0.12699999809E+01 0.  1.
</event>
<event>
 5   0  0.1760649E-01  0.5040036E+03  0.7818609E-02  0.1012739E+00
        2   -1    0    0  501    0  0.00000000000E+00  0.00000000000E+00  0.84830941310E+03  0.84830941310E+03  0.25500000920E-02 0.  1.
       -2   -1    0    0    0  501  0.00000000000E+00  0.00000000000E+00 -0.74860552523E+02  0.74860552566E+02  0.25500000920E-02 0. -1.
    10030    2    1    2    0    0  0.00000000000E+00  0.00000000000E+00  0.77344886057E+03  0.92316996567E+03  0.50400361664E+03 0.  0.
        5    1    3    3  502    0  0.10773337025E+03  0.16582519600E+03  0.10073489736E+03  0.22197766608E+03  0.46999998093E+01 0. -1.
       -5    1    3    3    0  502 -0.10773337025E+03 -0.16582519600E+03  0.67271396321E+03  0.70119229958E+03  0.46999998093E+01 0.  1.
</event>
<event>
 5   0  0.1074281E-01  0.4989388E+03  0.7818609E-02  0.1014056E+00
       -1   -1    0    0    0  501  0.00000000000E+00  0.00000000000E+00  0.30091125341E+03  0.30091125345E+03  0.50400001928E-02 0. -1.
        1   -1    0    0  501    0  0.00000000000E+00  0.00000000000E+00 -0.20682168414E+03  0.20682168420E+03  0.50400001928E-02 0.  1.
    10030    2    1    2    0    0  0.00000000000E+00  0.00000000000E+00  0.94089569274E+02  0.50773293765E+03  0.49893876270E+03 0.  0.
        4    1    3    3  502    0 -0.47536238448E+02  0.13842138948E+03 -0.15853875171E+03  0.21576914452E+03  0.12699999809E+01 0.  1.
       -4    1    3    3    0  502  0.47536238448E+02 -0.13842138948E+03  0.25262832099E+03  0.29196379313E+03  0.12699999809E+01 0. -1.
</event>
<event>
 5   0  0.1068522E-01  0.4892590E+03  0.7818609E-02  0.1016621E+00
        1   -1    0    0  501    0  0.00000000000E+00  0.00000000000E+00  0.68599154285E+03  0.68599154287E+03  0.50400001928E-02 0. -1.
       -1   -1    0    0    0  501  0.00000000000E+00  0.00000000000E+00 -0.87236630421E+02  0.87236630567E+02  0.50400001928E-02 0.  1.
    10030    2    1    2    0    0  0.00000000000E+00  0.00000000000E+00  0.59875491243E+03  0.77322817344E+03  0.48925899382E+03 0.  0.
        2    1    3    3  502    0 -0.56078732281E+02  0.12925789691E+03  0.61542387013E+03  0.63134694746E+03  0.25500000920E-02 0. -1.
       -2    1    3    3    0  502  0.56078732281E+02 -0.12925789691E+03 -0.16668957703E+02  0.14188122598E+03  0.25500000920E-02 0.  1.
</event>
<event>
 5   0  0.7220250E-02  0.4993898E+03  0.7818609E-02  0.1013938E+00
        4   -1    0    0  501    0  0.00000000000E+00  0.00000000000E+00  0.13886584032E+03  0.13887164760E+03  0.12699999809E+01 0. -1.
       -4   -1    0    0    0  501  0.00000000000E+00  0.00000000000E+00 -0.44896073315E+03  0.44896252941E+03  0.12699999809E+01 0.  1.
    10030    2    1    2    0    0  0.00000000000E+00  0.00000000000E+00 -0.31009489284E+03  0.58783417701E+03  0.49938980476E+03 0.  0.
        3    1    3    3  502    0 -0.54688011850E+02 -0.12718371104E+03  0.89555568477E+02  0.16488385318E+03  0.10100000352E+00 0. -1.
       -3    1    3    3    0  502  0.54688011850E+02  0.12718371104E+03 -0.39965046131E+03  0.42295032382E+03  0.10100000352E+00 0.  1.
</event>
<event>
 5   0  0.1141970E-01  0.5022736E+03  0.7818609E-02  0.1013187E+00
       -1   -1    0    0    0  501  0.00000000000E+00  0.00000000000E+00  0.17322968274E+03  0.17322968282E+03  0.50400001928E-02 0.  1.
        1   -1    0    0  501    0  0.00000000000E+00  0.00000000000E+00 -0.36408131500E+03  0.36408131503E+03  0.50400001928E-02 0. -1.
    10030    2    1    2    0    0  0.00000000000E+00  0.00000000000E+00 -0.19085163225E+03  0.53731099785E+03  0.50227359365E+03 0.  0.
        3    1    3    3  502    0  0.64378909449E+02  0.20143321521E+03  0.49484673722E+02  0.21718362578E+03  0.10100000352E+00 0.  1.
       -3    1    3    3    0  502 -0.64378909449E+02 -0.20143321521E+03 -0.24033630598E+03  0.32012737206E+03  0.10100000352E+00 0. -1.
</event>
<event>
 5   0  0.1068522E-01  0.4994162E+03  0.7818609E-02  0.1013931E+00
       -1   -1    0    0    0  501  0.00000000000E+00  0.00000000000E+00  0.18722367172E+03  0.18722367179E+03  0.50400001928E-02 0.  1.
        1   -1    0    0  501    0  0.00000000000E+00  0.00000000000E+00 -0.33304621183E+03  0.33304621187E+03  0.50400001928E-02 0. -1.
    10030    2    1    2    0    0  0.00000000000E+00  0.00000000000E+00 -0.14582254011E+03  0.52026988366E+03  0.49941619781E+03 0.  0.
        2    1    3    3  502    0 -0.23392319478E+03  0.16085340424E+02 -0.16237704977E+03  0.28521063362E+03  0.25500000920E-02 0. -1.
       -2    1    3    3    0  502  0.23392319478E+03 -0.16085340424E+02  0.16554509662E+02  0.23505925004E+03  0.25500000920E-02 0.  1.
</event>
<event>
 5   0  0.1683148E-01  0.5110947E+03  0.7818609E-02  0.1010923E+00
        2   -1    0    0  501    0  0.00000000000E+00  0.00000000000E+00  0.44319975656E+03  0.44319975656E+03  0.25500000920E-02 0. -1.
       -2   -1    0    0    0  501  0.00000000000E+00  0.00000000000E+00 -0.14734766446E+03  0.14734766448E+03  0.25500000920E-02 0.  1.
    10030    2    1    2    0    0  0.00000000000E+00  0.00000000000E+00  0.29585209209E+03  0.59054742105E+03  0.51109470366E+03 0.  0.
        2    1    3    3  502    0  0.21065999598E+02 -0.17985338219E+03 -0.60419784954E+02  0.19089674132E+03  0.25500000920E-02 0.  1.
       -2    1    3    3    0  502 -0.21065999598E+02  0.17985338219E+03  0.35627187705E+03  0.39965067973E+03  0.25500000920E-02 0. -1.
</event>
<event>
 5   0  0.1683148E-01  0.4973676E+03  0.7818609E-02  0.1014468E+00
       -2   -1    0    0    0  501  0.00000000000E+00  0.00000000000E+00  0.17791501971E+03  0.17791501973E+03  0.25500000920E-02 0. -1.
        2   -1    0    0  501    0  0.00000000000E+00  0.00000000000E+00 -0.34760212966E+03  0.34760212967E+03  0.25500000920E-02 0.  1.
    10030    2    1    2    0    0  0.00000000000E+00  0.00000000000E+00 -0.16968710995E+03  0.52551714941E+03  0.49736762966E+03 0.  0.
        2    1    3    3  502    0 -0.50428945141E+02 -0.50709703452E+02  0.16681533371E+03  0.18149905812E+03  0.25500000920E-02 0. -1.
       -2    1    3    3    0  502  0.50428945141E+02  0.50709703452E+02 -0.33650244366E+03  0.34401809128E+03  0.25500000920E-02 0.  1.
</event>
<event>
 5   0  0.1782124E-01  0.5070485E+03  0.7818609E-02  0.1011955E+00
        2   -1    0    0  501    0  0.00000000000E+00  0.00000000000E+00  0.53265774999E+03  0.53265775000E+03  0.25500000920E-02 0.  1.
       -2   -1    0    0    0  501  0.00000000000E+00  0.00000000000E+00 -0.12066763920E+03  0.12066763923E+03  0.25500000920E-02 0. -1.
    10030    2    1    2    0    0  0.00000000000E+00  0.00000000000E+00  0.41199011079E+03  0.65332538923E+03  0.50704853103E+03 0.  0.
        3    1    3    3  502    0  0.18225890453E+03 -0.15877898370E+03  0.30450718100E+03  0.38878491152E+03  0.10100000352E+00 0.  1.
       -3    1    3    3    0  502 -0.18225890453E+03  0.15877898370E+03  0.10748292980E+03  0.26454047771E+03  0.10100000352E+00 0. -1.
</event>
<event>
 5   0  0.7220250E-02  0.4757976E+03  0.7818609E-02  0.1020297E+00
        3   -1    0    0  501    0  0.00000000000E+00  0.00000000000E+00  0.77306961883E+02  0.77307027860E+02  0.10100000352E+00 0. -1.
       -3   -1    0    0    0  501  0.00000000000E+00  0.00000000000E+00 -0.73209214185E+03  0.73209214882E+03  0.10100000352E+00 0.  1.
    10030    2    1    2    0    0  0.00000000000E+00  0.00000000000E+00 -0.65478517997E+03  0.80939917668E+03  0.47579764113E+03 0.  0.
        4    1    3    3  502    0  0.13180212183E+03  0.18550305290E+03 -0.20939840953E+03  0.30924503031E+03  0.12699999809E+01 0. -1.
       -4    1    3    3    0  502 -0.13180212183E+03 -0.18550305290E+03 -0.44538677044E+03  0.50015414637E+03  0.12699999809E+01 0.  1.
</event>
<event>
 5   0  0.1074281E-01  0.4981243E+03  0.7818609E-02  0.1014270E+00
       -1   -1    0    0    0  501  0.00000000000E+00  0.00000000000E+00  0.41769096661E+03  0.41769096664E+03  0.50400001928E-02 0. -1.
        1   -1    0    0  501    0  0.00000000000E+00  0.00000000000E+00 -0.14851158496E+03  0.14851158505E+03  0.50400001928E-02 0.  1.
    10030    2    1    2    0    0  0.00000000000E+00  0.00000000000E+00  0.26917938165E+03  0.56620255169E+03  0.49812427168E+03 0.  0.
        4    1    3    3  502    0  0.44411567996E+01  0.14926910670E+03  0.36115312473E+03  0.39081220873E+03  0.12699999809E+01 0. -1.
       -4    1    3    3    0  502 -0.44411567996E+01 -0.14926910670E+03 -0.91973743076E+02  0.17539034296E+03  0.12699999809E+01 0.  1.
</event>
<event>
 5   0  0.1068522E-01  0.4849749E+03  0.7818609E-02  0.1017777E+00
       -1   -1    0    0    0  501  0.00000000000E+00  0.00000000000E+00  0.85281669033E+02  0.85281669182E+02  0.50400001928E-02 0. -1.
        1   -1    0    0  501    0  0.00000000000E+00  0.00000000000E+00 -0.68948195911E+03  0.68948195913E+03  0.50400001928E-02 0.  1.
    10030    2    1    2    0    0  0.00000000000E+00  0.00000000000E+00 -0.60420029008E+03  0.77476362831E+03  0.48497493670E+03 0.  0.
        2    1    3    3  502    0 -0.10443798450E+03 -0.72767300060E+02 -0.63181879507E+03  0.64451327557E+03  0.25500000920E-02 0.  1.
       -2    1    3    3    0  502  0.10443798450E+03  0.72767300060E+02  0.27618504998E+02  0.13025035274E+03  0.25500000920E-02 0. -1.
</event>
<event>
 5   0  0.7220250E-02  0.4943161E+03  0.7818609E-02  0.1015273E+00
        3   -1    0    0  501    0  0.00000000000E+00  0.00000000000E+00  0.36761137164E+03  0.36761138551E+03  0.10100000352E+00 0. -1.
       -3   -1    0    0    0  501  0.00000000000E+00  0.00000000000E+00 -0.16617300163E+03  0.16617303232E+03  0.10100000352E+00 0.  1.
    10030    2    1    2    0    0  0.00000000000E+00  0.00000000000E+00  0.20143837001E+03  0.53378441783E+03  0.49431608087E+03 0.  0.
        1    1    3    3  502    0 -0.39699070961E+01  0.24154526213E+03  0.44326667023E+02  0.24561092658E+03  0.50400001928E-02 0.  1.
       -1    1    3    3    0  502  0.39699070961E+01 -0.24154526213E+03  0.15711170299E+03  0.28817349125E+03  0.50400001928E-02 0. -1.
</event>
<event>
 5   0  0.1068522E-01  0.5073154E+03  0.7818609E-02  0.1011887E+00
       -1   -1    0    0    0  501  0.00000000000E+00  0.00000000000E+00  0.27103813336E+03  0.27103813341E+03  0.50400001928E-02 0. -1.
        1   -1    0    0  501    0  0.00000000000E+00  0.00000000000E+00 -0.23739175848E+03  0.23739175853E+03  0.50400001928E-02 0.  1.
    10030    2    1    2    0    0  0.00000000000E+00  0.00000000000E+00  0.33646374883E+02  0.50842989194E+03  0.50731536196E+03 0.  0.
        2    1    3    3  502    0  0.24074692927E+03  0.40651401662E+02  0.85753637938E+02  0.25877655774E+03  0.25500000920E-02 0. -1.
       -2    1    3    3    0  502 -0.24074692927E+03 -0.40651401662E+02 -0.52107263055E+02  0.24965333420E+03  0.25500000920E-02 0.  1.
</event>
<event>
 5   0  0.1782124E-01  0.5023501E+03  0.7818609E-02  0.1013167E+00
       -2   -1    0    0    0  501  0.00000000000E+00  0.00000000000E+00  0.66159768226E+02  0.66159768275E+02  0.25500000920E-02 0. -1.
        2   -1    0    0  501    0  0.00000000000E+00  0.00000000000E+00 -0.95358432515E+03  0.95358432516E+03  0.25500000920E-02 0.  1.
    10030    2    1    2    0    0  0.00000000000E+00  0.00000000000E+00 -0.88742455693E+03  0.10197440934E+04  0.50235014865E+03 0.  0.
        3    1    3    3  502    0 -0.24886495209E+03 -0.30072522345E+02 -0.47585902201E+03  0.53784750627E+03  0.10100000352E+00 0. -1.
       -3    1    3    3    0  502  0.24886495209E+03  0.30072522345E+02 -0.41156553492E+03  0.48189658716E+03  0.10100000352E+00 0.  1.
</event>
<event>
 5   0  0.1683148E-01  0.4987403E+03  0.7818609E-02  0.1014108E+00
       -2   -1    0    0    0  501  0.00000000000E+00  0.00000000000E+00  0.63506751802E+02  0.63506751853E+02  0.25500000920E-02 0. -1.
        2   -1    0    0  501    0  0.00000000000E+00  0.00000000000E+00 -0.97919466774E+03  0.97919466774E+03  0.25500000920E-02 0.  1.
    10030    2    1    2    0    0  0.00000000000E+00  0.00000000000E+00 -0.91568791593E+03  0.10427014196E+04  0.49874030420E+03 0.  0.
        2    1    3    3  502    0  0.12234004113E+03 -0.60202598330E+01 -0.91196783069E+03  0.92015686348E+03  0.25500000920E-02 0.  1.
       -2    1    3    3    0  502 -0.12234004113E+03  0.60202598330E+01 -0.37200852465E+01  0.12254455611E+03  0.25500000920E-02 0. -1.
</event>
<event>
 5   0  0.1683148E-01  0.4968068E+03  0.7818609E-02  0.1014616E+00
       -2   -1    0    0    0  501  0.00000000000E+00  0.00000000000E+00  0.10352890917E+03  0.10352890921E+03  0.25500000920E-02 0. -1.
        2   -1    0    0  501    0  0.00000000000E+00  0.00000000000E+00 -0.59600983297E+03  0.59600983297E+03  0.25500000920E-02 0.  1.
    10030    2    1    2    0    0  0.00000000000E+00  0.00000000000E+00 -0.49248092379E+03  0.69953874218E+03  0.49680679495E+03 0.  0.
        2    1    3    3  502    0  0.10684862558E+03 -0.18408806626E+03 -0.42655702244E+03  0.47671368590E+03  0.25500000920E-02 0. -1.
       -2    1    3    3    0  502 -0.10684862558E+03  0.18408806626E+03 -0.65923901355E+02  0.22282505628E+03  0.25500000920E-02 0.  1.
</event>
<event>
 5   0  0.1068522E-01  0.5009493E+03  0.7818609E-02  0.1013531E+00
       -1   -1    0    0    0  501  0.00000000000E+00  0.00000000000E+00  0.34321259755E+02  0.34321260125E+02  0.50400001928E-02 0.  1.
        1   -1    0    0  501    0  0.00000000000E+00  0.00000000000E+00 -0.18279500519E+04  0.18279500519E+04  0.50400001928E-02 0. -1.
    10030    2    1    2    0    0  0.00000000000E+00  0.00000000000E+00 -0.17936287921E+04  0.18622713120E+04  0.50094929444E+03 0.  0.
        2    1    3    3  502    0 -0.65622934464E+02  0.16675117040E+03 -0.24625217637E+03  0.30455288003E+03  0.25500000920E-02 0.  1.
       -2    1    3    3    0  502  0.65622934464E+02 -0.16675117040E+03 -0.15473766158E+04  0.15577184320E+04  0.25500000920E-02 0. -1.
</event>
<event>
 5   0  0.1123271E-01  0.4918026E+03  0.7818609E-02  0.1015941E+00
        1   -1    0    0  501    0  0.00000000000E+00  0.00000000000E+00  0.68481151557E+03  0.68481151559E+03  0.50400001928E-02 0. -1.
       -1   -1    0    0    0  501  0.00000000000E+00  0.00000000000E+00 -0.88297957014E+02  0.88297957158E+02  0.50400001928E-02 0.  1.
    10030    2    1    2    0    0  0.00000000000E+00  0.00000000000E+00  0.59651355855E+03  0.77310947275E+03  0.49180263451E+03 0.  0.
        5    1    3    3  502    0  0.11581396114E+03 -0.12374929624E+03  0.18289556427E+02  0.17053844079E+03  0.46999998093E+01 0.  1.
       -5    1    3    3    0  502 -0.11581396114E+03  0.12374929624E+03  0.57822400213E+03  0.60257103195E+03  0.46999998093E+01 0. -1.
</event>
<event>
 5   0  0.7220250E-02  0.4886073E+03  0.7818609E-02  0.1016796E+00
        3   -1    0    0  501    0  0.00000000000E+00  0.00000000000E+00  0.12373198493E+03  0.12373202615E+03  0.10100000352E+00 0.  1.
       -3   -1    0    0    0  501  0.00000000000E+00  0.00000000000E+00 -0.48236725512E+03  0.48236726569E+03  0.10100000352E+00 0. -1.
    10030    2    1    2    0    0  0.00000000000E+00  0.00000000000E+00 -0.35863527019E+03  0.60609929184E+03  0.48860730095E+03 0.  0.
        3    1    3    3  502    0 -0.19669380847E+03 -0.22458852244E+02 -0.35688769305E+03  0.40811970056E+03  0.10100000352E+00 0.  1.
       -3    1    3    3    0  502  0.19669380847E+03  0.22458852244E+02 -0.17475771411E+01  0.19797959128E+03  0.10100000352E+00 0. -1.
</event>
<event>
 5   0  0.1827698E-01  0.4923119E+03  0.7818609E-02  0.1015805E+00
        2   -1    0    0  501    0  0.00000000000E+00  0.00000000000E+00  0.19663415441E+04  0.19663415441E+04  0.25500000920E-02 0. -1.
       -2   -1    0    0    0  501  0.00000000000E+00  0.00000000000E+00 -0.30814967170E+02  0.30814967276E+02  0.25500000920E-02 0.  1.
    10030    2    1    2    0    0  0.00000000000E+00  0.00000000000E+00  0.19355265769E+04  0.19971565114E+04  0.49231189396E+03 0.  0.
        1    1    3    3  502    0 -0.17258137775E+03  0.11862015872E+03  0.14925941363E+04  0.15072134320E+04  0.50400001928E-02 0.  1.
       -1    1    3    3    0  502  0.17258137775E+03 -0.11862015872E+03  0.44293244069E+03  0.48994307939E+03  0.50400001928E-02 0. -1.
</event>
<event>
 5   0  0.1782124E-01  0.4091868E+03  0.7818609E-02  0.1040644E+00
        2   -1    0    0  501    0  0.00000000000E+00  0.00000000000E+00  0.97447252496E+03  0.97447252496E+03  0.25500000920E-02 0.  1.
       -2   -1    0    0    0  501  0.00000000000E+00  0.00000000000E+00 -0.42954993686E+02  0.42954993762E+02  0.25500000920E-02 0. -1.
    10030    2    1    2    0    0  0.00000000000E+00  0.00000000000E+00  0.93151753128E+03  0.10174275187E+04  0.40918680916E+03 0.  0.
        3    1    3    3  502    0 -0.58406785011E+02  0.15026774768E+03  0.77896124685E+03  0.79546991321E+03  0.10100000352E+00 0.  1.
       -3    1    3    3    0  502  0.58406785011E+02 -0.15026774768E+03  0.15255628443E+03  0.22195760552E+03  0.10100000352E+00 0. -1.
</event>
<event>
 5   0  0.7220250E-02  0.5038963E+03  0.7818609E-02  0.1012767E+00
        4   -1    0    0  501    0  0.00000000000E+00  0.00000000000E+00  0.58996142902E+03  0.58996279598E+03  0.12699999809E+01 0. -1.
       -4   -1    0    0    0  501  0.00000000000E+00  0.00000000000E+00 -0.10759139033E+03  0.10759888556E+03  0.12699999809E+01 0.  1.
    10030    2    1    2    0    0  0.00000000000E+00  0.00000000000E+00  0.48237003869E+03  0.69756168154E+03  0.50389626444E+03 0.  0.
        2    1    3    3  502    0  0.87807065908E+02  0.47097177020E+02  0.56153134007E+03  0.57030313939E+03  0.25500000920E-02 0. -1.
       -2    1    3    3    0  502 -0.87807065908E+02 -0.47097177020E+02 -0.79161301382E+02  0.12725854215E+03  0.25500000920E-02 0.  1.
</event>
<event>
 5   0  0.7220250E-02  0.5056807E+03  0.7818609E-02  0.1012307E+00
       -3   -1    0    0    0  501  0.00000000000E+00  0.00000000000E+00  0.65623248002E+03  0.65623248779E+03  0.10100000352E+00 0.  1.
        3   -1    0    0  501    0  0.00000000000E+00  0.00000000000E+00 -0.97417041094E+02  0.97417093452E+02  0.10100000352E+00 0. -1.
    10030    2    1    2    0    0  0.00000000000E+00  0.00000000000E+00  0.55881543893E+03  0.75364958125E+03  0.50568072588E+03 0.  0.
        5    1    3    3  502    0  0.17780113642E+03 -0.82268882534E+02  0.51751560363E+03  0.55337681840E+03  0.46999998093E+01 0.  1.
       -5    1    3    3    0  502 -0.17780113642E+03  0.82268882534E+02  0.41299835299E+02  0.20027276285E+03  0.46999998093E+01 0. -1.
</event>
<event>
 5   0  0.1782124E-01  0.4940641E+03  0.7818609E-02  0.1015340E+00
       -2   -1    0    0    0  501  0.00000000000E+00  0.00000000000E+00  0.20409539583E+03  0.20409539584E+03  0.25500000920E-02 0. -1.
        2   -1    0    0  501    0  0.00000000000E+00  0.00000000000E+00 -0.29900149286E+03  0.29900149287E+03  0.25500000920E-02 0.  1.
    10030    2    1    2    0    0  0.00000000000E+00  0.00000000000E+00 -0.94906097035E+02  0.50309688872E+03  0.49406407700E+03 0.  0.
        3    1    3    3  502    0  0.11614723194E+03  0.86255223314E+02 -0.25135045487E+03  0.29001242111E+03  0.10100000352E+00 0.  1.
       -3    1    3    3    0  502 -0.11614723194E+03 -0.86255223314E+02  0.15644435783E+03  0.21308446760E+03  0.10100000352E+00 0. -1.
</event>
<event>
 5   0  0.1683148E-01  0.5086821E+03  0.7818609E-02  0.1011537E+00
       -2   -1    0    0    0  501  0.00000000000E+00  0.00000000000E+00  0.60268296995E+02  0.60268297049E+02  0.25500000920E-02 0.  1.
        2   -1    0    0  501    0  0.00000000000E+00  0.00000000000E+00 -0.10733567057E+04  0.10733567057E+04  0.25500000920E-02 0. -1.
    10030    2    1    2    0    0  0.00000000000E+00  0.00000000000E+00 -0.10130884087E+04  0.11336250027E+04  0.50868214340E+03 0.  0.
        2    1    3    3  502    0 -0.16174137989E+03 -0.16464834598E+03 -0.74469746152E+03  0.77964329088E+03  0.25500000920E-02 0. -1.
       -2    1    3    3    0  502  0.16174137989E+03  0.16464834598E+03 -0.26839094718E+03  0.35398171187E+03  0.25500000920E-02 0.  1.
</event>
<event>
 5   0  0.1782124E-01  0.5115023E+03  0.7818609E-02  0.1010819E+00
       -2   -1    0    0    0  501  0.00000000000E+00  0.00000000000E+00  0.18347127394E+03  0.18347127396E+03  0.25500000920E-02 0.  1.
        2   -1    0    0  501    0  0.00000000000E+00  0.00000000000E+00 -0.35650624067E+03  0.35650624068E+03  0.25500000920E-02 0. -1.
    10030    2    1    2    0    0  0.00000000000E+00  0.00000000000E+00 -0.17303496673E+03  0.53997751464E+03  0.51150231339E+03 0.  0.
        3    1    3    3  502    0 -0.17236569323E+03 -0.75145730019E+02 -0.26952273064E+03  0.32863250824E+03  0.10100000352E+00 0. -1.
       -3    1    3    3    0  502  0.17236569323E+03  0.75145730019E+02  0.96487763911E+02  0.21134500639E+03  0.10100000352E+00 0.  1.
</event>
<event>
 5   0  0.1141970E-01  0.4985993E+03  0.7818609E-02  0.1014145E+00
       -1   -1    0    0    0  501  0.00000000000E+00  0.00000000000E+00  0.12281511765E+03  0.12281511775E+03  0.50400001928E-02 0.  1.
        1   -1    0    0  501    0  0.00000000000E+00  0.00000000000E+00 -0.50604777654E+03  0.50604777656E+03  0.50400001928E-02 0. -1.
    10030    2    1    2    0    0  0.00000000000E+00  0.00000000000E+00 -0.38323265889E+03  0.62886289431E+03  0.49859930706E+03 0.  0.
        3    1    3    3  502    0 -0.14570506321E+03  0.96526069329E+02  0.32600839297E+02  0.17779221701E+03  0.10100000352E+00 0.  1.
       -3    1    3    3    0  502  0.14570506321E+03 -0.96526069329E+02 -0.41583349819E+03  0.45107067730E+03  0.10100000352E+00 0. -1.
</event>
<event>
 5   0  0.1123271E-01  0.4971138E+03  0.7818609E-02  0.1014535E+00
        1   -1    0    0  501    0  0.00000000000E+00  0.00000000000E+00  0.24668490427E+04  0.24668490427E+04  0.50400001928E-02 0.  1.
       -1   -1    0    0    0  501  0.00000000000E+00  0.00000000000E+00 -0.25044307023E+02  0.25044307530E+02  0.50400001928E-02 0. -1.
    10030    2    1    2    0    0  0.00000000000E+00  0.00000000000E+00  0.24418047357E+04  0.24918933502E+04  0.49711377145E+03 0.  0.
        5    1    3    3  502    0  0.24795335893E+03  0.16420956281E+02  0.12067958222E+04  0.12321236799E+04  0.46999998093E+01 0.  1.
       -5    1    3    3    0  502 -0.24795335893E+03 -0.16420956281E+02  0.12350089135E+04  0.12597696704E+04  0.46999998093E+01 0. -1.
</event>
<event>
 5   0  0.1827698E-01  0.4958247E+03  0.7818609E-02  0.1014875E+00
        2   -1    0    0  501    0  0.00000000000E+00  0.00000000000E+00  0.19710216908E+04  0.19710216908E+04  0.25500000920E-02 0.  1.
       -2   -1    0    0    0  501  0.00000000000E+00  0.00000000000E+00 -0.31182072160E+02  0.31182072264E+02  0.25500000920E-02 0. -1.
    10030    2    1    2    0    0  0.00000000000E+00  0.00000000000E+00  0.19398396186E+04  0.20022037631E+04  0.49582472991E+03 0.  0.
        1    1    3    3  502    0 -0.85271416206E+02  0.53636250076E+02  0.18846469968E+04  0.18873373743E+04  0.50400001928E-02 0.  1.
       -1    1    3    3    0  502  0.85271416206E+02 -0.53636250076E+02  0.55192621840E+02  0.11486638880E+03  0.50400001928E-02 0. -1.
</event>
<event>
 5   0  0.1068522E-01  0.4909855E+03  0.7818609E-02  0.1016159E+00
       -1   -1    0    0    0  501  0.00000000000E+00  0.00000000000E+00  0.37800487039E+02  0.37800487375E+02  0.50400001928E-02 0.  1.
        1   -1    0    0  501    0  0.00000000000E+00  0.00000000000E+00 -0.15943363567E+04  0.15943363568E+04  0.50400001928E-02 0. -1.
    10030    2    1    2    0    0  0.00000000000E+00  0.00000000000E+00 -0.15565358697E+04  0.16321368441E+04  0.49098550312E+03 0.  0.
        2    1    3    3  502    0 -0.18686953318E+03  0.15850703022E+03 -0.82779637040E+03  0.86330268847E+03  0.25500000920E-02 0.  1.
       -2    1    3    3    0  502  0.18686953318E+03 -0.15850703022E+03 -0.72873949931E+03  0.76883415567E+03  0.25500000920E-02 0. -1.
</event>
<event>
 5   0  0.1683148E-01  0.4678704E+03  0.7818609E-02  0.1022523E+00
       -2   -1    0    0    0  501  0.00000000000E+00  0.00000000000E+00  0.22898877016E+03  0.22898877017E+03  0.25500000920E-02 0. -1.
        2   -1    0    0  501    0  0.00000000000E+00  0.00000000000E+00 -0.23898848186E+03  0.23898848187E+03  0.25500000920E-02 0.  1.
    10030    2    1    2    0    0  0.00000000000E+00  0.00000000000E+00 -0.99997116978E+01  0.46797725204E+03  0.46787040320E+03 0.  0.
        2    1    3    3  502    0 -0.28475785547E+02  0.47718813505E+02  0.22229139124E+03  0.22913187939E+03  0.25500000920E-02 0. -1.
       -2    1    3    3    0  502  0.28475785547E+02 -0.47718813505E+02 -0.23229110294E+03  0.23884537265E+03  0.25500000920E-02 0.  1.
</event>
<event>
 5   0  0.1147245E-01  0.4891698E+03  0.7818609E-02  0.1016645E+00
        1   -1    0    0  501    0  0.00000000000E+00  0.00000000000E+00  0.55866871223E+03  0.55866871226E+03  0.50400001928E-02 0.  1.
       -1   -1    0    0    0  501  0.00000000000E+00  0.00000000000E+00 -0.10707914921E+03  0.10707914933E+03  0.50400001928E-02 0. -1.
    10030    2    1    2    0    0  0.00000000000E+00  0.00000000000E+00  0.45158956302E+03  0.66574786158E+03  0.48916978829E+03 0.  0.
        1    1    3    3  502    0  0.75386753891E+02 -0.12287254702E+03  0.49470686271E+03  0.51528216107E+03  0.50400001928E-02 0.  1.
       -1    1    3    3    0  502 -0.75386753891E+02  0.12287254702E+03 -0.43117299690E+02  0.15046570052E+03  0.50400001928E-02 0. -1.
</event>
<event>
 5   0  0.1709372E-01  0.5004882E+03  0.7818609E-02  0.1013652E+00
        2   -1    0    0  501    0  0.00000000000E+00  0.00000000000E+00  0.55657823952E+03  0.55657823953E+03  0.25500000920E-02 0.  1.
       -2   -1    0    0    0  501  0.00000000000E+00  0.00000000000E+00 -0.11251268287E+03  0.11251268290E+03  0.25500000920E-02 0. -1.
    10030    2    1    2    0    0  0.00000000000E+00  0.00000000000E+00  0.44406555665E+03  0.66909092243E+03  0.50048820553E+03 0.  0.
        4    1    3    3  502    0  0.22550736016E+03  0.15299320055E+02  0.78464071360E+02  0.23926107513E+03  0.12699999809E+01 0. -1.
       -4    1    3    3    0  502 -0.22550736016E+03 -0.15299320055E+02  0.36560148529E+03  0.42982984729E+03  0.12699999809E+01 0.  1.
</event>
<event>
 5   0  0.1068522E-01  0.4980534E+03  0.7818609E-02  0.1014288E+00
       -1   -1    0    0    0  501  0.00000000000E+00  0.00000000000E+00  0.56019991322E+02  0.56019991549E+02  0.50400001928E-02 0. -1.
        1   -1    0    0  501    0  0.00000000000E+00  0.00000000000E+00 -0.11070028733E+04  0.11070028733E+04  0.50400001928E-02 0.  1.
    10030    2    1    2    0    0  0.00000000000E+00  0.00000000000E+00 -0.10509828819E+04  0.11630228648E+04  0.49805337662E+03 0.  0.
        2    1    3    3  502    0  0.16406419592E+03 -0.14298023611E+03 -0.80816730398E+03  0.83695567357E+03  0.25500000920E-02 0.  1.
       -2    1    3    3    0  502 -0.16406419592E+03  0.14298023611E+03 -0.24281557795E+03  0.32606719124E+03  0.25500000920E-02 0. -1.
</event>
<event>
 5   0  0.1760649E-01  0.4892495E+03  0.7818609E-02  0.1016624E+00
        2   -1    0    0  501    0  0.00000000000E+00  0.00000000000E+00  0.17017301718E+04  0.17017301718E+04  0.25500000920E-02 0. -1.
       -2   -1    0    0    0  501  0.00000000000E+00  0.00000000000E+00 -0.35164957481E+02  0.35164957573E+02  0.25500000920E-02 0.  1.
    10030    2    1    2    0    0  0.00000000000E+00  0.00000000000E+00  0.16665652143E+04  0.17368951294E+04  0.48924950370E+03 0.  0.
        5    1    3    3  502    0 -0.81669899172E+02 -0.21139011530E+03  0.11598826991E+04  0.11818230489E+04  0.46999998093E+01 0. -1.
       -5    1    3    3    0  502  0.81669899172E+02  0.21139011530E+03  0.50668251520E+03  0.55507208044E+03  0.46999998093E+01 0.  1.
</event>
<event>
 5   0  0.1068522E-01  0.5525898E+03  0.7818609E-02  0.1000896E+00
       -1   -1    0    0    0  501  0.00000000000E+00  0.00000000000E+00  0.10460886464E+03  0.10460886476E+03  0.50400001928E-02 0. -1.
        1   -1    0    0  501    0  0.00000000000E+00  0.00000000000E+00 -0.72975520752E+03  0.72975520754E+03  0.50400001928E-02 0.  1.
    10030    2    1    2    0    0  0.00000000000E+00  0.00000000000E+00 -0.62514634288E+03  0.83436407231E+03  0.55258977111E+03 0.  0.
        2    1    3    3  502    0  0.24431910548E+02  0.24975286142E+03 -0.48713312074E+03  0.54797088186E+03  0.25500000920E-02 0. -1.
       -2    1    3    3    0  502 -0.24431910548E+02 -0.24975286142E+03 -0.13801322214E+03  0.28639319045E+03  0.25500000920E-02 0.  1.
</event>
<event>
 5   0  0.1141970E-01  0.4704951E+03  0.7818609E-02  0.1021781E+00
       -1   -1    0    0    0  501  0.00000000000E+00  0.00000000000E+00  0.20183892928E+03  0.20183892934E+03  0.50400001928E-02 0.  1.
        1   -1    0    0  501    0  0.00000000000E+00  0.00000000000E+00 -0.27418603483E+03  0.27418603488E+03  0.50400001928E-02 0. -1.
    10030    2    1    2    0    0  0.00000000000E+00  0.00000000000E+00 -0.72347105553E+02  0.47602496422E+03  0.47049512524E+03 0.  0.
        3    1    3    3  502    0 -0.38487148019E+02  0.82827852744E+01 -0.27082951404E+03  0.27367590498E+03  0.10100000352E+00 0. -1.
       -3    1    3    3    0  502  0.38487148019E+02 -0.82827852744E+01  0.19848240848E+03  0.20234905923E+03  0.10100000352E+00 0.  1.
</event>
<event>
 5   0  0.1827698E-01  0.4966169E+03  0.7818609E-02  0.1014666E+00
       -2   -1    0    0    0  501  0.00000000000E+00  0.00000000000E+00  0.60003094112E+03  0.60003094113E+03  0.25500000920E-02 0. -1.
        2   -1    0    0  501    0  0.00000000000E+00  0.00000000000E+00 -0.10275650296E+03  0.10275650299E+03  0.25500000920E-02 0.  1.
    10030    2    1    2    0    0  0.00000000000E+00  0.00000000000E+00  0.49727443816E+03  0.70278744412E+03  0.49661687926E+03 0.  0.
        1    1    3    3  502    0  0.52875602371E+02 -0.12942779318E+03 -0.41760754674E+02  0.14591553595E+03  0.50400001928E-02 0.  1.
       -1    1    3    3    0  502 -0.52875602371E+02  0.12942779318E+03  0.53903519283E+03  0.55687190817E+03  0.50400001928E-02 0. -1.
</event>
<event>
 5   0  0.1141970E-01  0.5072605E+03  0.7818609E-02  0.1011901E+00
        1   -1    0    0  501    0  0.00000000000E+00  0.00000000000E+00  0.12146632895E+03  0.12146632906E+03  0.50400001928E-02 0.  1.
       -1   -1    0    0    0  501  0.00000000000E+00  0.00000000000E+00 -0.52959790762E+03  0.52959790765E+03  0.50400001928E-02 0. -1.
    10030    2    1    2    0    0  0.00000000000E+00  0.00000000000E+00 -0.40813157867E+03  0.65106423670E+03  0.50726053937E+03 0.  0.
        3    1    3    3  502    0 -0.76417269087E+02 -0.10794047547E+03 -0.48183869633E+03  0.49965916858E+03  0.10100000352E+00 0. -1.
       -3    1    3    3    0  502  0.76417269087E+02  0.10794047547E+03  0.73707117662E+02  0.15140506813E+03  0.10100000352E+00 0.  1.
</event>
<event>
 5   0  0.1827698E-01  0.5001237E+03  0.7818609E-02  0.1013747E+00
       -2   -1    0    0    0  501  0.00000000000E+00  0.00000000000E+00  0.19949022586E+03  0.19949022588E+03  0.25500000920E-02 0.  1.
        2   -1    0    0  501    0  0.00000000000E+00  0.00000000000E+00 -0.31345356999E+03  0.31345357000E+03  0.25500000920E-02 0. -1.
    10030    2    1    2    0    0  0.00000000000E+00  0.00000000000E+00 -0.11396334412E+03  0.51294379588E+03  0.50012367863E+03 0.  0.
        1    1    3    3  502    0  0.89499229744E+02 -0.16313557410E+03  0.11435628190E+03  0.21840486922E+03  0.50400001928E-02 0.  1.
       -1    1    3    3    0  502 -0.89499229744E+02  0.16313557410E+03 -0.22831962603E+03  0.29453892666E+03  0.50400001928E-02 0. -1.
</event>
<event>
 5   0  0.1147245E-01  0.5009637E+03  0.7818609E-02  0.1013528E+00
       -1   -1    0    0    0  501  0.00000000000E+00  0.00000000000E+00  0.11034614287E+03  0.11034614298E+03  0.50400001928E-02 0.  1.
        1   -1    0    0  501    0  0.00000000000E+00  0.00000000000E+00 -0.56858502079E+03  0.56858502081E+03  0.50400001928E-02 0. -1.
    10030    2    1    2    0    0  0.00000000000E+00  0.00000000000E+00 -0.45823887792E+03  0.67893116379E+03  0.50096372716E+03 0.  0.
        1    1    3    3  502    0  0.82925375523E+02  0.23535573563E+03 -0.25856998690E+03  0.35934298150E+03  0.50400001928E-02 0.  1.
       -1    1    3    3    0  502 -0.82925375523E+02 -0.23535573563E+03 -0.19966889102E+03  0.31958818230E+03  0.50400001928E-02 0. -1.
</event>
<event>
 5   0  0.1141970E-01  0.4928836E+03  0.7818609E-02  0.1015653E+00
        1   -1    0    0  501    0  0.00000000000E+00  0.00000000000E+00  0.16212869301E+04  0.16212869301E+04  0.50400001928E-02 0. -1.
       -1   -1    0    0    0  501  0.00000000000E+00  0.00000000000E+00 -0.37460088354E+02  0.37460088693E+02  0.50400001928E-02 0.  1.
    10030    2    1    2    0    0  0.00000000000E+00  0.00000000000E+00  0.15838268418E+04  0.16587470188E+04  0.49288356409E+03 0.  0.
        3    1    3    3  502    0  0.15680940027E+03 -0.16915458469E+03  0.49985854890E+03  0.55050980068E+03  0.10100000352E+00 0.  1.
       -3    1    3    3    0  502 -0.15680940027E+03  0.16915458469E+03  0.10839682929E+04  0.11082372181E+04  0.10100000352E+00 0. -1.
</event>
<event>
 5   0  0.1709372E-01  0.5023918E+03  0.7818609E-02  0.1013156E+00
       -2   -1    0    0    0  501  0.00000000000E+00  0.00000000000E+00  0.63715710343E+02  0.63715710394E+02  0.25500000920E-02 0. -1.
        2   -1    0    0  501    0  0.00000000000E+00  0.00000000000E+00 -0.99032692641E+03  0.99032692642E+03  0.25500000920E-02 0.  1.
    10030    2    1    2    0    0  0.00000000000E+00  0.00000000000E+00 -0.92661121607E+03  0.10540426368E+04  0.50239181369E+03 0.  0.
        4    1    3    3  502    0 -0.17065744457E+03 -0.15046676799E+03 -0.68666220325E+03  0.72337459585E+03  0.12699999809E+01 0.  1.
       -4    1    3    3    0  502  0.17065744457E+03  0.15046676799E+03 -0.23994901282E+03  0.33066804096E+03  0.12699999809E+01 0. -1.
</event>
<event>
 5   0  0.1683148E-01  0.4890469E+03  0.7818609E-02  0.1016678E+00
       -2   -1    0    0    0  501  0.00000000000E+00  0.00000000000E+00  0.15552949701E+03  0.15552949703E+03  0.25500000920E-02 0.  1.
        2   -1    0    0  501    0  0.00000000000E+00  0.00000000000E+00 -0.38443970035E+03  0.38443970035E+03  0.25500000920E-02 0. -1.
    10030    2    1    2    0    0  0.00000000000E+00  0.00000000000E+00 -0.22891020333E+03  0.53996919739E+03  0.48904688214E+03 0.  0.
        2    1    3    3  502    0  0.22513367484E+03 -0.95378591174E+02 -0.11785215462E+03  0.27142471803E+03  0.25500000920E-02 0. -1.
       -2    1    3    3    0  502 -0.22513367484E+03  0.95378591174E+02 -0.11105804872E+03  0.26854447936E+03  0.25500000920E-02 0.  1.
</event>
<event>
 5   0  0.1074281E-01  0.5025604E+03  0.7818609E-02  0.1013113E+00
        1   -1    0    0  501    0  0.00000000000E+00  0.00000000000E+00  0.96067381788E+02  0.96067381920E+02  0.50400001928E-02 0.  1.
       -1   -1    0    0    0  501  0.00000000000E+00  0.00000000000E+00 -0.65726506577E+03  0.65726506579E+03  0.50400001928E-02 0. -1.
    10030    2    1    2    0    0  0.00000000000E+00  0.00000000000E+00 -0.56119768398E+03  0.75333244771E+03  0.50256038071E+03 0.  0.
        4    1    3    3  502    0 -0.16050250527E+02 -0.22973756832E+03 -0.12992875180E+03  0.26442400474E+03  0.12699999809E+01 0.  1.
       -4    1    3    3    0  502  0.16050250527E+02  0.22973756832E+03 -0.43126893218E+03  0.48890844297E+03  0.12699999809E+01 0. -1.
</event>
<event>
 5   0  0.7220250E-02  0.4898181E+03  0.7818609E-02  0.1016471E+00
        3   -1    0    0  501    0  0.00000000000E+00  0.00000000000E+00  0.17456218083E+04  0.17456218112E+04  0.10100000352E+00 0.  1.
       -3   -1    0    0    0  501  0.00000000000E+00  0.00000000000E+00 -0.34360424481E+02  0.34360572922E+02  0.10100000352E+00 0. -1.
    10030    2    1    2    0    0  0.00000000000E+00  0.00000000000E+00  0.17112613838E+04  0.17799823842E+04  0.48981809288E+03 0.  0.
        2    1    3    3  502    0 -0.10150672357E+03  0.22201525340E+03  0.78422965104E+03  0.82134678014E+03  0.25500000920E-02 0.  1.
       -2    1    3    3    0  502  0.10150672357E+03 -0.22201525340E+03  0.92703173279E+03  0.95863560401E+03  0.25500000920E-02 0. -1.
</event>
<event>
 5   0  0.1760649E-01  0.5066130E+03  0.7818609E-02  0.1012067E+00
       -2   -1    0    0    0  501  0.00000000000E+00  0.00000000000E+00  0.49960948975E+02  0.49960949040E+02  0.25500000920E-02 0.  1.
        2   -1    0    0  501    0  0.00000000000E+00  0.00000000000E+00 -0.12842866632E+04  0.12842866632E+04  0.25500000920E-02 0. -1.
    10030    2    1    2    0    0  0.00000000000E+00  0.00000000000E+00 -0.12343257142E+04  0.13342476122E+04  0.50661299033E+03 0.  0.
        5    1    3    3  502    0 -0.16901406528E+03  0.34460824038E+02 -0.11055548628E+04  0.11189401000E+04  0.46999998093E+01 0. -1.
       -5    1    3    3    0  502  0.16901406528E+03 -0.34460824038E+02 -0.12877085136E+03  0.21530751221E+03  0.46999998093E+01 0.  1.
</event>
<event>
 5   0  0.1074281E-01  0.4976859E+03  0.7818609E-02  0.1014385E+00
       -1   -1    0    0    0  501  0.00000000000E+00  0.00000000000E+00  0.79086341338E+02  0.79086341499E+02  0.50400001928E-02 0.  1.
        1   -1    0    0  501    0  0.00000000000E+00  0.00000000000E+00 -0.78297732700E+03  0.78297732702E+03  0.50400001928E-02 0. -1.
    10030    2    1    2    0    0  0.00000000000E+00  0.00000000000E+00 -0.70389098566E+03  0.86206366851E+03  0.49768589379E+03 0.  0.
        4    1    3    3  502    0  0.23140544765E+03 -0.48046156333E+02 -0.21705733865E+03  0.32089315278E+03  0.12699999809E+01 0. -1.
       -4    1    3    3    0  502 -0.23140544765E+03  0.48046156333E+02 -0.48683364702E+03  0.54117051574E+03  0.12699999809E+01 0.  1.
</event>
<event>
 5   0  0.1709372E-01  0.5006380E+03  0.7818609E-02  0.1013613E+00
        2   -1    0    0  501    0  0.00000000000E+00  0.00000000000E+00  0.11133206437E+04  0.11133206438E+04  0.25500000920E-02 0.  1.
       -2   -1    0    0    0  501  0.00000000000E+00  0.00000000000E+00 -0.56281727578E+02  0.56281727635E+02  0.25500000920E-02 0. -1.
    10030    2    1    2    0    0  0.00000000000E+00  0.00000000000E+00  0.10570389162E+04  0.11696023714E+04  0.50063802977E+03 0.  0.
        4    1    3    3  502    0 -0.22849308019E+03  0.10220801714E+03  0.53216115881E+03  0.58809240627E+03  0.12699999809E+01 0.  1.
       -4    1    3    3    0  502  0.22849308019E+03 -0.10220801714E+03  0.52487775736E+03  0.58150996512E+03  0.12699999809E+01 0. -1.
</event>
<event>
 5   0  0.1068522E-01  0.5017374E+03  0.7818609E-02  0.1013326E+00
       -1   -1    0    0    0  501  0.00000000000E+00  0.00000000000E+00  0.40211266259E+03  0.40211266262E+03  0.50400001928E-02 0.  1.
        1   -1    0    0  501    0  0.00000000000E+00  0.00000000000E+00 -0.15651114226E+03  0.15651114234E+03  0.50400001928E-02 0. -1.
    10030    2    1    2    0    0  0.00000000000E+00  0.00000000000E+00  0.24560152033E+03  0.55862380496E+03  0.50173743002E+03 0.  0.
        2    1    3    3  502    0 -0.24473837490E+03 -0.50300219256E+02  0.97703316790E+02  0.26827769629E+03  0.25500000920E-02 0.  1.
       -2    1    3    3    0  502  0.24473837490E+03  0.50300219256E+02  0.14789820354E+03  0.29034610867E+03  0.25500000920E-02 0. -1.
</event>
<event>
 5   0  0.1068522E-01  0.4996657E+03  0.7818609E-02  0.1013866E+00
        1   -1    0    0  501    0  0.00000000000E+00  0.00000000000E+00  0.97635151918E+03  0.97635151919E+03  0.50400001928E-02 0. -1.
       -1   -1    0    0    0  501  0.00000000000E+00  0.00000000000E+00 -0.63928267658E+02  0.63928267857E+02  0.50400001928E-02 0.  1.
    10030    2    1    2    0    0  0.00000000000E+00  0.00000000000E+00  0.91242325152E+03  0.10402797870E+04  0.49966573369E+03 0.  0.
        2    1    3    3  502    0  0.18542256713E+00 -0.20456597267E+03  0.75480432558E+03  0.78203378538E+03  0.25500000920E-02 0. -1.
       -2    1    3    3    0  502 -0.18542256713E+00  0.20456597267E+03  0.15761892593E+03  0.25824600166E+03  0.25500000920E-02 0.  1.
</event>
<event>
 5   0  0.1683148E-01  0.5001536E+03  0.7818609E-02  0.1013739E+00
        2   -1    0    0  501    0  0.00000000000E+00  0.00000000000E+00  0.33951968647E+03  0.33951968647E+03  0.25500000920E-02 0. -1.
       -2   -1    0    0    0  501  0.00000000000E+00  0.00000000000E+00 -0.18419670254E+03  0.18419670256E+03  0.25500000920E-02 0.  1.
    10030    2    1    2    0    0  0.00000000000E+00  0.00000000000E+00  0.15532298393E+03  0.52371638903E+03  0.50015360321E+03 0.  0.
        2    1    3    3  502    0 -0.88593065887E+02  0.17759802820E+03  0.23697598134E+03  0.30910743550E+03  0.25500000920E-02 0. -1.
       -2    1    3    3    0  502  0.88593065887E+02 -0.17759802820E+03 -0.81652997411E+02  0.21460895353E+03  0.25500000920E-02 0.  1.
</event>
<event>
 5   0  0.1123271E-01  0.4869039E+03  0.7818609E-02  0.1017255E+00
        1   -1    0    0  501    0  0.00000000000E+00  0.00000000000E+00  0.10010707340E+03  0.10010707352E+03  0.50400001928E-02 0. -1.
       -1   -1    0    0    0  501  0.00000000000E+00  0.00000000000E+00 -0.59205469851E+03  0.59205469854E+03  0.50400001928E-02 0.  1.
    10030    2    1    2    0    0  0.00000000000E+00  0.00000000000E+00 -0.49194762512E+03  0.69216177206E+03  0.48690394621E+03 0.  0.
        5    1    3    3  502    0 -0.21753038925E+02  0.17560417942E+03 -0.83706257676E+01  0.17720660233E+03  0.46999998093E+01 0. -1.
       -5    1    3    3    0  502  0.21753038925E+02 -0.17560417942E+03 -0.48357699935E+03  0.51495516973E+03  0.46999998093E+01 0.  1.
</event>
<event>
 5   0  0.1074281E-01  0.5011518E+03  0.7818609E-02  0.1013479E+00
       -1   -1    0    0    0  501  0.00000000000E+00  0.00000000000E+00  0.68355426856E+02  0.68355427042E+02  0.50400001928E-02 0. -1.
        1   -1    0    0  501    0  0.00000000000E+00  0.00000000000E+00 -0.91855583589E+03  0.91855583591E+03  0.50400001928E-02 0.  1.
    10030    2    1    2    0    0  0.00000000000E+00  0.00000000000E+00 -0.85020040904E+03  0.98691126295E+03  0.50115177882E+03 0.  0.
        4    1    3    3  502    0 -0.17979600648E+03  0.16886330580E+03 -0.33824500725E+03  0.41863195987E+03  0.12699999809E+01 0. -1.
       -4    1    3    3    0  502  0.17979600648E+03 -0.16886330580E+03 -0.51195540179E+03  0.56827930308E+03  0.12699999809E+01 0.  1.
</event>
<event>
 5   0  0.1123271E-01  0.4968586E+03  0.7818609E-02  0.1014602E+00
        1   -1    0    0  501    0  0.00000000000E+00  0.00000000000E+00  0.66017359726E+02  0.66017359918E+02  0.50400001928E-02 0. -1.
       -1   -1    0    0    0  501  0.00000000000E+00  0.00000000000E+00 -0.93486201121E+03  0.93486201122E+03  0.50400001928E-02 0.  1.
    10030    2    1    2    0    0  0.00000000000E+00  0.00000000000E+00 -0.86884465148E+03  0.10008793711E+04  0.49685861889E+03 0.  0.
        5    1    3    3  502    0  0.24322858795E+03  0.28875887280E+02 -0.51750488507E+03  0.57256210050E+03  0.46999998093E+01 0.  1.
       -5    1    3    3    0  502 -0.24322858795E+03 -0.28875887280E+02 -0.35133976641E+03  0.42831727064E+03  0.46999998093E+01 0. -1.
</event>
<event>
 5   0  0.1683148E-01  0.5029532E+03  0.7818609E-02  0.1013011E+00
        2   -1    0    0  501    0  0.00000000000E+00  0.00000000000E+00  0.95260427989E+03  0.95260427989E+03  0.25500000920E-02 0.  1.
       -2   -1    0    0    0  501  0.00000000000E+00  0.00000000000E+00 -0.66386940386E+02  0.66386940435E+02  0.25500000920E-02 0. -1.
    10030    2    1    2    0    0  0.00000000000E+00  0.00000000000E+00  0.88621733950E+03  0.10189912203E+04  0.50295321280E+03 0.  0.
        2    1    3    3  502    0  0.21935310892E+03 -0.10768014877E+03  0.32274076789E+03  0.40481156616E+03  0.25500000920E-02 0.  1.
       -2    1    3    3    0  502 -0.21935310892E+03  0.10768014877E+03  0.56347657161E+03  0.61417965417E+03  0.25500000920E-02 0. -1.
</event>
<event>
 5   0  0.1683148E-01  0.4974086E+03  0.7818609E-02  0.1014458E+00
        2   -1    0    0  501    0  0.00000000000E+00  0.00000000000E+00  0.50995810940E+03  0.50995810940E+03  0.25500000920E-02 0. -1.
       -2   -1    0    0    0  501  0.00000000000E+00  0.00000000000E+00 -0.12129199388E+03  0.12129199391E+03  0.25500000920E-02 0.  1.
    10030    2    1    2    0    0  0.00000000000E+00  0.00000000000E+00  0.38866611552E+03  0.63125010331E+03  0.49740862837E+03 0.  0.
        2    1    3    3  502    0  0.19224109496E+03  0.66309506272E+02  0.12627717583E+02  0.20374751157E+03  0.25500000920E-02 0.  1.
       -2    1    3    3    0  502 -0.19224109496E+03 -0.66309506272E+02  0.37603839793E+03  0.42750259174E+03  0.25500000920E-02 0. -1.
</event>
<event>
 5   0  0.1074281E-01  0.4687899E+03  0.7818609E-02  0.1022262E+00
        1   -1    0    0  501    0  0.00000000000E+00  0.00000000000E+00  0.40950311104E+03  0.40950311107E+03  0.50400001928E-02 0. -1.
       -1   -1    0    0    0  501  0.00000000000E+00  0.00000000000E+00 -0.13416502186E+03  0.13416502195E+03  0.50400001928E-02 0.  1.
    10030    2    1    2    0    0  0.00000000000E+00  0.00000000000E+00  0.27533808918E+03  0.54366813303E+03  0.46878990552E+03 0.  0.
        4    1    3    3  502    0  0.40837166059E+01  0.23326833990E+03  0.11151506642E+03  0.25858851112E+03  0.12699999809E+01 0.  1.
       -4    1    3    3    0  502 -0.40837166059E+01 -0.23326833990E+03  0.16382302276E+03  0.28507962191E+03  0.12699999809E+01 0. -1.
</event>
<event>
 5   0  0.1782124E-01  0.4916009E+03  0.7818609E-02  0.1015995E+00
        2   -1    0    0  501    0  0.00000000000E+00  0.00000000000E+00  0.17594854046E+03  0.17594854048E+03  0.25500000920E-02 0. -1.
       -2   -1    0    0    0  501  0.00000000000E+00  0.00000000000E+00 -0.34338366518E+03  0.34338366519E+03  0.25500000920E-02 0.  1.
    10030    2    1    2    0    0  0.00000000000E+00  0.00000000000E+00 -0.16743512471E+03  0.51933220567E+03  0.49160087353E+03 0.  0.
        3    1    3    3  502    0 -0.19983520239E+03  0.24198447110E+02 -0.23273572183E+03  0.30771025231E+03  0.10100000352E+00 0.  1.
       -3    1    3    3    0  502  0.19983520239E+03 -0.24198447110E+02  0.65300597121E+02  0.21162195336E+03  0.10100000352E+00 0. -1.
</event>
<event>
 5   0  0.1782124E-01  0.4991167E+03  0.7818609E-02  0.1014010E+00
        2   -1    0    0  501    0  0.00000000000E+00  0.00000000000E+00  0.82115167412E+03  0.82115167413E+03  0.25500000920E-02 0.  1.
       -2   -1    0    0    0  501  0.00000000000E+00  0.00000000000E+00 -0.75843916849E+02  0.75843916892E+02  0.25500000920E-02 0. -1.
    10030    2    1    2    0    0  0.00000000000E+00  0.00000000000E+00  0.74530775727E+03  0.89699559102E+03  0.49911665696E+03 0.  0.
        3    1    3    3  502    0 -0.61327856175E+02 -0.83693520260E+02 -0.35242035259E+02  0.10957975418E+03  0.10100000352E+00 0. -1.
       -3    1    3    3    0  502  0.61327856175E+02  0.83693520260E+02  0.78054979253E+03  0.78741583684E+03  0.10100000352E+00 0.  1.
</event>
<event>
 5   0  0.1709372E-01  0.5022505E+03  0.7818609E-02  0.1013193E+00
        2   -1    0    0  501    0  0.00000000000E+00  0.00000000000E+00  0.10609139489E+04  0.10609139489E+04  0.25500000920E-02 0. -1.
       -2   -1    0    0    0  501  0.00000000000E+00  0.00000000000E+00 -0.59442984352E+02  0.59442984406E+02  0.25500000920E-02 0.  1.
    10030    2    1    2    0    0  0.00000000000E+00  0.00000000000E+00  0.10014709645E+04  0.11203569333E+04  0.50225050043E+03 0.  0.
        4    1    3    3  502    0  0.25001809128E+03 -0.16750155956E+02  0.53756961851E+03  0.59310397178E+03  0.12699999809E+01 0.  1.
       -4    1    3    3    0  502 -0.25001809128E+03  0.16750155956E+02  0.46390134604E+03  0.52725296153E+03  0.12699999809E+01 0. -1.
</event>
<event>
 5   0  0.1068522E-01  0.4957954E+03  0.7818609E-02  0.1014882E+00
        1   -1    0    0  501    0  0.00000000000E+00  0.00000000000E+00  0.54182792073E+03  0.54182792075E+03  0.50400001928E-02 0.  1.
       -1   -1    0    0    0  501  0.00000000000E+00  0.00000000000E+00 -0.11341842340E+03  0.11341842352E+03  0.50400001928E-02 0. -1.
    10030    2    1    2    0    0  0.00000000000E+00  0.00000000000E+00  0.42840949732E+03  0.65524634427E+03  0.49579539558E+03 0.  0.
        2    1    3    3  502    0 -0.74852158311E+02 -0.11902056502E+03 -0.55624834154E+02  0.15120470456E+03  0.25500000920E-02 0. -1.
       -2    1    3    3    0  502  0.74852158311E+02  0.11902056502E+03  0.48403433148E+03  0.50404163970E+03  0.25500000920E-02 0.  1.
</event>
<event>
 5   0  0.1074281E-01  0.5199366E+03  0.7818609E-02  0.1008702E+00
       -1   -1    0    0    0  501  0.00000000000E+00  0.00000000000E+00  0.76867632619E+03  0.76867632620E+03  0.50400001928E-02 0.  1.
        1   -1    0    0  501    0  0.00000000000E+00  0.00000000000E+00 -0.87921927751E+02  0.87921927896E+02  0.50400001928E-02 0. -1.
    10030    2    1    2    0    0  0.00000000000E+00  0.00000000000E+00  0.68075439844E+03  0.85659825410E+03  0.51993655184E+03 0.  0.
        4    1    3    3  502    0  0.97119408079E+01  0.51512306345E+02  0.75987377292E+03  0.76168077511E+03  0.12699999809E+01 0.  1.
       -4    1    3    3    0  502 -0.97119408079E+01 -0.51512306345E+02 -0.79119374484E+02  0.94917478991E+02  0.12699999809E+01 0. -1.
</event>
<event>
 5   0  0.1760649E-01  0.4966472E+03  0.7818609E-02  0.1014658E+00
        2   -1    0    0  501    0  0.00000000000E+00  0.00000000000E+00  0.77419747092E+03  0.77419747092E+03  0.25500000920E-02 0. -1.
       -2   -1    0    0    0  501  0.00000000000E+00  0.00000000000E+00 -0.79649703321E+02  0.79649703361E+02  0.25500000920E-02 0.  1.
    10030    2    1    2    0    0  0.00000000000E+00  0.00000000000E+00  0.69454776760E+03  0.85384717428E+03  0.49664715398E+03 0.  0.
        5    1    3    3  502    0  0.78490046749E+02 -0.11953212953E+03 -0.16643870379E+01  0.14308556046E+03  0.46999998093E+01 0.  1.
       -5    1    3    3    0  502 -0.78490046749E+02  0.11953212953E+03  0.69621215464E+03  0.71076161383E+03  0.46999998093E+01 0. -1.
</event>
<event>
 5   0  0.1074281E-01  0.5141048E+03  0.7818609E-02  0.1010162E+00
       -1   -1    0    0    0  501  0.00000000000E+00  0.00000000000E+00  0.12138139835E+03  0.12138139846E+03  0.50400001928E-02 0. -1.
        1   -1    0    0  501    0  0.00000000000E+00  0.00000000000E+00 -0.54436626234E+03  0.54436626237E+03  0.50400001928E-02 0.  1.
    10030    2    1    2    0    0  0.00000000000E+00  0.00000000000E+00 -0.42298486399E+03  0.66574766082E+03  0.51410480714E+03 0.  0.
        4    1    3    3  502    0 -0.19928312395E+03 -0.16199593151E+03 -0.19743266962E+03  0.32394091630E+03  0.12699999809E+01 0.  1.
       -4    1    3    3    0  502  0.19928312395E+03  0.16199593151E+03 -0.22555219437E+03  0.34180674453E+03  0.12699999809E+01 0. -1.
</event>
<event>
 5   0  0.1782124E-01  0.5049374E+03  0.7818609E-02  0.1012498E+00
        2   -1    0    0  501    0  0.00000000000E+00  0.00000000000E+00  0.85640644774E+03  0.85640644774E+03  0.25500000920E-02 0.  1.
       -2   -1    0    0    0  501  0.00000000000E+00  0.00000000000E+00 -0.74427796714E+02  0.74427796758E+02  0.25500000920E-02 0. -1.
    10030    2    1    2    0    0  0.00000000000E+00  0.00000000000E+00  0.78197865102E+03  0.93083424450E+03  0.50493740214E+03 0.  0.
        3    1    3    3  502    0 -0.11250914240E+02  0.19102769312E+03  0.87392066631E+02  0.21037002191E+03  0.10100000352E+00 0. -1.
       -3    1    3    3    0  502  0.11250914240E+02 -0.19102769312E+03  0.69458658439E+03  0.72046422258E+03  0.10100000352E+00 0.  1.
</event>
<event>
 5   0  0.1782124E-01  0.4921279E+03  0.7818609E-02  0.1015854E+00
       -2   -1    0    0    0  501  0.00000000000E+00  0.00000000000E+00  0.25936448252E+02  0.25936448377E+02  0.25500000920E-02 0.  1.
        2   -1    0    0  501    0  0.00000000000E+00  0.00000000000E+00 -0.23344547754E+04  0.23344547754E+04  0.25500000920E-02 0. -1.
    10030    2    1    2    0    0  0.00000000000E+00  0.00000000000E+00 -0.23085183271E+04  0.23603912238E+04  0.49212789243E+03 0.  0.
        3    1    3    3  502    0  0.12171296043E+03 -0.46039612961E+02 -0.15260500340E+03  0.20055420205E+03  0.10100000352E+00 0.  1.
       -3    1    3    3    0  502 -0.12171296043E+03  0.46039612961E+02 -0.21559133238E+04  0.21598370217E+04  0.10100000352E+00 0. -1.
</event>
<event>
 5   0  0.1074281E-01  0.4993240E+03  0.7818609E-02  0.1013956E+00
        1   -1    0    0  501    0  0.00000000000E+00  0.00000000000E+00  0.54582583581E+03  0.54582583584E+03  0.50400001928E-02 0. -1.
       -1   -1    0    0    0  501  0.00000000000E+00  0.00000000000E+00 -0.11419598729E+03  0.11419598740E+03  0.50400001928E-02 0.  1.
    10030    2    1    2    0    0  0.00000000000E+00  0.00000000000E+00  0.43162984853E+03  0.66002182324E+03  0.49932402406E+03 0.  0.
        4    1    3    3  502    0 -0.12055385549E+03 -0.92490754092E+02 -0.46033483705E+02  0.15877174241E+03  0.12699999809E+01 0.  1.
       -4    1    3    3    0  502  0.12055385549E+03  0.92490754092E+02  0.47766333223E+03  0.50125008082E+03  0.12699999809E+01 0. -1.
</event>
<event>
 5   0  0.1141970E-01  0.5446823E+03  0.7818609E-02  0.1002732E+00
       -1   -1    0    0    0  501  0.00000000000E+00  0.00000000000E+00  0.49050189496E+03  0.49050189499E+03  0.50400001928E-02 0.  1.
        1   -1    0    0  501    0  0.00000000000E+00  0.00000000000E+00 -0.15121186910E+03  0.15121186918E+03  0.50400001928E-02 0. -1.
    10030    2    1    2    0    0  0.00000000000E+00  0.00000000000E+00  0.33929002586E+03  0.64171376417E+03  0.54468232345E+03 0.  0.
        3    1    3    3  502    0  0.45186354377E+02 -0.24434488862E+03  0.38328458836E+02  0.25142655423E+03  0.10100000352E+00 0. -1.
       -3    1    3    3    0  502 -0.45186354377E+02  0.24434488862E+03  0.30096156703E+03  0.39028720994E+03  0.10100000352E+00 0.  1.
</event>
<event>
 5   0  0.1068522E-01  0.5307511E+03  0.7818609E-02  0.1006050E+00
        1   -1    0    0  501    0  0.00000000000E+00  0.00000000000E+00  0.12569358294E+04  0.12569358294E+04  0.50400001928E-02 0. -1.
       -1   -1    0    0    0  501  0.00000000000E+00  0.00000000000E+00 -0.56028461814E+02  0.56028462041E+02  0.50400001928E-02 0.  1.
    10030    2    1    2    0    0  0.00000000000E+00  0.00000000000E+00  0.12009073676E+04  0.13129642914E+04  0.53075109524E+03 0.  0.
        2    1    3    3  502    0 -0.15484464646E+03 -0.18539338990E+03  0.87230691251E+03  0.90513364935E+03  0.25500000920E-02 0. -1.
       -2    1    3    3    0  502  0.15484464646E+03  0.18539338990E+03  0.32860045506E+03  0.40783064209E+03  0.25500000920E-02 0.  1.
</event>
<event>
 5   0  0.1760649E-01  0.5156566E+03  0.7818609E-02  0.1009771E+00
        2   -1    0    0  501    0  0.00000000000E+00  0.00000000000E+00  0.67137140048E+03  0.67137140049E+03  0.25500000920E-02 0.  1.
       -2   -1    0    0    0  501  0.00000000000E+00  0.00000000000E+00 -0.99014411236E+02  0.99014411269E+02  0.25500000920E-02 0. -1.
    10030    2    1    2    0    0  0.00000000000E+00  0.00000000000E+00  0.57235698925E+03  0.77038581175E+03  0.51565664527E+03 0.  0.
        5    1    3    3  502    0 -0.24338362925E+02  0.24442435006E+03  0.40303233564E+03  0.47200929269E+03  0.46999998093E+01 0.  1.
       -5    1    3    3    0  502  0.24338362925E+02 -0.24442435006E+03  0.16932465361E+03  0.29837651907E+03  0.46999998093E+01 0. -1.
</event>
<event>
 5   0  0.1074281E-01  0.4912535E+03  0.7818609E-02  0.1016087E+00
       -1   -1    0    0    0  501  0.00000000000E+00  0.00000000000E+00  0.41535968971E+03  0.41535968974E+03  0.50400001928E-02 0. -1.
        1   -1    0    0  501    0  0.00000000000E+00  0.00000000000E+00 -0.14525359559E+03  0.14525359567E+03  0.50400001928E-02 0.  1.
    10030    2    1    2    0    0  0.00000000000E+00  0.00000000000E+00  0.27010609412E+03  0.56061328541E+03  0.49125345159E+03 0.  0.
        4    1    3    3  502    0 -0.97184528679E+02  0.17009800953E+03 -0.34030691365E+02  0.19884130937E+03  0.12699999809E+01 0.  1.
       -4    1    3    3    0  502  0.97184528679E+02 -0.17009800953E+03  0.30413678549E+03  0.36177197604E+03  0.12699999809E+01 0. -1.
</event>
<event>
 5   0  0.1123271E-01  0.5018386E+03  0.7818609E-02  0.1013300E+00
       -1   -1    0    0    0  501  0.00000000000E+00  0.00000000000E+00  0.11411645608E+03  0.11411645620E+03  0.50400001928E-02 0.  1.
        1   -1    0    0  501    0  0.00000000000E+00  0.00000000000E+00 -0.55172153116E+03  0.55172153118E+03  0.50400001928E-02 0. -1.
    10030    2    1    2    0    0  0.00000000000E+00  0.00000000000E+00 -0.43760507507E+03  0.66583798738E+03  0.50183864309E+03 0.  0.
        5    1    3    3  502    0  0.14373172687E+03  0.15061040844E+03 -0.40453568545E+03  0.45498737921E+03  0.46999998093E+01 0. -1.
       -5    1    3    3    0  502 -0.14373172687E+03 -0.15061040844E+03 -0.33069389625E+02  0.21085060817E+03  0.46999998093E+01 0.  1.
</event>
<event>
 5   0  0.1068522E-01  0.4991124E+03  0.7818609E-02  0.1014011E+00
       -1   -1    0    0    0  501  0.00000000000E+00  0.00000000000E+00  0.13228080113E+03  0.13228080122E+03  0.50400001928E-02 0.  1.
        1   -1    0    0  501    0  0.00000000000E+00  0.00000000000E+00 -0.47080373026E+03  0.47080373029E+03  0.50400001928E-02 0. -1.
    10030    2    1    2    0    0  0.00000000000E+00  0.00000000000E+00 -0.33852292914E+03  0.60308453151E+03  0.49911239075E+03 0.  0.
        2    1    3    3  502    0  0.29925531684E+01 -0.90814380618E+02 -0.45010570320E+03  0.45918553021E+03  0.25500000920E-02 0. -1.
       -2    1    3    3    0  502 -0.29925531684E+01  0.90814380618E+02  0.11158277406E+03  0.14389900130E+03  0.25500000920E-02 0.  1.
</event>
<event>
 5   0  0.1123271E-01  0.5151239E+03  0.7818609E-02  0.1009905E+00
       -1   -1    0    0    0  501  0.00000000000E+00  0.00000000000E+00  0.10568217283E+03  0.10568217295E+03  0.50400001928E-02 0. -1.
        1   -1    0    0  501    0  0.00000000000E+00  0.00000000000E+00 -0.62771374864E+03  0.62771374866E+03  0.50400001928E-02 0.  1.
    10030    2    1    2    0    0  0.00000000000E+00  0.00000000000E+00 -0.52203157581E+03  0.73339592161E+03  0.51512387995E+03 0.  0.
        5    1    3    3  502    0 -0.17951753453E+03  0.85712795880E+01 -0.52360008648E+03  0.55360559300E+03  0.46999998093E+01 0.  1.
       -5    1    3    3    0  502  0.17951753453E+03 -0.85712795880E+01  0.15685106719E+01  0.17979032861E+03  0.46999998093E+01 0. -1.
</event>
<event>
 5   0  0.1683148E-01  0.5019460E+03  0.7818609E-02  0.1013272E+00
       -2   -1    0    0    0  501  0.00000000000E+00  0.00000000000E+00  0.18388837002E+03  0.18388837004E+03  0.25500000920E-02 0. -1.
        2   -1    0    0  501    0  0.00000000000E+00  0.00000000000E+00 -0.34253094168E+03  0.34253094169E+03  0.25500000920E-02 0.  1.
    10030    2    1    2    0    0  0.00000000000E+00  0.00000000000E+00 -0.15864257166E+03  0.52641931173E+03  0.50194603915E+03 0.  0.
        2    1    3    3  502    0  0.59109284586E+02 -0.14157741590E+03 -0.28762398443E+03  0.32598409262E+03  0.25500000920E-02 0.  1.
       -2    1    3    3    0  502 -0.59109284586E+02  0.14157741590E+03  0.12898141277E+03  0.20043521911E+03  0.25500000920E-02 0. -1.
</event>
<event>
 5   0  0.1709372E-01  0.5344294E+03  0.7818609E-02  0.1005164E+00
       -2   -1    0    0    0  501  0.00000000000E+00  0.00000000000E+00  0.43058087841E+02  0.43058087916E+02  0.25500000920E-02 0. -1.
        2   -1    0    0  501    0  0.00000000000E+00  0.00000000000E+00 -0.16583110590E+04  0.16583110590E+04  0.25500000920E-02 0.  1.
    10030    2    1    2    0    0  0.00000000000E+00  0.00000000000E+00 -0.16152529711E+04  0.17013691469E+04  0.53442942775E+03 0.  0.
        4    1    3    3  502    0  0.64534539071E+02 -0.22670577274E+03 -0.40693372353E+03  0.47027319972E+03  0.12699999809E+01 0. -1.
       -4    1    3    3    0  502 -0.64534539071E+02  0.22670577274E+03 -0.12083192476E+04  0.12310959472E+04  0.12699999809E+01 0.  1.
</event>
<event>
 5   0  0.1782124E-01  0.4964604E+03  0.7818609E-02  0.1014707E+00
       -2   -1    0    0    0  501  0.00000000000E+00  0.00000000000E+00  0.48156429541E+02  0.48156429608E+02  0.25500000920E-02 0. -1.
        2   -1    0    0  501    0  0.00000000000E+00  0.00000000000E+00 -0.12795434583E+04  0.12795434583E+04  0.25500000920E-02 0.  1.
    10030    2    1    2    0    0  0.00000000000E+00  0.00000000000E+00 -0.12313870288E+04  0.13276998880E+04  0.49646044935E+03 0.  0.
        3    1    3    3  502    0  0.21178548709E+03 -0.12347127421E+03 -0.51142934756E+03  0.56714921833E+03  0.10100000352E+00 0. -1.
       -3    1    3    3    0  502 -0.21178548709E+03  0.12347127421E+03 -0.71995768124E+03  0.76055066963E+03  0.10100000352E+00 0.  1.
</event>
<event>
 5   0  0.1074281E-01  0.4952485E+03  0.7818609E-02  0.1015027E+00
       -1   -1    0    0    0  501  0.00000000000E+00  0.00000000000E+00  0.20304663567E+03  0.20304663573E+03  0.50400001928E-02 0. -1.
        1   -1    0    0  501    0  0.00000000000E+00  0.00000000000E+00 -0.30198859626E+03  0.30198859630E+03  0.50400001928E-02 0.  1.
    10030    2    1    2    0    0  0.00000000000E+00  0.00000000000E+00 -0.98941960588E+02  0.50503523203E+03  0.49524849725E+03 0.  0.
        4    1    3    3  502    0 -0.14122001474E+02 -0.76059283834E+02 -0.28934629413E+03  0.29951183017E+03  0.12699999809E+01 0.  1.
       -4    1    3    3    0  502  0.14122001474E+02  0.76059283834E+02  0.19040433354E+03  0.20552340187E+03  0.12699999809E+01 0. -1.
</event>
<event>
 5   0  0.1141970E-01  0.4904923E+03  0.7818609E-02  0.1016291E+00
        1   -1    0    0  501    0  0.00000000000E+00  0.00000000000E+00  0.17267240961E+03  0.17267240968E+03  0.50400001928E-02 0. -1.
       -1   -1    0    0    0  501  0.00000000000E+00  0.00000000000E+00 -0.34832237266E+03  0.34832237270E+03  0.50400001928E-02 0.  1.
    10030    2    1    2    0    0  0.00000000000E+00  0.00000000000E+00 -0.17564996305E+03  0.52099478238E+03  0.49049225657E+03 0.  0.
        3    1    3    3  502    0 -0.80476781662E+02 -0.20715130746E+03 -0.19799322495E+03  0.29763988962E+03  0.10100000352E+00 0. -1.
       -3    1    3    3    0  502  0.80476781662E+02  0.20715130746E+03  0.22343261898E+02  0.22335489276E+03  0.10100000352E+00 0.  1.
</event>
<event>
 5   0  0.1123271E-01  0.4425995E+03  0.7818609E-02  0.1029952E+00
       -1   -1    0    0    0  501  0.00000000000E+00  0.00000000000E+00  0.12739081462E+03  0.12739081472E+03  0.50400001928E-02 0. -1.
        1   -1    0    0  501    0  0.00000000000E+00  0.00000000000E+00 -0.38443579550E+03  0.38443579553E+03  0.50400001928E-02 0.  1.
    10030    2    1    2    0    0  0.00000000000E+00  0.00000000000E+00 -0.25704498088E+03  0.51182661025E+03  0.44259954447E+03 0.  0.
        5    1    3    3  502    0  0.15071591351E+03 -0.24217601877E+02 -0.31372770751E+03  0.34892541221E+03  0.46999998093E+01 0. -1.
       -5    1    3    3    0  502 -0.15071591351E+03  0.24217601877E+02  0.56682726634E+02  0.16290119804E+03  0.46999998093E+01 0.  1.
</event>
<event>
 5   0  0.1123271E-01  0.4970558E+03  0.7818609E-02  0.1014550E+00
       -1   -1    0    0    0  501  0.00000000000E+00  0.00000000000E+00  0.15102966337E+04  0.15102966337E+04  0.50400001928E-02 0.  1.
        1   -1    0    0  501    0  0.00000000000E+00  0.00000000000E+00 -0.40896685073E+02  0.40896685383E+02  0.50400001928E-02 0. -1.
    10030    2    1    2    0    0  0.00000000000E+00  0.00000000000E+00  0.14693999487E+04  0.15511933191E+04  0.49705583607E+03 0.  0.
        5    1    3    3  502    0 -0.71574303703E+02  0.23788078695E+03  0.75286653848E+03  0.79280531312E+03  0.46999998093E+01 0. -1.
       -5    1    3    3    0  502  0.71574303703E+02 -0.23788078695E+03  0.71653341018E+03  0.75838800600E+03  0.46999998093E+01 0.  1.
</event>
<event>
 5   0  0.1683148E-01  0.4993641E+03  0.7818609E-02  0.1013945E+00
       -2   -1    0    0    0  501  0.00000000000E+00  0.00000000000E+00  0.69077980570E+02  0.69077980617E+02  0.25500000920E-02 0. -1.
        2   -1    0    0  501    0  0.00000000000E+00  0.00000000000E+00 -0.90247472168E+03  0.90247472168E+03  0.25500000920E-02 0.  1.
    10030    2    1    2    0    0  0.00000000000E+00  0.00000000000E+00 -0.83339674111E+03  0.97155270230E+03  0.49936412091E+03 0.  0.
        2    1    3    3  502    0  0.24524716553E+02 -0.15400813669E+03 -0.37329466716E+02  0.16035416109E+03  0.25500000920E-02 0. -1.
       -2    1    3    3    0  502 -0.24524716553E+02  0.15400813669E+03 -0.79606727439E+03  0.81119854121E+03  0.25500000920E-02 0.  1.
</event>
<event>
 5   0  0.1683148E-01  0.4975481E+03  0.7818609E-02  0.1014421E+00
        2   -1    0    0  501    0  0.00000000000E+00  0.00000000000E+00  0.43442444580E+03  0.43442444581E+03  0.25500000920E-02 0.  1.
       -2   -1    0    0    0  501  0.00000000000E+00  0.00000000000E+00 -0.14246098538E+03  0.14246098540E+03  0.25500000920E-02 0. -1.
    10030    2    1    2    0    0  0.00000000000E+00  0.00000000000E+00  0.29196346042E+03  0.57688543121E+03  0.49754812684E+03 0.  0.
        2    1    3    3  502    0 -0.22414394855E+02 -0.81463503108E+02 -0.12531580750E+03  0.15113821175E+03  0.25500000920E-02 0. -1.
       -2    1    3    3    0  502  0.22414394855E+02  0.81463503108E+02  0.41727926792E+03  0.42574721946E+03  0.25500000920E-02 0.  1.
</event>
<event>
 5   0  0.1147245E-01  0.5199477E+03  0.7818609E-02  0.1008700E+00
        1   -1    0    0  501    0  0.00000000000E+00  0.00000000000E+00  0.31239577856E+03  0.31239577860E+03  0.50400001928E-02 0.  1.
       -1   -1    0    0    0  501  0.00000000000E+00  0.00000000000E+00 -0.21634860337E+03  0.21634860342E+03  0.50400001928E-02 0. -1.
    10030    2    1    2    0    0  0.00000000000E+00  0.00000000000E+00  0.96047175192E+02  0.52874438202E+03  0.51994765280E+03 0.  0.
        1    1    3    3  502    0 -0.39419070677E+02  0.80001589040E+02  0.29635223659E+03  0.30948144619E+03  0.50400001928E-02 0.  1.
       -1    1    3    3    0  502  0.39419070677E+02 -0.80001589040E+02 -0.20030506140E+03  0.21926293583E+03  0.50400001928E-02 0. -1.
</event>
<event>
 5   0  0.1074281E-01  0.4965262E+03  0.7818609E-02  0.1014690E+00
        1   -1    0    0  501    0  0.00000000000E+00  0.00000000000E+00  0.12366259639E+04  0.12366259639E+04  0.50400001928E-02 0. -1.
       -1   -1    0    0    0  501  0.00000000000E+00  0.00000000000E+00 -0.49840905493E+02  0.49840905748E+02  0.50400001928E-02 0.  1.
    10030    2    1    2    0    0  0.00000000000E+00  0.00000000000E+00  0.11867850584E+04  0.12864668696E+04  0.49652616433E+03 0.  0.
        4    1    3    3  502    0  0.16042298457E+03  0.13625880836E+03  0.93448146367E+03  0.95789311286E+03  0.12699999809E+01 0.  1.
       -4    1    3    3    0  502 -0.16042298457E+03 -0.13625880836E+03  0.25230359471E+03  0.32857375677E+03  0.12699999809E+01 0. -1.
</event>
<event>
 5   0  0.1827698E-01  0.4945057E+03  0.7818609E-02  0.1015223E+00
        2   -1    0    0  501    0  0.00000000000E+00  0.00000000000E+00  0.72827066787E+03  0.72827066788E+03  0.25500000920E-02 0.  1.
       -2   -1    0    0    0  501  0.00000000000E+00  0.00000000000E+00 -0.83944023779E+02  0.83944023817E+02  0.25500000920E-02 0. -1.
    10030    2    1    2    0    0  0.00000000000E+00  0.00000000000E+00  0.64432664409E+03  0.81221469169E+03  0.49450569371E+03 0.  0.
        1    1    3    3  502    0 -0.10276885905E+03 -0.20893101907E+03  0.18552770460E+03  0.29771486076E+03  0.50400001928E-02 0. -1.
       -1    1    3    3    0  502  0.10276885905E+03  0.20893101907E+03  0.45879893949E+03  0.51449983093E+03  0.50400001928E-02 0.  1.
</event>
<event>
 5   0  0.1760649E-01  0.4990339E+03  0.7818609E-02  0.1014031E+00
       -2   -1    0    0    0  501  0.00000000000E+00  0.00000000000E+00  0.29205037228E+03  0.29205037229E+03  0.25500000920E-02 0. -1.
        2   -1    0    0  501    0  0.00000000000E+00  0.00000000000E+00 -0.21317798117E+03  0.21317798119E+03  0.25500000920E-02 0.  1.
    10030    2    1    2    0    0  0.00000000000E+00  0.00000000000E+00  0.78872391107E+02  0.50522835347E+03  0.49903390173E+03 0.  0.
        5    1    3    3  502    0  0.19582583050E+03  0.15456010966E+03  0.39245757412E+02  0.25258444699E+03  0.46999998093E+01 0.  1.
       -5    1    3    3    0  502 -0.19582583050E+03 -0.15456010966E+03  0.39626633695E+02  0.25264390648E+03  0.46999998093E+01 0. -1.
</event>
<event>
 5   0  0.1068522E-01  0.5012906E+03  0.7818609E-02  0.1013443E+00
        1   -1    0    0  501    0  0.00000000000E+00  0.00000000000E+00  0.11550039923E+03  0.11550039934E+03  0.50400001928E-02 0.  1.
       -1   -1    0    0    0  501  0.00000000000E+00  0.00000000000E+00 -0.54392069634E+03  0.54392069636E+03  0.50400001928E-02 0. -1.
    10030    2    1    2    0    0  0.00000000000E+00  0.00000000000E+00 -0.42842029711E+03  0.65942109570E+03  0.50129056492E+03 0.  0.
        2    1    3    3  502    0  0.53768283573E+02  0.18498811002E+03 -0.32810926808E+01  0.19267172793E+03  0.25500000920E-02 0. -1.
       -2    1    3    3    0  502 -0.53768283573E+02 -0.18498811002E+03 -0.42513920443E+03  0.46674936777E+03  0.25500000920E-02 0.  1.
</event>
<event>
 5   0  0.1068522E-01  0.4991807E+03  0.7818609E-02  0.1013993E+00
        1   -1    0    0  501    0  0.00000000000E+00  0.00000000000E+00  0.22046579046E+03  0.22046579052E+03  0.50400001928E-02 0.  1.
       -1   -1    0    0    0  501  0.00000000000E+00  0.00000000000E+00 -0.28256239453E+03  0.28256239457E+03  0.50400001928E-02 0. -1.
    10030    2    1    2    0    0  0.00000000000E+00  0.00000000000E+00 -0.62096604065E+02  0.50302818509E+03  0.49918069550E+03 0.  0.
        2    1    3    3  502    0  0.73682298865E+02  0.19200198172E+03 -0.17356502119E+03  0.26910715103E+03  0.25500000920E-02 0. -1.
       -2    1    3    3    0  502 -0.73682298865E+02 -0.19200198172E+03  0.11146841713E+03  0.23392103406E+03  0.25500000920E-02 0.  1.
</event>
<event>
 5   0  0.1141970E-01  0.4905727E+03  0.7818609E-02  0.1016269E+00
       -1   -1    0    0    0  501  0.00000000000E+00  0.00000000000E+00  0.37279640265E+03  0.37279640268E+03  0.50400001928E-02 0. -1.
        1   -1    0    0  501    0  0.00000000000E+00  0.00000000000E+00 -0.16138939432E+03  0.16138939440E+03  0.50400001928E-02 0.  1.
    10030    2    1    2    0    0  0.00000000000E+00  0.00000000000E+00  0.21140700833E+03  0.53418579708E+03  0.49057266804E+03 0.  0.
        3    1    3    3  502    0 -0.17578502566E+03 -0.13005251880E+03  0.22672041769E+03  0.31498601697E+03  0.10100000352E+00 0. -1.
       -3    1    3    3    0  502  0.17578502566E+03  0.13005251880E+03 -0.15313409361E+02  0.21919978010E+03  0.10100000352E+00 0.  1.
</event>
<event>
 5   0  0.1782124E-01  0.5019348E+03  0.7818609E-02  0.1013275E+00
       -2   -1    0    0    0  501  0.00000000000E+00  0.00000000000E+00  0.43167698028E+02  0.43167698103E+02  0.25500000920E-02 0.  1.
        2   -1    0    0  501    0  0.00000000000E+00  0.00000000000E+00 -0.14590686047E+04  0.14590686047E+04  0.25500000920E-02 0. -1.
    10030    2    1    2    0    0  0.00000000000E+00  0.00000000000E+00 -0.14159009067E+04  0.15022363028E+04  0.50193478855E+03 0.  0.
        3    1    3    3  502    0  0.13861079917E+02  0.24892144913E+03 -0.62169464812E+03  0.66981957502E+03  0.10100000352E+00 0.  1.
       -3    1    3    3    0  502 -0.13861079917E+02 -0.24892144913E+03 -0.79420625857E+03  0.83241672780E+03  0.10100000352E+00 0. -1.
</event>
<event>
 5   0  0.1141970E-01  0.4904911E+03  0.7818609E-02  0.1016291E+00
       -1   -1    0    0    0  501  0.00000000000E+00  0.00000000000E+00  0.96592638735E+02  0.96592638867E+02  0.50400001928E-02 0.  1.
        1   -1    0    0  501    0  0.00000000000E+00  0.00000000000E+00 -0.62267035426E+03  0.62267035428E+03  0.50400001928E-02 0. -1.
    10030    2    1    2    0    0  0.00000000000E+00  0.00000000000E+00 -0.52607771553E+03  0.71926299315E+03  0.49049107081E+03 0.  0.
        3    1    3    3  502    0 -0.17949191138E+03  0.11773864128E+03 -0.89124201720E+02  0.23242819845E+03  0.10100000352E+00 0.  1.
       -3    1    3    3    0  502  0.17949191138E+03 -0.11773864128E+03 -0.43695351381E+03  0.48683479470E+03  0.10100000352E+00 0. -1.
</event>
<event>
 5   0  0.1068522E-01  0.4463909E+03  0.7818609E-02  0.1028804E+00
        1   -1    0    0  501    0  0.00000000000E+00  0.00000000000E+00  0.72333514724E+03  0.72333514726E+03  0.50400001928E-02 0. -1.
       -1   -1    0    0    0  501  0.00000000000E+00  0.00000000000E+00 -0.68870172716E+02  0.68870172900E+02  0.50400001928E-02 0.  1.
    10030    2    1    2    0    0  0.00000000000E+00  0.00000000000E+00  0.65446497452E+03  0.79220532016E+03  0.44639093450E+03 0.  0.
        2    1    3    3  502    0 -0.98909450962E+02 -0.19061838758E+03  0.43515006391E+03  0.48525666126E+03  0.25500000920E-02 0.  1.
       -2    1    3    3    0  502  0.98909450962E+02  0.19061838758E+03  0.21931491061E+03  0.30694865889E+03  0.25500000920E-02 0. -1.
</event>
<event>
 5   0  0.1827698E-01  0.5021083E+03  0.7818609E-02  0.1013230E+00
        2   -1    0    0  501    0  0.00000000000E+00  0.00000000000E+00  0.87668511127E+03  0.87668511127E+03  0.25500000920E-02 0.  1.
       -2   -1    0    0    0  501  0.00000000000E+00  0.00000000000E+00 -0.71893749835E+02  0.71893749880E+02  0.25500000920E-02 0. -1.
    10030    2    1    2    0    0  0.00000000000E+00  0.00000000000E+00  0.80479136143E+03  0.94857886115E+03  0.50210827556E+03 0.  0.
        1    1    3    3  502    0 -0.94887619014E+02  0.12579709494E+03  0.33158410428E+02  0.16102189151E+03  0.50400001928E-02 0. -1.
       -1    1    3    3    0  502  0.94887619014E+02 -0.12579709494E+03  0.77163295101E+03  0.78755696965E+03  0.50400001928E-02 0.  1.
</event>
<event>
 5   0  0.1760649E-01  0.5029391E+03  0.7818609E-02  0.1013015E+00
       -2   -1    0    0    0  501  0.00000000000E+00  0.00000000000E+00  0.15958209104E+03  0.15958209106E+03  0.25500000920E-02 0. -1.
        2   -1    0    0  501    0  0.00000000000E+00  0.00000000000E+00 -0.39626580323E+03  0.39626580324E+03  0.25500000920E-02 0.  1.
    10030    2    1    2    0    0  0.00000000000E+00  0.00000000000E+00 -0.23668371219E+03  0.55584789430E+03  0.50293906388E+03 0.  0.
        5    1    3    3  502    0 -0.21858542112E+03  0.65535705099E+02 -0.23499311737E+03  0.32759482624E+03  0.46999998093E+01 0.  1.
       -5    1    3    3    0  502  0.21858542112E+03 -0.65535705099E+02 -0.16905948251E+01  0.22825306806E+03  0.46999998093E+01 0. -1.
</event>
<event>
 5   0  0.1760649E-01  0.5075789E+03  0.7818609E-02  0.1011819E+00
        2   -1    0    0  501    0  0.00000000000E+00  0.00000000000E+00  0.18274742025E+04  0.18274742025E+04  0.25500000920E-02 0.  1.
       -2   -1    0    0    0  501  0.00000000000E+00  0.00000000000E+00 -0.35244863108E+02  0.35244863200E+02  0.25500000920E-02 0. -1.
    10030    2    1    2    0    0  0.00000000000E+00  0.00000000000E+00  0.17922293394E+04  0.18627190657E+04  0.50757887343E+03 0.  0.
        5    1    3    3  502    0 -0.14428847982E+03 -0.13411282652E+02  0.13170100974E+03  0.19587310657E+03  0.46999998093E+01 0. -1.
       -5    1    3    3    0  502  0.14428847982E+03  0.13411282652E+02  0.16605283297E+04  0.16668459591E+04  0.46999998093E+01 0.  1.
</event>
<event>
 5   0  0.1760649E-01  0.5028096E+03  0.7818609E-02  0.1013048E+00
       -2   -1    0    0    0  501  0.00000000000E+00  0.00000000000E+00  0.59907863710E+02  0.59907863764E+02  0.25500000920E-02 0. -1.
        2   -1    0    0  501    0  0.00000000000E+00  0.00000000000E+00 -0.10550263695E+04  0.10550263695E+04  0.25500000920E-02 0.  1.
    10030    2    1    2    0    0  0.00000000000E+00  0.00000000000E+00 -0.99511850578E+03  0.11149342333E+04  0.50280961003E+03 0.  0.
        5    1    3    3  502    0  0.37519407425E+01  0.15475685323E+03 -0.58431070260E+02  0.16552957636E+03  0.46999998093E+01 0. -1.
       -5    1    3    3    0  502 -0.37519407425E+01 -0.15475685323E+03 -0.93668743552E+03  0.94940465690E+03  0.46999998093E+01 0.  1.
</event>
<event>
 5   0  0.1683148E-01  0.5032666E+03  0.7818609E-02  0.1012930E+00
        2   -1    0    0  501    0  0.00000000000E+00  0.00000000000E+00  0.39462911035E+03  0.39462911036E+03  0.25500000920E-02 0. -1.
       -2   -1    0    0    0  501  0.00000000000E+00  0.00000000000E+00 -0.16045271179E+03  0.16045271181E+03  0.25500000920E-02 0.  1.
    10030    2    1    2    0    0  0.00000000000E+00  0.00000000000E+00  0.23417639856E+03  0.55508182216E+03  0.50326657315E+03 0.  0.
        2    1    3    3  502    0 -0.12633695919E+03 -0.22189051033E+02 -0.12168607725E+03  0.17680747339E+03  0.25500000920E-02 0.  1.
       -2    1    3    3    0  502  0.12633695919E+03  0.22189051033E+02  0.35586247581E+03  0.37827434877E+03  0.25500000920E-02 0. -1.
</event>
<event>
 5   0  0.1709372E-01  0.4973284E+03  0.7818609E-02  0.1014479E+00
       -2   -1    0    0    0  501  0.00000000000E+00  0.00000000000E+00  0.71200857728E+02  0.71200857773E+02  0.25500000920E-02 0.  1.
        2   -1    0    0  501    0  0.00000000000E+00  0.00000000000E+00 -0.86844305520E+03  0.86844305520E+03  0.25500000920E-02 0. -1.
    10030    2    1    2    0    0  0.00000000000E+00  0.00000000000E+00 -0.79724219747E+03  0.93964391298E+03  0.49732842445E+03 0.  0.
        4    1    3    3  502    0  0.71791219502E+02 -0.49124699063E+02  0.41508094682E+02  0.96393724276E+02  0.12699999809E+01 0.  1.
       -4    1    3    3    0  502 -0.71791219502E+02  0.49124699063E+02 -0.83875029215E+03  0.84325018870E+03  0.12699999809E+01 0. -1.
</event>
<event>
 5   0  0.1782124E-01  0.5008678E+03  0.7818609E-02  0.1013553E+00
       -2   -1    0    0    0  501  0.00000000000E+00  0.00000000000E+00  0.26880483966E+03  0.26880483967E+03  0.25500000920E-02 0.  1.
        2   -1    0    0  501    0  0.00000000000E+00  0.00000000000E+00 -0.23331844760E+03  0.23331844762E+03  0.25500000920E-02 0. -1.
    10030    2    1    2    0    0  0.00000000000E+00  0.00000000000E+00  0.35486392054E+02  0.50212328729E+03  0.50086775861E+03 0.  0.
        3    1    3    3  502    0 -0.14866874257E+02 -0.15342652618E+03  0.21561169815E+03  0.26504553847E+03  0.10100000352E+00 0.  1.
       -3    1    3    3    0  502  0.14866874257E+02  0.15342652618E+03 -0.18012530609E+03  0.23707774881E+03  0.10100000352E+00 0. -1.
</event>
<event>
 5   0  0.1760649E-01  0.4845859E+03  0.7818609E-02  0.1017882E+00
        2   -1    0    0  501    0  0.00000000000E+00  0.00000000000E+00  0.24443757404E+03  0.24443757405E+03  0.25500000920E-02 0. -1.
       -2   -1    0    0    0  501  0.00000000000E+00  0.00000000000E+00 -0.24016718771E+03  0.24016718772E+03  0.25500000920E-02 0.  1.
    10030    2    1    2    0    0  0.00000000000E+00  0.00000000000E+00  0.42703863296E+01  0.48460476177E+03  0.48458594586E+03 0.  0.
        5    1    3    3  502    0 -0.11994809832E+03 -0.80961408322E+02 -0.19214406404E+03  0.24059037236E+03  0.46999998093E+01 0.  1.
       -5    1    3    3    0  502  0.11994809832E+03  0.80961408322E+02  0.19641445037E+03  0.24401438941E+03  0.46999998093E+01 0. -1.
</event>
<event>
 5   0  0.1709372E-01  0.5021356E+03  0.7818609E-02  0.1013223E+00
        2   -1    0    0  501    0  0.00000000000E+00  0.00000000000E+00  0.14646040734E+03  0.14646040737E+03  0.25500000920E-02 0. -1.
       -2   -1    0    0    0  501  0.00000000000E+00  0.00000000000E+00 -0.43038955291E+03  0.43038955292E+03  0.25500000920E-02 0.  1.
    10030    2    1    2    0    0  0.00000000000E+00  0.00000000000E+00 -0.28392914557E+03  0.57684996028E+03  0.50213555638E+03 0.  0.
        4    1    3    3  502    0 -0.21817077846E+03 -0.10619289884E+03 -0.21604166492E+03  0.32488618656E+03  0.12699999809E+01 0.  1.
       -4    1    3    3    0  502  0.21817077846E+03  0.10619289884E+03 -0.67887480647E+02  0.25196377372E+03  0.12699999809E+01 0. -1.
</event>
<event>
 5   0  0.1123271E-01  0.5111735E+03  0.7818609E-02  0.1010903E+00
       -1   -1    0    0    0  501  0.00000000000E+00  0.00000000000E+00  0.16859296005E+03  0.16859296012E+03  0.50400001928E-02 0. -1.
        1   -1    0    0  501    0  0.00000000000E+00  0.00000000000E+00 -0.38746924202E+03  0.38746924205E+03  0.50400001928E-02 0.  1.
    10030    2    1    2    0    0  0.00000000000E+00  0.00000000000E+00 -0.21887628198E+03  0.55606220217E+03  0.51117349880E+03 0.  0.
        5    1    3    3  502    0 -0.16917830158E+02 -0.17518690195E+03 -0.31098015164E+03  0.35736173313E+03  0.46999998093E+01 0.  1.
       -5    1    3    3    0  502  0.16917830158E+02  0.17518690195E+03  0.92103869664E+02  0.19870046904E+03  0.46999998093E+01 0. -1.
</event>
<event>
 5   0  0.1827698E-01  0.4963248E+03  0.7818609E-02  0.1014743E+00
       -2   -1    0    0    0  501  0.00000000000E+00  0.00000000000E+00  0.90333317322E+02  0.90333317358E+02  0.25500000920E-02 0.  1.
        2   -1    0    0  501    0  0.00000000000E+00  0.00000000000E+00 -0.68174822246E+03  0.68174822247E+03  0.25500000920E-02 0. -1.
    10030    2    1    2    0    0  0.00000000000E+00  0.00000000000E+00 -0.59141490514E+03  0.77208153983E+03  0.49632480707E+03 0.  0.
        1    1    3    3  502    0  0.12101225857E+02 -0.38258403779E+02 -0.67666822892E+03  0.67785694448E+03  0.50400001928E-02 0. -1.
       -1    1    3    3    0  502 -0.12101225857E+02  0.38258403779E+02  0.85253323779E+02  0.94224595344E+02  0.50400001928E-02 0.  1.
</event>
<event>
 5   0  0.7220250E-02  0.4988130E+03  0.7818609E-02  0.1014089E+00
        4   -1    0    0  501    0  0.00000000000E+00  0.00000000000E+00  0.11224701793E+04  0.11224708977E+04  0.12699999809E+01 0. -1.
       -4   -1    0    0    0  501  0.00000000000E+00  0.00000000000E+00 -0.55408689387E+02  0.55423242052E+02  0.12699999809E+01 0.  1.
    10030    2    1    2    0    0  0.00000000000E+00  0.00000000000E+00  0.10670614899E+04  0.11778941398E+04  0.49881297231E+03 0.  0.
        5    1    3    3  502    0  0.10631492646E+03  0.14215259104E+03  0.94708690156E+03  0.96359011610E+03  0.46999998093E+01 0. -1.
       -5    1    3    3    0  502 -0.10631492646E+03 -0.14215259104E+03  0.11997458833E+03  0.21430402369E+03  0.46999998093E+01 0.  1.
</event>
<event>
 5   0  0.1782124E-01  0.4946415E+03  0.7818609E-02  0.1015187E+00
       -2   -1    0    0    0  501  0.00000000000E+00  0.00000000000E+00  0.30986998000E+02  0.30986998105E+02  0.25500000920E-02 0.  1.
        2   -1    0    0  501    0  0.00000000000E+00  0.00000000000E+00 -0.19739748982E+04  0.19739748982E+04  0.25500000920E-02 0. -1.
    10030    2    1    2    0    0  0.00000000000E+00  0.00000000000E+00 -0.19429879002E+04  0.20049618963E+04  0.49464151192E+03 0.  0.
        3    1    3    3  502    0  0.12167164604E+03 -0.10768136454E+03 -0.17272944385E+04  0.17349194083E+04  0.10100000352E+00 0. -1.
       -3    1    3    3    0  502 -0.12167164604E+03  0.10768136454E+03 -0.21569346165E+03  0.27004248799E+03  0.10100000352E+00 0.  1.
</event>
<event>
 5   0  0.1074281E-01  0.4694928E+03  0.7818609E-02  0.1022063E+00
        1   -1    0    0  501    0  0.00000000000E+00  0.00000000000E+00  0.10858367162E+04  0.10858367162E+04  0.50400001928E-02 0. -1.
       -1   -1    0    0    0  501  0.00000000000E+00  0.00000000000E+00 -0.50749693686E+02  0.50749693936E+02  0.50400001928E-02 0.  1.
    10030    2    1    2    0    0  0.00000000000E+00  0.00000000000E+00  0.10350870225E+04  0.11365864102E+04  0.46949283653E+03 0.  0.
        4    1    3    3  502    0  0.13647559109E+03  0.14850050723E+02  0.97851742698E+03  0.98810124925E+03  0.12699999809E+01 0. -1.
       -4    1    3    3    0  502 -0.13647559109E+03 -0.14850050723E+02  0.56569595544E+02  0.14848516091E+03  0.12699999809E+01 0.  1.
</event>
<event>
 5   0  0.1147245E-01  0.4907234E+03  0.7818609E-02  0.1016229E+00
        1   -1    0    0  501    0  0.00000000000E+00  0.00000000000E+00  0.46897630492E+02  0.46897630762E+02  0.50400001928E-02 0. -1.
       -1   -1    0    0    0  501  0.00000000000E+00  0.00000000000E+00 -0.12836971584E+04  0.12836971584E+04  0.50400001928E-02 0.  1.
    10030    2    1    2    0    0  0.00000000000E+00  0.00000000000E+00 -0.12367995279E+04  0.13305947891E+04  0.49072336477E+03 0.  0.
        1    1    3    3  502    0 -0.87463413156E+02  0.15063657633E+03 -0.10869565037E+04  0.11008249941E+04  0.50400001928E-02 0.  1.
       -1    1    3    3    0  502  0.87463413156E+02 -0.15063657633E+03 -0.14984302416E+03  0.22976979498E+03  0.50400001928E-02 0. -1.
</event>
<event>
 5   0  0.1123271E-01  0.5199728E+03  0.7818609E-02  0.1008693E+00
       -1   -1    0    0    0  501  0.00000000000E+00  0.00000000000E+00  0.69249202339E+02  0.69249202522E+02  0.50400001928E-02 0.  1.
        1   -1    0    0  501    0  0.00000000000E+00  0.00000000000E+00 -0.97608234675E+03  0.97608234677E+03  0.50400001928E-02 0. -1.
    10030    2    1    2    0    0  0.00000000000E+00  0.00000000000E+00 -0.90683314441E+03  0.10453315493E+04  0.51997278403E+03 0.  0.
        5    1    3    3  502    0  0.23707841841E+03 -0.81522762021E+02 -0.31531949623E+03  0.40286550101E+03  0.46999998093E+01 0.  1.
       -5    1    3    3    0  502 -0.23707841841E+03  0.81522762021E+02 -0.59151364818E+03  0.64246604828E+03  0.46999998093E+01 0. -1.
</event>
<event>
 5   0  0.1709372E-01  0.5037543E+03  0.7818609E-02  0.1012804E+00
        2   -1    0    0  501    0  0.00000000000E+00  0.00000000000E+00  0.57360582029E+03  0.57360582030E+03  0.25500000920E-02 0. -1.
       -2   -1    0    0    0  501  0.00000000000E+00  0.00000000000E+00 -0.11060227209E+03  0.11060227212E+03  0.25500000920E-02 0.  1.
    10030    2    1    2    0    0  0.00000000000E+00  0.00000000000E+00  0.46300354820E+03  0.68420809242E+03  0.50375433307E+03 0.  0.
        4    1    3    3  502    0  0.20549206528E+03  0.11618558368E+03  0.35079641149E+03  0.42283071549E+03  0.12699999809E+01 0. -1.
       -4    1    3    3    0  502 -0.20549206528E+03 -0.11618558368E+03  0.11220713671E+03  0.26137737694E+03  0.12699999809E+01 0.  1.
</event>
<event>
 5   0  0.1068522E-01  0.5014080E+03  0.7818609E-02  0.1013412E+00
        1   -1    0    0  501    0  0.00000000000E+00  0.00000000000E+00  0.30134095573E+03  0.30134095578E+03  0.50400001928E-02 0. -1.
       -1   -1    0    0    0  501  0.00000000000E+00  0.00000000000E+00 -0.20857601343E+03  0.20857601349E+03  0.50400001928E-02 0.  1.
    10030    2    1    2    0    0  0.00000000000E+00  0.00000000000E+00  0.92764942304E+02  0.50991696927E+03  0.50140799856E+03 0.  0.
        2    1    3    3  502    0 -0.15450473543E+02 -0.11725636298E+03  0.27118745227E+03  0.29585538032E+03  0.25500000920E-02 0. -1.
       -2    1    3    3    0  502  0.15450473543E+02  0.11725636298E+03 -0.17842250997E+03  0.21406158894E+03  0.25500000920E-02 0.  1.
</event>
<event>
 5   0  0.1683148E-01  0.5117188E+03  0.7818609E-02  0.1010765E+00
       -2   -1    0    0    0  501  0.00000000000E+00  0.00000000000E+00  0.39792407490E+02  0.39792407571E+02  0.25500000920E-02 0.  1.
        2   -1    0    0  501    0  0.00000000000E+00  0.00000000000E+00 -0.16451386537E+04  0.16451386537E+04  0.25500000920E-02 0. -1.
    10030    2    1    2    0    0  0.00000000000E+00  0.00000000000E+00 -0.16053462462E+04  0.16849310613E+04  0.51171878119E+03 0.  0.
        2    1    3    3  502    0  0.25102221676E+03  0.37453630009E+02 -0.69602352290E+03  0.74085334051E+03  0.25500000920E-02 0.  1.
       -2    1    3    3    0  502 -0.25102221676E+03 -0.37453630009E+02 -0.90932272330E+03  0.94407772075E+03  0.25500000920E-02 0. -1.
</event>
<event>
 5   0  0.7220250E-02  0.5035415E+03  0.7818609E-02  0.1012859E+00
        3   -1    0    0  501    0  0.00000000000E+00  0.00000000000E+00  0.44135862916E+03  0.44135864072E+03  0.10100000352E+00 0. -1.
       -3   -1    0    0    0  501  0.00000000000E+00  0.00000000000E+00 -0.14362129201E+03  0.14362132752E+03  0.10100000352E+00 0.  1.
    10030    2    1    2    0    0  0.00000000000E+00  0.00000000000E+00  0.29773733716E+03  0.58497996824E+03  0.50354149909E+03 0.  0.
        4    1    3    3  502    0  0.11867828443E+02  0.15814712246E+03  0.37603258033E+03  0.40810963241E+03  0.12699999809E+01 0. -1.
       -4    1    3    3    0  502 -0.11867828443E+02 -0.15814712246E+03 -0.78295243174E+02  0.17687033583E+03  0.12699999809E+01 0.  1.
</event>
<event>
 5   0  0.7220250E-02  0.4957278E+03  0.7818609E-02  0.1014900E+00
       -3   -1    0    0    0  501  0.00000000000E+00  0.00000000000E+00  0.77086584255E+03  0.77086584917E+03  0.10100000352E+00 0. -1.
        3   -1    0    0  501    0  0.00000000000E+00  0.00000000000E+00 -0.79698022756E+02  0.79698086754E+02  0.10100000352E+00 0.  1.
    10030    2    1    2    0    0  0.00000000000E+00  0.00000000000E+00  0.69116781980E+03  0.85056393592E+03  0.49572780230E+03 0.  0.
        3    1    3    3  502    0  0.16041736891E+02 -0.15247686062E+03  0.67974428871E+03  0.69682052107E+03  0.10100000352E+00 0. -1.
       -3    1    3    3    0  502 -0.16041736891E+02  0.15247686062E+03  0.11423531082E+02  0.15374341485E+03  0.10100000352E+00 0.  1.
</event>
<event>
 5   0  0.1827698E-01  0.4984898E+03  0.7818609E-02  0.1014174E+00
       -2   -1    0    0    0  501  0.00000000000E+00  0.00000000000E+00  0.35052844149E+03  0.35052844150E+03  0.25500000920E-02 0. -1.
        2   -1    0    0  501    0  0.00000000000E+00  0.00000000000E+00 -0.17722679216E+03  0.17722679217E+03  0.25500000920E-02 0.  1.
    10030    2    1    2    0    0  0.00000000000E+00  0.00000000000E+00  0.17330164934E+03  0.52775523368E+03  0.49848984444E+03 0.  0.
        1    1    3    3  502    0 -0.14838975598E+03 -0.10743196957E+03  0.26557525998E+03  0.32263193658E+03  0.50400001928E-02 0. -1.
       -1    1    3    3    0  502  0.14838975598E+03  0.10743196957E+03 -0.92273610644E+02  0.20512329709E+03  0.50400001928E-02 0.  1.
</event>
<event>
 5   0  0.1760649E-01  0.5027881E+03  0.7818609E-02  0.1013054E+00
       -2   -1    0    0    0  501  0.00000000000E+00  0.00000000000E+00  0.29510024052E+03  0.29510024054E+03  0.25500000920E-02 0. -1.
        2   -1    0    0  501    0  0.00000000000E+00  0.00000000000E+00 -0.21416099254E+03  0.21416099255E+03  0.25500000920E-02 0.  1.
    10030    2    1    2    0    0  0.00000000000E+00  0.00000000000E+00  0.80939247988E+02  0.50926123309E+03  0.50278806834E+03 0.  0.
        5    1    3    3  502    0  0.23243998457E+02 -0.24652084255E+03  0.84200253684E+02  0.26158092819E+03  0.46999998093E+01 0.  1.
       -5    1    3    3    0  502 -0.23243998457E+02  0.24652084255E+03 -0.32610056967E+01  0.24768030489E+03  0.46999998093E+01 0. -1.
</event>
<event>
 5   0  0.7220250E-02  0.5315437E+03  0.7818609E-02  0.1005858E+00
        4   -1    0    0  501    0  0.00000000000E+00  0.00000000000E+00  0.15215899630E+03  0.15216429626E+03  0.12699999809E+01 0. -1.
       -4   -1    0    0    0  501  0.00000000000E+00  0.00000000000E+00 -0.46420201108E+03  0.46420374835E+03  0.12699999809E+01 0.  1.
    10030    2    1    2    0    0  0.00000000000E+00  0.00000000000E+00 -0.31204301477E+03  0.61636804461E+03  0.53154371725E+03 0.  0.
        3    1    3    3  502    0 -0.50704373665E+02 -0.20011432411E+03 -0.35011887602E+03  0.40644792258E+03  0.10100000352E+00 0.  1.
       -3    1    3    3    0  502  0.50704373665E+02  0.20011432411E+03  0.38075861243E+02  0.20992012203E+03  0.10100000352E+00 0. -1.
</event>
<event>
 5   0  0.1074281E-01  0.5060029E+03  0.7818609E-02  0.1012224E+00
       -1   -1    0    0    0  501  0.00000000000E+00  0.00000000000E+00  0.58160531144E+02  0.58160531362E+02  0.50400001928E-02 0.  1.
        1   -1    0    0  501    0  0.00000000000E+00  0.00000000000E+00 -0.11005698834E+04  0.11005698834E+04  0.50400001928E-02 0. -1.
    10030    2    1    2    0    0  0.00000000000E+00  0.00000000000E+00 -0.10424093523E+04  0.11587304148E+04  0.50600288187E+03 0.  0.
        4    1    3    3  502    0 -0.23353520578E+02 -0.22029153804E+03 -0.80105308003E+03  0.83112056801E+03  0.12699999809E+01 0. -1.
       -4    1    3    3    0  502  0.23353520578E+02  0.22029153804E+03 -0.24135627226E+03  0.32760984679E+03  0.12699999809E+01 0.  1.
</event>
<event>
 5   0  0.1709372E-01  0.4907204E+03  0.7818609E-02  0.1016230E+00
       -2   -1    0    0    0  501  0.00000000000E+00  0.00000000000E+00  0.72823703675E+02  0.72823703720E+02  0.25500000920E-02 0.  1.
        2   -1    0    0  501    0  0.00000000000E+00  0.00000000000E+00 -0.82667632237E+03  0.82667632237E+03  0.25500000920E-02 0. -1.
    10030    2    1    2    0    0  0.00000000000E+00  0.00000000000E+00 -0.75385261869E+03  0.89950002609E+03  0.49072041554E+03 0.  0.
        4    1    3    3  502    0  0.96897493487E+02 -0.90767296192E+02  0.12811252906E+01  0.13278207893E+03  0.12699999809E+01 0.  1.
       -4    1    3    3    0  502 -0.96897493487E+02  0.90767296192E+02 -0.75513374398E+03  0.76671794716E+03  0.12699999809E+01 0. -1.
</event>
<event>
 5   0  0.1782124E-01  0.5101918E+03  0.7818609E-02  0.1011152E+00
        2   -1    0    0  501    0  0.00000000000E+00  0.00000000000E+00  0.11401335062E+04  0.11401335062E+04  0.25500000920E-02 0. -1.
       -2   -1    0    0    0  501  0.00000000000E+00  0.00000000000E+00 -0.57075711308E+02  0.57075711365E+02  0.25500000920E-02 0.  1.
    10030    2    1    2    0    0  0.00000000000E+00  0.00000000000E+00  0.10830577949E+04  0.11972092176E+04  0.51019184975E+03 0.  0.
        3    1    3    3  502    0  0.14067740517E+02  0.14561815709E+03  0.10319113845E+04  0.10422301400E+04  0.10100000352E+00 0. -1.
       -3    1    3    3    0  502 -0.14067740517E+02 -0.14561815709E+03  0.51146410404E+02  0.15497907761E+03  0.10100000352E+00 0.  1.
</event>
<event>
 5   0  0.1147245E-01  0.4909340E+03  0.7818609E-02  0.1016173E+00
        1   -1    0    0  501    0  0.00000000000E+00  0.00000000000E+00  0.19293826674E+03  0.19293826680E+03  0.50400001928E-02 0. -1.
       -1   -1    0    0    0  501  0.00000000000E+00  0.00000000000E+00 -0.31229702908E+03  0.31229702912E+03  0.50400001928E-02 0.  1.
    10030    2    1    2    0    0  0.00000000000E+00  0.00000000000E+00 -0.11935876234E+03  0.50523529592E+03  0.49093399770E+03 0.  0.
        1    1    3    3  502    0  0.22575783967E+03  0.18949035517E+02  0.37563292738E+02  0.22964465835E+03  0.50400001928E-02 0. -1.
       -1    1    3    3    0  502 -0.22575783967E+03 -0.18949035517E+02 -0.15692205508E+03  0.27559063757E+03  0.50400001928E-02 0.  1.
</event>
<event>
 5   0  0.1147245E-01  0.5005638E+03  0.7818609E-02  0.1013632E+00
       -1   -1    0    0    0  501  0.00000000000E+00  0.00000000000E+00  0.94969620658E+02  0.94969620792E+02  0.50400001928E-02 0.  1.
        1   -1    0    0  501    0  0.00000000000E+00  0.00000000000E+00 -0.65959015867E+03  0.65959015869E+03  0.50400001928E-02 0. -1.
    10030    2    1    2    0    0  0.00000000000E+00  0.00000000000E+00 -0.56462053801E+03  0.75455977948E+03  0.50056379100E+03 0.  0.
        1    1    3    3  502    0  0.22292172209E+03 -0.83235450205E+02 -0.16536331387E+03  0.28977104747E+03  0.50400001928E-02 0.  1.
       -1    1    3    3    0  502 -0.22292172209E+03  0.83235450205E+02 -0.39925722414E+03  0.46478873201E+03  0.50400001928E-02 0. -1.
</event>
<event>
 5   0  0.1068522E-01  0.4931087E+03  0.7818609E-02  0.1015593E+00
        1   -1    0    0  501    0  0.00000000000E+00  0.00000000000E+00  0.98931476771E+02  0.98931476900E+02  0.50400001928E-02 0.  1.
       -1   -1    0    0    0  501  0.00000000000E+00  0.00000000000E+00 -0.61445616108E+03  0.61445616110E+03  0.50400001928E-02 0. -1.
    10030    2    1    2    0    0  0.00000000000E+00  0.00000000000E+00 -0.51552468431E+03  0.71338763800E+03  0.49310873235E+03 0.  0.
        2    1    3    3  502    0  0.19700645626E+03 -0.10067668673E+03 -0.41519332768E+03  0.47046024106E+03  0.25500000920E-02 0. -1.
       -2    1    3    3    0  502 -0.19700645626E+03  0.10067668673E+03 -0.10033135663E+03  0.24292739694E+03  0.25500000920E-02 0.  1.
</event>
<event>
 5   0  0.1068522E-01  0.4747583E+03  0.7818609E-02  0.1020586E+00
        1   -1    0    0  501    0  0.00000000000E+00  0.00000000000E+00  0.34740855199E+03  0.34740855203E+03  0.50400001928E-02 0. -1.
       -1   -1    0    0    0  501  0.00000000000E+00  0.00000000000E+00 -0.16219764892E+03  0.16219764900E+03  0.50400001928E-02 0.  1.
    10030    2    1    2    0    0  0.00000000000E+00  0.00000000000E+00  0.18521090307E+03  0.50960620103E+03  0.47475825587E+03 0.  0.
        2    1    3    3  502    0 -0.14131153146E+03  0.17153779349E+03  0.18212151350E+03  0.28733675227E+03  0.25500000920E-02 0. -1.
       -2    1    3    3    0  502  0.14131153146E+03 -0.17153779349E+03  0.30893895686E+01  0.22226944876E+03  0.25500000920E-02 0.  1.
</event>
<event>
 5   0  0.1760649E-01  0.5035399E+03  0.7818609E-02  0.1012859E+00
       -2   -1    0    0    0  501  0.00000000000E+00  0.00000000000E+00  0.20145878960E+03  0.20145878961E+03  0.25500000920E-02 0. -1.
        2   -1    0    0  501    0  0.00000000000E+00  0.00000000000E+00 -0.31464549825E+03  0.31464549826E+03  0.25500000920E-02 0.  1.
    10030    2    1    2    0    0  0.00000000000E+00  0.00000000000E+00 -0.11318670865E+03  0.51610428787E+03  0.50353987423E+03 0.  0.
        5    1    3    3  502    0 -0.63596381527E+02 -0.23852132534E+03 -0.10710892933E+03  0.26913070268E+03  0.46999998093E+01 0.  1.
       -5    1    3    3    0  502  0.63596381527E+02  0.23852132534E+03 -0.60777793237E+01  0.24697358519E+03  0.46999998093E+01 0. -1.
</event>
<event>
 5   0  0.1123271E-01  0.5044018E+03  0.7818609E-02  0.1012636E+00
       -1   -1    0    0    0  501  0.00000000000E+00  0.00000000000E+00  0.11900038847E+03  0.11900038857E+03  0.50400001928E-02 0. -1.
        1   -1    0    0  501    0  0.00000000000E+00  0.00000000000E+00 -0.53449658775E+03  0.53449658778E+03  0.50400001928E-02 0.  1.
    10030    2    1    2    0    0  0.00000000000E+00  0.00000000000E+00 -0.41549619929E+03  0.65349697635E+03  0.50440183037E+03 0.  0.
        5    1    3    3  502    0  0.24401299170E+02  0.23847858056E+03 -0.10642885058E+03  0.26232927214E+03  0.46999998093E+01 0. -1.
       -5    1    3    3    0  502 -0.24401299170E+02 -0.23847858056E+03 -0.30906734871E+03  0.39116770422E+03  0.46999998093E+01 0.  1.
</event>
<event>
 5   0  0.1147245E-01  0.4994019E+03  0.7818609E-02  0.1013935E+00
        1   -1    0    0  501    0  0.00000000000E+00  0.00000000000E+00  0.20686867154E+04  0.20686867154E+04  0.50400001928E-02 0.  1.
       -1   -1    0    0    0  501  0.00000000000E+00  0.00000000000E+00 -0.30140170587E+02  0.30140171008E+02  0.50400001928E-02 0. -1.
    10030    2    1    2    0    0  0.00000000000E+00  0.00000000000E+00  0.20385465448E+04  0.20988268864E+04  0.49940192607E+03 0.  0.
        1    1    3    3  502    0  0.20161134164E+03 -0.13840757809E+03  0.12313642214E+04  0.12554129347E+04  0.50400001928E-02 0.  1.
       -1    1    3    3    0  502 -0.20161134164E+03  0.13840757809E+03  0.80718232336E+03  0.84341395170E+03  0.50400001928E-02 0. -1.
</event>
<event>
 5   0  0.1141970E-01  0.4973343E+03  0.7818609E-02  0.1014477E+00
       -1   -1    0    0    0  501  0.00000000000E+00  0.00000000000E+00  0.57300103750E+02  0.57300103971E+02  0.50400001928E-02 0. -1.
        1   -1    0    0  501    0  0.00000000000E+00  0.00000000000E+00 -0.10791488867E+04  0.10791488867E+04  0.50400001928E-02 0.  1.
    10030    2    1    2    0    0  0.00000000000E+00  0.00000000000E+00 -0.10218487829E+04  0.11364489906E+04  0.49733426707E+03 0.  0.
        3    1    3    3  502    0 -0.31225359127E+02 -0.19288276068E+03 -0.86238549963E+03  0.88424405148E+03  0.10100000352E+00 0.  1.
       -3    1    3    3    0  502  0.31225359127E+02  0.19288276068E+03 -0.15946328328E+03  0.25220493916E+03  0.10100000352E+00 0. -1.
</event>
<event>
 5   0  0.1074281E-01  0.5095500E+03  0.7818609E-02  0.1011316E+00
       -1   -1    0    0    0  501  0.00000000000E+00  0.00000000000E+00  0.63206902655E+02  0.63206902856E+02  0.50400001928E-02 0.  1.
        1   -1    0    0  501    0  0.00000000000E+00  0.00000000000E+00 -0.10269494104E+04  0.10269494104E+04  0.50400001928E-02 0. -1.
    10030    2    1    2    0    0  0.00000000000E+00  0.00000000000E+00 -0.96374250775E+03  0.10901563133E+04  0.50954996431E+03 0.  0.
        4    1    3    3  502    0  0.11841440117E+03 -0.37614012953E+02 -0.60089876689E+01  0.12439656429E+03  0.12699999809E+01 0.  1.
       -4    1    3    3    0  502 -0.11841440117E+03  0.37614012953E+02 -0.95773352008E+03  0.96575974898E+03  0.12699999809E+01 0. -1.
</event>
<event>
 5   0  0.1683148E-01  0.5183199E+03  0.7818609E-02  0.1009105E+00
       -2   -1    0    0    0  501  0.00000000000E+00  0.00000000000E+00  0.85334175427E+03  0.85334175427E+03  0.25500000920E-02 0. -1.
        2   -1    0    0  501    0  0.00000000000E+00  0.00000000000E+00 -0.78706894521E+02  0.78706894562E+02  0.25500000920E-02 0.  1.
    10030    2    1    2    0    0  0.00000000000E+00  0.00000000000E+00  0.77463485975E+03  0.93204864884E+03  0.51831989915E+03 0.  0.
        2    1    3    3  502    0  0.20178138209E+03  0.77309588330E+02  0.13003254796E+03  0.25219231182E+03  0.25500000920E-02 0.  1.
       -2    1    3    3    0  502 -0.20178138209E+03 -0.77309588330E+02  0.64460231179E+03  0.67985633701E+03  0.25500000920E-02 0. -1.
</event>
<event>
 5   0  0.1827698E-01  0.4712815E+03  0.7818609E-02  0.1021559E+00
        2   -1    0    0  501    0  0.00000000000E+00  0.00000000000E+00  0.91758789051E+02  0.91758789086E+02  0.25500000920E-02 0. -1.
       -2   -1    0    0    0  501  0.00000000000E+00  0.00000000000E+00 -0.60513630423E+03  0.60513630423E+03  0.25500000920E-02 0.  1.
    10030    2    1    2    0    0  0.00000000000E+00  0.00000000000E+00 -0.51337751518E+03  0.69689509332E+03  0.47128154855E+03 0.  0.
        1    1    3    3  502    0  0.19977602570E+03  0.14779521761E+02 -0.73197823478E+02  0.21327638429E+03  0.50400001928E-02 0. -1.
       -1    1    3    3    0  502 -0.19977602570E+03 -0.14779521761E+02 -0.44017969170E+03  0.48361870903E+03  0.50400001928E-02 0.  1.
</event>
<event>
 5   0  0.1123271E-01  0.4406719E+03  0.7818609E-02  0.1030541E+00
       -1   -1    0    0    0  501  0.00000000000E+00  0.00000000000E+00  0.47784283420E+02  0.47784283685E+02  0.50400001928E-02 0. -1.
        1   -1    0    0  501    0  0.00000000000E+00  0.00000000000E+00 -0.10159809101E+04  0.10159809101E+04  0.50400001928E-02 0.  1.
    10030    2    1    2    0    0  0.00000000000E+00  0.00000000000E+00 -0.96819662665E+03  0.10637651938E+04  0.44067185026E+03 0.  0.
        5    1    3    3  502    0 -0.11306690616E+03  0.79728440283E+02 -0.70295052028E+02  0.15525538250E+03  0.46999998093E+01 0. -1.
       -5    1    3    3    0  502  0.11306690616E+03 -0.79728440283E+02 -0.89790157462E+03  0.90850981127E+03  0.46999998093E+01 0.  1.
</event>
<event>
 5   0  0.1068522E-01  0.4914882E+03  0.7818609E-02  0.1016025E+00
        1   -1    0    0  501    0  0.00000000000E+00  0.00000000000E+00  0.17579880456E+03  0.17579880463E+03  0.50400001928E-02 0. -1.
       -1   -1    0    0    0  501  0.00000000000E+00  0.00000000000E+00 -0.34351861466E+03  0.34351861470E+03  0.50400001928E-02 0.  1.
    10030    2    1    2    0    0  0.00000000000E+00  0.00000000000E+00 -0.16771981010E+03  0.51931741933E+03  0.49148819652E+03 0.  0.
        2    1    3    3  502    0  0.23843534054E+03 -0.43151226675E+02 -0.12712626001E+03  0.27363209967E+03  0.25500000920E-02 0. -1.
       -2    1    3    3    0  502 -0.23843534054E+03  0.43151226675E+02 -0.40593550088E+02  0.24568531966E+03  0.25500000920E-02 0.  1.
</event>
<event>
 5   0  0.1141970E-01  0.5123450E+03  0.7818609E-02  0.1010606E+00
        1   -1    0    0  501    0  0.00000000000E+00  0.00000000000E+00  0.91242514236E+03  0.91242514238E+03  0.50400001928E-02 0.  1.
       -1   -1    0    0    0  501  0.00000000000E+00  0.00000000000E+00 -0.71923002486E+02  0.71923002662E+02  0.50400001928E-02 0. -1.
    10030    2    1    2    0    0  0.00000000000E+00  0.00000000000E+00  0.84050213988E+03  0.98434814504E+03  0.51234502389E+03 0.  0.
        3    1    3    3  502    0  0.21698756274E+03 -0.45109190935E+02  0.17341656782E+03  0.28141030131E+03  0.10100000352E+00 0. -1.
       -3    1    3    3    0  502 -0.21698756274E+03  0.45109190935E+02  0.66708557206E+03  0.70293784373E+03  0.10100000352E+00 0.  1.
</event>
<event>
 5   0  0.1683148E-01  0.5037617E+03  0.7818609E-02  0.1012802E+00
        2   -1    0    0  501    0  0.00000000000E+00  0.00000000000E+00  0.80354761017E+02  0.80354761058E+02  0.25500000920E-02 0.  1.
       -2   -1    0    0    0  501  0.00000000000E+00  0.00000000000E+00 -0.78954840660E+03  0.78954840660E+03  0.25500000920E-02 0. -1.
    10030    2    1    2    0    0  0.00000000000E+00  0.00000000000E+00 -0.70919364558E+03  0.86990316766E+03  0.50376174346E+03 0.  0.
        2    1    3    3  502    0  0.16131599246E+03  0.16138833091E+03 -0.17042630470E+03  0.28480549173E+03  0.25500000920E-02 0.  1.
       -2    1    3    3    0  502 -0.16131599246E+03 -0.16138833091E+03 -0.53876734088E+03  0.58509767593E+03  0.25500000920E-02 0. -1.
</event>
<event>
 5   0  0.1827698E-01  0.4891314E+03  0.7818609E-02  0.1016655E+00
        2   -1    0    0  501    0  0.00000000000E+00  0.00000000000E+00  0.33046439134E+03  0.33046439135E+03  0.25500000920E-02 0. -1.
       -2   -1    0    0    0  501  0.00000000000E+00  0.00000000000E+00 -0.18099490973E+03  0.18099490975E+03  0.25500000920E-02 0.  1.
    10030    2    1    2    0    0  0.00000000000E+00  0.00000000000E+00  0.14946948161E+03  0.51145930111E+03  0.48913136350E+03 0.  0.
        1    1    3    3  502    0 -0.23880135062E+03  0.20171510842E+02  0.12574048562E+03  0.27063563079E+03  0.50400001928E-02 0. -1.
       -1    1    3    3    0  502  0.23880135062E+03 -0.20171510842E+02  0.23728995994E+02  0.24082367031E+03  0.50400001928E-02 0.  1.
</event>
<event>
 5   0  0.1074281E-01  0.5451253E+03  0.7818609E-02  0.1002629E+00
       -1   -1    0    0    0  501  0.00000000000E+00  0.00000000000E+00  0.10691476038E+03  0.10691476050E+03  0.50400001928E-02 0. -1.
        1   -1    0    0  501    0  0.00000000000E+00  0.00000000000E+00 -0.69485628800E+03  0.69485628802E+03  0.50400001928E-02 0.  1.
    10030    2    1    2    0    0  0.00000000000E+00  0.00000000000E+00 -0.58794152762E+03  0.80177104852E+03  0.54512528317E+03 0.  0.
        4    1    3    3  502    0  0.13112706258E+03 -0.22928970972E+03 -0.39286182574E+03  0.47340268752E+03  0.12699999809E+01 0.  1.
       -4    1    3    3    0  502 -0.13112706258E+03  0.22928970972E+03 -0.19507970187E+03  0.32836836100E+03  0.12699999809E+01 0. -1.
</event>
<event>
 5   0  0.1683148E-01  0.4988586E+03  0.7818609E-02  0.1014077E+00
        2   -1    0    0  501    0  0.00000000000E+00  0.00000000000E+00  0.40293331655E+03  0.40293331655E+03  0.25500000920E-02 0. -1.
       -2   -1    0    0    0  501  0.00000000000E+00  0.00000000000E+00 -0.15440515468E+03  0.15440515470E+03  0.25500000920E-02 0.  1.
    10030    2    1    2    0    0  0.00000000000E+00  0.00000000000E+00  0.24852816187E+03  0.55733847125E+03  0.49885862155E+03 0.  0.
        2    1    3    3  502    0 -0.20733270786E+03  0.12007605883E+03  0.20174739405E+03  0.31322056552E+03  0.25500000920E-02 0. -1.
       -2    1    3    3    0  502  0.20733270786E+03 -0.12007605883E+03  0.46780767817E+02  0.24411790573E+03  0.25500000920E-02 0.  1.
</event>
<event>
 5   0  0.1068522E-01  0.5001038E+03  0.7818609E-02  0.1013752E+00
       -1   -1    0    0    0  501  0.00000000000E+00  0.00000000000E+00  0.29424658186E+02  0.29424658617E+02  0.50400001928E-02 0.  1.
        1   -1    0    0  501    0  0.00000000000E+00  0.00000000000E+00 -0.21249504473E+04  0.21249504473E+04  0.50400001928E-02 0. -1.
    10030    2    1    2    0    0  0.00000000000E+00  0.00000000000E+00 -0.20955257891E+04  0.21543751059E+04  0.50010375341E+03 0.  0.
        2    1    3    3  502    0  0.15651805404E+03 -0.48307078607E+02 -0.18616452857E+04  0.18688377792E+04  0.25500000920E-02 0. -1.
       -2    1    3    3    0  502 -0.15651805404E+03  0.48307078607E+02 -0.23388050341E+03  0.28553732675E+03  0.25500000920E-02 0.  1.
</event>
<event>
 5   0  0.7220250E-02  0.4991876E+03  0.7818609E-02  0.1013991E+00
       -3   -1    0    0    0  501  0.00000000000E+00  0.00000000000E+00  0.87144611456E+03  0.87144612042E+03  0.10100000352E+00 0.  1.
        3   -1    0    0  501    0  0.00000000000E+00  0.00000000000E+00 -0.71486961407E+02  0.71487032755E+02  0.10100000352E+00 0. -1.
    10030    2    1    2    0    0  0.00000000000E+00  0.00000000000E+00  0.79995915316E+03  0.94293315317E+03  0.49918762468E+03 0.  0.
        2    1    3    3  502    0  0.14004176951E+03  0.17475348811E+03  0.19179702683E+03  0.29485009466E+03  0.25500000920E-02 0. -1.
       -2    1    3    3    0  502 -0.14004176951E+03 -0.17475348811E+03  0.60816212633E+03  0.64808305851E+03  0.25500000920E-02 0.  1.
</event>
<event>
 5   0  0.1147245E-01  0.5085403E+03  0.7818609E-02  0.1011574E+00
       -1   -1    0    0    0  501  0.00000000000E+00  0.00000000000E+00  0.54690118454E+03  0.54690118456E+03  0.50400001928E-02 0. -1.
        1   -1    0    0  501    0  0.00000000000E+00  0.00000000000E+00 -0.11821753766E+03  0.11821753776E+03  0.50400001928E-02 0.  1.
    10030    2    1    2    0    0  0.00000000000E+00  0.00000000000E+00  0.42868364688E+03  0.66511872232E+03  0.50854030881E+03 0.  0.
        1    1    3    3  502    0  0.17395056560E+03  0.69197984901E+02 -0.10700791428E+02  0.18751444571E+03  0.50400001928E-02 0.  1.
       -1    1    3    3    0  502 -0.17395056560E+03 -0.69197984901E+02  0.43938443831E+03  0.47760427662E+03  0.50400001928E-02 0. -1.
</event>
<event>
 5   0  0.1760649E-01  0.4849080E+03  0.7818609E-02  0.1017795E+00
        2   -1    0    0  501    0  0.00000000000E+00  0.00000000000E+00  0.10685097150E+04  0.10685097150E+04  0.25500000920E-02 0. -1.
       -2   -1    0    0    0  501  0.00000000000E+00  0.00000000000E+00 -0.55014882191E+02  0.55014882250E+02  0.25500000920E-02 0.  1.
    10030    2    1    2    0    0  0.00000000000E+00  0.00000000000E+00  0.10134948328E+04  0.11235245973E+04  0.48490797529E+03 0.  0.
        5    1    3    3  502    0 -0.97092994839E+02  0.15767374171E+03  0.14427592761E+03  0.23478861079E+03  0.46999998093E+01 0.  1.
       -5    1    3    3    0  502  0.97092994839E+02 -0.15767374171E+03  0.86921890520E+03  0.88873598646E+03  0.46999998093E+01 0. -1.
</event>
<event>
 5   0  0.1683148E-01  0.4317629E+03  0.7818609E-02  0.1033305E+00
        2   -1    0    0  501    0  0.00000000000E+00  0.00000000000E+00  0.41627202024E+03  0.41627202024E+03  0.25500000920E-02 0. -1.
       -2   -1    0    0    0  501  0.00000000000E+00  0.00000000000E+00 -0.11195754476E+03  0.11195754479E+03  0.25500000920E-02 0.  1.
    10030    2    1    2    0    0  0.00000000000E+00  0.00000000000E+00  0.30431447548E+03  0.52822956503E+03  0.43176286708E+03 0.  0.
        2    1    3    3  502    0 -0.15499570185E+03  0.56264081200E+01 -0.31558168953E+02  0.15827584179E+03  0.25500000920E-02 0.  1.
       -2    1    3    3    0  502  0.15499570185E+03 -0.56264081200E+01  0.33587264443E+03  0.36995372324E+03  0.25500000920E-02 0. -1.
</event>
<event>
 5   0  0.1123271E-01  0.5301763E+03  0.7818609E-02  0.1006189E+00
       -1   -1    0    0    0  501  0.00000000000E+00  0.00000000000E+00  0.19592969330E+03  0.19592969337E+03  0.50400001928E-02 0. -1.
        1   -1    0    0  501    0  0.00000000000E+00  0.00000000000E+00 -0.35865785265E+03  0.35865785269E+03  0.50400001928E-02 0.  1.
    10030    2    1    2    0    0  0.00000000000E+00  0.00000000000E+00 -0.16272815935E+03  0.55458754605E+03  0.53017628426E+03 0.  0.
        5    1    3    3  502    0  0.76889447209E+02 -0.41874879358E+02 -0.34305096718E+03  0.35407844991E+03  0.46999998093E+01 0.  1.
       -5    1    3    3    0  502 -0.76889447209E+02  0.41874879358E+02  0.18032280783E+03  0.20050909614E+03  0.46999998093E+01 0. -1.
</event>
<event>
 5   0  0.7220250E-02  0.4983978E+03  0.7818609E-02  0.1014198E+00
        3   -1    0    0  501    0  0.00000000000E+00  0.00000000000E+00  0.18644075367E+03  0.18644078103E+03  0.10100000352E+00 0.  1.
       -3   -1    0    0    0  501  0.00000000000E+00  0.00000000000E+00 -0.33308206130E+03  0.33308207661E+03  0.10100000352E+00 0. -1.
    10030    2    1    2    0    0  0.00000000000E+00  0.00000000000E+00 -0.14664130762E+03  0.51952285764E+03  0.49839775934E+03 0.  0.
        3    1    3    3  502    0  0.12724436011E+03  0.68955427447E+02 -0.28478399879E+03  0.31944939243E+03  0.10100000352E+00 0. -1.
       -3    1    3    3    0  502 -0.12724436011E+03 -0.68955427447E+02  0.13814269117E+03  0.20007346521E+03  0.10100000352E+00 0.  1.
</event>
<event>
 5   0  0.1123271E-01  0.5005368E+03  0.7818609E-02  0.1013639E+00
       -1   -1    0    0    0  501  0.00000000000E+00  0.00000000000E+00  0.95603863223E+02  0.95603863356E+02  0.50400001928E-02 0.  1.
        1   -1    0    0  501    0  0.00000000000E+00  0.00000000000E+00 -0.65514373999E+03  0.65514374001E+03  0.50400001928E-02 0. -1.
    10030    2    1    2    0    0  0.00000000000E+00  0.00000000000E+00 -0.55953987677E+03  0.75074760337E+03  0.50053680211E+03 0.  0.
        5    1    3    3  502    0 -0.95432456200E+02 -0.55245660991E+02 -0.61666942049E+03  0.62646843569E+03  0.46999998093E+01 0. -1.
       -5    1    3    3    0  502  0.95432456200E+02  0.55245660991E+02  0.57129543719E+02  0.12427916768E+03  0.46999998093E+01 0.  1.
</event>
<event>
 5   0  0.7220250E-02  0.5162161E+03  0.7818609E-02  0.1009631E+00
        4   -1    0    0  501    0  0.00000000000E+00  0.00000000000E+00  0.71921156639E+03  0.71921268768E+03  0.12699999809E+01 0. -1.
       -4   -1    0    0    0  501  0.00000000000E+00  0.00000000000E+00 -0.92623327267E+02  0.92632033628E+02  0.12699999809E+01 0.  1.
    10030    2    1    2    0    0  0.00000000000E+00  0.00000000000E+00  0.62658823912E+03  0.81184472131E+03  0.51621606922E+03 0.  0.
        5    1    3    3  502    0 -0.25565404549E+02  0.31099468623E+02 -0.87591933938E+02  0.96515303178E+02  0.46999998093E+01 0.  1.
       -5    1    3    3    0  502  0.25565404549E+02 -0.31099468623E+02  0.71418017306E+03  0.71532941813E+03  0.46999998093E+01 0. -1.
</event>
<event>
 5   0  0.1074281E-01  0.4829708E+03  0.7818609E-02  0.1018322E+00
        1   -1    0    0  501    0  0.00000000000E+00  0.00000000000E+00  0.45089208415E+03  0.45089208418E+03  0.50400001928E-02 0. -1.
       -1   -1    0    0    0  501  0.00000000000E+00  0.00000000000E+00 -0.12933293830E+03  0.12933293840E+03  0.50400001928E-02 0.  1.
    10030    2    1    2    0    0  0.00000000000E+00  0.00000000000E+00  0.32155914585E+03  0.58022502257E+03  0.48297079885E+03 0.  0.
        4    1    3    3  502    0 -0.32369650507E+02 -0.14139001755E+03  0.39272317127E+03  0.41865502922E+03  0.12699999809E+01 0. -1.
       -4    1    3    3    0  502  0.32369650507E+02  0.14139001755E+03 -0.71164025424E+02  0.16156999335E+03  0.12699999809E+01 0.  1.
</event>
<event>
 5   0  0.1683148E-01  0.5019811E+03  0.7818609E-02  0.1013263E+00
        2   -1    0    0  501    0  0.00000000000E+00  0.00000000000E+00  0.21021321636E+03  0.21021321638E+03  0.25500000920E-02 0.  1.
       -2   -1    0    0    0  501  0.00000000000E+00  0.00000000000E+00 -0.29967793436E+03  0.29967793437E+03  0.25500000920E-02 0. -1.
    10030    2    1    2    0    0  0.00000000000E+00  0.00000000000E+00 -0.89464717993E+02  0.50989115074E+03  0.50198112499E+03 0.  0.
        2    1    3    3  502    0  0.83668316654E+02  0.18584767720E+03 -0.19352097048E+03  0.28105179657E+03  0.25500000920E-02 0.  1.
       -2    1    3    3    0  502 -0.83668316654E+02 -0.18584767720E+03  0.10405625248E+03  0.22883935418E+03  0.25500000920E-02 0. -1.
</event>
<event>
 5   0  0.1147245E-01  0.5084626E+03  0.7818609E-02  0.1011593E+00
       -1   -1    0    0    0  501  0.00000000000E+00  0.00000000000E+00  0.45698046435E+02  0.45698046713E+02  0.50400001928E-02 0. -1.
        1   -1    0    0  501    0  0.00000000000E+00  0.00000000000E+00 -0.14143615543E+04  0.14143615543E+04  0.50400001928E-02 0.  1.
    10030    2    1    2    0    0  0.00000000000E+00  0.00000000000E+00 -0.13686635078E+04  0.14600596010E+04  0.50846262475E+03 0.  0.
        1    1    3    3  502    0  0.23635034596E+03 -0.48987679647E+02 -0.45510831613E+03  0.51515517879E+03  0.50400001928E-02 0.  1.
       -1    1    3    3    0  502 -0.23635034596E+03  0.48987679647E+02 -0.91355519168E+03  0.94490442219E+03  0.50400001928E-02 0. -1.
</event>
<event>
 5   0  0.7220250E-02  0.4970917E+03  0.7818609E-02  0.1014541E+00
       -3   -1    0    0    0  501  0.00000000000E+00  0.00000000000E+00  0.78470412481E+02  0.78470477480E+02  0.10100000352E+00 0. -1.
        3   -1    0    0  501    0  0.00000000000E+00  0.00000000000E+00 -0.78723950073E+03  0.78723950721E+03  0.10100000352E+00 0.  1.
    10030    2    1    2    0    0  0.00000000000E+00  0.00000000000E+00 -0.70876908825E+03  0.86570998469E+03  0.49709169892E+03 0.  0.
        4    1    3    3  502    0 -0.10064176302E+03 -0.15678233389E+03 -0.64088914516E+03  0.66742038774E+03  0.12699999809E+01 0.  1.
       -4    1    3    3    0  502  0.10064176302E+03  0.15678233389E+03 -0.67879943092E+02  0.19828959695E+03  0.12699999809E+01 0. -1.
</event>
<event>
 5   0  0.7220250E-02  0.5103930E+03  0.7818609E-02  0.1011101E+00
        3   -1    0    0  501    0  0.00000000000E+00  0.00000000000E+00  0.16888906465E+03  0.16888909485E+03  0.10100000352E+00 0. -1.
       -3   -1    0    0    0  501  0.00000000000E+00  0.00000000000E+00 -0.38560961650E+03  0.38560962973E+03  0.10100000352E+00 0.  1.
    10030    2    1    2    0    0  0.00000000000E+00  0.00000000000E+00 -0.21672055185E+03  0.55449872457E+03  0.51039302303E+03 0.  0.
        3    1    3    3  502    0 -0.80181623552E+02 -0.19759168601E+03  0.43945995581E+02  0.21772190488E+03  0.10100000352E+00 0. -1.
       -3    1    3    3    0  502  0.80181623552E+02  0.19759168601E+03 -0.26066654743E+03  0.33677681970E+03  0.10100000352E+00 0.  1.
</event>
<event>
 5   0  0.1760649E-01  0.5010568E+03  0.7818609E-02  0.1013503E+00
       -2   -1    0    0    0  501  0.00000000000E+00  0.00000000000E+00  0.61526649842E+02  0.61526649895E+02  0.25500000920E-02 0. -1.
        2   -1    0    0  501    0  0.00000000000E+00  0.00000000000E+00 -0.10201184657E+04  0.10201184657E+04  0.25500000920E-02 0.  1.
    10030    2    1    2    0    0  0.00000000000E+00  0.00000000000E+00 -0.95859181590E+03  0.10816451156E+04  0.50105676992E+03 0.  0.
        5    1    3    3  502    0  0.10705206808E+03 -0.89374443045E+02 -0.30122591109E+02  0.14274941977E+03  0.46999998093E+01 0. -1.
       -5    1    3    3    0  502 -0.10705206808E+03  0.89374443045E+02 -0.92846922479E+03  0.93889569587E+03  0.46999998093E+01 0.  1.
</event>
<event>
 5   0  0.1141970E-01  0.4978911E+03  0.7818609E-02  0.1014331E+00
       -1   -1    0    0    0  501  0.00000000000E+00  0.00000000000E+00  0.16952051053E+03  0.16952051061E+03  0.50400001928E-02 0.  1.
        1   -1    0    0  501    0  0.00000000000E+00  0.00000000000E+00 -0.36558339290E+03  0.36558339293E+03  0.50400001928E-02 0. -1.
    10030    2    1    2    0    0  0.00000000000E+00  0.00000000000E+00 -0.19606288236E+03  0.53510390354E+03  0.49789108623E+03 0.  0.
        3    1    3    3  502    0 -0.47829831985E+00  0.45567428065E+02 -0.36106261564E+03  0.36392697328E+03  0.10100000352E+00 0. -1.
       -3    1    3    3    0  502  0.47829831985E+00 -0.45567428065E+02  0.16499973328E+03  0.17117693026E+03  0.10100000352E+00 0.  1.
</event>
<event>
 5   0  0.1123271E-01  0.4948227E+03  0.7818609E-02  0.1015139E+00
        1   -1    0    0  501    0  0.00000000000E+00  0.00000000000E+00  0.20324488856E+03  0.20324488862E+03  0.50400001928E-02 0. -1.
       -1   -1    0    0    0  501  0.00000000000E+00  0.00000000000E+00 -0.30117545646E+03  0.30117545650E+03  0.50400001928E-02 0.  1.
    10030    2    1    2    0    0  0.00000000000E+00  0.00000000000E+00 -0.97930567900E+02  0.50442034512E+03  0.49482268384E+03 0.  0.
        5    1    3    3  502    0  0.64858948887E+02 -0.37323725902E+02  0.19138433302E+03  0.20554755335E+03  0.46999998093E+01 0. -1.
       -5    1    3    3    0  502 -0.64858948887E+02  0.37323725902E+02 -0.28931490092E+03  0.29887279177E+03  0.46999998093E+01 0.  1.
</event>
<event>
 5   0  0.1123271E-01  0.5000215E+03  0.7818609E-02  0.1013773E+00
       -1   -1    0    0    0  501  0.00000000000E+00  0.00000000000E+00  0.20390008532E+03  0.20390008539E+03  0.50400001928E-02 0.  1.
        1   -1    0    0  501    0  0.00000000000E+00  0.00000000000E+00 -0.30654905641E+03  0.30654905646E+03  0.50400001928E-02 0. -1.
    10030    2    1    2    0    0  0.00000000000E+00  0.00000000000E+00 -0.10264897109E+03  0.51044914184E+03  0.50002151468E+03 0.  0.
        5    1    3    3  502    0 -0.69758104423E+02  0.22133204677E+03  0.43506349690E+02  0.23615452678E+03  0.46999998093E+01 0.  1.
       -5    1    3    3    0  502  0.69758104423E+02 -0.22133204677E+03 -0.14615532078E+03  0.27429461506E+03  0.46999998093E+01 0. -1.
</event>
<event>
 5   0  0.1683148E-01  0.5170960E+03  0.7818609E-02  0.1009410E+00
        2   -1    0    0  501    0  0.00000000000E+00  0.00000000000E+00  0.57634532307E+03  0.57634532308E+03  0.25500000920E-02 0. -1.
       -2   -1    0    0    0  501  0.00000000000E+00  0.00000000000E+00 -0.11598442244E+03  0.11598442247E+03  0.25500000920E-02 0.  1.
    10030    2    1    2    0    0  0.00000000000E+00  0.00000000000E+00  0.46036090063E+03  0.69232974555E+03  0.51709604305E+03 0.  0.
        2    1    3    3  502    0  0.16270103248E+03 -0.86004520112E+02 -0.12960653851E+02  0.18448951733E+03  0.25500000920E-02 0.  1.
       -2    1    3    3    0  502 -0.16270103248E+03  0.86004520112E+02  0.47332155448E+03  0.50784022821E+03  0.25500000920E-02 0. -1.
</event>
<event>
 5   0  0.1123271E-01  0.4978538E+03  0.7818609E-02  0.1014341E+00
       -1   -1    0    0    0  501  0.00000000000E+00  0.00000000000E+00  0.66580484754E+02  0.66580484945E+02  0.50400001928E-02 0.  1.
        1   -1    0    0  501    0  0.00000000000E+00  0.00000000000E+00 -0.93067213773E+03  0.93067213774E+03  0.50400001928E-02 0. -1.
    10030    2    1    2    0    0  0.00000000000E+00  0.00000000000E+00 -0.86409165298E+03  0.99725262269E+03  0.49785380255E+03 0.  0.
        5    1    3    3  502    0  0.53567593786E+01  0.12290019161E+03  0.13350176843E+01  0.12311386696E+03  0.46999998093E+01 0.  1.
       -5    1    3    3    0  502 -0.53567593786E+01 -0.12290019161E+03 -0.86542667066E+03  0.87413875572E+03  0.46999998093E+01 0. -1.
</event>
<event>
 5   0  0.1147245E-01  0.5061989E+03  0.7818609E-02  0.1012173E+00
        1   -1    0    0  501    0  0.00000000000E+00  0.00000000000E+00  0.21267795758E+04  0.21267795758E+04  0.50400001928E-02 0.  1.
       -1   -1    0    0    0  501  0.00000000000E+00  0.00000000000E+00 -0.30120345957E+02  0.30120346379E+02  0.50400001928E-02 0. -1.
    10030    2    1    2    0    0  0.00000000000E+00  0.00000000000E+00  0.20966592298E+04  0.21568999222E+04  0.50619892160E+03 0.  0.
        1    1    3    3  502    0 -0.10433901482E+03 -0.22919407992E+02  0.70648389723E+02  0.12807468240E+03  0.50400001928E-02 0. -1.
       -1    1    3    3    0  502  0.10433901482E+03  0.22919407992E+02  0.20260108401E+04  0.20288252398E+04  0.50400001928E-02 0.  1.
</event>
<event>
 5   0  0.1683148E-01  0.5014935E+03  0.7818609E-02  0.1013390E+00
       -2   -1    0    0    0  501  0.00000000000E+00  0.00000000000E+00  0.96747386625E+02  0.96747386659E+02  0.25500000920E-02 0. -1.
        2   -1    0    0  501    0  0.00000000000E+00  0.00000000000E+00 -0.64987728220E+03  0.64987728220E+03  0.25500000920E-02 0.  1.
    10030    2    1    2    0    0  0.00000000000E+00  0.00000000000E+00 -0.55312989557E+03  0.74662466886E+03  0.50149348428E+03 0.  0.
        2    1    3    3  502    0  0.17353022536E+03  0.18099745355E+03 -0.27813447423E+03  0.37447510340E+03  0.25500000920E-02 0.  1.
       -2    1    3    3    0  502 -0.17353022536E+03 -0.18099745355E+03 -0.27499542135E+03  0.37214956546E+03  0.25500000920E-02 0. -1.
</event>
<event>
 5   0  0.7220250E-02  0.4493689E+03  0.7818609E-02  0.1027910E+00
       -4   -1    0    0    0  501  0.00000000000E+00  0.00000000000E+00  0.37211479370E+03  0.37211696090E+03  0.12699999809E+01 0.  1.
        4   -1    0    0  501    0  0.00000000000E+00  0.00000000000E+00 -0.13565986793E+03  0.13566581245E+03  0.12699999809E+01 0. -1.
    10030    2    1    2    0    0  0.00000000000E+00  0.00000000000E+00  0.23645492577E+03  0.50778277335E+03  0.44936890523E+03 0.  0.
        4    1    3    3  502    0 -0.83558880554E+02 -0.90912241819E+02  0.33033601991E+03  0.35266219132E+03  0.12699999809E+01 0.  1.
       -4    1    3    3    0  502  0.83558880554E+02  0.90912241819E+02 -0.93881094147E+02  0.15512058203E+03  0.12699999809E+01 0. -1.
</event>
<event>
 5   0  0.1068522E-01  0.4955219E+03  0.7818609E-02  0.1014954E+00
        1   -1    0    0  501    0  0.00000000000E+00  0.00000000000E+00  0.34190046232E+03  0.34190046236E+03  0.50400001928E-02 0. -1.
       -1   -1    0    0    0  501  0.00000000000E+00  0.00000000000E+00 -0.17954198454E+03  0.17954198461E+03  0.50400001928E-02 0.  1.
    10030    2    1    2    0    0  0.00000000000E+00  0.00000000000E+00  0.16235847778E+03  0.52144244697E+03  0.49552189679E+03 0.  0.
        2    1    3    3  502    0 -0.19827082266E+03  0.50132606382E+02 -0.65997046792E+02  0.21489580623E+03  0.25500000920E-02 0.  1.
       -2    1    3    3    0  502  0.19827082266E+03 -0.50132606382E+02  0.22835552457E+03  0.30654664074E+03  0.25500000920E-02 0. -1.
</event>
<event>
 5   0  0.1068522E-01  0.4858943E+03  0.7818609E-02  0.1017528E+00
       -1   -1    0    0    0  501  0.00000000000E+00  0.00000000000E+00  0.15564369486E+03  0.15564369494E+03  0.50400001928E-02 0. -1.
        1   -1    0    0  501    0  0.00000000000E+00  0.00000000000E+00 -0.37922080911E+03  0.37922080915E+03  0.50400001928E-02 0.  1.
    10030    2    1    2    0    0  0.00000000000E+00  0.00000000000E+00 -0.22357711426E+03  0.53486450409E+03  0.48589434213E+03 0.  0.
        2    1    3    3  502    0  0.20156865364E+02  0.75364213998E+02  0.14148081907E+03  0.16156387636E+03  0.25500000920E-02 0. -1.
       -2    1    3    3    0  502 -0.20156865364E+02 -0.75364213998E+02 -0.36505793333E+03  0.37330062773E+03  0.25500000920E-02 0.  1.
</event>
<event>
 5   0  0.1074281E-01  0.4966487E+03  0.7818609E-02  0.1014657E+00
        1   -1    0    0  501    0  0.00000000000E+00  0.00000000000E+00  0.32930769798E+03  0.32930769802E+03  0.50400001928E-02 0.  1.
       -1   -1    0    0    0  501  0.00000000000E+00  0.00000000000E+00 -0.18725644254E+03  0.18725644261E+03  0.50400001928E-02 0. -1.
    10030    2    1    2    0    0  0.00000000000E+00  0.00000000000E+00  0.14205125544E+03  0.51656414063E+03  0.49664872114E+03 0.  0.
        4    1    3    3  502    0  0.20139869208E+03  0.52851828519E+02  0.21176085281E+03  0.29698319925E+03  0.12699999809E+01 0.  1.
       -4    1    3    3    0  502 -0.20139869208E+03 -0.52851828519E+02 -0.69709597370E+02  0.21958094138E+03  0.12699999809E+01 0. -1.
</event>
<event>
 5   0  0.1123271E-01  0.4904504E+03  0.7818609E-02  0.1016302E+00
       -1   -1    0    0    0  501  0.00000000000E+00  0.00000000000E+00  0.41862191755E+03  0.41862191759E+03  0.50400001928E-02 0.  1.
        1   -1    0    0  501    0  0.00000000000E+00  0.00000000000E+00 -0.14365083317E+03  0.14365083326E+03  0.50400001928E-02 0. -1.
    10030    2    1    2    0    0  0.00000000000E+00  0.00000000000E+00  0.27497108439E+03  0.56227275084E+03  0.49045035334E+03 0.  0.
        5    1    3    3  502    0  0.21957964006E+03  0.10881852180E+03  0.14611119303E+03  0.28535462103E+03  0.46999998093E+01 0. -1.
       -5    1    3    3    0  502 -0.21957964006E+03 -0.10881852180E+03  0.12885989135E+03  0.27691812981E+03  0.46999998093E+01 0.  1.
</event>
<event>
 5   0  0.1141970E-01  0.5001532E+03  0.7818609E-02  0.1013739E+00
        1   -1    0    0  501    0  0.00000000000E+00  0.00000000000E+00  0.10380691788E+03  0.10380691800E+03  0.50400001928E-02 0. -1.
       -1   -1    0    0    0  501  0.00000000000E+00  0.00000000000E+00 -0.60244845586E+03  0.60244845588E+03  0.50400001928E-02 0.  1.
    10030    2    1    2    0    0  0.00000000000E+00  0.00000000000E+00 -0.49864153798E+03  0.70625537388E+03  0.50015324625E+03 0.  0.
        3    1    3    3  502    0  0.77833663192E+02 -0.12263718872E+03 -0.53677610219E+03  0.55608142683E+03  0.10100000352E+00 0.  1.
       -3    1    3    3    0  502 -0.77833663192E+02  0.12263718872E+03  0.38134564212E+02  0.15017394704E+03  0.10100000352E+00 0. -1.
</event>
<event>
 5   0  0.1760649E-01  0.4914215E+03  0.7818609E-02  0.1016043E+00
        2   -1    0    0  501    0  0.00000000000E+00  0.00000000000E+00  0.10636113358E+04  0.10636113358E+04  0.25500000920E-02 0. -1.
       -2   -1    0    0    0  501  0.00000000000E+00  0.00000000000E+00 -0.56762996482E+02  0.56762996539E+02  0.25500000920E-02 0.  1.
    10030    2    1    2    0    0  0.00000000000E+00  0.00000000000E+00  0.10068483393E+04  0.11203743324E+04  0.49142147510E+03 0.  0.
        5    1    3    3  502    0  0.17004486565E+03 -0.60325567847E+02  0.12331363573E+03  0.21859271082E+03  0.46999998093E+01 0.  1.
       -5    1    3    3    0  502 -0.17004486565E+03  0.60325567847E+02  0.88353470360E+03  0.90178162153E+03  0.46999998093E+01 0. -1.
</event>
<event>
 5   0  0.1123271E-01  0.5219805E+03  0.7818609E-02  0.1008196E+00
        1   -1    0    0  501    0  0.00000000000E+00  0.00000000000E+00  0.48123583042E+03  0.48123583045E+03  0.50400001928E-02 0. -1.
       -1   -1    0    0    0  501  0.00000000000E+00  0.00000000000E+00 -0.14154371285E+03  0.14154371293E+03  0.50400001928E-02 0.  1.
    10030    2    1    2    0    0  0.00000000000E+00  0.00000000000E+00  0.33969211758E+03  0.62277954338E+03  0.52198048327E+03 0.  0.
        5    1    3    3  502    0 -0.72922529287E+02  0.34380796772E+02  0.46595366692E+03  0.47290024760E+03  0.46999998093E+01 0. -1.
       -5    1    3    3    0  502  0.72922529287E+02 -0.34380796772E+02 -0.12626154934E+03  0.14987929578E+03  0.46999998093E+01 0.  1.
</event>
<event>
 5   0  0.1709372E-01  0.5068290E+03  0.7818609E-02  0.1012012E+00
        2   -1    0    0  501    0  0.00000000000E+00  0.00000000000E+00  0.85461689924E+03  0.85461689924E+03  0.25500000920E-02 0.  1.
       -2   -1    0    0    0  501  0.00000000000E+00  0.00000000000E+00 -0.75143518910E+02  0.75143518953E+02  0.25500000920E-02 0. -1.
    10030    2    1    2    0    0  0.00000000000E+00  0.00000000000E+00  0.77947338033E+03  0.92976041819E+03  0.50682904869E+03 0.  0.
        4    1    3    3  502    0 -0.33079249641E+02 -0.26962413276E+02 -0.68498330362E+02  0.80714575194E+02  0.12699999809E+01 0. -1.
       -4    1    3    3    0  502  0.33079249641E+02  0.26962413276E+02  0.84797171069E+03  0.84904584300E+03  0.12699999809E+01 0.  1.
</event>
<event>
 5   0  0.1141970E-01  0.5037180E+03  0.7818609E-02  0.1012813E+00
       -1   -1    0    0    0  501  0.00000000000E+00  0.00000000000E+00  0.30090360196E+03  0.30090360201E+03  0.50400001928E-02 0. -1.
        1   -1    0    0  501    0  0.00000000000E+00  0.00000000000E+00 -0.21080825171E+03  0.21080825178E+03  0.50400001928E-02 0.  1.
    10030    2    1    2    0    0  0.00000000000E+00  0.00000000000E+00  0.90095350249E+02  0.51171185378E+03  0.50371802545E+03 0.  0.
        3    1    3    3  502    0 -0.42683944242E+01 -0.11647833411E+03 -0.18176107716E+03  0.21592248813E+03  0.10100000352E+00 0.  1.
       -3    1    3    3    0  502  0.42683944242E+01  0.11647833411E+03  0.27185642741E+03  0.29578936565E+03  0.10100000352E+00 0. -1.
</event>
<event>
 5   0  0.1068522E-01  0.4985021E+03  0.7818609E-02  0.1014171E+00
        1   -1    0    0  501    0  0.00000000000E+00  0.00000000000E+00  0.17396983136E+03  0.17396983143E+03  0.50400001928E-02 0. -1.
       -1   -1    0    0    0  501  0.00000000000E+00  0.00000000000E+00 -0.35710840979E+03  0.35710840983E+03  0.50400001928E-02 0.  1.
    10030    2    1    2    0    0  0.00000000000E+00  0.00000000000E+00 -0.18313857844E+03  0.53107824126E+03  0.49850211577E+03 0.  0.
        2    1    3    3  502    0  0.23312806631E+03 -0.84117733117E+02 -0.63350604653E+02  0.25580810668E+03  0.25500000920E-02 0. -1.
       -2    1    3    3    0  502 -0.23312806631E+03  0.84117733117E+02 -0.11978797378E+03  0.27527013458E+03  0.25500000920E-02 0.  1.
</event>
<event>
 5   0  0.7220250E-02  0.4976677E+03  0.7818609E-02  0.1014389E+00
        3   -1    0    0  501    0  0.00000000000E+00  0.00000000000E+00  0.99930953675E+03  0.99930954186E+03  0.10100000352E+00 0.  1.
       -3   -1    0    0    0  501  0.00000000000E+00  0.00000000000E+00 -0.61961016995E+02  0.61961099313E+02  0.10100000352E+00 0. -1.
    10030    2    1    2    0    0  0.00000000000E+00  0.00000000000E+00  0.93734851976E+03  0.10612706412E+04  0.49766768663E+03 0.  0.
        2    1    3    3  502    0  0.12405757743E+03  0.49609413848E+02  0.21019731331E+02  0.13525237733E+03  0.25500000920E-02 0. -1.
       -2    1    3    3    0  502 -0.12405757743E+03 -0.49609413848E+02  0.91632878843E+03  0.92601826384E+03  0.25500000920E-02 0.  1.
</event>
<event>
 5   0  0.1827698E-01  0.5119090E+03  0.7818609E-02  0.1010716E+00
       -2   -1    0    0    0  501  0.00000000000E+00  0.00000000000E+00  0.11331715060E+03  0.11331715062E+03  0.25500000920E-02 0. -1.
        2   -1    0    0  501    0  0.00000000000E+00  0.00000000000E+00 -0.57813575445E+03  0.57813575446E+03  0.25500000920E-02 0.  1.
    10030    2    1    2    0    0  0.00000000000E+00  0.00000000000E+00 -0.46481860385E+03  0.69145290508E+03  0.51190896208E+03 0.  0.
        1    1    3    3  502    0  0.14760243313E+03 -0.20837318195E+03 -0.25606971946E+03  0.36163180512E+03  0.50400001928E-02 0.  1.
       -1    1    3    3    0  502 -0.14760243313E+03  0.20837318195E+03 -0.20874888439E+03  0.32982109997E+03  0.50400001928E-02 0. -1.
</event>
<event>
 5   0  0.1782124E-01  0.4972112E+03  0.7818609E-02  0.1014509E+00
        2   -1    0    0  501    0  0.00000000000E+00  0.00000000000E+00  0.15352824254E+04  0.15352824254E+04  0.25500000920E-02 0.  1.
       -2   -1    0    0    0  501  0.00000000000E+00  0.00000000000E+00 -0.40256265992E+02  0.40256266073E+02  0.25500000920E-02 0. -1.
    10030    2    1    2    0    0  0.00000000000E+00  0.00000000000E+00  0.14950261594E+04  0.15755386915E+04  0.49721117347E+03 0.  0.
        3    1    3    3  502    0 -0.71221977774E+02  0.18745062208E+03  0.12131624098E+04  0.12296232547E+04  0.10100000352E+00 0.  1.
       -3    1    3    3    0  502  0.71221977774E+02 -0.18745062208E+03  0.28186374966E+03  0.34591543679E+03  0.10100000352E+00 0. -1.
</event>
<event>
 5   0  0.7220250E-02  0.5021963E+03  0.7818609E-02  0.1013207E+00
        3   -1    0    0  501    0  0.00000000000E+00  0.00000000000E+00  0.71831418226E+02  0.71831489232E+02  0.10100000352E+00 0. -1.
       -3   -1    0    0    0  501  0.00000000000E+00  0.00000000000E+00 -0.87775293845E+03  0.87775294426E+03  0.10100000352E+00 0.  1.
    10030    2    1    2    0    0  0.00000000000E+00  0.00000000000E+00 -0.80592152022E+03  0.94958443349E+03  0.50219627594E+03 0.  0.
        5    1    3    3  502    0  0.23270009704E+02  0.12141305139E+03  0.10207171354E+02  0.12413258534E+03  0.46999998093E+01 0. -1.
       -5    1    3    3    0  502 -0.23270009704E+02 -0.12141305139E+03 -0.81612869158E+03  0.82545184815E+03  0.46999998093E+01 0.  1.
</event>
<event>
 5   0  0.1827698E-01  0.4026309E+03  0.7818609E-02  0.1042872E+00
       -2   -1    0    0    0  501  0.00000000000E+00  0.00000000000E+00  0.98509331569E+02  0.98509331602E+02  0.25500000920E-02 0.  1.
        2   -1    0    0  501    0  0.00000000000E+00  0.00000000000E+00 -0.41141191887E+03  0.41141191888E+03  0.25500000920E-02 0. -1.
    10030    2    1    2    0    0  0.00000000000E+00  0.00000000000E+00 -0.31290258730E+03  0.50992125048E+03  0.40263091356E+03 0.  0.
        1    1    3    3  502    0 -0.96423903608E+02  0.12986437455E+03 -0.30824637539E+03  0.34810652526E+03  0.50400001928E-02 0. -1.
       -1    1    3    3    0  502  0.96423903608E+02 -0.12986437455E+03 -0.46562119144E+01  0.16181472522E+03  0.50400001928E-02 0.  1.
</event>
<event>
 5   0  0.1782124E-01  0.5025064E+03  0.7818609E-02  0.1013127E+00
       -2   -1    0    0    0  501  0.00000000000E+00  0.00000000000E+00  0.77034732625E+03  0.77034732625E+03  0.25500000920E-02 0. -1.
        2   -1    0    0  501    0  0.00000000000E+00  0.00000000000E+00 -0.81947665448E+02  0.81947665488E+02  0.25500000920E-02 0.  1.
    10030    2    1    2    0    0  0.00000000000E+00  0.00000000000E+00  0.68839966080E+03  0.85229499174E+03  0.50250637803E+03 0.  0.
        3    1    3    3  502    0 -0.15292300331E+03 -0.17668658740E+03  0.50079715420E+03  0.55263133730E+03  0.10100000352E+00 0. -1.
       -3    1    3    3    0  502  0.15292300331E+03  0.17668658740E+03  0.18760250660E+03  0.29966365444E+03  0.10100000352E+00 0.  1.
</event>
<event>
 5   0  0.1683148E-01  0.4327979E+03  0.7818609E-02  0.1032980E+00
        2   -1    0    0  501    0  0.00000000000E+00  0.00000000000E+00  0.12948077034E+04  0.12948077034E+04  0.25500000920E-02 0. -1.
       -2   -1    0    0    0  501  0.00000000000E+00  0.00000000000E+00 -0.36166383222E+02  0.36166383312E+02  0.25500000920E-02 0.  1.
    10030    2    1    2    0    0  0.00000000000E+00  0.00000000000E+00  0.12586413202E+04  0.13309740867E+04  0.43279792819E+03 0.  0.
        2    1    3    3  502    0  0.10552851548E+03 -0.14211298499E+03  0.10121420914E+04  0.10275037622E+04  0.25500000920E-02 0. -1.
       -2    1    3    3    0  502 -0.10552851548E+03  0.14211298499E+03  0.24649922875E+03  0.30347032452E+03  0.25500000920E-02 0.  1.
</event>
<event>
 5   0  0.1827698E-01  0.5058222E+03  0.7818609E-02  0.1012270E+00
        2   -1    0    0  501    0  0.00000000000E+00  0.00000000000E+00  0.15021121209E+04  0.15021121209E+04  0.25500000920E-02 0.  1.
       -2   -1    0    0    0  501  0.00000000000E+00  0.00000000000E+00 -0.42582722373E+02  0.42582722449E+02  0.25500000920E-02 0. -1.
    10030    2    1    2    0    0  0.00000000000E+00  0.00000000000E+00  0.14595293986E+04  0.15446948434E+04  0.50582219595E+03 0.  0.
        1    1    3    3  502    0 -0.17387331742E+03 -0.74412704691E+02  0.21698638635E+03  0.28784070772E+03  0.50400001928E-02 0. -1.
       -1    1    3    3    0  502  0.17387331742E+03  0.74412704691E+02  0.12425430122E+04  0.12568541357E+04  0.50400001928E-02 0.  1.
</event>
<event>
 5   0  0.1123271E-01  0.4951915E+03  0.7818609E-02  0.1015042E+00
       -1   -1    0    0    0  501  0.00000000000E+00  0.00000000000E+00  0.25056955645E+03  0.25056955650E+03  0.50400001928E-02 0. -1.
        1   -1    0    0  501    0  0.00000000000E+00  0.00000000000E+00 -0.24465718926E+03  0.24465718932E+03  0.50400001928E-02 0.  1.
    10030    2    1    2    0    0  0.00000000000E+00  0.00000000000E+00  0.59123671891E+01  0.49522674582E+03  0.49519145155E+03 0.  0.
        5    1    3    3  502    0  0.33291193851E+02  0.75357563075E+02 -0.23050099852E+03  0.24482619593E+03  0.46999998093E+01 0.  1.
       -5    1    3    3    0  502 -0.33291193851E+02 -0.75357563075E+02  0.23641336570E+03  0.25040054988E+03  0.46999998093E+01 0. -1.
</event>
<event>
 5   0  0.1141970E-01  0.6048242E+03  0.7818609E-02  0.9895448E-01
       -1   -1    0    0    0  501  0.00000000000E+00  0.00000000000E+00  0.17304592569E+03  0.17304592576E+03  0.50400001928E-02 0.  1.
        1   -1    0    0  501    0  0.00000000000E+00  0.00000000000E+00 -0.52849021705E+03  0.52849021707E+03  0.50400001928E-02 0. -1.
    10030    2    1    2    0    0  0.00000000000E+00  0.00000000000E+00 -0.35544429136E+03  0.70153614284E+03  0.60482420210E+03 0.  0.
        3    1    3    3  502    0  0.49911714894E+02  0.13636472355E+03  0.12996122418E+03  0.19487546563E+03  0.10100000352E+00 0.  1.
       -3    1    3    3    0  502 -0.49911714894E+02 -0.13636472355E+03 -0.48540551554E+03  0.50666067721E+03  0.10100000352E+00 0. -1.
</event>
<event>
 5   0  0.1683148E-01  0.4392200E+03  0.7818609E-02  0.1030986E+00
       -2   -1    0    0    0  501  0.00000000000E+00  0.00000000000E+00  0.29114821839E+02  0.29114821950E+02  0.25500000920E-02 0. -1.
        2   -1    0    0  501    0  0.00000000000E+00  0.00000000000E+00 -0.16564949025E+04  0.16564949025E+04  0.25500000920E-02 0.  1.
    10030    2    1    2    0    0  0.00000000000E+00  0.00000000000E+00 -0.16273800806E+04  0.16856097244E+04  0.43922000891E+03 0.  0.
        2    1    3    3  502    0  0.14383869229E+03  0.55200921557E+02 -0.14142904779E+04  0.14226574665E+04  0.25500000920E-02 0.  1.
       -2    1    3    3    0  502 -0.14383869229E+03 -0.55200921557E+02 -0.21308960274E+03  0.26295225792E+03  0.25500000920E-02 0. -1.
</event>
<event>
 5   0  0.1141970E-01  0.5009771E+03  0.7818609E-02  0.1013524E+00
        1   -1    0    0  501    0  0.00000000000E+00  0.00000000000E+00  0.75084819324E+03  0.75084819326E+03  0.50400001928E-02 0. -1.
       -1   -1    0    0    0  501  0.00000000000E+00  0.00000000000E+00 -0.83564840204E+02  0.83564840356E+02  0.50400001928E-02 0.  1.
    10030    2    1    2    0    0  0.00000000000E+00  0.00000000000E+00  0.66728335304E+03  0.83441303362E+03  0.50097708274E+03 0.  0.
        3    1    3    3  502    0 -0.47443339939E+02  0.70563951247E+02  0.72607500000E+03  0.73103697413E+03  0.10100000352E+00 0. -1.
       -3    1    3    3    0  502  0.47443339939E+02 -0.70563951247E+02 -0.58791646965E+02  0.10337605948E+03  0.10100000352E+00 0.  1.
</event>
<event>
 5   0  0.1141970E-01  0.5000691E+03  0.7818609E-02  0.1013761E+00
       -1   -1    0    0    0  501  0.00000000000E+00  0.00000000000E+00  0.16773793976E+03  0.16773793984E+03  0.50400001928E-02 0.  1.
        1   -1    0    0  501    0  0.00000000000E+00  0.00000000000E+00 -0.37270795682E+03  0.37270795685E+03  0.50400001928E-02 0. -1.
    10030    2    1    2    0    0  0.00000000000E+00  0.00000000000E+00 -0.20497001705E+03  0.54044589669E+03  0.50006905459E+03 0.  0.
        3    1    3    3  502    0  0.17642373331E+03  0.17379318694E+03 -0.13973300239E+03  0.28434965739E+03  0.10100000352E+00 0. -1.
       -3    1    3    3    0  502 -0.17642373331E+03 -0.17379318694E+03 -0.65237014662E+02  0.25609623930E+03  0.10100000352E+00 0.  1.
</event>
<event>
 5   0  0.1760649E-01  0.4955038E+03  0.7818609E-02  0.1014959E+00
        2   -1    0    0  501    0  0.00000000000E+00  0.00000000000E+00  0.15347172857E+04  0.15347172857E+04  0.25500000920E-02 0.  1.
       -2   -1    0    0    0  501  0.00000000000E+00  0.00000000000E+00 -0.39994985103E+02  0.39994985185E+02  0.25500000920E-02 0. -1.
    10030    2    1    2    0    0  0.00000000000E+00  0.00000000000E+00  0.14947223006E+04  0.15747122709E+04  0.49550376404E+03 0.  0.
        5    1    3    3  502    0 -0.12183146287E+03  0.19507553905E+03  0.45502750658E+03  0.50987203593E+03  0.46999998093E+01 0.  1.
       -5    1    3    3    0  502  0.12183146287E+03 -0.19507553905E+03  0.10396947940E+04  0.10648402349E+04  0.46999998093E+01 0. -1.
</event>
<event>
 5   0  0.1782124E-01  0.5017444E+03  0.7818609E-02  0.1013325E+00
        2   -1    0    0  501    0  0.00000000000E+00  0.00000000000E+00  0.58658798603E+03  0.58658798604E+03  0.25500000920E-02 0.  1.
       -2   -1    0    0    0  501  0.00000000000E+00  0.00000000000E+00 -0.10729314974E+03  0.10729314977E+03  0.25500000920E-02 0. -1.
    10030    2    1    2    0    0  0.00000000000E+00  0.00000000000E+00  0.47929483629E+03  0.69388113581E+03  0.50174444744E+03 0.  0.
        3    1    3    3  502    0 -0.12444753778E+03 -0.21778938163E+03  0.23386911912E+03  0.34294923749E+03  0.10100000352E+00 0.  1.
       -3    1    3    3    0  502  0.12444753778E+03  0.21778938163E+03  0.24542571717E+03  0.35093189832E+03  0.10100000352E+00 0. -1.
</event>
<event>
 5   0  0.7220250E-02  0.5042643E+03  0.7818609E-02  0.1012672E+00
        3   -1    0    0  501    0  0.00000000000E+00  0.00000000000E+00  0.60610461387E+03  0.60610462229E+03  0.10100000352E+00 0. -1.
       -3   -1    0    0    0  501  0.00000000000E+00  0.00000000000E+00 -0.10488387120E+03  0.10488391983E+03  0.10100000352E+00 0.  1.
    10030    2    1    2    0    0  0.00000000000E+00  0.00000000000E+00  0.50122074267E+03  0.71098854212E+03  0.50426428998E+03 0.  0.
        5    1    3    3  502    0 -0.12366729178E+01 -0.11994490930E+03  0.56322643289E+03  0.57587708352E+03  0.46999998093E+01 0. -1.
       -5    1    3    3    0  502  0.12366729178E+01  0.11994490930E+03 -0.62005690216E+02  0.13511145860E+03  0.46999998093E+01 0.  1.
</event>
<event>
 5   0  0.1123271E-01  0.4168892E+03  0.7818609E-02  0.1038084E+00
       -1   -1    0    0    0  501  0.00000000000E+00  0.00000000000E+00  0.32655548602E+02  0.32655548991E+02  0.50400001928E-02 0.  1.
        1   -1    0    0  501    0  0.00000000000E+00  0.00000000000E+00 -0.13305286017E+04  0.13305286017E+04  0.50400001928E-02 0. -1.
    10030    2    1    2    0    0  0.00000000000E+00  0.00000000000E+00 -0.12978730531E+04  0.13631841507E+04  0.41688915404E+03 0.  0.
        5    1    3    3  502    0 -0.17506089138E+03  0.17590087447E+02 -0.28377061679E+03  0.33392151746E+03  0.46999998093E+01 0.  1.
       -5    1    3    3    0  502  0.17506089138E+03 -0.17590087447E+02 -0.10141024363E+04  0.10292626332E+04  0.46999998093E+01 0. -1.
</event>
<event>
 5   0  0.1683148E-01  0.4983601E+03  0.7818609E-02  0.1014208E+00
       -2   -1    0    0    0  501  0.00000000000E+00  0.00000000000E+00  0.80882798963E+02  0.80882799004E+02  0.25500000920E-02 0. -1.
        2   -1    0    0  501    0  0.00000000000E+00  0.00000000000E+00 -0.76766250326E+03  0.76766250326E+03  0.25500000920E-02 0.  1.
    10030    2    1    2    0    0  0.00000000000E+00  0.00000000000E+00 -0.68677970430E+03  0.84854530227E+03  0.49836007842E+03 0.  0.
        2    1    3    3  502    0 -0.20207723187E+03 -0.14082790971E+03 -0.27916075486E+03  0.37228810732E+03  0.25500000920E-02 0. -1.
       -2    1    3    3    0  502  0.20207723187E+03  0.14082790971E+03 -0.40761894944E+03  0.47625719495E+03  0.25500000920E-02 0.  1.
</event>
<event>
 5   0  0.1147245E-01  0.5197165E+03  0.7818609E-02  0.1008757E+00
        1   -1    0    0  501    0  0.00000000000E+00  0.00000000000E+00  0.74915551787E+02  0.74915551957E+02  0.50400001928E-02 0. -1.
       -1   -1    0    0    0  501  0.00000000000E+00  0.00000000000E+00 -0.90136555347E+03  0.90136555349E+03  0.50400001928E-02 0.  1.
    10030    2    1    2    0    0  0.00000000000E+00  0.00000000000E+00 -0.82645000169E+03  0.97628110544E+03  0.51971645304E+03 0.  0.
        1    1    3    3  502    0  0.10739559489E+03 -0.48680774182E+02 -0.84821835391E+03  0.85637492228E+03  0.50400001928E-02 0.  1.
       -1    1    3    3    0  502 -0.10739559489E+03  0.48680774182E+02  0.21768352220E+02  0.11990618317E+03  0.50400001928E-02 0. -1.
</event>
<event>
 5   0  0.1123271E-01  0.4945422E+03  0.7818609E-02  0.1015213E+00
       -1   -1    0    0    0  501  0.00000000000E+00  0.00000000000E+00  0.97462503753E+02  0.97462503883E+02  0.50400001928E-02 0.  1.
        1   -1    0    0  501    0  0.00000000000E+00  0.00000000000E+00 -0.62734884078E+03  0.62734884080E+03  0.50400001928E-02 0. -1.
    10030    2    1    2    0    0  0.00000000000E+00  0.00000000000E+00 -0.52988633703E+03  0.72481134468E+03  0.49454216728E+03 0.  0.
        5    1    3    3  502    0 -0.10591756701E+03 -0.66867366553E+02 -0.57733408054E+03  0.59078465304E+03  0.46999998093E+01 0. -1.
       -5    1    3    3    0  502  0.10591756701E+03  0.66867366553E+02  0.47447743515E+02  0.13402669165E+03  0.46999998093E+01 0.  1.
</event>
<event>
 5   0  0.1827698E-01  0.4982867E+03  0.7818609E-02  0.1014227E+00
        2   -1    0    0  501    0  0.00000000000E+00  0.00000000000E+00  0.46104868073E+03  0.46104868074E+03  0.25500000920E-02 0. -1.
       -2   -1    0    0    0  501  0.00000000000E+00  0.00000000000E+00 -0.13463311208E+03  0.13463311210E+03  0.25500000920E-02 0.  1.
    10030    2    1    2    0    0  0.00000000000E+00  0.00000000000E+00  0.32641556865E+03  0.59568179284E+03  0.49828673961E+03 0.  0.
        1    1    3    3  502    0 -0.23834869658E+03  0.72536137765E+02  0.16429443526E+03  0.29843634820E+03  0.50400001928E-02 0. -1.
       -1    1    3    3    0  502  0.23834869658E+03 -0.72536137765E+02  0.16212113339E+03  0.29724544465E+03  0.50400001928E-02 0.  1.
</event>
<event>
 5   0  0.7220250E-02  0.4963136E+03  0.7818609E-02  0.1014746E+00
       -4   -1    0    0    0  501  0.00000000000E+00  0.00000000000E+00  0.77847580663E+03  0.77847684256E+03  0.12699999809E+01 0.  1.
        4   -1    0    0  501    0  0.00000000000E+00  0.00000000000E+00 -0.79099412860E+02  0.79109607601E+02  0.12699999809E+01 0. -1.
    10030    2    1    2    0    0  0.00000000000E+00  0.00000000000E+00  0.69937639377E+03  0.85758645016E+03  0.49631358972E+03 0.  0.
        3    1    3    3  502    0 -0.77637667691E+02 -0.48339443254E+02  0.74829882838E+03  0.75386700151E+03  0.10100000352E+00 0.  1.
       -3    1    3    3    0  502  0.77637667691E+02  0.48339443254E+02 -0.48922434611E+02  0.10371944865E+03  0.10100000352E+00 0. -1.
</event>
<event>
 5   0  0.1141970E-01  0.4942439E+03  0.7818609E-02  0.1015292E+00
       -1   -1    0    0    0  501  0.00000000000E+00  0.00000000000E+00  0.12109607709E+03  0.12109607720E+03  0.50400001928E-02 0. -1.
        1   -1    0    0  501    0  0.00000000000E+00  0.00000000000E+00 -0.50430413472E+03  0.50430413475E+03  0.50400001928E-02 0.  1.
    10030    2    1    2    0    0  0.00000000000E+00  0.00000000000E+00 -0.38320805763E+03  0.62540021195E+03  0.49424387671E+03 0.  0.
        3    1    3    3  502    0 -0.72029524969E+02 -0.10827543118E+03 -0.45750417477E+03  0.47562790246E+03  0.10100000352E+00 0.  1.
       -3    1    3    3    0  502  0.72029524969E+02  0.10827543118E+03  0.74296117141E+02  0.14977230949E+03  0.10100000352E+00 0. -1.
</event>
<event>
 5   0  0.1123271E-01  0.5034103E+03  0.7818609E-02  0.1012893E+00
        1   -1    0    0  501    0  0.00000000000E+00  0.00000000000E+00  0.82354542403E+03  0.82354542405E+03  0.50400001928E-02 0. -1.
       -1   -1    0    0    0  501  0.00000000000E+00  0.00000000000E+00 -0.76930151804E+02  0.76930151970E+02  0.50400001928E-02 0.  1.
    10030    2    1    2    0    0  0.00000000000E+00  0.00000000000E+00  0.74661527223E+03  0.90047557602E+03  0.50341026835E+03 0.  0.
        5    1    3    3  502    0 -0.43144018346E+02 -0.15901748153E+03  0.71357215842E+03  0.73236280696E+03  0.46999998093E+01 0. -1.
       -5    1    3    3    0  502  0.43144018346E+02  0.15901748153E+03  0.33043113808E+02  0.16811276906E+03  0.46999998093E+01 0.  1.
</event>
<event>
 5   0  0.1068522E-01  0.5192113E+03  0.7818609E-02  0.1008883E+00
        1   -1    0    0  501    0  0.00000000000E+00  0.00000000000E+00  0.10572551255E+03  0.10572551267E+03  0.50400001928E-02 0.  1.
       -1   -1    0    0    0  501  0.00000000000E+00  0.00000000000E+00 -0.63745339412E+03  0.63745339414E+03  0.50400001928E-02 0. -1.
    10030    2    1    2    0    0  0.00000000000E+00  0.00000000000E+00 -0.53172788157E+03  0.74317890681E+03  0.51921127442E+03 0.  0.
        2    1    3    3  502    0 -0.14207816540E+03  0.11163828586E+03  0.94492792136E+00  0.18069367684E+03  0.25500000920E-02 0.  1.
       -2    1    3    3    0  502  0.14207816540E+03 -0.11163828586E+03 -0.53267280950E+03  0.56248522997E+03  0.25500000920E-02 0. -1.
</event>
<event>
 5   0  0.7220250E-02  0.4966502E+03  0.7818609E-02  0.1014657E+00
       -3   -1    0    0    0  501  0.00000000000E+00  0.00000000000E+00  0.22273988614E+03  0.22273990903E+03  0.10100000352E+00 0. -1.
        3   -1    0    0  501    0  0.00000000000E+00  0.00000000000E+00 -0.27684914386E+03  0.27684916228E+03  0.10100000352E+00 0.  1.
    10030    2    1    2    0    0  0.00000000000E+00  0.00000000000E+00 -0.54109257722E+02  0.49958907132E+03  0.49665020730E+03 0.  0.
        5    1    3    3  502    0  0.22402854020E+03  0.84616147164E+02  0.38866260415E+02  0.24265480705E+03  0.46999998093E+01 0. -1.
       -5    1    3    3    0  502 -0.22402854020E+03 -0.84616147164E+02 -0.92975518137E+02  0.25693426427E+03  0.46999998093E+01 0.  1.
</event>
<event>
 5   0  0.7220250E-02  0.4988714E+03  0.7818609E-02  0.1014074E+00
       -3   -1    0    0    0  501  0.00000000000E+00  0.00000000000E+00  0.22263443141E+03  0.22263445432E+03  0.10100000352E+00 0. -1.
        3   -1    0    0  501    0  0.00000000000E+00  0.00000000000E+00 -0.27946336089E+03  0.27946337914E+03  0.10100000352E+00 0.  1.
    10030    2    1    2    0    0  0.00000000000E+00  0.00000000000E+00 -0.56828929484E+02  0.50209783346E+03  0.49887143348E+03 0.  0.
        1    1    3    3  502    0 -0.18361570118E+02 -0.96481214924E+02  0.20235515399E+03  0.22492972339E+03  0.50400001928E-02 0. -1.
       -1    1    3    3    0  502  0.18361570118E+02  0.96481214924E+02 -0.25918408348E+03  0.27716811008E+03  0.50400001928E-02 0.  1.
</event>
<event>
 5   0  0.1709372E-01  0.4992926E+03  0.7818609E-02  0.1013964E+00
       -2   -1    0    0    0  501  0.00000000000E+00  0.00000000000E+00  0.11032569024E+03  0.11032569027E+03  0.25500000920E-02 0. -1.
        2   -1    0    0  501    0  0.00000000000E+00  0.00000000000E+00 -0.56490266756E+03  0.56490266756E+03  0.25500000920E-02 0.  1.
    10030    2    1    2    0    0  0.00000000000E+00  0.00000000000E+00 -0.45457697732E+03  0.67522835784E+03  0.49929260652E+03 0.  0.
        4    1    3    3  502    0  0.19834110711E+03  0.91788224464E+02 -0.39045736029E+03  0.44746266440E+03  0.12699999809E+01 0.  1.
       -4    1    3    3    0  502 -0.19834110711E+03 -0.91788224464E+02 -0.64119617023E+02  0.22776569344E+03  0.12699999809E+01 0. -1.
</event>
<event>
 5   0  0.1074281E-01  0.4976408E+03  0.7818609E-02  0.1014397E+00
       -1   -1    0    0    0  501  0.00000000000E+00  0.00000000000E+00  0.21147284883E+03  0.21147284889E+03  0.50400001928E-02 0.  1.
        1   -1    0    0  501    0  0.00000000000E+00  0.00000000000E+00 -0.29276381018E+03  0.29276381023E+03  0.50400001928E-02 0. -1.
    10030    2    1    2    0    0  0.00000000000E+00  0.00000000000E+00 -0.81290961353E+02  0.50423665912E+03  0.49764082228E+03 0.  0.
        4    1    3    3  502    0 -0.23489706754E+03  0.52863419072E+02 -0.10423725920E+03  0.26237033468E+03  0.12699999809E+01 0. -1.
       -4    1    3    3    0  502  0.23489706754E+03 -0.52863419072E+02  0.22946297847E+02  0.24186632444E+03  0.12699999809E+01 0.  1.
</event>
<event>
 5   0  0.1141970E-01  0.5125212E+03  0.7818609E-02  0.1010561E+00
       -1   -1    0    0    0  501  0.00000000000E+00  0.00000000000E+00  0.91608871925E+02  0.91608872064E+02  0.50400001928E-02 0. -1.
        1   -1    0    0  501    0  0.00000000000E+00  0.00000000000E+00 -0.71684637747E+03  0.71684637749E+03  0.50400001928E-02 0.  1.
    10030    2    1    2    0    0  0.00000000000E+00  0.00000000000E+00 -0.62523750554E+03  0.80845524955E+03  0.51252117243E+03 0.  0.
        3    1    3    3  502    0  0.12608339993E+03  0.16822300493E+01  0.39286990856E+02  0.13207320503E+03  0.10100000352E+00 0. -1.
       -3    1    3    3    0  502 -0.12608339993E+03 -0.16822300493E+01 -0.66452449640E+03  0.67638204452E+03  0.10100000352E+00 0.  1.
</event>
<event>
 5   0  0.7220250E-02  0.5038431E+03  0.7818609E-02  0.1012781E+00
       -4   -1    0    0    0  501  0.00000000000E+00  0.00000000000E+00  0.29310066552E+03  0.29310341695E+03  0.12699999809E+01 0. -1.
        4   -1    0    0  501    0  0.00000000000E+00  0.00000000000E+00 -0.21652224733E+03  0.21652597185E+03  0.12699999809E+01 0.  1.
    10030    2    1    2    0    0  0.00000000000E+00  0.00000000000E+00  0.76578418189E+02  0.50962938880E+03  0.50384309045E+03 0.  0.
        2    1    3    3  502    0  0.12964980621E+03  0.69930765635E+02  0.24500127141E+03  0.28587585983E+03  0.25500000920E-02 0. -1.
       -2    1    3    3    0  502 -0.12964980621E+03 -0.69930765635E+02 -0.16842285322E+03  0.22375352897E+03  0.25500000920E-02 0.  1.
</event>
<event>
 5   0  0.1827698E-01  0.5060230E+03  0.7818609E-02  0.1012219E+00
        2   -1    0    0  501    0  0.00000000000E+00  0.00000000000E+00  0.26853148360E+03  0.26853148362E+03  0.25500000920E-02 0. -1.
       -2   -1    0    0    0  501  0.00000000000E+00  0.00000000000E+00 -0.23838848622E+03  0.23838848624E+03  0.25500000920E-02 0.  1.
    10030    2    1    2    0    0  0.00000000000E+00  0.00000000000E+00  0.30142997380E+02  0.50691996985E+03  0.50602297927E+03 0.  0.
        1    1    3    3  502    0  0.62939571979E+02 -0.20182401929E+03 -0.12417305658E+03  0.24518008176E+03  0.50400001928E-02 0.  1.
       -1    1    3    3    0  502 -0.62939571979E+02  0.20182401929E+03  0.15431605396E+03  0.26173988810E+03  0.50400001928E-02 0. -1.
</event>
<event>
 5   0  0.1782124E-01  0.4973958E+03  0.7818609E-02  0.1014461E+00
       -2   -1    0    0    0  501  0.00000000000E+00  0.00000000000E+00  0.58799775524E+02  0.58799775579E+02  0.25500000920E-02 0.  1.
        2   -1    0    0  501    0  0.00000000000E+00  0.00000000000E+00 -0.10518857680E+04  0.10518857680E+04  0.25500000920E-02 0. -1.
    10030    2    1    2    0    0  0.00000000000E+00  0.00000000000E+00 -0.99308599252E+03  0.11106855436E+04  0.49739580646E+03 0.  0.
        3    1    3    3  502    0 -0.70540009980E+02  0.46136470735E+02 -0.10190184242E+04  0.10224984235E+04  0.10100000352E+00 0. -1.
       -3    1    3    3    0  502  0.70540009980E+02 -0.46136470735E+02  0.25932431714E+02  0.88187120122E+02  0.10100000352E+00 0.  1.
</event>
<event>
 5   0  0.1782124E-01  0.5159107E+03  0.7818609E-02  0.1009707E+00
        2   -1    0    0  501    0  0.00000000000E+00  0.00000000000E+00  0.38162248411E+03  0.38162248411E+03  0.25500000920E-02 0.  1.
       -2   -1    0    0    0  501  0.00000000000E+00  0.00000000000E+00 -0.17436329095E+03  0.17436329097E+03  0.25500000920E-02 0. -1.
    10030    2    1    2    0    0  0.00000000000E+00  0.00000000000E+00  0.20725919315E+03  0.55598577508E+03  0.51591065985E+03 0.  0.
        3    1    3    3  502    0 -0.26805276805E+00 -0.46896257015E+02 -0.16973051626E+03  0.17609028685E+03  0.10100000352E+00 0. -1.
       -3    1    3    3    0  502  0.26805276805E+00  0.46896257015E+02  0.37698970941E+03  0.37989548823E+03  0.10100000352E+00 0.  1.
</event>
<event>
 5   0  0.1074281E-01  0.4965579E+03  0.7818609E-02  0.1014681E+00
        1   -1    0    0  501    0  0.00000000000E+00  0.00000000000E+00  0.94359891032E+03  0.94359891033E+03  0.50400001928E-02 0.  1.
       -1   -1    0    0    0  501  0.00000000000E+00  0.00000000000E+00 -0.65326953964E+02  0.65326954158E+02  0.50400001928E-02 0. -1.
    10030    2    1    2    0    0  0.00000000000E+00  0.00000000000E+00  0.87827195635E+03  0.10089258645E+04  0.49655792282E+03 0.  0.
        4    1    3    3  502    0  0.12396998166E+03  0.20039557256E+03  0.59800823928E+03  0.64276154910E+03  0.12699999809E+01 0.  1.
       -4    1    3    3    0  502 -0.12396998166E+03 -0.20039557256E+03  0.28026371707E+03  0.36616431538E+03  0.12699999809E+01 0. -1.
</event>
<event>
 5   0  0.1709372E-01  0.5030331E+03  0.7818609E-02  0.1012990E+00
       -2   -1    0    0    0  501  0.00000000000E+00  0.00000000000E+00  0.10183127524E+03  0.10183127527E+03  0.25500000920E-02 0.  1.
        2   -1    0    0  501    0  0.00000000000E+00  0.00000000000E+00 -0.62122928773E+03  0.62122928773E+03  0.25500000920E-02 0. -1.
    10030    2    1    2    0    0  0.00000000000E+00  0.00000000000E+00 -0.51939801249E+03  0.72306056301E+03  0.50303308281E+03 0.  0.
        4    1    3    3  502    0  0.41031909787E+02  0.15915668129E+03  0.13953310192E+02  0.16495688705E+03  0.12699999809E+01 0.  1.
       -4    1    3    3    0  502 -0.41031909787E+02 -0.15915668129E+03 -0.53335132268E+03  0.55810367596E+03  0.12699999809E+01 0. -1.
</event>
<event>
 5   0  0.1068522E-01  0.4539025E+03  0.7818609E-02  0.1026565E+00
        1   -1    0    0  501    0  0.00000000000E+00  0.00000000000E+00  0.24089922737E+03  0.24089922743E+03  0.50400001928E-02 0.  1.
       -1   -1    0    0    0  501  0.00000000000E+00  0.00000000000E+00 -0.21381083238E+03  0.21381083244E+03  0.50400001928E-02 0. -1.
    10030    2    1    2    0    0  0.00000000000E+00  0.00000000000E+00  0.27088394996E+02  0.45471005986E+03  0.45390247565E+03 0.  0.
        2    1    3    3  502    0 -0.12229529184E+03 -0.62388892089E+02  0.19458194792E+03  0.23813997297E+03  0.25500000920E-02 0.  1.
       -2    1    3    3    0  502  0.12229529184E+03  0.62388892089E+02 -0.16749355293E+03  0.21657008690E+03  0.25500000920E-02 0. -1.
</event>
<event>
 5   0  0.1147245E-01  0.4978224E+03  0.7818609E-02  0.1014349E+00
        1   -1    0    0  501    0  0.00000000000E+00  0.00000000000E+00  0.16097742784E+04  0.16097742784E+04  0.50400001928E-02 0.  1.
       -1   -1    0    0    0  501  0.00000000000E+00  0.00000000000E+00 -0.38487868386E+02  0.38487868716E+02  0.50400001928E-02 0. -1.
    10030    2    1    2    0    0  0.00000000000E+00  0.00000000000E+00  0.15712864100E+04  0.16482621471E+04  0.49782238132E+03 0.  0.
        1    1    3    3  502    0 -0.16772111420E+03 -0.84363130657E+02  0.24453654020E+03  0.30829471205E+03  0.50400001928E-02 0. -1.
       -1    1    3    3    0  502  0.16772111420E+03  0.84363130657E+02  0.13267498698E+04  0.13399674351E+04  0.50400001928E-02 0.  1.
</event>
<event>
 5   0  0.1123271E-01  0.5026118E+03  0.7818609E-02  0.1013099E+00
        1   -1    0    0  501    0  0.00000000000E+00  0.00000000000E+00  0.15366606460E+04  0.15366606460E+04  0.50400001928E-02 0. -1.
       -1   -1    0    0    0  501  0.00000000000E+00  0.00000000000E+00 -0.41098636749E+02  0.41098637058E+02  0.50400001928E-02 0.  1.
    10030    2    1    2    0    0  0.00000000000E+00  0.00000000000E+00  0.14955620092E+04  0.15777592830E+04  0.50261181023E+03 0.  0.
        5    1    3    3  502    0 -0.11347094751E+02 -0.97979267385E+02  0.14732092116E+04  0.14765148711E+04  0.46999998093E+01 0. -1.
       -5    1    3    3    0  502  0.11347094751E+02  0.97979267385E+02  0.22352797653E+02  0.10124441198E+03  0.46999998093E+01 0.  1.
</event>
<event>
 5   0  0.1683148E-01  0.4841913E+03  0.7818609E-02  0.1017990E+00
       -2   -1    0    0    0  501  0.00000000000E+00  0.00000000000E+00  0.17274763474E+03  0.17274763476E+03  0.25500000920E-02 0. -1.
        2   -1    0    0  501    0  0.00000000000E+00  0.00000000000E+00 -0.33928288021E+03  0.33928288022E+03  0.25500000920E-02 0.  1.
    10030    2    1    2    0    0  0.00000000000E+00  0.00000000000E+00 -0.16653524547E+03  0.51203051499E+03  0.48419134677E+03 0.  0.
        2    1    3    3  502    0 -0.10441379475E+03  0.20282106578E+03  0.24593224574E+01  0.22813301719E+03  0.25500000920E-02 0. -1.
       -2    1    3    3    0  502  0.10441379475E+03 -0.20282106578E+03 -0.16899456793E+03  0.28389749780E+03  0.25500000920E-02 0.  1.
</event>
<event>
 5   0  0.1709372E-01  0.5089828E+03  0.7818609E-02  0.1011461E+00
        2   -1    0    0  501    0  0.00000000000E+00  0.00000000000E+00  0.86064452124E+03  0.86064452124E+03  0.25500000920E-02 0.  1.
       -2   -1    0    0    0  501  0.00000000000E+00  0.00000000000E+00 -0.75252756247E+02  0.75252756290E+02  0.25500000920E-02 0. -1.
    10030    2    1    2    0    0  0.00000000000E+00  0.00000000000E+00  0.78539176499E+03  0.93589727753E+03  0.50898279890E+03 0.  0.
        4    1    3    3  502    0  0.18654169700E+03 -0.70302266580E+02  0.68356917306E+03  0.71204539228E+03  0.12699999809E+01 0.  1.
       -4    1    3    3    0  502 -0.18654169700E+03  0.70302266580E+02  0.10182259193E+03  0.22385188526E+03  0.12699999809E+01 0. -1.
</event>
<event>
 5   0  0.1782124E-01  0.5155785E+03  0.7818609E-02  0.1009791E+00
        2   -1    0    0  501    0  0.00000000000E+00  0.00000000000E+00  0.13114154710E+03  0.13114154712E+03  0.25500000920E-02 0.  1.
       -2   -1    0    0    0  501  0.00000000000E+00  0.00000000000E+00 -0.50674474849E+03  0.50674474850E+03  0.25500000920E-02 0. -1.
    10030    2    1    2    0    0  0.00000000000E+00  0.00000000000E+00 -0.37560320139E+03  0.63788629562E+03  0.51557847244E+03 0.  0.
        3    1    3    3  502    0  0.26278871044E+02 -0.23567706664E+03 -0.31288383872E+03  0.39259465806E+03  0.10100000352E+00 0. -1.
       -3    1    3    3    0  502 -0.26278871044E+02  0.23567706664E+03 -0.62719362675E+02  0.24529163756E+03  0.10100000352E+00 0.  1.
</event>
<event>
 5   0  0.1123271E-01  0.5000439E+03  0.7818609E-02  0.1013767E+00
       -1   -1    0    0    0  501  0.00000000000E+00  0.00000000000E+00  0.17475179134E+03  0.17475179141E+03  0.50400001928E-02 0. -1.
        1   -1    0    0  501    0  0.00000000000E+00  0.00000000000E+00 -0.35771298672E+03  0.35771298676E+03  0.50400001928E-02 0.  1.
    10030    2    1    2    0    0  0.00000000000E+00  0.00000000000E+00 -0.18296119538E+03  0.53246477817E+03  0.50004393904E+03 0.  0.
        5    1    3    3  502    0  0.51252278660E+02  0.21184724238E+03 -0.22182124151E+03  0.31101897587E+03  0.46999998093E+01 0. -1.
       -5    1    3    3    0  502 -0.51252278660E+02 -0.21184724238E+03  0.38860046124E+02  0.22144580230E+03  0.46999998093E+01 0.  1.
</event>
<event>
 5   0  0.7220250E-02  0.5010204E+03  0.7818609E-02  0.1013513E+00
        4   -1    0    0  501    0  0.00000000000E+00  0.00000000000E+00  0.19955516463E+03  0.19955920583E+03  0.12699999809E+01 0. -1.
       -4   -1    0    0    0  501  0.00000000000E+00  0.00000000000E+00 -0.31446770841E+03  0.31447027289E+03  0.12699999809E+01 0.  1.
    10030    2    1    2    0    0  0.00000000000E+00  0.00000000000E+00 -0.11491254378E+03  0.51402947872E+03  0.50102037112E+03 0.  0.
        2    1    3    3  502    0 -0.47717035518E+00 -0.10873980440E+03 -0.28899455386E+03  0.30877568706E+03  0.25500000920E-02 0.  1.
       -2    1    3    3    0  502  0.47717035518E+00  0.10873980440E+03  0.17408201008E+03  0.20525379166E+03  0.25500000920E-02 0. -1.
</event>
<event>
 5   0  0.1709372E-01  0.4933009E+03  0.7818609E-02  0.1015542E+00
        2   -1    0    0  501    0  0.00000000000E+00  0.00000000000E+00  0.63628540473E+03  0.63628540473E+03  0.25500000920E-02 0.  1.
       -2   -1    0    0    0  501  0.00000000000E+00  0.00000000000E+00 -0.95611874278E+02  0.95611874312E+02  0.25500000920E-02 0. -1.
    10030    2    1    2    0    0  0.00000000000E+00  0.00000000000E+00  0.54067353045E+03  0.73189727904E+03  0.49330088237E+03 0.  0.
        4    1    3    3  502    0  0.22661664770E+03  0.74589622425E+02  0.17749022900E+03  0.29736023789E+03  0.12699999809E+01 0. -1.
       -4    1    3    3    0  502 -0.22661664770E+03 -0.74589622425E+02  0.36318330144E+03  0.43453704115E+03  0.12699999809E+01 0.  1.
</event>
<event>
 5   0  0.1827698E-01  0.5085671E+03  0.7818609E-02  0.1011567E+00
       -2   -1    0    0    0  501  0.00000000000E+00  0.00000000000E+00  0.54765978253E+03  0.54765978253E+03  0.25500000920E-02 0.  1.
        2   -1    0    0  501    0  0.00000000000E+00  0.00000000000E+00 -0.11806621413E+03  0.11806621416E+03  0.25500000920E-02 0. -1.
    10030    2    1    2    0    0  0.00000000000E+00  0.00000000000E+00  0.42959356839E+03  0.66572599669E+03  0.50856707392E+03 0.  0.
        1    1    3    3  502    0  0.77423523658E+02 -0.35731696078E+02  0.52838624502E+03  0.53522255191E+03  0.50400001928E-02 0.  1.
       -1    1    3    3    0  502 -0.77423523658E+02  0.35731696078E+02 -0.98792676628E+02  0.13050344479E+03  0.50400001928E-02 0. -1.
</event>
<event>
 5   0  0.1074281E-01  0.4469187E+03  0.7818609E-02  0.1028645E+00
        1   -1    0    0  501    0  0.00000000000E+00  0.00000000000E+00  0.15053130631E+03  0.15053130639E+03  0.50400001928E-02 0.  1.
       -1   -1    0    0    0  501  0.00000000000E+00  0.00000000000E+00 -0.33171896238E+03  0.33171896242E+03  0.50400001928E-02 0. -1.
    10030    2    1    2    0    0  0.00000000000E+00  0.00000000000E+00 -0.18118765607E+03  0.48225026881E+03  0.44691873428E+03 0.  0.
        4    1    3    3  502    0  0.40019076745E+02 -0.43389227590E+02 -0.32315057486E+03  0.32849970853E+03  0.12699999809E+01 0. -1.
       -4    1    3    3    0  502 -0.40019076745E+02  0.43389227590E+02  0.14196291879E+03  0.15375056027E+03  0.12699999809E+01 0.  1.
</event>
<event>
 5   0  0.1123271E-01  0.5097172E+03  0.7818609E-02  0.1011273E+00
       -1   -1    0    0    0  501  0.00000000000E+00  0.00000000000E+00  0.85363097059E+02  0.85363097208E+02  0.50400001928E-02 0.  1.
        1   -1    0    0  501    0  0.00000000000E+00  0.00000000000E+00 -0.76090134522E+03  0.76090134524E+03  0.50400001928E-02 0. -1.
    10030    2    1    2    0    0  0.00000000000E+00  0.00000000000E+00 -0.67553824816E+03  0.84626444244E+03  0.50971715865E+03 0.  0.
        5    1    3    3  502    0 -0.34729621532E+02  0.16555174208E+03 -0.21371295439E+02  0.17056479175E+03  0.46999998093E+01 0.  1.
       -5    1    3    3    0  502  0.34729621532E+02 -0.16555174208E+03 -0.65416695272E+03  0.67569965069E+03  0.46999998093E+01 0. -1.
</event>
<event>
 5   0  0.1760649E-01  0.5039104E+03  0.7818609E-02  0.1012763E+00
       -2   -1    0    0    0  501  0.00000000000E+00  0.00000000000E+00  0.66772393049E+02  0.66772393097E+02  0.25500000920E-02 0.  1.
        2   -1    0    0  501    0  0.00000000000E+00  0.00000000000E+00 -0.95071355222E+03  0.95071355223E+03  0.25500000920E-02 0. -1.
    10030    2    1    2    0    0  0.00000000000E+00  0.00000000000E+00 -0.88394115918E+03  0.10174859453E+04  0.50391038494E+03 0.  0.
        5    1    3    3  502    0  0.11584648668E+03 -0.15534864949E+03 -0.11697838984E+03  0.22640592983E+03  0.46999998093E+01 0.  1.
       -5    1    3    3    0  502 -0.11584648668E+03  0.15534864949E+03 -0.76696276934E+03  0.79108001550E+03  0.46999998093E+01 0. -1.
</event>
<event>
 5   0  0.1760649E-01  0.5039124E+03  0.7818609E-02  0.1012763E+00
        2   -1    0    0  501    0  0.00000000000E+00  0.00000000000E+00  0.68894094171E+03  0.68894094172E+03  0.25500000920E-02 0. -1.
       -2   -1    0    0    0  501  0.00000000000E+00  0.00000000000E+00 -0.92144205314E+02  0.92144205349E+02  0.25500000920E-02 0.  1.
    10030    2    1    2    0    0  0.00000000000E+00  0.00000000000E+00  0.59679673640E+03  0.78108514706E+03  0.50391235586E+03 0.  0.
        5    1    3    3  502    0 -0.15126399492E+02  0.27588161197E+02  0.68581549480E+03  0.68655290947E+03  0.46999998093E+01 0. -1.
       -5    1    3    3    0  502  0.15126399492E+02 -0.27588161197E+02 -0.89018758399E+02  0.94532237596E+02  0.46999998093E+01 0.  1.
</event>
<event>
 5   0  0.1760649E-01  0.4908069E+03  0.7818609E-02  0.1016207E+00
        2   -1    0    0  501    0  0.00000000000E+00  0.00000000000E+00  0.51144382610E+03  0.51144382610E+03  0.25500000920E-02 0.  1.
       -2   -1    0    0    0  501  0.00000000000E+00  0.00000000000E+00 -0.11775068752E+03  0.11775068754E+03  0.25500000920E-02 0. -1.
    10030    2    1    2    0    0  0.00000000000E+00  0.00000000000E+00  0.39369313858E+03  0.62919451365E+03  0.49080693622E+03 0.  0.
        5    1    3    3  502    0 -0.10810797240E+02 -0.61842011752E+02 -0.10722235106E+03  0.12433837026E+03  0.46999998093E+01 0. -1.
       -5    1    3    3    0  502  0.10810797240E+02  0.61842011752E+02  0.50091548964E+03  0.50485614339E+03  0.46999998093E+01 0.  1.
</event>
<event>
 5   0  0.1709372E-01  0.4947626E+03  0.7818609E-02  0.1015155E+00
       -2   -1    0    0    0  501  0.00000000000E+00  0.00000000000E+00  0.21167936479E+03  0.21167936480E+03  0.25500000920E-02 0. -1.
        2   -1    0    0  501    0  0.00000000000E+00  0.00000000000E+00 -0.28910469778E+03  0.28910469780E+03  0.25500000920E-02 0.  1.
    10030    2    1    2    0    0  0.00000000000E+00  0.00000000000E+00 -0.77425332998E+02  0.50078406260E+03  0.49476256443E+03 0.  0.
        4    1    3    3  502    0  0.22157920041E+03  0.82165567766E+02 -0.11272830893E+03  0.26183545810E+03  0.12699999809E+01 0.  1.
       -4    1    3    3    0  502 -0.22157920041E+03 -0.82165567766E+02  0.35302975936E+02  0.23894860450E+03  0.12699999809E+01 0. -1.
</event>
<event>
 5   0  0.1709372E-01  0.5140070E+03  0.7818609E-02  0.1010186E+00
        2   -1    0    0  501    0  0.00000000000E+00  0.00000000000E+00  0.83569319907E+03  0.83569319908E+03  0.25500000920E-02 0.  1.
       -2   -1    0    0    0  501  0.00000000000E+00  0.00000000000E+00 -0.79037143430E+02  0.79037143472E+02  0.25500000920E-02 0. -1.
    10030    2    1    2    0    0  0.00000000000E+00  0.00000000000E+00  0.75665605564E+03  0.91473034255E+03  0.51400701653E+03 0.  0.
        4    1    3    3  502    0 -0.21401579814E+03  0.43856708366E+02  0.13743593889E+03  0.25810157481E+03  0.12699999809E+01 0. -1.
       -4    1    3    3    0  502  0.21401579814E+03 -0.43856708366E+02  0.61922011676E+03  0.65662876774E+03  0.12699999809E+01 0.  1.
</event>
<event>
 5   0  0.1123271E-01  0.4985199E+03  0.7818609E-02  0.1014166E+00
       -1   -1    0    0    0  501  0.00000000000E+00  0.00000000000E+00  0.17113894725E+03  0.17113894733E+03  0.50400001928E-02 0. -1.
        1   -1    0    0  501    0  0.00000000000E+00  0.00000000000E+00 -0.36304135045E+03  0.36304135048E+03  0.50400001928E-02 0.  1.
    10030    2    1    2    0    0  0.00000000000E+00  0.00000000000E+00 -0.19190240319E+03  0.53418029781E+03  0.49851986743E+03 0.  0.
        5    1    3    3  502    0 -0.87837660313E+02  0.13068693224E+03  0.11103466492E+03  0.19273120049E+03  0.46999998093E+01 0. -1.
       -5    1    3    3    0  502  0.87837660313E+02 -0.13068693224E+03 -0.30293706811E+03  0.34144909732E+03  0.46999998093E+01 0.  1.
</event>
<event>
 5   0  0.1782124E-01  0.5019169E+03  0.7818609E-02  0.1013280E+00
        2   -1    0    0  501    0  0.00000000000E+00  0.00000000000E+00  0.23787047346E+03  0.23787047348E+03  0.25500000920E-02 0. -1.
       -2   -1    0    0    0  501  0.00000000000E+00  0.00000000000E+00 -0.26476650995E+03  0.26476650996E+03  0.25500000920E-02 0.  1.
    10030    2    1    2    0    0  0.00000000000E+00  0.00000000000E+00 -0.26896036488E+02  0.50263698344E+03  0.50191686597E+03 0.  0.
        3    1    3    3  502    0 -0.13683426477E+02 -0.16741961851E+03  0.17326937405E+03  0.24132726950E+03  0.10100000352E+00 0. -1.
       -3    1    3    3    0  502  0.13683426477E+02  0.16741961851E+03 -0.20016541054E+03  0.26130971394E+03  0.10100000352E+00 0.  1.
</event>
<event>
 5   0  0.1683148E-01  0.5082367E+03  0.7818609E-02  0.1011651E+00
       -2   -1    0    0    0  501  0.00000000000E+00  0.00000000000E+00  0.82833189060E+03  0.82833189060E+03  0.25500000920E-02 0.  1.
        2   -1    0    0  501    0  0.00000000000E+00  0.00000000000E+00 -0.77959264161E+02  0.77959264203E+02  0.25500000920E-02 0. -1.
    10030    2    1    2    0    0  0.00000000000E+00  0.00000000000E+00  0.75037262644E+03  0.90629115480E+03  0.50823673497E+03 0.  0.
        2    1    3    3  502    0  0.91479659767E+02 -0.19448862366E+03  0.13342009872E+03  0.25297287529E+03  0.25500000920E-02 0. -1.
       -2    1    3    3    0  502 -0.91479659767E+02  0.19448862366E+03  0.61695252772E+03  0.65331827951E+03  0.25500000920E-02 0.  1.
</event>
<event>
 5   0  0.1147245E-01  0.4979633E+03  0.7818609E-02  0.1014312E+00
        1   -1    0    0  501    0  0.00000000000E+00  0.00000000000E+00  0.19342089746E+03  0.19342089752E+03  0.50400001928E-02 0. -1.
       -1   -1    0    0    0  501  0.00000000000E+00  0.00000000000E+00 -0.32050244883E+03  0.32050244887E+03  0.50400001928E-02 0.  1.
    10030    2    1    2    0    0  0.00000000000E+00  0.00000000000E+00 -0.12708155138E+03  0.51392334639E+03  0.49796333727E+03 0.  0.
        1    1    3    3  502    0  0.12681828242E+03 -0.16259297060E+03  0.80475661454E+02  0.22134968479E+03  0.50400001928E-02 0. -1.
       -1    1    3    3    0  502 -0.12681828242E+03  0.16259297060E+03 -0.20755721283E+03  0.29257366161E+03  0.50400001928E-02 0.  1.
</event>
<event>
 5   0  0.1760649E-01  0.4950654E+03  0.7818609E-02  0.1015075E+00
        2   -1    0    0  501    0  0.00000000000E+00  0.00000000000E+00  0.64759641177E+03  0.64759641177E+03  0.25500000920E-02 0. -1.
       -2   -1    0    0    0  501  0.00000000000E+00  0.00000000000E+00 -0.94615151231E+02  0.94615151265E+02  0.25500000920E-02 0.  1.
    10030    2    1    2    0    0  0.00000000000E+00  0.00000000000E+00  0.55298126054E+03  0.74221156304E+03  0.49506537932E+03 0.  0.
        5    1    3    3  502    0  0.98471205803E+02  0.10792818875E+03 -0.22997963841E+02  0.14797320243E+03  0.46999998093E+01 0.  1.
       -5    1    3    3    0  502 -0.98471205803E+02 -0.10792818875E+03  0.57597922438E+03  0.59423836061E+03  0.46999998093E+01 0. -1.
</event>
<event>
 5   0  0.1683148E-01  0.5075027E+03  0.7818609E-02  0.1011839E+00
        2   -1    0    0  501    0  0.00000000000E+00  0.00000000000E+00  0.22759740157E+03  0.22759740158E+03  0.25500000920E-02 0.  1.
       -2   -1    0    0    0  501  0.00000000000E+00  0.00000000000E+00 -0.28291073902E+03  0.28291073903E+03  0.25500000920E-02 0. -1.
    10030    2    1    2    0    0  0.00000000000E+00  0.00000000000E+00 -0.55313337454E+02  0.51050814061E+03  0.50750270574E+03 0.  0.
        2    1    3    3  502    0  0.23992458907E+03 -0.86262593743E+01 -0.11031095032E+03  0.26420962616E+03  0.25500000920E-02 0. -1.
       -2    1    3    3    0  502 -0.23992458907E+03  0.86262593743E+01  0.54997612862E+02  0.24629851445E+03  0.25500000920E-02 0.  1.
</event>
<event>
 5   0  0.1147245E-01  0.5361074E+03  0.7818609E-02  0.1004762E+00
        1   -1    0    0  501    0  0.00000000000E+00  0.00000000000E+00  0.21541779466E+03  0.21541779472E+03  0.50400001928E-02 0.  1.
       -1   -1    0    0    0  501  0.00000000000E+00  0.00000000000E+00 -0.33355084526E+03  0.33355084530E+03  0.50400001928E-02 0. -1.
    10030    2    1    2    0    0  0.00000000000E+00  0.00000000000E+00 -0.11813305060E+03  0.54896864002E+03  0.53610740536E+03 0.  0.
        1    1    3    3  502    0 -0.13320066953E+03 -0.76286976509E+02 -0.28408974208E+03  0.32290726645E+03  0.50400001928E-02 0. -1.
       -1    1    3    3    0  502  0.13320066953E+03  0.76286976509E+02  0.16595669148E+03  0.22606137357E+03  0.50400001928E-02 0.  1.
</event>
<event>
 5   0  0.1760649E-01  0.4981482E+03  0.7818609E-02  0.1014263E+00
       -2   -1    0    0    0  501  0.00000000000E+00  0.00000000000E+00  0.87157353795E+02  0.87157353832E+02  0.25500000920E-02 0.  1.
        2   -1    0    0  501    0  0.00000000000E+00  0.00000000000E+00 -0.71179213989E+03  0.71179213989E+03  0.25500000920E-02 0. -1.
    10030    2    1    2    0    0  0.00000000000E+00  0.00000000000E+00 -0.62463478609E+03  0.79894949372E+03  0.49814824854E+03 0.  0.
        5    1    3    3  502    0  0.67940720253E+02  0.15081495448E+03 -0.13750241745E+02  0.16604894191E+03  0.46999998093E+01 0.  1.
       -5    1    3    3    0  502 -0.67940720253E+02 -0.15081495448E+03 -0.61088454435E+03  0.63290055181E+03  0.46999998093E+01 0. -1.
</event>
<event>
 5   0  0.1760649E-01  0.5074115E+03  0.7818609E-02  0.1011862E+00
       -2   -1    0    0    0  501  0.00000000000E+00  0.00000000000E+00  0.36801754107E+02  0.36801754195E+02  0.25500000920E-02 0.  1.
        2   -1    0    0  501    0  0.00000000000E+00  0.00000000000E+00 -0.17490091310E+04  0.17490091310E+04  0.25500000920E-02 0. -1.
    10030    2    1    2    0    0  0.00000000000E+00  0.00000000000E+00 -0.17122073768E+04  0.17858108851E+04  0.50741148607E+03 0.  0.
        5    1    3    3  502    0  0.10819487136E+03  0.52773782255E+01 -0.16633601376E+04  0.16668902238E+04  0.46999998093E+01 0. -1.
       -5    1    3    3    0  502 -0.10819487136E+03 -0.52773782255E+01 -0.48847239241E+02  0.11892066133E+03  0.46999998093E+01 0.  1.
</event>
<event>
 5   0  0.1782124E-01  0.5072767E+03  0.7818609E-02  0.1011897E+00
        2   -1    0    0  501    0  0.00000000000E+00  0.00000000000E+00  0.14903240981E+03  0.14903240983E+03  0.25500000920E-02 0.  1.
       -2   -1    0    0    0  501  0.00000000000E+00  0.00000000000E+00 -0.43166728858E+03  0.43166728859E+03  0.25500000920E-02 0. -1.
    10030    2    1    2    0    0  0.00000000000E+00  0.00000000000E+00 -0.28263487877E+03  0.58069969842E+03  0.50727671448E+03 0.  0.
        3    1    3    3  502    0  0.70744069194E+02  0.41594219660E+02 -0.41604920708E+03  0.42406574414E+03  0.10100000352E+00 0. -1.
       -3    1    3    3    0  502 -0.70744069194E+02 -0.41594219660E+02  0.13341432831E+03  0.15663395429E+03  0.10100000352E+00 0.  1.
</event>
<event>
 5   0  0.7220250E-02  0.4987229E+03  0.7818609E-02  0.1014113E+00
       -4   -1    0    0    0  501  0.00000000000E+00  0.00000000000E+00  0.11546980478E+03  0.11547678864E+03  0.12699999809E+01 0. -1.
        4   -1    0    0  501    0  0.00000000000E+00  0.00000000000E+00 -0.53848148980E+03  0.53848298743E+03  0.12699999809E+01 0.  1.
    10030    2    1    2    0    0  0.00000000000E+00  0.00000000000E+00 -0.42301168502E+03  0.65395977608E+03  0.49872287201E+03 0.  0.
        4    1    3    3  502    0  0.21029053395E+03 -0.10947679527E+03 -0.11017066967E+03  0.26143157179E+03  0.12699999809E+01 0. -1.
       -4    1    3    3    0  502 -0.21029053395E+03  0.10947679527E+03 -0.31284101535E+03  0.39252820428E+03  0.12699999809E+01 0.  1.
</event>
<event>
 5   0  0.1123271E-01  0.5002646E+03  0.7818609E-02  0.1013710E+00
       -1   -1    0    0    0  501  0.00000000000E+00  0.00000000000E+00  0.39286495073E+03  0.39286495077E+03  0.50400001928E-02 0.  1.
        1   -1    0    0  501    0  0.00000000000E+00  0.00000000000E+00 -0.15925614863E+03  0.15925614870E+03  0.50400001928E-02 0. -1.
    10030    2    1    2    0    0  0.00000000000E+00  0.00000000000E+00  0.23360880211E+03  0.55212109947E+03  0.50026456606E+03 0.  0.
        5    1    3    3  502    0 -0.64045818104E+02  0.22255468078E+03  0.12617567269E+02  0.23197789928E+03  0.46999998093E+01 0. -1.
       -5    1    3    3    0  502  0.64045818104E+02 -0.22255468078E+03  0.22099123484E+03  0.32014320019E+03  0.46999998093E+01 0.  1.
</event>
<event>
 5   0  0.1683148E-01  0.4983341E+03  0.7818609E-02  0.1014215E+00
        2   -1    0    0  501    0  0.00000000000E+00  0.00000000000E+00  0.73180064649E+03  0.73180064649E+03  0.25500000920E-02 0.  1.
       -2   -1    0    0    0  501  0.00000000000E+00  0.00000000000E+00 -0.84837623682E+02  0.84837623720E+02  0.25500000920E-02 0. -1.
    10030    2    1    2    0    0  0.00000000000E+00  0.00000000000E+00  0.64696302281E+03  0.81663827021E+03  0.49833413640E+03 0.  0.
        2    1    3    3  502    0  0.10863928836E+03 -0.13837922008E+03  0.61262874980E+03  0.63738943246E+03  0.25500000920E-02 0.  1.
       -2    1    3    3    0  502 -0.10863928836E+03  0.13837922008E+03  0.34334273009E+02  0.17924883775E+03  0.25500000920E-02 0. -1.
</event>
<event>
 5   0  0.1827698E-01  0.4953789E+03  0.7818609E-02  0.1014992E+00
       -2   -1    0    0    0  501  0.00000000000E+00  0.00000000000E+00  0.37417129822E+02  0.37417129909E+02  0.25500000920E-02 0. -1.
        2   -1    0    0  501    0  0.00000000000E+00  0.00000000000E+00 -0.16396250037E+04  0.16396250037E+04  0.25500000920E-02 0.  1.
    10030    2    1    2    0    0  0.00000000000E+00  0.00000000000E+00 -0.16022078739E+04  0.16770421337E+04  0.49537889216E+03 0.  0.
        1    1    3    3  502    0 -0.10631125093E+03  0.85538213150E+02 -0.15009120753E+04  0.15071018299E+04  0.50400001928E-02 0.  1.
       -1    1    3    3    0  502  0.10631125093E+03 -0.85538213150E+02 -0.10129579861E+03  0.16994030370E+03  0.50400001928E-02 0. -1.
</event>
<event>
 5   0  0.1068522E-01  0.5024569E+03  0.7818609E-02  0.1013140E+00
        1   -1    0    0  501    0  0.00000000000E+00  0.00000000000E+00  0.46190454492E+03  0.46190454495E+03  0.50400001928E-02 0. -1.
       -1   -1    0    0    0  501  0.00000000000E+00  0.00000000000E+00 -0.13664238193E+03  0.13664238202E+03  0.50400001928E-02 0.  1.
    10030    2    1    2    0    0  0.00000000000E+00  0.00000000000E+00  0.32526216299E+03  0.59854692697E+03  0.50245691269E+03 0.  0.
        2    1    3    3  502    0 -0.10147720577E+03  0.11255719336E+02  0.43607567601E+03  0.44786862998E+03  0.25500000920E-02 0. -1.
       -2    1    3    3    0  502  0.10147720577E+03 -0.11255719336E+02 -0.11081351302E+03  0.15067829698E+03  0.25500000920E-02 0.  1.
</event>
<event>
 5   0  0.1147245E-01  0.5004536E+03  0.7818609E-02  0.1013661E+00
       -1   -1    0    0    0  501  0.00000000000E+00  0.00000000000E+00  0.21415718655E+03  0.21415718661E+03  0.50400001928E-02 0. -1.
        1   -1    0    0  501    0  0.00000000000E+00  0.00000000000E+00 -0.29237145338E+03  0.29237145343E+03  0.50400001928E-02 0.  1.
    10030    2    1    2    0    0  0.00000000000E+00  0.00000000000E+00 -0.78214266837E+02  0.50652864004E+03  0.50045358590E+03 0.  0.
        1    1    3    3  502    0  0.23877133922E+03 -0.48405696164E+02 -0.96884090197E+02  0.26218579446E+03  0.50400001928E-02 0.  1.
       -1    1    3    3    0  502 -0.23877133922E+03  0.48405696164E+02  0.18669823361E+02  0.24434284558E+03  0.50400001928E-02 0. -1.
</event>
<event>
 5   0  0.1683148E-01  0.5003950E+03  0.7818609E-02  0.1013676E+00
       -2   -1    0    0    0  501  0.00000000000E+00  0.00000000000E+00  0.33280758562E+02  0.33280758660E+02  0.25500000920E-02 0. -1.
        2   -1    0    0  501    0  0.00000000000E+00  0.00000000000E+00 -0.18809300732E+04  0.18809300732E+04  0.25500000920E-02 0.  1.
    10030    2    1    2    0    0  0.00000000000E+00  0.00000000000E+00 -0.18476493147E+04  0.19142108319E+04  0.50039496294E+03 0.  0.
        2    1    3    3  502    0 -0.18186555287E+03 -0.11751011664E+03 -0.14033759213E+04  0.14199815785E+04  0.25500000920E-02 0.  1.
       -2    1    3    3    0  502  0.18186555287E+03  0.11751011664E+03 -0.44427339340E+03  0.49422925341E+03  0.25500000920E-02 0. -1.
</event>
<event>
 5   0  0.1147245E-01  0.5234889E+03  0.7818609E-02  0.1007824E+00
       -1   -1    0    0    0  501  0.00000000000E+00  0.00000000000E+00  0.10767067513E+03  0.10767067525E+03  0.50400001928E-02 0.  1.
        1   -1    0    0  501    0  0.00000000000E+00  0.00000000000E+00 -0.63629349359E+03  0.63629349361E+03  0.50400001928E-02 0. -1.
    10030    2    1    2    0    0  0.00000000000E+00  0.00000000000E+00 -0.52862281846E+03  0.74396416887E+03  0.52348887320E+03 0.  0.
        1    1    3    3  502    0 -0.23067683448E+03  0.12340424164E+03 -0.27617973341E+03  0.38041510747E+03  0.50400001928E-02 0. -1.
       -1    1    3    3    0  502  0.23067683448E+03 -0.12340424164E+03 -0.25244308505E+03  0.36354906139E+03  0.50400001928E-02 0.  1.
</event>
<event>
 5   0  0.1074281E-01  0.5024622E+03  0.7818609E-02  0.1013138E+00
        1   -1    0    0  501    0  0.00000000000E+00  0.00000000000E+00  0.63359498307E+03  0.63359498309E+03  0.50400001928E-02 0. -1.
       -1   -1    0    0    0  501  0.00000000000E+00  0.00000000000E+00 -0.99617384419E+02  0.99617384547E+02  0.50400001928E-02 0.  1.
    10030    2    1    2    0    0  0.00000000000E+00  0.00000000000E+00  0.53397759865E+03  0.73321236764E+03  0.50246223758E+03 0.  0.
        4    1    3    3  502    0  0.16207605771E+03  0.64348521475E+02  0.30880575961E+01  0.17441482076E+03  0.12699999809E+01 0.  1.
       -4    1    3    3    0  502 -0.16207605771E+03 -0.64348521475E+02  0.53088954106E+03  0.55879754688E+03  0.12699999809E+01 0. -1.
</event>
<event>
 5   0  0.1068522E-01  0.5006476E+03  0.7818609E-02  0.1013610E+00
       -1   -1    0    0    0  501  0.00000000000E+00  0.00000000000E+00  0.58638248298E+02  0.58638248514E+02  0.50400001928E-02 0.  1.
        1   -1    0    0  501    0  0.00000000000E+00  0.00000000000E+00 -0.10686201316E+04  0.10686201316E+04  0.50400001928E-02 0. -1.
    10030    2    1    2    0    0  0.00000000000E+00  0.00000000000E+00 -0.10099818833E+04  0.11272583801E+04  0.50064763153E+03 0.  0.
        2    1    3    3  502    0 -0.20826240137E+03 -0.81870086085E+02 -0.25238913896E+03  0.33730730246E+03  0.25500000920E-02 0.  1.
       -2    1    3    3    0  502  0.20826240137E+03  0.81870086085E+02 -0.75759274430E+03  0.78995107763E+03  0.25500000920E-02 0. -1.
</event>
<event>
 5   0  0.1709372E-01  0.4537890E+03  0.7818609E-02  0.1026598E+00
       -2   -1    0    0    0  501  0.00000000000E+00  0.00000000000E+00  0.15977449297E+03  0.15977449299E+03  0.25500000920E-02 0. -1.
        2   -1    0    0  501    0  0.00000000000E+00  0.00000000000E+00 -0.32221102720E+03  0.32221102721E+03  0.25500000920E-02 0.  1.
    10030    2    1    2    0    0  0.00000000000E+00  0.00000000000E+00 -0.16243653423E+03  0.48198552020E+03  0.45378895319E+03 0.  0.
        4    1    3    3  502    0  0.19250904675E+03 -0.11742637061E+03 -0.10789469280E+03  0.24998312590E+03  0.12699999809E+01 0.  1.
       -4    1    3    3    0  502 -0.19250904675E+03  0.11742637061E+03 -0.54541841426E+02  0.23200239431E+03  0.12699999809E+01 0. -1.
</event>
<event>
 5   0  0.1760649E-01  0.4819049E+03  0.7818609E-02  0.1018613E+00
       -2   -1    0    0    0  501  0.00000000000E+00  0.00000000000E+00  0.33025464603E+03  0.33025464604E+03  0.25500000920E-02 0.  1.
        2   -1    0    0  501    0  0.00000000000E+00  0.00000000000E+00 -0.17579789625E+03  0.17579789627E+03  0.25500000920E-02 0. -1.
    10030    2    1    2    0    0  0.00000000000E+00  0.00000000000E+00  0.15445674978E+03  0.50605254232E+03  0.48190485371E+03 0.  0.
        5    1    3    3  502    0  0.94794227629E+02  0.19774366635E+03 -0.27506380416E+02  0.22105925481E+03  0.46999998093E+01 0. -1.
       -5    1    3    3    0  502 -0.94794227629E+02 -0.19774366635E+03  0.18196313020E+03  0.28499328751E+03  0.46999998093E+01 0.  1.
</event>
<event>
 5   0  0.1709372E-01  0.5155557E+03  0.7818609E-02  0.1009797E+00
       -2   -1    0    0    0  501  0.00000000000E+00  0.00000000000E+00  0.54089572805E+02  0.54089572865E+02  0.25500000920E-02 0. -1.
        2   -1    0    0  501    0  0.00000000000E+00  0.00000000000E+00 -0.12285068676E+04  0.12285068676E+04  0.25500000920E-02 0.  1.
    10030    2    1    2    0    0  0.00000000000E+00  0.00000000000E+00 -0.11744172948E+04  0.12825964405E+04  0.51555566798E+03 0.  0.
        4    1    3    3  502    0 -0.74473430586E+01 -0.10707597383E+03 -0.41561127363E+01  0.10742259196E+03  0.12699999809E+01 0. -1.
       -4    1    3    3    0  502  0.74473430586E+01  0.10707597383E+03 -0.11702611820E+04  0.11751738485E+04  0.12699999809E+01 0.  1.
</event>
<event>
 5   0  0.1827698E-01  0.5025527E+03  0.7818609E-02  0.1013115E+00
       -2   -1    0    0    0  501  0.00000000000E+00  0.00000000000E+00  0.27066169003E+03  0.27066169004E+03  0.25500000920E-02 0. -1.
        2   -1    0    0  501    0  0.00000000000E+00  0.00000000000E+00 -0.23327945520E+03  0.23327945521E+03  0.25500000920E-02 0.  1.
    10030    2    1    2    0    0  0.00000000000E+00  0.00000000000E+00  0.37382234828E+02  0.50394114525E+03  0.50255272997E+03 0.  0.
        1    1    3    3  502    0 -0.19525096975E+03  0.91552046193E+02 -0.11064231442E+03  0.24237664928E+03  0.50400001928E-02 0.  1.
       -1    1    3    3    0  502  0.19525096975E+03 -0.91552046193E+02  0.14802454925E+03  0.26156449597E+03  0.50400001928E-02 0. -1.
</event>
<event>
 5   0  0.1760649E-01  0.5007737E+03  0.7818609E-02  0.1013577E+00
       -2   -1    0    0    0  501  0.00000000000E+00  0.00000000000E+00  0.13133528243E+03  0.13133528245E+03  0.25500000920E-02 0. -1.
        2   -1    0    0  501    0  0.00000000000E+00  0.00000000000E+00 -0.47735523924E+03  0.47735523925E+03  0.25500000920E-02 0.  1.
    10030    2    1    2    0    0  0.00000000000E+00  0.00000000000E+00 -0.34601995682E+03  0.60869052170E+03  0.50077374202E+03 0.  0.
        5    1    3    3  502    0  0.67860623411E+02 -0.21078341783E+03 -0.31495198327E+03  0.38503448574E+03  0.46999998093E+01 0.  1.
       -5    1    3    3    0  502 -0.67860623411E+02  0.21078341783E+03 -0.31067973543E+02  0.22365603596E+03  0.46999998093E+01 0. -1.
</event>
<event>
 5   0  0.1782124E-01  0.5314270E+03  0.7818609E-02  0.1005887E+00
       -2   -1    0    0    0  501  0.00000000000E+00  0.00000000000E+00  0.20274153565E+03  0.20274153567E+03  0.25500000920E-02 0.  1.
        2   -1    0    0  501    0  0.00000000000E+00  0.00000000000E+00 -0.34824473363E+03  0.34824473364E+03  0.25500000920E-02 0. -1.
    10030    2    1    2    0    0  0.00000000000E+00  0.00000000000E+00 -0.14550319798E+03  0.55098626931E+03  0.53142703012E+03 0.  0.
        3    1    3    3  502    0 -0.14886414574E+03 -0.61284808454E+02  0.14642248237E+03  0.21761414287E+03  0.10100000352E+00 0.  1.
       -3    1    3    3    0  502  0.14886414574E+03  0.61284808454E+02 -0.29192568035E+03  0.33337212644E+03  0.10100000352E+00 0. -1.
</event>
<event>
 5   0  0.1709372E-01  0.5017982E+03  0.7818609E-02  0.1013311E+00
       -2   -1    0    0    0  501  0.00000000000E+00  0.00000000000E+00  0.73770239051E+02  0.73770239095E+02  0.25500000920E-02 0.  1.
        2   -1    0    0  501    0  0.00000000000E+00  0.00000000000E+00 -0.85333005793E+03  0.85333005794E+03  0.25500000920E-02 0. -1.
    10030    2    1    2    0    0  0.00000000000E+00  0.00000000000E+00 -0.77955981888E+03  0.92710029703E+03  0.50179821596E+03 0.  0.
        4    1    3    3  502    0  0.64426500554E+02 -0.23879272487E+02  0.56043258408E+02  0.88676114828E+02  0.12699999809E+01 0.  1.
       -4    1    3    3    0  502 -0.64426500554E+02  0.23879272487E+02 -0.83560307729E+03  0.83842418220E+03  0.12699999809E+01 0. -1.
</event>
<event>
 5   0  0.1147245E-01  0.4959868E+03  0.7818609E-02  0.1014832E+00
        1   -1    0    0  501    0  0.00000000000E+00  0.00000000000E+00  0.14640518617E+04  0.14640518617E+04  0.50400001928E-02 0.  1.
       -1   -1    0    0    0  501  0.00000000000E+00  0.00000000000E+00 -0.42007201261E+02  0.42007201564E+02  0.50400001928E-02 0. -1.
    10030    2    1    2    0    0  0.00000000000E+00  0.00000000000E+00  0.14220446604E+04  0.15060590632E+04  0.49598677984E+03 0.  0.
        1    1    3    3  502    0 -0.13387520037E+03 -0.24176612517E+02  0.81408833968E+02  0.15853856357E+03  0.50400001928E-02 0. -1.
       -1    1    3    3    0  502  0.13387520037E+03  0.24176612517E+02  0.13406358264E+04  0.13475204997E+04  0.50400001928E-02 0.  1.
</event>
<event>
 5   0  0.1068522E-01  0.4973244E+03  0.7818609E-02  0.1014480E+00
       -1   -1    0    0    0  501  0.00000000000E+00  0.00000000000E+00  0.12629761891E+03  0.12629761901E+03  0.50400001928E-02 0.  1.
        1   -1    0    0  501    0  0.00000000000E+00  0.00000000000E+00 -0.48958074119E+03  0.48958074122E+03  0.50400001928E-02 0. -1.
    10030    2    1    2    0    0  0.00000000000E+00  0.00000000000E+00 -0.36328312229E+03  0.61587836023E+03  0.49732436866E+03 0.  0.
        2    1    3    3  502    0 -0.17971031933E+02 -0.21120506334E+03 -0.34264260344E+03  0.40290754581E+03  0.25500000920E-02 0. -1.
       -2    1    3    3    0  502  0.17971031933E+02  0.21120506334E+03 -0.20640518846E+02  0.21297081442E+03  0.25500000920E-02 0.  1.
</event>
<event>
 5   0  0.1141970E-01  0.6366781E+03  0.7818609E-02  0.9832103E-01
       -1   -1    0    0    0  501  0.00000000000E+00  0.00000000000E+00  0.61239192045E+02  0.61239192253E+02  0.50400001928E-02 0.  1.
        1   -1    0    0  501    0  0.00000000000E+00  0.00000000000E+00 -0.16548185945E+04  0.16548185945E+04  0.50400001928E-02 0. -1.
    10030    2    1    2    0    0  0.00000000000E+00  0.00000000000E+00 -0.15935794024E+04  0.17160577867E+04  0.63667810985E+03 0.  0.
        3    1    3    3  502    0  0.25371238645E+03 -0.11624310028E+03 -0.12096005444E+04  0.12413766232E+04  0.10100000352E+00 0. -1.
       -3    1    3    3    0  502 -0.25371238645E+03  0.11624310028E+03 -0.38397885801E+03  0.47468116352E+03  0.10100000352E+00 0.  1.
</event>
<event>
 5   0  0.1709372E-01  0.5013393E+03  0.7818609E-02  0.1013430E+00
        2   -1    0    0  501    0  0.00000000000E+00  0.00000000000E+00  0.44465353457E+03  0.44465353457E+03  0.25500000920E-02 0.  1.
       -2   -1    0    0    0  501  0.00000000000E+00  0.00000000000E+00 -0.14131289810E+03  0.14131289812E+03  0.25500000920E-02 0. -1.
    10030    2    1    2    0    0  0.00000000000E+00  0.00000000000E+00  0.30334063647E+03  0.58596643269E+03  0.50133932472E+03 0.  0.
        4    1    3    3  502    0  0.17997291059E+03 -0.76341159597E+01 -0.52067464800E+02  0.18751309838E+03  0.12699999809E+01 0. -1.
       -4    1    3    3    0  502 -0.17997291059E+03  0.76341159597E+01  0.35540810127E+03  0.39845333431E+03  0.12699999809E+01 0.  1.
</event>
<event>
 5   0  0.1074281E-01  0.5026984E+03  0.7818609E-02  0.1013077E+00
       -1   -1    0    0    0  501  0.00000000000E+00  0.00000000000E+00  0.19386487648E+03  0.19386487654E+03  0.50400001928E-02 0. -1.
        1   -1    0    0  501    0  0.00000000000E+00  0.00000000000E+00 -0.32587865652E+03  0.32587865656E+03  0.50400001928E-02 0.  1.
    10030    2    1    2    0    0  0.00000000000E+00  0.00000000000E+00 -0.13201378005E+03  0.51974353311E+03  0.50269842061E+03 0.  0.
        4    1    3    3  502    0  0.15219009498E+03 -0.13160423221E+03 -0.22175777810E+03  0.29943216927E+03  0.12699999809E+01 0.  1.
       -4    1    3    3    0  502 -0.15219009498E+03  0.13160423221E+03  0.89743998058E+02  0.22031136383E+03  0.12699999809E+01 0. -1.
</event>
<event>
 5   0  0.1123271E-01  0.4984335E+03  0.7818609E-02  0.1014189E+00
       -1   -1    0    0    0  501  0.00000000000E+00  0.00000000000E+00  0.40177291236E+03  0.40177291239E+03  0.50400001928E-02 0.  1.
        1   -1    0    0  501    0  0.00000000000E+00  0.00000000000E+00 -0.15458727492E+03  0.15458727501E+03  0.50400001928E-02 0. -1.
    10030    2    1    2    0    0  0.00000000000E+00  0.00000000000E+00  0.24718563743E+03  0.55636018740E+03  0.49843346473E+03 0.  0.
        5    1    3    3  502    0  0.70002095901E+02 -0.19283488261E+03 -0.34269330203E+02  0.20804341463E+03  0.46999998093E+01 0. -1.
       -5    1    3    3    0  502 -0.70002095901E+02  0.19283488261E+03  0.28145496764E+03  0.34831677276E+03  0.46999998093E+01 0.  1.
</event>
<event>
 5   0  0.1074281E-01  0.5000597E+03  0.7818609E-02  0.1013763E+00
       -1   -1    0    0    0  501  0.00000000000E+00  0.00000000000E+00  0.21187373454E+03  0.21187373460E+03  0.50400001928E-02 0. -1.
        1   -1    0    0  501    0  0.00000000000E+00  0.00000000000E+00 -0.29505742054E+03  0.29505742059E+03  0.50400001928E-02 0.  1.
    10030    2    1    2    0    0  0.00000000000E+00  0.00000000000E+00 -0.83183686002E+02  0.50693115519E+03  0.50005966692E+03 0.  0.
        4    1    3    3  502    0 -0.11331924290E+03 -0.20607548153E+03  0.44456524648E+02  0.23934567133E+03  0.12699999809E+01 0. -1.
       -4    1    3    3    0  502  0.11331924290E+03  0.20607548153E+03 -0.12764021065E+03  0.26758548386E+03  0.12699999809E+01 0.  1.
</event>
<event>
 5   0  0.1068522E-01  0.5179539E+03  0.7818609E-02  0.1009196E+00
       -1   -1    0    0    0  501  0.00000000000E+00  0.00000000000E+00  0.97173321617E+02  0.97173321748E+02  0.50400001928E-02 0.  1.
        1   -1    0    0  501    0  0.00000000000E+00  0.00000000000E+00 -0.69020040023E+03  0.69020040024E+03  0.50400001928E-02 0. -1.
    10030    2    1    2    0    0  0.00000000000E+00  0.00000000000E+00 -0.59302707861E+03  0.78737372199E+03  0.51795391892E+03 0.  0.
        2    1    3    3  502    0  0.37643071648E+02  0.41404595447E+01  0.92941454906E+02  0.10036064116E+03  0.25500000920E-02 0.  1.
       -2    1    3    3    0  502 -0.37643071648E+02 -0.41404595447E+01 -0.68596853351E+03  0.68701308083E+03  0.25500000920E-02 0. -1.
</event>
<event>
 5   0  0.1760649E-01  0.5085616E+03  0.7818609E-02  0.1011568E+00
       -2   -1    0    0    0  501  0.00000000000E+00  0.00000000000E+00  0.32372214949E+02  0.32372215049E+02  0.25500000920E-02 0.  1.
        2   -1    0    0  501    0  0.00000000000E+00  0.00000000000E+00 -0.19973523463E+04  0.19973523463E+04  0.25500000920E-02 0. -1.
    10030    2    1    2    0    0  0.00000000000E+00  0.00000000000E+00 -0.19649801314E+04  0.20297245614E+04  0.50856157774E+03 0.  0.
        5    1    3    3  502    0  0.34924433484E+02 -0.66559479592E+02 -0.19518181431E+04  0.19532705993E+04  0.46999998093E+01 0. -1.
       -5    1    3    3    0  502 -0.34924433484E+02  0.66559479592E+02 -0.13161988236E+02  0.76453962031E+02  0.46999998093E+01 0.  1.
</event>
<event>
 5   0  0.1709372E-01  0.4974358E+03  0.7818609E-02  0.1014450E+00
       -2   -1    0    0    0  501  0.00000000000E+00  0.00000000000E+00  0.11212529959E+03  0.11212529961E+03  0.25500000920E-02 0.  1.
        2   -1    0    0  501    0  0.00000000000E+00  0.00000000000E+00 -0.55170950046E+03  0.55170950047E+03  0.25500000920E-02 0. -1.
    10030    2    1    2    0    0  0.00000000000E+00  0.00000000000E+00 -0.43958420088E+03  0.66383480008E+03  0.49743579700E+03 0.  0.
        4    1    3    3  502    0 -0.10953263406E+02 -0.24713028054E+03 -0.25422230620E+03  0.35471670867E+03  0.12699999809E+01 0. -1.
       -4    1    3    3    0  502  0.10953263406E+02  0.24713028054E+03 -0.18536189467E+03  0.30911809141E+03  0.12699999809E+01 0.  1.
</event>
<event>
 5   0  0.1141970E-01  0.4956287E+03  0.7818609E-02  0.1014926E+00
        1   -1    0    0  501    0  0.00000000000E+00  0.00000000000E+00  0.16215449108E+03  0.16215449116E+03  0.50400001928E-02 0.  1.
       -1   -1    0    0    0  501  0.00000000000E+00  0.00000000000E+00 -0.37872497116E+03  0.37872497120E+03  0.50400001928E-02 0. -1.
    10030    2    1    2    0    0  0.00000000000E+00  0.00000000000E+00 -0.21657048008E+03  0.54087946236E+03  0.49562871180E+03 0.  0.
        3    1    3    3  502    0  0.20890728813E+03 -0.13299223611E+03 -0.11821276218E+03  0.27441475405E+03  0.10100000352E+00 0.  1.
       -3    1    3    3    0  502 -0.20890728813E+03  0.13299223611E+03 -0.98357717899E+02  0.26646470830E+03  0.10100000352E+00 0. -1.
</event>
<event>
 5   0  0.7220250E-02  0.5212393E+03  0.7818609E-02  0.1008379E+00
       -4   -1    0    0    0  501  0.00000000000E+00  0.00000000000E+00  0.29581707672E+03  0.29581980288E+03  0.12699999809E+01 0.  1.
        4   -1    0    0  501    0  0.00000000000E+00  0.00000000000E+00 -0.22960457262E+03  0.22960808494E+03  0.12699999809E+01 0. -1.
    10030    2    1    2    0    0  0.00000000000E+00  0.00000000000E+00  0.66212504096E+02  0.52542788782E+03  0.52123926329E+03 0.  0.
        1    1    3    3  502    0  0.12780350948E+01 -0.20483808175E+03  0.19552933167E+03  0.28318190740E+03  0.50400001928E-02 0.  1.
       -1    1    3    3    0  502 -0.12780350948E+01  0.20483808175E+03 -0.12931682758E+03  0.24224598042E+03  0.50400001928E-02 0. -1.
</event>
<event>
 5   0  0.1683148E-01  0.4960081E+03  0.7818609E-02  0.1014826E+00
       -2   -1    0    0    0  501  0.00000000000E+00  0.00000000000E+00  0.37107731486E+03  0.37107731486E+03  0.25500000920E-02 0.  1.
        2   -1    0    0  501    0  0.00000000000E+00  0.00000000000E+00 -0.16574987358E+03  0.16574987360E+03  0.25500000920E-02 0. -1.
    10030    2    1    2    0    0  0.00000000000E+00  0.00000000000E+00  0.20532744128E+03  0.53682718846E+03  0.49600813716E+03 0.  0.
        2    1    3    3  502    0 -0.65675520225E+02 -0.15863042360E+02  0.36092461975E+03  0.36719407841E+03  0.25500000920E-02 0.  1.
       -2    1    3    3    0  502  0.65675520225E+02  0.15863042360E+02 -0.15559717848E+03  0.16963311005E+03  0.25500000920E-02 0. -1.
</event>
<event>
 5   0  0.1074281E-01  0.4885148E+03  0.7818609E-02  0.1016821E+00
       -1   -1    0    0    0  501  0.00000000000E+00  0.00000000000E+00  0.41546316005E+03  0.41546316009E+03  0.50400001928E-02 0. -1.
        1   -1    0    0  501    0  0.00000000000E+00  0.00000000000E+00 -0.14360283671E+03  0.14360283680E+03  0.50400001928E-02 0.  1.
    10030    2    1    2    0    0  0.00000000000E+00  0.00000000000E+00  0.27186032334E+03  0.55906599689E+03  0.48851484468E+03 0.  0.
        4    1    3    3  502    0 -0.89246512204E+02  0.16824803211E+03 -0.39086500752E+02  0.19442661261E+03  0.12699999809E+01 0.  1.
       -4    1    3    3    0  502  0.89246512204E+02 -0.16824803211E+03  0.31094682409E+03  0.36463938428E+03  0.12699999809E+01 0. -1.
</event>
<event>
 5   0  0.1709372E-01  0.5078162E+03  0.7818609E-02  0.1011759E+00
       -2   -1    0    0    0  501  0.00000000000E+00  0.00000000000E+00  0.24193212148E+03  0.24193212149E+03  0.25500000920E-02 0. -1.
        2   -1    0    0  501    0  0.00000000000E+00  0.00000000000E+00 -0.26647689242E+03  0.26647689243E+03  0.25500000920E-02 0.  1.
    10030    2    1    2    0    0  0.00000000000E+00  0.00000000000E+00 -0.24544770934E+02  0.50840901392E+03  0.50781618688E+03 0.  0.
        4    1    3    3  502    0 -0.44497547611E+02 -0.67744037793E+02  0.22862942297E+03  0.24257434396E+03  0.12699999809E+01 0. -1.
       -4    1    3    3    0  502  0.44497547611E+02  0.67744037793E+02 -0.25317419390E+03  0.26583466997E+03  0.12699999809E+01 0.  1.
</event>
<event>
 5   0  0.1074281E-01  0.4808875E+03  0.7818609E-02  0.1018892E+00
       -1   -1    0    0    0  501  0.00000000000E+00  0.00000000000E+00  0.32853126980E+02  0.32853127366E+02  0.50400001928E-02 0.  1.
        1   -1    0    0  501    0  0.00000000000E+00  0.00000000000E+00 -0.17597474633E+04  0.17597474633E+04  0.50400001928E-02 0. -1.
    10030    2    1    2    0    0  0.00000000000E+00  0.00000000000E+00 -0.17268943363E+04  0.17926005907E+04  0.48088754285E+03 0.  0.
        4    1    3    3  502    0 -0.29964769536E+02 -0.23847101410E+03 -0.88853160896E+03  0.92046528723E+03  0.12699999809E+01 0.  1.
       -4    1    3    3    0  502  0.29964769536E+02  0.23847101410E+03 -0.83836272737E+03  0.87213530345E+03  0.12699999809E+01 0. -1.
</event>
<event>
 5   0  0.1147245E-01  0.5140924E+03  0.7818609E-02  0.1010165E+00
        1   -1    0    0  501    0  0.00000000000E+00  0.00000000000E+00  0.59272431524E+03  0.59272431526E+03  0.50400001928E-02 0.  1.
       -1   -1    0    0    0  501  0.00000000000E+00  0.00000000000E+00 -0.11147300344E+03  0.11147300356E+03  0.50400001928E-02 0. -1.
    10030    2    1    2    0    0  0.00000000000E+00  0.00000000000E+00  0.48125131180E+03  0.70419731882E+03  0.51409244181E+03 0.  0.
        1    1    3    3  502    0 -0.94605176187E+02  0.66341560461E+02  0.55514451246E+03  0.56704212520E+03  0.50400001928E-02 0.  1.
       -1    1    3    3    0  502  0.94605176187E+02 -0.66341560461E+02 -0.73893200668E+02  0.13715519362E+03  0.50400001928E-02 0. -1.
</event>
<event>
 5   0  0.1782124E-01  0.4978159E+03  0.7818609E-02  0.1014351E+00
        2   -1    0    0  501    0  0.00000000000E+00  0.00000000000E+00  0.22656960372E+03  0.22656960374E+03  0.25500000920E-02 0.  1.
       -2   -1    0    0    0  501  0.00000000000E+00  0.00000000000E+00 -0.27344875004E+03  0.27344875005E+03  0.25500000920E-02 0. -1.
    10030    2    1    2    0    0  0.00000000000E+00  0.00000000000E+00 -0.46879146314E+02  0.50001835379E+03  0.49781592960E+03 0.  0.
        3    1    3    3  502    0 -0.17988831272E+03  0.11304133831E+03  0.10681459179E+03  0.23779721705E+03  0.10100000352E+00 0.  1.
       -3    1    3    3    0  502  0.17988831272E+03 -0.11304133831E+03 -0.15369373810E+03  0.26222113674E+03  0.10100000352E+00 0. -1.
</event>
<event>
 5   0  0.1123271E-01  0.5046852E+03  0.7818609E-02  0.1012563E+00
        1   -1    0    0  501    0  0.00000000000E+00  0.00000000000E+00  0.31102614909E+03  0.31102614914E+03  0.50400001928E-02 0.  1.
       -1   -1    0    0    0  501  0.00000000000E+00  0.00000000000E+00 -0.20473132729E+03  0.20473132735E+03  0.50400001928E-02 0. -1.
    10030    2    1    2    0    0  0.00000000000E+00  0.00000000000E+00  0.10629482181E+03  0.51575747649E+03  0.50468523399E+03 0.  0.
        5    1    3    3  502    0  0.48145148056E+02 -0.22769746838E+03  0.15270447668E+03  0.27839691015E+03  0.46999998093E+01 0.  1.
       -5    1    3    3    0  502 -0.48145148056E+02  0.22769746838E+03 -0.46409654871E+02  0.23736056633E+03  0.46999998093E+01 0. -1.
</event>
<event>
 5   0  0.1782124E-01  0.5043965E+03  0.7818609E-02  0.1012638E+00
        2   -1    0    0  501    0  0.00000000000E+00  0.00000000000E+00  0.15817389040E+03  0.15817389042E+03  0.25500000920E-02 0. -1.
       -2   -1    0    0    0  501  0.00000000000E+00  0.00000000000E+00 -0.40211413491E+03  0.40211413492E+03  0.25500000920E-02 0.  1.
    10030    2    1    2    0    0  0.00000000000E+00  0.00000000000E+00 -0.24394024451E+03  0.56028802534E+03  0.50439649924E+03 0.  0.
        3    1    3    3  502    0 -0.22703614137E+03  0.67828234624E+02 -0.26041849821E+02  0.23837841145E+03  0.10100000352E+00 0. -1.
       -3    1    3    3    0  502  0.22703614137E+03 -0.67828234624E+02 -0.21789839469E+03  0.32190961389E+03  0.10100000352E+00 0.  1.
</event>
<event>
 5   0  0.1709372E-01  0.4752176E+03  0.7818609E-02  0.1020458E+00
       -2   -1    0    0    0  501  0.00000000000E+00  0.00000000000E+00  0.16469891594E+03  0.16469891596E+03  0.25500000920E-02 0.  1.
        2   -1    0    0  501    0  0.00000000000E+00  0.00000000000E+00 -0.34279490401E+03  0.34279490402E+03  0.25500000920E-02 0. -1.
    10030    2    1    2    0    0  0.00000000000E+00  0.00000000000E+00 -0.17809598807E+03  0.50749381998E+03  0.47521763051E+03 0.  0.
        4    1    3    3  502    0  0.59867283067E+02  0.22989505708E+03 -0.84211921137E+02  0.25204977567E+03  0.12699999809E+01 0.  1.
       -4    1    3    3    0  502 -0.59867283067E+02 -0.22989505708E+03 -0.93884066931E+02  0.25544404431E+03  0.12699999809E+01 0. -1.
</event>
<event>
 5   0  0.1782124E-01  0.5088601E+03  0.7818609E-02  0.1011492E+00
       -2   -1    0    0    0  501  0.00000000000E+00  0.00000000000E+00  0.82083444131E+02  0.82083444171E+02  0.25500000920E-02 0. -1.
        2   -1    0    0  501    0  0.00000000000E+00  0.00000000000E+00 -0.78864447490E+03  0.78864447491E+03  0.25500000920E-02 0.  1.
    10030    2    1    2    0    0  0.00000000000E+00  0.00000000000E+00 -0.70656103077E+03  0.87072791908E+03  0.50886011718E+03 0.  0.
        3    1    3    3  502    0 -0.24855100980E+03  0.13615922943E+02 -0.44336562058E+03  0.50846443488E+03  0.10100000352E+00 0.  1.
       -3    1    3    3    0  502  0.24855100980E+03 -0.13615922943E+02 -0.26319541020E+03  0.36226348420E+03  0.10100000352E+00 0. -1.
</event>
<event>
 5   0  0.1827698E-01  0.4984794E+03  0.7818609E-02  0.1014177E+00
       -2   -1    0    0    0  501  0.00000000000E+00  0.00000000000E+00  0.18194640086E+03  0.18194640088E+03  0.25500000920E-02 0.  1.
        2   -1    0    0  501    0  0.00000000000E+00  0.00000000000E+00 -0.34142164473E+03  0.34142164474E+03  0.25500000920E-02 0. -1.
    10030    2    1    2    0    0  0.00000000000E+00  0.00000000000E+00 -0.15947524387E+03  0.52336804562E+03  0.49847944569E+03 0.  0.
        1    1    3    3  502    0 -0.12016205022E+03 -0.16958409001E+03 -0.22416587557E+03  0.30569269159E+03  0.50400001928E-02 0. -1.
       -1    1    3    3    0  502  0.12016205022E+03  0.16958409001E+03  0.64690631698E+02  0.21767535403E+03  0.50400001928E-02 0.  1.
</event>
<event>
 5   0  0.7220250E-02  0.4970286E+03  0.7818609E-02  0.1014557E+00
       -4   -1    0    0    0  501  0.00000000000E+00  0.00000000000E+00  0.11872510052E+03  0.11873189291E+03  0.12699999809E+01 0. -1.
        4   -1    0    0  501    0  0.00000000000E+00  0.00000000000E+00 -0.52016533120E+03  0.52016688157E+03  0.12699999809E+01 0.  1.
    10030    2    1    2    0    0  0.00000000000E+00  0.00000000000E+00 -0.40144023067E+03  0.63889877448E+03  0.49702855575E+03 0.  0.
        1    1    3    3  502    0 -0.12702941123E+03  0.16795784943E+03 -0.37034437311E+03  0.42602965299E+03  0.50400001928E-02 0.  1.
       -1    1    3    3    0  502  0.12702941123E+03 -0.16795784943E+03 -0.31095857560E+02  0.21286912149E+03  0.50400001928E-02 0. -1.
</event>
<event>
 5   0  0.1068522E-01  0.4597047E+03  0.7818609E-02  0.1024867E+00
        1   -1    0    0  501    0  0.00000000000E+00  0.00000000000E+00  0.52509936098E+03  0.52509936101E+03  0.50400001928E-02 0. -1.
       -1   -1    0    0    0  501  0.00000000000E+00  0.00000000000E+00 -0.10061353584E+03  0.10061353597E+03  0.50400001928E-02 0.  1.
    10030    2    1    2    0    0  0.00000000000E+00  0.00000000000E+00  0.42448582514E+03  0.62571289698E+03  0.45970470272E+03 0.  0.
        2    1    3    3  502    0 -0.96114679003E+02  0.17208642624E+03  0.51306272365E+02  0.20367646700E+03  0.25500000920E-02 0.  1.
       -2    1    3    3    0  502  0.96114679003E+02 -0.17208642624E+03  0.37317955277E+03  0.42203642998E+03  0.25500000920E-02 0. -1.
</event>
<event>
 5   0  0.1760649E-01  0.4956411E+03  0.7818609E-02  0.1014923E+00
       -2   -1    0    0    0  501  0.00000000000E+00  0.00000000000E+00  0.51243341143E+02  0.51243341207E+02  0.25500000920E-02 0. -1.
        2   -1    0    0  501    0  0.00000000000E+00  0.00000000000E+00 -0.11984978710E+04  0.11984978710E+04  0.25500000920E-02 0.  1.
    10030    2    1    2    0    0  0.00000000000E+00  0.00000000000E+00 -0.11472545299E+04  0.12497412122E+04  0.49564114158E+03 0.  0.
        5    1    3    3  502    0  0.15724702296E+02  0.13850250387E+03 -0.57110242671E+02  0.15071124596E+03  0.46999998093E+01 0. -1.
       -5    1    3    3    0  502 -0.15724702296E+02 -0.13850250387E+03 -0.10901442872E+04  0.10990299663E+04  0.46999998093E+01 0.  1.
</event>
<event>
 5   0  0.1074281E-01  0.5006134E+03  0.7818609E-02  0.1013619E+00
       -1   -1    0    0    0  501  0.00000000000E+00  0.00000000000E+00  0.29673814607E+03  0.29673814611E+03  0.50400001928E-02 0. -1.
        1   -1    0    0  501    0  0.00000000000E+00  0.00000000000E+00 -0.21114049385E+03  0.21114049391E+03  0.50400001928E-02 0.  1.
    10030    2    1    2    0    0  0.00000000000E+00  0.00000000000E+00  0.85597652221E+02  0.50787864002E+03  0.50061337869E+03 0.  0.
        4    1    3    3  502    0 -0.16559319119E+03 -0.18582343456E+03  0.15950210729E+02  0.24941426567E+03  0.12699999809E+01 0.  1.
       -4    1    3    3    0  502  0.16559319119E+03  0.18582343456E+03  0.69647441492E+02  0.25846437434E+03  0.12699999809E+01 0. -1.
</event>
<event>
 5   0  0.7220250E-02  0.4371362E+03  0.7818609E-02  0.1031629E+00
        3   -1    0    0  501    0  0.00000000000E+00  0.00000000000E+00  0.11207183049E+04  0.11207183095E+04  0.10100000352E+00 0. -1.
       -3   -1    0    0    0  501  0.00000000000E+00  0.00000000000E+00 -0.42626181123E+02  0.42626300779E+02  0.10100000352E+00 0.  1.
    10030    2    1    2    0    0  0.00000000000E+00  0.00000000000E+00  0.10780921238E+04  0.11633446103E+04  0.43713619709E+03 0.  0.
        1    1    3    3  502    0 -0.42304043973E+02 -0.90033740089E+02  0.10569812617E+04  0.10616520588E+04  0.50400001928E-02 0. -1.
       -1    1    3    3    0  502  0.42304043973E+02  0.90033740089E+02  0.21110862149E+02  0.10169255143E+03  0.50400001928E-02 0.  1.
</event>
<event>
 5   0  0.1074281E-01  0.5171939E+03  0.7818609E-02  0.1009386E+00
        1   -1    0    0  501    0  0.00000000000E+00  0.00000000000E+00  0.24823552807E+03  0.24823552812E+03  0.50400001928E-02 0. -1.
       -1   -1    0    0    0  501  0.00000000000E+00  0.00000000000E+00 -0.26939091069E+03  0.26939091074E+03  0.50400001928E-02 0.  1.
    10030    2    1    2    0    0  0.00000000000E+00  0.00000000000E+00 -0.21155382627E+02  0.51762643886E+03  0.51719394814E+03 0.  0.
        4    1    3    3  502    0  0.12098422410E+03  0.96220823483E+02 -0.21805553742E+03  0.26729283502E+03  0.12699999809E+01 0.  1.
       -4    1    3    3    0  502 -0.12098422410E+03 -0.96220823483E+02  0.19690015479E+03  0.25033360384E+03  0.12699999809E+01 0. -1.
</event>
<event>
 5   0  0.1123271E-01  0.5044577E+03  0.7818609E-02  0.1012622E+00
       -1   -1    0    0    0  501  0.00000000000E+00  0.00000000000E+00  0.69675062195E+02  0.69675062377E+02  0.50400001928E-02 0.  1.
        1   -1    0    0  501    0  0.00000000000E+00  0.00000000000E+00 -0.91308706083E+03  0.91308706085E+03  0.50400001928E-02 0. -1.
    10030    2    1    2    0    0  0.00000000000E+00  0.00000000000E+00 -0.84341199864E+03  0.98276212322E+03  0.50445772013E+03 0.  0.
        5    1    3    3  502    0  0.23155032439E+03 -0.90218339676E+02 -0.33808480937E+03  0.41961688463E+03  0.46999998093E+01 0.  1.
       -5    1    3    3    0  502 -0.23155032439E+03  0.90218339676E+02 -0.50532718927E+03  0.56314523859E+03  0.46999998093E+01 0. -1.
</event>
<event>
 5   0  0.1709372E-01  0.4954344E+03  0.7818609E-02  0.1014978E+00
        2   -1    0    0  501    0  0.00000000000E+00  0.00000000000E+00  0.10497284333E+04  0.10497284333E+04  0.25500000920E-02 0. -1.
       -2   -1    0    0    0  501  0.00000000000E+00  0.00000000000E+00 -0.58456854605E+02  0.58456854660E+02  0.25500000920E-02 0.  1.
    10030    2    1    2    0    0  0.00000000000E+00  0.00000000000E+00  0.99127157869E+03  0.11081852880E+04  0.49543444544E+03 0.  0.
        4    1    3    3  502    0 -0.32006737095E+02  0.24563361945E+03  0.49872168263E+03  0.55685297508E+03  0.12699999809E+01 0.  1.
       -4    1    3    3    0  502  0.32006737095E+02 -0.24563361945E+03  0.49254989606E+03  0.55133231288E+03  0.12699999809E+01 0. -1.
</event>
<event>
 5   0  0.1147245E-01  0.4997582E+03  0.7818609E-02  0.1013842E+00
        1   -1    0    0  501    0  0.00000000000E+00  0.00000000000E+00  0.15608090371E+04  0.15608090371E+04  0.50400001928E-02 0.  1.
       -1   -1    0    0    0  501  0.00000000000E+00  0.00000000000E+00 -0.40004615660E+02  0.40004615978E+02  0.50400001928E-02 0. -1.
    10030    2    1    2    0    0  0.00000000000E+00  0.00000000000E+00  0.15208044215E+04  0.16008136531E+04  0.49975820518E+03 0.  0.
        1    1    3    3  502    0 -0.10842681073E+03 -0.83157376194E+02  0.14305327538E+04  0.14370440085E+04  0.50400001928E-02 0.  1.
       -1    1    3    3    0  502  0.10842681073E+03  0.83157376194E+02  0.90271667631E+02  0.16376964463E+03  0.50400001928E-02 0. -1.
</event>
<event>
 5   0  0.1683148E-01  0.4995472E+03  0.7818609E-02  0.1013897E+00
       -2   -1    0    0    0  501  0.00000000000E+00  0.00000000000E+00  0.69503297988E+02  0.69503298035E+02  0.25500000920E-02 0.  1.
        2   -1    0    0  501    0  0.00000000000E+00  0.00000000000E+00 -0.89761003651E+03  0.89761003652E+03  0.25500000920E-02 0. -1.
    10030    2    1    2    0    0  0.00000000000E+00  0.00000000000E+00 -0.82810673853E+03  0.96711333455E+03  0.49954722647E+03 0.  0.
        2    1    3    3  502    0 -0.54665452464E+02 -0.36769490387E+02  0.52379372238E+02  0.84165941799E+02  0.25500000920E-02 0.  1.
       -2    1    3    3    0  502  0.54665452464E+02  0.36769490387E+02 -0.88048611076E+03  0.88294739275E+03  0.25500000920E-02 0. -1.
</event>
<event>
 5   0  0.1760649E-01  0.4986173E+03  0.7818609E-02  0.1014140E+00
        2   -1    0    0  501    0  0.00000000000E+00  0.00000000000E+00  0.35574755431E+03  0.35574755432E+03  0.25500000920E-02 0. -1.
       -2   -1    0    0    0  501  0.00000000000E+00  0.00000000000E+00 -0.17471602901E+03  0.17471602903E+03  0.25500000920E-02 0.  1.
    10030    2    1    2    0    0  0.00000000000E+00  0.00000000000E+00  0.18103152531E+03  0.53046358335E+03  0.49861728821E+03 0.  0.
        5    1    3    3  502    0  0.19694997242E+03 -0.10251249747E+03 -0.30009896992E+02  0.22409995023E+03  0.46999998093E+01 0. -1.
       -5    1    3    3    0  502 -0.19694997242E+03  0.10251249747E+03  0.21104142230E+03  0.30636363312E+03  0.46999998093E+01 0.  1.
</event>
<event>
 5   0  0.1141970E-01  0.5101457E+03  0.7818609E-02  0.1011164E+00
       -1   -1    0    0    0  501  0.00000000000E+00  0.00000000000E+00  0.24796611584E+03  0.24796611589E+03  0.50400001928E-02 0.  1.
        1   -1    0    0  501    0  0.00000000000E+00  0.00000000000E+00 -0.26238325097E+03  0.26238325102E+03  0.50400001928E-02 0. -1.
    10030    2    1    2    0    0  0.00000000000E+00  0.00000000000E+00 -0.14417135138E+02  0.51034936691E+03  0.51014568754E+03 0.  0.
        3    1    3    3  502    0 -0.22265699013E+03  0.87640975624E+02 -0.95590145247E+02  0.25767142242E+03  0.10100000352E+00 0. -1.
       -3    1    3    3    0  502  0.22265699013E+03 -0.87640975624E+02  0.81173010109E+02  0.25267794449E+03  0.10100000352E+00 0.  1.
</event>
<event>
 5   0  0.7220250E-02  0.5018230E+03  0.7818609E-02  0.1013304E+00
        3   -1    0    0  501    0  0.00000000000E+00  0.00000000000E+00  0.23742334252E+03  0.23742336401E+03  0.10100000352E+00 0. -1.
       -3   -1    0    0    0  501  0.00000000000E+00  0.00000000000E+00 -0.26516593339E+03  0.26516595262E+03  0.10100000352E+00 0.  1.
    10030    2    1    2    0    0  0.00000000000E+00  0.00000000000E+00 -0.27742590865E+02  0.50258931663E+03  0.50182304634E+03 0.  0.
        2    1    3    3  502    0  0.20035096586E+03 -0.13626375810E+03  0.51406993899E+02  0.24769134083E+03  0.25500000920E-02 0. -1.
       -2    1    3    3    0  502 -0.20035096586E+03  0.13626375810E+03 -0.79149584764E+02  0.25489797580E+03  0.25500000920E-02 0.  1.
</event>
<event>
 5   0  0.1141970E-01  0.5055163E+03  0.7818609E-02  0.1012349E+00
        1   -1    0    0  501    0  0.00000000000E+00  0.00000000000E+00  0.15013266545E+04  0.15013266545E+04  0.50400001928E-02 0.  1.
       -1   -1    0    0    0  501  0.00000000000E+00  0.00000000000E+00 -0.42553479341E+02  0.42553479639E+02  0.50400001928E-02 0. -1.
    10030    2    1    2    0    0  0.00000000000E+00  0.00000000000E+00  0.14587731751E+04  0.15438801341E+04  0.50551626289E+03 0.  0.
        3    1    3    3  502    0  0.25063779363E+03 -0.34027967313E+01  0.82862166240E+03  0.86570477198E+03  0.10100000352E+00 0.  1.
       -3    1    3    3    0  502 -0.25063779363E+03  0.34027967313E+01  0.63015151273E+03  0.67817536214E+03  0.10100000352E+00 0. -1.
</event>
<event>
 5   0  0.1683148E-01  0.5028387E+03  0.7818609E-02  0.1013041E+00
       -2   -1    0    0    0  501  0.00000000000E+00  0.00000000000E+00  0.28701978932E+03  0.28701978933E+03  0.25500000920E-02 0. -1.
        2   -1    0    0  501    0  0.00000000000E+00  0.00000000000E+00 -0.22023457175E+03  0.22023457176E+03  0.25500000920E-02 0.  1.
    10030    2    1    2    0    0  0.00000000000E+00  0.00000000000E+00  0.66785217574E+02  0.50725436109E+03  0.50283866355E+03 0.  0.
        2    1    3    3  502    0  0.73887708062E+02 -0.12779860765E+03  0.23869837157E+03  0.28065778115E+03  0.25500000920E-02 0. -1.
       -2    1    3    3    0  502 -0.73887708062E+02  0.12779860765E+03 -0.17191315400E+03  0.22659657995E+03  0.25500000920E-02 0.  1.
</event>
<event>
 5   0  0.1074281E-01  0.4952027E+03  0.7818609E-02  0.1015039E+00
       -1   -1    0    0    0  501  0.00000000000E+00  0.00000000000E+00  0.32348392097E+03  0.32348392101E+03  0.50400001928E-02 0. -1.
        1   -1    0    0  501    0  0.00000000000E+00  0.00000000000E+00 -0.18951925648E+03  0.18951925654E+03  0.50400001928E-02 0.  1.
    10030    2    1    2    0    0  0.00000000000E+00  0.00000000000E+00  0.13396466450E+03  0.51300317756E+03  0.49520271490E+03 0.  0.
        4    1    3    3  502    0 -0.22517016073E+01 -0.90099031079E+02 -0.17191924600E+03  0.19411528947E+03  0.12699999809E+01 0.  1.
       -4    1    3    3    0  502  0.22517016073E+01  0.90099031079E+02  0.30588391050E+03  0.31888788808E+03  0.12699999809E+01 0. -1.
</event>
<event>
 5   0  0.1782124E-01  0.4956913E+03  0.7818609E-02  0.1014910E+00
        2   -1    0    0  501    0  0.00000000000E+00  0.00000000000E+00  0.32247076696E+03  0.32247076697E+03  0.25500000920E-02 0. -1.
       -2   -1    0    0    0  501  0.00000000000E+00  0.00000000000E+00 -0.19049000698E+03  0.19049000700E+03  0.25500000920E-02 0.  1.
    10030    2    1    2    0    0  0.00000000000E+00  0.00000000000E+00  0.13198075998E+03  0.51296077397E+03  0.49569126947E+03 0.  0.
        3    1    3    3  502    0  0.42847593893E+02  0.21929451908E+03 -0.44990741593E+02  0.22792582002E+03  0.10100000352E+00 0.  1.
       -3    1    3    3    0  502 -0.42847593893E+02 -0.21929451908E+03  0.17697150157E+03  0.28503495395E+03  0.10100000352E+00 0. -1.
</event>
<event>
 5   0  0.1760649E-01  0.5018988E+03  0.7818609E-02  0.1013284E+00
       -2   -1    0    0    0  501  0.00000000000E+00  0.00000000000E+00  0.75627182533E+02  0.75627182576E+02  0.25500000920E-02 0. -1.
        2   -1    0    0  501    0  0.00000000000E+00  0.00000000000E+00 -0.83271113860E+03  0.83271113861E+03  0.25500000920E-02 0.  1.
    10030    2    1    2    0    0  0.00000000000E+00  0.00000000000E+00 -0.75708395607E+03  0.90833832118E+03  0.50189878381E+03 0.  0.
        5    1    3    3  502    0 -0.41827794409E+02 -0.19435889432E+03 -0.10152631840E+03  0.22328149836E+03  0.46999998093E+01 0. -1.
       -5    1    3    3    0  502  0.41827794409E+02  0.19435889432E+03 -0.65555763767E+03  0.68505682282E+03  0.46999998093E+01 0.  1.
</event>
<event>
 5   0  0.1709372E-01  0.4999343E+03  0.7818609E-02  0.1013796E+00
       -2   -1    0    0    0  501  0.00000000000E+00  0.00000000000E+00  0.56289263777E+02  0.56289263835E+02  0.25500000920E-02 0. -1.
        2   -1    0    0  501    0  0.00000000000E+00  0.00000000000E+00 -0.11100441177E+04  0.11100441177E+04  0.25500000920E-02 0.  1.
    10030    2    1    2    0    0  0.00000000000E+00  0.00000000000E+00 -0.10537548539E+04  0.11663333815E+04  0.49993426040E+03 0.  0.
        4    1    3    3  502    0 -0.61910455645E+02 -0.60965796951E+02 -0.10736709765E+04  0.10771818378E+04  0.12699999809E+01 0.  1.
       -4    1    3    3    0  502  0.61910455645E+02  0.60965796951E+02  0.19916122595E+02  0.89151543763E+02  0.12699999809E+01 0. -1.
</event>
<event>
 5   0  0.1074281E-01  0.5039401E+03  0.7818609E-02  0.1012756E+00
       -1   -1    0    0    0  501  0.00000000000E+00  0.00000000000E+00  0.42446945465E+02  0.42446945764E+02  0.50400001928E-02 0. -1.
        1   -1    0    0  501    0  0.00000000000E+00  0.00000000000E+00 -0.14957238041E+04  0.14957238041E+04  0.50400001928E-02 0.  1.
    10030    2    1    2    0    0  0.00000000000E+00  0.00000000000E+00 -0.14532768587E+04  0.15381707499E+04  0.50394010351E+03 0.  0.
        4    1    3    3  502    0  0.30895725417E+02 -0.11607245379E+02  0.35810980194E+02  0.48716662414E+02  0.12699999809E+01 0. -1.
       -4    1    3    3    0  502 -0.30895725417E+02  0.11607245379E+02 -0.14890878389E+04  0.14894540875E+04  0.12699999809E+01 0.  1.
</event>
<event>
 5   0  0.1827698E-01  0.4946399E+03  0.7818609E-02  0.1015188E+00
       -2   -1    0    0    0  501  0.00000000000E+00  0.00000000000E+00  0.76415487063E+02  0.76415487105E+02  0.25500000920E-02 0.  1.
        2   -1    0    0  501    0  0.00000000000E+00  0.00000000000E+00 -0.80045498145E+03  0.80045498145E+03  0.25500000920E-02 0. -1.
    10030    2    1    2    0    0  0.00000000000E+00  0.00000000000E+00 -0.72403949438E+03  0.87687046856E+03  0.49463989851E+03 0.  0.
        1    1    3    3  502    0 -0.10031599030E+02  0.18577977786E+03 -0.73152583114E+02  0.19991513020E+03  0.50400001928E-02 0.  1.
       -1    1    3    3    0  502  0.10031599030E+02 -0.18577977786E+03 -0.65088691127E+03  0.67695533836E+03  0.50400001928E-02 0. -1.
</event>
<event>
 5   0  0.1074281E-01  0.5097936E+03  0.7818609E-02  0.1011254E+00
       -1   -1    0    0    0  501  0.00000000000E+00  0.00000000000E+00  0.92726414683E+02  0.92726414820E+02  0.50400001928E-02 0. -1.
        1   -1    0    0  501    0  0.00000000000E+00  0.00000000000E+00 -0.70068912639E+03  0.70068912641E+03  0.50400001928E-02 0.  1.
    10030    2    1    2    0    0  0.00000000000E+00  0.00000000000E+00 -0.60796271171E+03  0.79341554123E+03  0.50979364672E+03 0.  0.
        4    1    3    3  502    0  0.24528308054E+03 -0.42802540388E+02 -0.38886904352E+03  0.46175382291E+03  0.12699999809E+01 0.  1.
       -4    1    3    3    0  502 -0.24528308054E+03  0.42802540388E+02 -0.21909366819E+03  0.33166171832E+03  0.12699999809E+01 0. -1.
</event>
<event>
 5   0  0.1709372E-01  0.5006853E+03  0.7818609E-02  0.1013600E+00
       -2   -1    0    0    0  501  0.00000000000E+00  0.00000000000E+00  0.33741137400E+02  0.33741137497E+02  0.25500000920E-02 0. -1.
        2   -1    0    0  501    0  0.00000000000E+00  0.00000000000E+00 -0.18574193123E+04  0.18574193123E+04  0.25500000920E-02 0.  1.
    10030    2    1    2    0    0  0.00000000000E+00  0.00000000000E+00 -0.18236781749E+04  0.18911604498E+04  0.50068529165E+03 0.  0.
        4    1    3    3  502    0  0.64728406514E+02 -0.25993582164E+02 -0.18199606158E+04  0.18212972544E+04  0.12699999809E+01 0.  1.
       -4    1    3    3    0  502 -0.64728406514E+02  0.25993582164E+02 -0.37175590835E+01  0.69863195382E+02  0.12699999809E+01 0. -1.
</event>
<event>
 5   0  0.1147245E-01  0.5052722E+03  0.7818609E-02  0.1012412E+00
        1   -1    0    0  501    0  0.00000000000E+00  0.00000000000E+00  0.16452818946E+03  0.16452818954E+03  0.50400001928E-02 0.  1.
       -1   -1    0    0    0  501  0.00000000000E+00  0.00000000000E+00 -0.38792746053E+03  0.38792746056E+03  0.50400001928E-02 0. -1.
    10030    2    1    2    0    0  0.00000000000E+00  0.00000000000E+00 -0.22339927107E+03  0.55245565010E+03  0.50527221477E+03 0.  0.
        1    1    3    3  502    0 -0.22773151757E+03  0.41673705427E+02 -0.11292227783E+01  0.23151591088E+03  0.50400001928E-02 0.  1.
       -1    1    3    3    0  502  0.22773151757E+03 -0.41673705427E+02 -0.22227004829E+03  0.32093973922E+03  0.50400001928E-02 0. -1.
</event>
<event>
 5   0  0.1760649E-01  0.4973489E+03  0.7818609E-02  0.1014473E+00
       -2   -1    0    0    0  501  0.00000000000E+00  0.00000000000E+00  0.30564663207E+03  0.30564663208E+03  0.25500000920E-02 0.  1.
        2   -1    0    0  501    0  0.00000000000E+00  0.00000000000E+00 -0.20232181195E+03  0.20232181196E+03  0.25500000920E-02 0. -1.
    10030    2    1    2    0    0  0.00000000000E+00  0.00000000000E+00  0.10332482012E+03  0.50796844404E+03  0.49734889332E+03 0.  0.
        5    1    3    3  502    0  0.85026615945E+01 -0.23214765972E+03  0.14216632424E+03  0.27239343772E+03  0.46999998093E+01 0.  1.
       -5    1    3    3    0  502 -0.85026615945E+01  0.23214765972E+03 -0.38841504115E+02  0.23557500633E+03  0.46999998093E+01 0. -1.
</event>
<event>
 5   0  0.1760649E-01  0.5245687E+03  0.7818609E-02  0.1007558E+00
        2   -1    0    0  501    0  0.00000000000E+00  0.00000000000E+00  0.14947729749E+04  0.14947729750E+04  0.25500000920E-02 0. -1.
       -2   -1    0    0    0  501  0.00000000000E+00  0.00000000000E+00 -0.46022424600E+02  0.46022424670E+02  0.25500000920E-02 0.  1.
    10030    2    1    2    0    0  0.00000000000E+00  0.00000000000E+00  0.14487505503E+04  0.15407953996E+04  0.52456868602E+03 0.  0.
        5    1    3    3  502    0 -0.26049347152E+03 -0.19225472443E+02  0.79291607520E+03  0.83484397333E+03  0.46999998093E+01 0.  1.
       -5    1    3    3    0  502  0.26049347152E+03  0.19225472443E+02  0.65583447515E+03  0.70595142629E+03  0.46999998093E+01 0. -1.
</event>
<event>
 5   0  0.1683148E-01  0.5038779E+03  0.7818609E-02  0.1012772E+00
       -2   -1    0    0    0  501  0.00000000000E+00  0.00000000000E+00  0.43253734676E+02  0.43253734751E+02  0.25500000920E-02 0.  1.
        2   -1    0    0  501    0  0.00000000000E+00  0.00000000000E+00 -0.14674622510E+04  0.14674622510E+04  0.25500000920E-02 0. -1.
    10030    2    1    2    0    0  0.00000000000E+00  0.00000000000E+00 -0.14242085163E+04  0.15107159858E+04  0.50387785389E+03 0.  0.
        2    1    3    3  502    0 -0.16120301604E+03 -0.11808318700E+03 -0.25207014574E+03  0.32166661284E+03  0.25500000920E-02 0.  1.
       -2    1    3    3    0  502  0.16120301604E+03  0.11808318700E+03 -0.11721383706E+04  0.11890493729E+04  0.25500000920E-02 0. -1.
</event>
<event>
 5   0  0.1683148E-01  0.5026225E+03  0.7818609E-02  0.1013097E+00
        2   -1    0    0  501    0  0.00000000000E+00  0.00000000000E+00  0.20389600037E+03  0.20389600038E+03  0.25500000920E-02 0.  1.
       -2   -1    0    0    0  501  0.00000000000E+00  0.00000000000E+00 -0.30975278165E+03  0.30975278166E+03  0.25500000920E-02 0. -1.
    10030    2    1    2    0    0  0.00000000000E+00  0.00000000000E+00 -0.10585678128E+03  0.51364878204E+03  0.50262253546E+03 0.  0.
        2    1    3    3  502    0 -0.21160247174E+03  0.38575496320E+01  0.85569079754E+02  0.22828174292E+03  0.25500000920E-02 0.  1.
       -2    1    3    3    0  502  0.21160247174E+03 -0.38575496320E+01 -0.19142586103E+03  0.28536703912E+03  0.25500000920E-02 0. -1.
</event>
<event>
 5   0  0.1827698E-01  0.4955726E+03  0.7818609E-02  0.1014941E+00
       -2   -1    0    0    0  501  0.00000000000E+00  0.00000000000E+00  0.75255810039E+02  0.75255810082E+02  0.25500000920E-02 0. -1.
        2   -1    0    0  501    0  0.00000000000E+00  0.00000000000E+00 -0.81585797606E+03  0.81585797606E+03  0.25500000920E-02 0.  1.
    10030    2    1    2    0    0  0.00000000000E+00  0.00000000000E+00 -0.74060216602E+03  0.89111378614E+03  0.49557260976E+03 0.  0.
        1    1    3    3  502    0 -0.11769487986E+03  0.39157311749E+02 -0.75601436989E+03  0.76612212297E+03  0.50400001928E-02 0.  1.
       -1    1    3    3    0  502  0.11769487986E+03 -0.39157311749E+02  0.15412203868E+02  0.12499166317E+03  0.50400001928E-02 0. -1.
</event>
<event>
 5   0  0.1141970E-01  0.4912611E+03  0.7818609E-02  0.1016085E+00
        1   -1    0    0  501    0  0.00000000000E+00  0.00000000000E+00  0.25478734189E+03  0.25478734194E+03  0.50400001928E-02 0. -1.
       -1   -1    0    0    0  501  0.00000000000E+00  0.00000000000E+00 -0.23680282319E+03  0.23680282324E+03  0.50400001928E-02 0.  1.
    10030    2    1    2    0    0  0.00000000000E+00  0.00000000000E+00  0.17984518696E+02  0.49159016518E+03  0.49126107885E+03 0.  0.
        3    1    3    3  502    0 -0.18698192480E+03  0.86606205441E+01  0.16814944135E+03  0.25161774854E+03  0.10100000352E+00 0. -1.
       -3    1    3    3    0  502  0.18698192480E+03 -0.86606205441E+01 -0.15016492266E+03  0.23997241664E+03  0.10100000352E+00 0.  1.
</event>
<event>
 5   0  0.1141970E-01  0.5038059E+03  0.7818609E-02  0.1012790E+00
        1   -1    0    0  501    0  0.00000000000E+00  0.00000000000E+00  0.53137080533E+03  0.53137080535E+03  0.50400001928E-02 0. -1.
       -1   -1    0    0    0  501  0.00000000000E+00  0.00000000000E+00 -0.11941773317E+03  0.11941773328E+03  0.50400001928E-02 0.  1.
    10030    2    1    2    0    0  0.00000000000E+00  0.00000000000E+00  0.41195307216E+03  0.65078853863E+03  0.50380590345E+03 0.  0.
        3    1    3    3  502    0 -0.83482454430E+02  0.68323705772E+02  0.50002265368E+03  0.51152723618E+03  0.10100000352E+00 0. -1.
       -3    1    3    3    0  502  0.83482454430E+02 -0.68323705772E+02 -0.88069581521E+02  0.13926130244E+03  0.10100000352E+00 0.  1.
</event>
<event>
 5   0  0.1123271E-01  0.4987943E+03  0.7818609E-02  0.1014094E+00
        1   -1    0    0  501    0  0.00000000000E+00  0.00000000000E+00  0.26526026806E+03  0.26526026811E+03  0.50400001928E-02 0. -1.
       -1   -1    0    0    0  501  0.00000000000E+00  0.00000000000E+00 -0.23448265194E+03  0.23448265199E+03  0.50400001928E-02 0.  1.
    10030    2    1    2    0    0  0.00000000000E+00  0.00000000000E+00  0.30777616120E+02  0.49974292010E+03  0.49879427075E+03 0.  0.
        5    1    3    3  502    0 -0.51643852518E+02  0.18638222979E+03  0.17307752811E+03  0.25958301913E+03  0.46999998093E+01 0. -1.
       -5    1    3    3    0  502  0.51643852518E+02 -0.18638222979E+03 -0.14229991199E+03  0.24015990097E+03  0.46999998093E+01 0.  1.
</event>
<event>
 5   0  0.1782124E-01  0.5130462E+03  0.7818609E-02  0.1010429E+00
        2   -1    0    0  501    0  0.00000000000E+00  0.00000000000E+00  0.53248268594E+03  0.53248268595E+03  0.25500000920E-02 0. -1.
       -2   -1    0    0    0  501  0.00000000000E+00  0.00000000000E+00 -0.12357980718E+03  0.12357980720E+03  0.25500000920E-02 0.  1.
    10030    2    1    2    0    0  0.00000000000E+00  0.00000000000E+00  0.40890287876E+03  0.65606249315E+03  0.51304622663E+03 0.  0.
        3    1    3    3  502    0  0.36096018028E+01  0.17730559558E+03 -0.32563688181E+02  0.18030725842E+03  0.10100000352E+00 0.  1.
       -3    1    3    3    0  502 -0.36096018028E+01 -0.17730559558E+03  0.44146656694E+03  0.47575523474E+03  0.10100000352E+00 0. -1.
</event>
<event>
 5   0  0.7220250E-02  0.5013867E+03  0.7818609E-02  0.1013418E+00
        3   -1    0    0  501    0  0.00000000000E+00  0.00000000000E+00  0.10947501403E+04  0.10947501450E+04  0.10100000352E+00 0.  1.
       -3   -1    0    0    0  501  0.00000000000E+00  0.00000000000E+00 -0.57407707545E+02  0.57407796392E+02  0.10100000352E+00 0. -1.
    10030    2    1    2    0    0  0.00000000000E+00  0.00000000000E+00  0.10373424328E+04  0.11521579414E+04  0.50138667616E+03 0.  0.
        5    1    3    3  502    0 -0.17006315692E+03 -0.38052319196E+02  0.10468672422E+03  0.20334910023E+03  0.46999998093E+01 0. -1.
       -5    1    3    3    0  502  0.17006315692E+03  0.38052319196E+02  0.93265570856E+03  0.94880884115E+03  0.46999998093E+01 0.  1.
</event>
<event>
 5   0  0.1074281E-01  0.4947673E+03  0.7818609E-02  0.1015154E+00
        1   -1    0    0  501    0  0.00000000000E+00  0.00000000000E+00  0.18832713595E+03  0.18832713602E+03  0.50400001928E-02 0.  1.
       -1   -1    0    0    0  501  0.00000000000E+00  0.00000000000E+00 -0.32495938227E+03  0.32495938231E+03  0.50400001928E-02 0. -1.
    10030    2    1    2    0    0  0.00000000000E+00  0.00000000000E+00 -0.13663224631E+03  0.51328651833E+03  0.49476729799E+03 0.  0.
        4    1    3    3  502    0 -0.60385862936E+02 -0.20730198529E+03 -0.19356832527E+03  0.28998426681E+03  0.12699999809E+01 0. -1.
       -4    1    3    3    0  502  0.60385862936E+02  0.20730198529E+03  0.56936078955E+02  0.22330225152E+03  0.12699999809E+01 0.  1.
</event>
<event>
 5   0  0.1683148E-01  0.5007163E+03  0.7818609E-02  0.1013592E+00
       -2   -1    0    0    0  501  0.00000000000E+00  0.00000000000E+00  0.55143864640E+02  0.55143864699E+02  0.25500000920E-02 0.  1.
        2   -1    0    0  501    0  0.00000000000E+00  0.00000000000E+00 -0.11366487635E+04  0.11366487635E+04  0.25500000920E-02 0. -1.
    10030    2    1    2    0    0  0.00000000000E+00  0.00000000000E+00 -0.10815048988E+04  0.11917926282E+04  0.50071630927E+03 0.  0.
        2    1    3    3  502    0  0.11914919026E+02  0.17824195337E+03 -0.95824800852E+03  0.97475710055E+03  0.25500000920E-02 0. -1.
       -2    1    3    3    0  502 -0.11914919026E+02 -0.17824195337E+03 -0.12325689032E+03  0.21703552763E+03  0.25500000920E-02 0.  1.
</event>
<event>
 5   0  0.1074281E-01  0.5043672E+03  0.7818609E-02  0.1012645E+00
       -1   -1    0    0    0  501  0.00000000000E+00  0.00000000000E+00  0.30331046997E+03  0.30331047001E+03  0.50400001928E-02 0. -1.
        1   -1    0    0  501    0  0.00000000000E+00  0.00000000000E+00 -0.20967478705E+03  0.20967478711E+03  0.50400001928E-02 0.  1.
    10030    2    1    2    0    0  0.00000000000E+00  0.00000000000E+00  0.93635682916E+02  0.51298525713E+03  0.50436716082E+03 0.  0.
        4    1    3    3  502    0  0.11233443922E+03  0.20842727610E+03  0.13509952206E+03  0.27260676700E+03  0.12699999809E+01 0. -1.
       -4    1    3    3    0  502 -0.11233443922E+03 -0.20842727610E+03 -0.41463839142E+02  0.24037849012E+03  0.12699999809E+01 0.  1.
</event>
<event>
 5   0  0.1074281E-01  0.5102461E+03  0.7818609E-02  0.1011139E+00
       -1   -1    0    0    0  501  0.00000000000E+00  0.00000000000E+00  0.12410563132E+03  0.12410563142E+03  0.50400001928E-02 0. -1.
        1   -1    0    0  501    0  0.00000000000E+00  0.00000000000E+00 -0.52445465817E+03  0.52445465819E+03  0.50400001928E-02 0.  1.
    10030    2    1    2    0    0  0.00000000000E+00  0.00000000000E+00 -0.40034902685E+03  0.64856028961E+03  0.51024612293E+03 0.  0.
        4    1    3    3  502    0  0.11644195008E+03 -0.20692306468E+03 -0.81546644848E+02  0.25105248579E+03  0.12699999809E+01 0. -1.
       -4    1    3    3    0  502 -0.11644195008E+03  0.20692306468E+03 -0.31880238200E+03  0.39750780383E+03  0.12699999809E+01 0.  1.
</event>
<event>
 5   0  0.1068522E-01  0.5192165E+03  0.7818609E-02  0.1008881E+00
        1   -1    0    0  501    0  0.00000000000E+00  0.00000000000E+00  0.11115401028E+04  0.11115401028E+04  0.50400001928E-02 0. -1.
       -1   -1    0    0    0  501  0.00000000000E+00  0.00000000000E+00 -0.60633389208E+02  0.60633389417E+02  0.50400001928E-02 0.  1.
    10030    2    1    2    0    0  0.00000000000E+00  0.00000000000E+00  0.10509067136E+04  0.11721734922E+04  0.51921650129E+03 0.  0.
        2    1    3    3  502    0 -0.14881611041E+03  0.20886116513E+03  0.61652159129E+03  0.66773354982E+03  0.25500000920E-02 0.  1.
       -2    1    3    3    0  502  0.14881611041E+03 -0.20886116513E+03  0.43438512231E+03  0.50443994242E+03  0.25500000920E-02 0. -1.
</event>
<event>
 5   0  0.1141970E-01  0.5096552E+03  0.7818609E-02  0.1011289E+00
        1   -1    0    0  501    0  0.00000000000E+00  0.00000000000E+00  0.31694621797E+03  0.31694621801E+03  0.50400001928E-02 0. -1.
       -1   -1    0    0    0  501  0.00000000000E+00  0.00000000000E+00 -0.20488366208E+03  0.20488366214E+03  0.50400001928E-02 0.  1.
    10030    2    1    2    0    0  0.00000000000E+00  0.00000000000E+00  0.11206255590E+03  0.52182988015E+03  0.50965518479E+03 0.  0.
        3    1    3    3  502    0 -0.41216958705E+02 -0.11404930820E+03  0.28550790021E+03  0.31019486403E+03  0.10100000352E+00 0. -1.
       -3    1    3    3    0  502  0.41216958705E+02  0.11404930820E+03 -0.17344534431E+03  0.21163501613E+03  0.10100000352E+00 0.  1.
</event>
<event>
 5   0  0.1709372E-01  0.5124813E+03  0.7818609E-02  0.1010572E+00
       -2   -1    0    0    0  501  0.00000000000E+00  0.00000000000E+00  0.10738565758E+03  0.10738565761E+03  0.25500000920E-02 0. -1.
        2   -1    0    0  501    0  0.00000000000E+00  0.00000000000E+00 -0.61143416606E+03  0.61143416607E+03  0.25500000920E-02 0.  1.
    10030    2    1    2    0    0  0.00000000000E+00  0.00000000000E+00 -0.50404850848E+03  0.71881982368E+03  0.51248125821E+03 0.  0.
        4    1    3    3  502    0  0.69718636354E+02 -0.13928390976E+03 -0.53740603095E+03  0.55952439694E+03  0.12699999809E+01 0.  1.
       -4    1    3    3    0  502 -0.69718636354E+02  0.13928390976E+03  0.33357522468E+02  0.15929542674E+03  0.12699999809E+01 0. -1.
</event>
<event>
 5   0  0.1709372E-01  0.5018571E+03  0.7818609E-02  0.1013295E+00
        2   -1    0    0  501    0  0.00000000000E+00  0.00000000000E+00  0.20107545741E+04  0.20107545741E+04  0.25500000920E-02 0. -1.
       -2   -1    0    0    0  501  0.00000000000E+00  0.00000000000E+00 -0.31314177794E+02  0.31314177898E+02  0.25500000920E-02 0.  1.
    10030    2    1    2    0    0  0.00000000000E+00  0.00000000000E+00  0.19794403963E+04  0.20420687520E+04  0.50185705671E+03 0.  0.
        4    1    3    3  502    0  0.24472988559E+03  0.47517647371E+02  0.87370876298E+03  0.90858090400E+03  0.12699999809E+01 0. -1.
       -4    1    3    3    0  502 -0.24472988559E+03 -0.47517647371E+02  0.11057316333E+04  0.11334878480E+04  0.12699999809E+01 0.  1.
</event>
<event>
 5   0  0.1068522E-01  0.5421917E+03  0.7818609E-02  0.1003318E+00
       -1   -1    0    0    0  501  0.00000000000E+00  0.00000000000E+00  0.37100950545E+02  0.37100950887E+02  0.50400001928E-02 0.  1.
        1   -1    0    0  501    0  0.00000000000E+00  0.00000000000E+00 -0.19808915096E+04  0.19808915096E+04  0.50400001928E-02 0. -1.
    10030    2    1    2    0    0  0.00000000000E+00  0.00000000000E+00 -0.19437905591E+04  0.20179924605E+04  0.54219169409E+03 0.  0.
        2    1    3    3  502    0  0.19599593138E+03 -0.17449780540E+03 -0.71866623901E+03  0.76507846154E+03  0.25500000920E-02 0. -1.
       -2    1    3    3    0  502 -0.19599593138E+03  0.17449780540E+03 -0.12251243201E+04  0.12529139990E+04  0.25500000920E-02 0.  1.
</event>
<event>
 5   0  0.1709372E-01  0.5023083E+03  0.7818609E-02  0.1013178E+00
       -2   -1    0    0    0  501  0.00000000000E+00  0.00000000000E+00  0.23108270083E+03  0.23108270084E+03  0.25500000920E-02 0. -1.
        2   -1    0    0  501    0  0.00000000000E+00  0.00000000000E+00 -0.27296891703E+03  0.27296891704E+03  0.25500000920E-02 0.  1.
    10030    2    1    2    0    0  0.00000000000E+00  0.00000000000E+00 -0.41886216202E+02  0.50405161789E+03  0.50230825037E+03 0.  0.
        4    1    3    3  502    0 -0.15204597437E+03 -0.18684826248E+01 -0.22152511189E+03  0.26869398514E+03  0.12699999809E+01 0.  1.
       -4    1    3    3    0  502  0.15204597437E+03  0.18684826248E+01  0.17963889569E+03  0.23535763275E+03  0.12699999809E+01 0. -1.
</event>
<event>
 5   0  0.1827698E-01  0.4980646E+03  0.7818609E-02  0.1014285E+00
        2   -1    0    0  501    0  0.00000000000E+00  0.00000000000E+00  0.71475051998E+03  0.71475051998E+03  0.25500000920E-02 0. -1.
       -2   -1    0    0    0  501  0.00000000000E+00  0.00000000000E+00 -0.86767449228E+02  0.86767449265E+02  0.25500000920E-02 0.  1.
    10030    2    1    2    0    0  0.00000000000E+00  0.00000000000E+00  0.62798307075E+03  0.80151796925E+03  0.49806457200E+03 0.  0.
        1    1    3    3  502    0 -0.38543168551E+02  0.12607759643E+03 -0.26001460947E+02  0.13437712663E+03  0.50400001928E-02 0.  1.
       -1    1    3    3    0  502  0.38543168551E+02 -0.12607759643E+03  0.65398453170E+03  0.66714084262E+03  0.50400001928E-02 0. -1.
</event>
<event>
 5   0  0.7220250E-02  0.5002450E+03  0.7818609E-02  0.1013715E+00
        3   -1    0    0  501    0  0.00000000000E+00  0.00000000000E+00  0.14259246152E+03  0.14259249729E+03  0.10100000352E+00 0. -1.
       -3   -1    0    0    0  501  0.00000000000E+00  0.00000000000E+00 -0.43874155989E+03  0.43874157152E+03  0.10100000352E+00 0.  1.
    10030    2    1    2    0    0  0.00000000000E+00  0.00000000000E+00 -0.29614909837E+03  0.58133406881E+03  0.50024495110E+03 0.  0.
        4    1    3    3  502    0 -0.13207269982E+03  0.32298756528E+02 -0.39204122677E+03  0.41495101409E+03  0.12699999809E+01 0.  1.
       -4    1    3    3    0  502  0.13207269982E+03 -0.32298756528E+02  0.95892128395E+02  0.16638305472E+03  0.12699999809E+01 0. -1.
</event>
<event>
 5   0  0.1709372E-01  0.5005087E+03  0.7818609E-02  0.1013646E+00
        2   -1    0    0  501    0  0.00000000000E+00  0.00000000000E+00  0.13600613544E+04  0.13600613544E+04  0.25500000920E-02 0.  1.
       -2   -1    0    0    0  501  0.00000000000E+00  0.00000000000E+00 -0.46047361323E+02  0.46047361393E+02  0.25500000920E-02 0. -1.
    10030    2    1    2    0    0  0.00000000000E+00  0.00000000000E+00  0.13140139931E+04  0.14061087158E+04  0.50050868787E+03 0.  0.
        4    1    3    3  502    0  0.16523521040E+03 -0.16966601354E+03  0.88413796517E+03  0.91530912005E+03  0.12699999809E+01 0.  1.
       -4    1    3    3    0  502 -0.16523521040E+03  0.16966601354E+03  0.42987602793E+03  0.49079959576E+03  0.12699999809E+01 0. -1.
</event>
<event>
 5   0  0.1141970E-01  0.4827212E+03  0.7818609E-02  0.1018390E+00
       -1   -1    0    0    0  501  0.00000000000E+00  0.00000000000E+00  0.11360461617E+03  0.11360461628E+03  0.50400001928E-02 0.  1.
        1   -1    0    0  501    0  0.00000000000E+00  0.00000000000E+00 -0.51278665540E+03  0.51278665542E+03  0.50400001928E-02 0. -1.
    10030    2    1    2    0    0  0.00000000000E+00  0.00000000000E+00 -0.39918203923E+03  0.62639127170E+03  0.48272116675E+03 0.  0.
        3    1    3    3  502    0 -0.50042483539E+02 -0.24132641768E+02 -0.50437637963E+03  0.50742701652E+03  0.10100000352E+00 0. -1.
       -3    1    3    3    0  502  0.50042483539E+02  0.24132641768E+02  0.10519434041E+03  0.11896425519E+03  0.10100000352E+00 0.  1.
</event>
<event>
 5   0  0.1760649E-01  0.4879074E+03  0.7818609E-02  0.1016984E+00
        2   -1    0    0  501    0  0.00000000000E+00  0.00000000000E+00  0.69517296486E+03  0.69517296486E+03  0.25500000920E-02 0.  1.
       -2   -1    0    0    0  501  0.00000000000E+00  0.00000000000E+00 -0.85609497110E+02  0.85609497148E+02  0.25500000920E-02 0. -1.
    10030    2    1    2    0    0  0.00000000000E+00  0.00000000000E+00  0.60956346775E+03  0.78078246201E+03  0.48790740082E+03 0.  0.
        5    1    3    3  502    0  0.36518287391E+02 -0.16215354429E+03  0.59043718941E+03  0.61340485968E+03  0.46999998093E+01 0. -1.
       -5    1    3    3    0  502 -0.36518287391E+02  0.16215354429E+03  0.19126278336E+02  0.16737760233E+03  0.46999998093E+01 0.  1.
</event>
<event>
 5   0  0.1141970E-01  0.5019553E+03  0.7818609E-02  0.1013270E+00
       -1   -1    0    0    0  501  0.00000000000E+00  0.00000000000E+00  0.45493543180E+02  0.45493543459E+02  0.50400001928E-02 0.  1.
        1   -1    0    0  501    0  0.00000000000E+00  0.00000000000E+00 -0.13845871006E+04  0.13845871006E+04  0.50400001928E-02 0. -1.
    10030    2    1    2    0    0  0.00000000000E+00  0.00000000000E+00 -0.13390935575E+04  0.14300806441E+04  0.50195526994E+03 0.  0.
        3    1    3    3  502    0  0.84026854487E+02  0.21496896693E+03 -0.38869648244E+03  0.45205877348E+03  0.10100000352E+00 0.  1.
       -3    1    3    3    0  502 -0.84026854487E+02 -0.21496896693E+03 -0.95039707501E+03  0.97802187062E+03  0.10100000352E+00 0. -1.
</event>
<event>
 5   0  0.1141970E-01  0.4908960E+03  0.7818609E-02  0.1016183E+00
       -1   -1    0    0    0  501  0.00000000000E+00  0.00000000000E+00  0.27510234286E+03  0.27510234291E+03  0.50400001928E-02 0. -1.
        1   -1    0    0  501    0  0.00000000000E+00  0.00000000000E+00 -0.21899022995E+03  0.21899023001E+03  0.50400001928E-02 0.  1.
    10030    2    1    2    0    0  0.00000000000E+00  0.00000000000E+00  0.56112112917E+02  0.49409257292E+03  0.49089601892E+03 0.  0.
        3    1    3    3  502    0 -0.46885121250E+02  0.21976021140E+03  0.12745105906E+03  0.25833417848E+03  0.10100000352E+00 0. -1.
       -3    1    3    3    0  502  0.46885121250E+02 -0.21976021140E+03 -0.71338946148E+02  0.23575839444E+03  0.10100000352E+00 0.  1.
</event>
<event>
 5   0  0.1782124E-01  0.4063170E+03  0.7818609E-02  0.1041614E+00
        2   -1    0    0  501    0  0.00000000000E+00  0.00000000000E+00  0.19553516953E+03  0.19553516954E+03  0.25500000920E-02 0.  1.
       -2   -1    0    0    0  501  0.00000000000E+00  0.00000000000E+00 -0.21107908783E+03  0.21107908784E+03  0.25500000920E-02 0. -1.
    10030    2    1    2    0    0  0.00000000000E+00  0.00000000000E+00 -0.15543918300E+02  0.40661425739E+03  0.40631704482E+03 0.  0.
        3    1    3    3  502    0 -0.16597421728E+03 -0.91381641863E+01  0.10911428380E+03  0.19883883921E+03  0.10100000352E+00 0.  1.
       -3    1    3    3    0  502  0.16597421728E+03  0.91381641863E+01 -0.12465820210E+03  0.20777541818E+03  0.10100000352E+00 0. -1.
</event>
<event>
 5   0  0.7220250E-02  0.5092414E+03  0.7818609E-02  0.1011395E+00
       -3   -1    0    0    0  501  0.00000000000E+00  0.00000000000E+00  0.11254483734E+04  0.11254483780E+04  0.10100000352E+00 0. -1.
        3   -1    0    0  501    0  0.00000000000E+00  0.00000000000E+00 -0.57605174332E+02  0.57605262874E+02  0.10100000352E+00 0.  1.
    10030    2    1    2    0    0  0.00000000000E+00  0.00000000000E+00  0.10678431991E+04  0.11830536408E+04  0.50924141548E+03 0.  0.
        3    1    3    3  502    0  0.99072797230E+02  0.18184779238E+03  0.18975018978E+03  0.28087218350E+03  0.10100000352E+00 0.  1.
       -3    1    3    3    0  502 -0.99072797230E+02 -0.18184779238E+03  0.87809300932E+03  0.90218145733E+03  0.10100000352E+00 0. -1.
</event>
<event>
 5   0  0.1147245E-01  0.5127815E+03  0.7818609E-02  0.1010496E+00
        1   -1    0    0  501    0  0.00000000000E+00  0.00000000000E+00  0.10222358818E+04  0.10222358818E+04  0.50400001928E-02 0. -1.
       -1   -1    0    0    0  501  0.00000000000E+00  0.00000000000E+00 -0.64306311474E+02  0.64306311672E+02  0.50400001928E-02 0.  1.
    10030    2    1    2    0    0  0.00000000000E+00  0.00000000000E+00  0.95792957029E+03  0.10865421934E+04  0.51278150952E+03 0.  0.
        1    1    3    3  502    0  0.21452159898E+03  0.11232811794E+03  0.30043290358E+03  0.38587180784E+03  0.50400001928E-02 0. -1.
       -1    1    3    3    0  502 -0.21452159898E+03 -0.11232811794E+03  0.65749666671E+03  0.70067038561E+03  0.50400001928E-02 0.  1.
</event>
<event>
 5   0  0.1074281E-01  0.4974018E+03  0.7818609E-02  0.1014459E+00
        1   -1    0    0  501    0  0.00000000000E+00  0.00000000000E+00  0.36422902095E+03  0.36422902098E+03  0.50400001928E-02 0. -1.
       -1   -1    0    0    0  501  0.00000000000E+00  0.00000000000E+00 -0.16981657627E+03  0.16981657635E+03  0.50400001928E-02 0.  1.
    10030    2    1    2    0    0  0.00000000000E+00  0.00000000000E+00  0.19441244468E+03  0.53404559733E+03  0.49740175048E+03 0.  0.
        4    1    3    3  502    0  0.22889420019E+03 -0.45348684182E+02  0.48365157740E+01  0.23339679265E+03  0.12699999809E+01 0.  1.
       -4    1    3    3    0  502 -0.22889420019E+03  0.45348684182E+02  0.18957592890E+03  0.30064880468E+03  0.12699999809E+01 0. -1.
</event>
<event>
 5   0  0.1123271E-01  0.4997748E+03  0.7818609E-02  0.1013838E+00
       -1   -1    0    0    0  501  0.00000000000E+00  0.00000000000E+00  0.51277956919E+02  0.51277957167E+02  0.50400001928E-02 0. -1.
        1   -1    0    0  501    0  0.00000000000E+00  0.00000000000E+00 -0.12177495049E+04  0.12177495049E+04  0.50400001928E-02 0.  1.
    10030    2    1    2    0    0  0.00000000000E+00  0.00000000000E+00 -0.11664715480E+04  0.12690274621E+04  0.49977477654E+03 0.  0.
        5    1    3    3  502    0  0.20259101849E+02 -0.94015070556E+02 -0.11687529275E+04  0.11727125651E+04  0.46999998093E+01 0.  1.
       -5    1    3    3    0  502 -0.20259101849E+02  0.94015070556E+02  0.22813795113E+01  0.96314897031E+02  0.46999998093E+01 0. -1.
</event>
<event>
 5   0  0.7220250E-02  0.4917412E+03  0.7818609E-02  0.1015957E+00
        3   -1    0    0  501    0  0.00000000000E+00  0.00000000000E+00  0.22675702531E+03  0.22675704781E+03  0.10100000352E+00 0. -1.
       -3   -1    0    0    0  501  0.00000000000E+00  0.00000000000E+00 -0.26659522078E+03  0.26659523991E+03  0.10100000352E+00 0.  1.
    10030    2    1    2    0    0  0.00000000000E+00  0.00000000000E+00 -0.39838195464E+02  0.49335228771E+03  0.49174119003E+03 0.  0.
        1    1    3    3  502    0 -0.12252701036E+03  0.18911151993E+02 -0.23293960820E+03  0.26387754931E+03  0.50400001928E-02 0.  1.
       -1    1    3    3    0  502  0.12252701036E+03 -0.18911151993E+02  0.19310141274E+03  0.22947473840E+03  0.50400001928E-02 0. -1.
</event>
<event>
 5   0  0.1074281E-01  0.5037129E+03  0.7818609E-02  0.1012814E+00
       -1   -1    0    0    0  501  0.00000000000E+00  0.00000000000E+00  0.12674627979E+03  0.12674627989E+03  0.50400001928E-02 0.  1.
        1   -1    0    0  501    0  0.00000000000E+00  0.00000000000E+00 -0.50046173409E+03  0.50046173411E+03  0.50400001928E-02 0. -1.
    10030    2    1    2    0    0  0.00000000000E+00  0.00000000000E+00 -0.37371545430E+03  0.62720801400E+03  0.50371286667E+03 0.  0.
        4    1    3    3  502    0  0.11108793248E+03  0.33482790983E+01  0.94556996361E+02  0.14592593387E+03  0.12699999809E+01 0.  1.
       -4    1    3    3    0  502 -0.11108793248E+03 -0.33482790983E+01 -0.46827245066E+03  0.48128208013E+03  0.12699999809E+01 0. -1.
</event>
<event>
 5   0  0.1147245E-01  0.4976510E+03  0.7818609E-02  0.1014394E+00
       -1   -1    0    0    0  501  0.00000000000E+00  0.00000000000E+00  0.16440741455E+03  0.16440741463E+03  0.50400001928E-02 0. -1.
        1   -1    0    0  501    0  0.00000000000E+00  0.00000000000E+00 -0.37658969223E+03  0.37658969226E+03  0.50400001928E-02 0.  1.
    10030    2    1    2    0    0  0.00000000000E+00  0.00000000000E+00 -0.21218227768E+03  0.54099710689E+03  0.49765103306E+03 0.  0.
        1    1    3    3  502    0  0.18278907191E+03  0.80444004968E+01  0.77231607215E+02  0.19859828390E+03  0.50400001928E-02 0. -1.
       -1    1    3    3    0  502 -0.18278907191E+03 -0.80444004968E+01 -0.28941388489E+03  0.34239882299E+03  0.50400001928E-02 0.  1.
</event>
<event>
 5   0  0.1709372E-01  0.4931027E+03  0.7818609E-02  0.1015595E+00
       -2   -1    0    0    0  501  0.00000000000E+00  0.00000000000E+00  0.29303624885E+02  0.29303624996E+02  0.25500000920E-02 0.  1.
        2   -1    0    0  501    0  0.00000000000E+00  0.00000000000E+00 -0.20744047689E+04  0.20744047689E+04  0.25500000920E-02 0. -1.
    10030    2    1    2    0    0  0.00000000000E+00  0.00000000000E+00 -0.20451011440E+04  0.21037083938E+04  0.49310274517E+03 0.  0.
        4    1    3    3  502    0  0.10222841488E+03  0.93010449100E+01 -0.66213476069E+02  0.12215971332E+03  0.12699999809E+01 0.  1.
       -4    1    3    3    0  502 -0.10222841488E+03 -0.93010449100E+01 -0.19788876679E+04  0.19815486805E+04  0.12699999809E+01 0. -1.
</event>
<event>
 5   0  0.1074281E-01  0.5085406E+03  0.7818609E-02  0.1011573E+00
        1   -1    0    0  501    0  0.00000000000E+00  0.00000000000E+00  0.43443466866E+03  0.43443466868E+03  0.50400001928E-02 0. -1.
       -1   -1    0    0    0  501  0.00000000000E+00  0.00000000000E+00 -0.14882186098E+03  0.14882186106E+03  0.50400001928E-02 0.  1.
    10030    2    1    2    0    0  0.00000000000E+00  0.00000000000E+00  0.28561280768E+03  0.58325652975E+03  0.50854056238E+03 0.  0.
        4    1    3    3  502    0  0.21854521568E+02 -0.16001638713E+03  0.36805009197E+03  0.40192704234E+03  0.12699999809E+01 0. -1.
       -4    1    3    3    0  502 -0.21854521568E+02  0.16001638713E+03 -0.82437284294E+02  0.18132948741E+03  0.12699999809E+01 0.  1.
</event>
<event>
 5   0  0.1074281E-01  0.5111937E+03  0.7818609E-02  0.1010898E+00
       -1   -1    0    0    0  501  0.00000000000E+00  0.00000000000E+00  0.11309180350E+03  0.11309180361E+03  0.50400001928E-02 0.  1.
        1   -1    0    0  501    0  0.00000000000E+00  0.00000000000E+00 -0.57767008671E+03  0.57767008673E+03  0.50400001928E-02 0. -1.
    10030    2    1    2    0    0  0.00000000000E+00  0.00000000000E+00 -0.46457828321E+03  0.69076189035E+03  0.51119370880E+03 0.  0.
        4    1    3    3  502    0 -0.23539660615E+03  0.11174568058E+02 -0.36600165423E+03  0.43531052934E+03  0.12699999809E+01 0. -1.
       -4    1    3    3    0  502  0.23539660615E+03 -0.11174568058E+02 -0.98576628984E+02  0.25545136100E+03  0.12699999809E+01 0.  1.
</event>
<event>
 5   0  0.1141970E-01  0.4900131E+03  0.7818609E-02  0.1016419E+00
        1   -1    0    0  501    0  0.00000000000E+00  0.00000000000E+00  0.94048817627E+03  0.94048817629E+03  0.50400001928E-02 0. -1.
       -1   -1    0    0    0  501  0.00000000000E+00  0.00000000000E+00 -0.63826639143E+02  0.63826639342E+02  0.50400001928E-02 0.  1.
    10030    2    1    2    0    0  0.00000000000E+00  0.00000000000E+00  0.87666153713E+03  0.10043148156E+04  0.49001305922E+03 0.  0.
        3    1    3    3  502    0 -0.78110284034E+02  0.14442964033E+03  0.65630287510E+02  0.17682896346E+03  0.10100000352E+00 0.  1.
       -3    1    3    3    0  502  0.78110284034E+02 -0.14442964033E+03  0.81103124962E+03  0.82748585217E+03  0.10100000352E+00 0. -1.
</event>
<event>
 5   0  0.1141970E-01  0.5065954E+03  0.7818609E-02  0.1012072E+00
        1   -1    0    0  501    0  0.00000000000E+00  0.00000000000E+00  0.22324184048E+03  0.22324184054E+03  0.50400001928E-02 0.  1.
       -1   -1    0    0    0  501  0.00000000000E+00  0.00000000000E+00 -0.28740003444E+03  0.28740003448E+03  0.50400001928E-02 0. -1.
    10030    2    1    2    0    0  0.00000000000E+00  0.00000000000E+00 -0.64158193960E+02  0.51064187502E+03  0.50659535200E+03 0.  0.
        3    1    3    3  502    0 -0.53137084315E+02  0.13741219243E+03 -0.23976869628E+03  0.28141552600E+03  0.10100000352E+00 0. -1.
       -3    1    3    3    0  502  0.53137084315E+02 -0.13741219243E+03  0.17561050232E+03  0.22922634902E+03  0.10100000352E+00 0.  1.
</event>
<event>
 5   0  0.7220250E-02  0.4694626E+03  0.7818609E-02  0.1022072E+00
        3   -1    0    0  501    0  0.00000000000E+00  0.00000000000E+00  0.69941354431E+02  0.69941427357E+02  0.10100000352E+00 0.  1.
       -3   -1    0    0    0  501  0.00000000000E+00  0.00000000000E+00 -0.78778507392E+03  0.78778508039E+03  0.10100000352E+00 0. -1.
    10030    2    1    2    0    0  0.00000000000E+00  0.00000000000E+00 -0.71784371949E+03  0.85772650775E+03  0.46946262523E+03 0.  0.
        4    1    3    3  502    0 -0.16435453269E+03  0.99318847196E+00 -0.52742740165E+02  0.17261752048E+03  0.12699999809E+01 0.  1.
       -4    1    3    3    0  502  0.16435453269E+03 -0.99318847196E+00 -0.66510097932E+03  0.68510898727E+03  0.12699999809E+01 0. -1.
</event>
<event>
 5   0  0.1709372E-01  0.5018227E+03  0.7818609E-02  0.1013304E+00
       -2   -1    0    0    0  501  0.00000000000E+00  0.00000000000E+00  0.86908115908E+02  0.86908115945E+02  0.25500000920E-02 0.  1.
        2   -1    0    0  501    0  0.00000000000E+00  0.00000000000E+00 -0.72440308971E+03  0.72440308972E+03  0.25500000920E-02 0. -1.
    10030    2    1    2    0    0  0.00000000000E+00  0.00000000000E+00 -0.63749497381E+03  0.81131120566E+03  0.50182270854E+03 0.  0.
        4    1    3    3  502    0  0.20449154083E+03  0.14387907533E+03 -0.28495374786E+03  0.37910187273E+03  0.12699999809E+01 0.  1.
       -4    1    3    3    0  502 -0.20449154083E+03 -0.14387907533E+03 -0.35254122595E+03  0.43220933294E+03  0.12699999809E+01 0. -1.
</event>
<event>
 5   0  0.1068522E-01  0.5027191E+03  0.7818609E-02  0.1013072E+00
       -1   -1    0    0    0  501  0.00000000000E+00  0.00000000000E+00  0.94440267630E+02  0.94440267765E+02  0.50400001928E-02 0. -1.
        1   -1    0    0  501    0  0.00000000000E+00  0.00000000000E+00 -0.66901154457E+03  0.66901154459E+03  0.50400001928E-02 0.  1.
    10030    2    1    2    0    0  0.00000000000E+00  0.00000000000E+00 -0.57457127694E+03  0.76345181235E+03  0.50271912387E+03 0.  0.
        2    1    3    3  502    0 -0.24781342734E+03 -0.38240855429E+02 -0.26064341426E+03  0.36167505747E+03  0.25500000920E-02 0. -1.
       -2    1    3    3    0  502  0.24781342734E+03  0.38240855429E+02 -0.31392786268E+03  0.40177675489E+03  0.25500000920E-02 0.  1.
</event>
<event>
 5   0  0.1074281E-01  0.4556087E+03  0.7818609E-02  0.1026063E+00
       -1   -1    0    0    0  501  0.00000000000E+00  0.00000000000E+00  0.48542455316E+02  0.48542455578E+02  0.50400001928E-02 0. -1.
        1   -1    0    0  501    0  0.00000000000E+00  0.00000000000E+00 -0.10690606236E+04  0.10690606236E+04  0.50400001928E-02 0.  1.
    10030    2    1    2    0    0  0.00000000000E+00  0.00000000000E+00 -0.10205181683E+04  0.11176030792E+04  0.45560872557E+03 0.  0.
        4    1    3    3  502    0  0.29406332847E+01  0.78472171432E+02 -0.10348012674E+04  0.10377773388E+04  0.12699999809E+01 0.  1.
       -4    1    3    3    0  502 -0.29406332847E+01 -0.78472171432E+02  0.14283099090E+02  0.79825740416E+02  0.12699999809E+01 0. -1.
</event>
<event>
 5   0  0.1709372E-01  0.4989395E+03  0.7818609E-02  0.1014056E+00
       -2   -1    0    0    0  501  0.00000000000E+00  0.00000000000E+00  0.51214792505E+02  0.51214792569E+02  0.25500000920E-02 0. -1.
        2   -1    0    0  501    0  0.00000000000E+00  0.00000000000E+00 -0.12151790807E+04  0.12151790807E+04  0.25500000920E-02 0.  1.
    10030    2    1    2    0    0  0.00000000000E+00  0.00000000000E+00 -0.11639642882E+04  0.12663938732E+04  0.49893945330E+03 0.  0.
        4    1    3    3  502    0  0.16779804173E+03  0.17672484956E+03 -0.44658368974E+03  0.50874989936E+03  0.12699999809E+01 0.  1.
       -4    1    3    3    0  502 -0.16779804173E+03 -0.17672484956E+03 -0.71738059843E+03  0.75764397389E+03  0.12699999809E+01 0. -1.
</event>
<event>
 5   0  0.1760649E-01  0.5012696E+03  0.7818609E-02  0.1013448E+00
        2   -1    0    0  501    0  0.00000000000E+00  0.00000000000E+00  0.15173704689E+04  0.15173704689E+04  0.25500000920E-02 0.  1.
       -2   -1    0    0    0  501  0.00000000000E+00  0.00000000000E+00 -0.41399121570E+02  0.41399121648E+02  0.25500000920E-02 0. -1.
    10030    2    1    2    0    0  0.00000000000E+00  0.00000000000E+00  0.14759713473E+04  0.15587695905E+04  0.50126960638E+03 0.  0.
        5    1    3    3  502    0  0.12434636879E+03 -0.61955989201E+02  0.89454328961E+02  0.16530193888E+03  0.46999998093E+01 0. -1.
       -5    1    3    3    0  502 -0.12434636879E+03  0.61955989201E+02  0.13865170183E+04  0.13934676516E+04  0.46999998093E+01 0.  1.
</event>
<event>
 5   0  0.1068522E-01  0.5123756E+03  0.7818609E-02  0.1010598E+00
        1   -1    0    0  501    0  0.00000000000E+00  0.00000000000E+00  0.18645068353E+04  0.18645068353E+04  0.50400001928E-02 0.  1.
       -1   -1    0    0    0  501  0.00000000000E+00  0.00000000000E+00 -0.35200836298E+02  0.35200836659E+02  0.50400001928E-02 0. -1.
    10030    2    1    2    0    0  0.00000000000E+00  0.00000000000E+00  0.18293059990E+04  0.18997076720E+04  0.51237564437E+03 0.  0.
        2    1    3    3  502    0 -0.94388794795E+02 -0.15218466399E+03  0.23540669213E+03  0.29577986281E+03  0.25500000920E-02 0. -1.
       -2    1    3    3    0  502  0.94388794795E+02  0.15218466399E+03  0.15938993069E+04  0.16039278092E+04  0.25500000920E-02 0.  1.
</event>
<event>
 5   0  0.1709372E-01  0.4815320E+03  0.7818609E-02  0.1018715E+00
       -2   -1    0    0    0  501  0.00000000000E+00  0.00000000000E+00  0.25183616245E+03  0.25183616246E+03  0.25500000920E-02 0.  1.
        2   -1    0    0  501    0  0.00000000000E+00  0.00000000000E+00 -0.23018246297E+03  0.23018246298E+03  0.25500000920E-02 0. -1.
    10030    2    1    2    0    0  0.00000000000E+00  0.00000000000E+00  0.21653699479E+02  0.48201862544E+03  0.48153200576E+03 0.  0.
        4    1    3    3  502    0  0.22601001147E+03 -0.70702374965E+02  0.54313865591E+02  0.24296287784E+03  0.12699999809E+01 0.  1.
       -4    1    3    3    0  502 -0.22601001147E+03  0.70702374965E+02 -0.32660166112E+02  0.23905574760E+03  0.12699999809E+01 0. -1.
</event>
<event>
 5   0  0.1782124E-01  0.4925609E+03  0.7818609E-02  0.1015739E+00
        2   -1    0    0  501    0  0.00000000000E+00  0.00000000000E+00  0.15507760418E+04  0.15507760418E+04  0.25500000920E-02 0.  1.
       -2   -1    0    0    0  501  0.00000000000E+00  0.00000000000E+00 -0.39112073148E+02  0.39112073231E+02  0.25500000920E-02 0. -1.
    10030    2    1    2    0    0  0.00000000000E+00  0.00000000000E+00  0.15116639686E+04  0.15898881150E+04  0.49256092435E+03 0.  0.
        3    1    3    3  502    0 -0.14341351337E+03 -0.20021021212E+03  0.75073758271E+03  0.79010030575E+03  0.10100000352E+00 0. -1.
       -3    1    3    3    0  502  0.14341351337E+03  0.20021021212E+03  0.76092638593E+03  0.79978780927E+03  0.10100000352E+00 0.  1.
</event>
<event>
 5   0  0.1123271E-01  0.5038066E+03  0.7818609E-02  0.1012790E+00
        1   -1    0    0  501    0  0.00000000000E+00  0.00000000000E+00  0.71970562714E+03  0.71970562716E+03  0.50400001928E-02 0.  1.
       -1   -1    0    0    0  501  0.00000000000E+00  0.00000000000E+00 -0.88168355921E+02  0.88168356065E+02  0.50400001928E-02 0. -1.
    10030    2    1    2    0    0  0.00000000000E+00  0.00000000000E+00  0.63153727122E+03  0.80787398323E+03  0.50380655795E+03 0.  0.
        5    1    3    3  502    0 -0.19506320983E+03  0.97785866891E+01  0.57076626852E+03  0.60327564170E+03  0.46999998093E+01 0.  1.
       -5    1    3    3    0  502  0.19506320983E+03 -0.97785866891E+01  0.60771002707E+02  0.20459834153E+03  0.46999998093E+01 0. -1.
</event>
<event>
 5   0  0.1683148E-01  0.5001053E+03  0.7818609E-02  0.1013751E+00
        2   -1    0    0  501    0  0.00000000000E+00  0.00000000000E+00  0.58757038291E+03  0.58757038291E+03  0.25500000920E-02 0.  1.
       -2   -1    0    0    0  501  0.00000000000E+00  0.00000000000E+00 -0.10641503360E+03  0.10641503363E+03  0.25500000920E-02 0. -1.
    10030    2    1    2    0    0  0.00000000000E+00  0.00000000000E+00  0.48115534931E+03  0.69398541654E+03  0.50010527712E+03 0.  0.
        2    1    3    3  502    0  0.23144710800E+03 -0.42734246566E+02  0.35777157261E+03  0.42824581470E+03  0.25500000920E-02 0.  1.
       -2    1    3    3    0  502 -0.23144710800E+03  0.42734246566E+02  0.12338377670E+03  0.26573960184E+03  0.25500000920E-02 0. -1.
</event>
<event>
 5   0  0.1123271E-01  0.4864791E+03  0.7818609E-02  0.1017370E+00
       -1   -1    0    0    0  501  0.00000000000E+00  0.00000000000E+00  0.61973528580E+03  0.61973528582E+03  0.50400001928E-02 0.  1.
        1   -1    0    0  501    0  0.00000000000E+00  0.00000000000E+00 -0.95468969243E+02  0.95468969376E+02  0.50400001928E-02 0. -1.
    10030    2    1    2    0    0  0.00000000000E+00  0.00000000000E+00  0.52426631656E+03  0.71520425520E+03  0.48647914239E+03 0.  0.
        5    1    3    3  502    0  0.64485885461E+01 -0.17335455272E+03  0.51270890663E+03  0.54128171794E+03  0.46999998093E+01 0.  1.
       -5    1    3    3    0  502 -0.64485885461E+01  0.17335455272E+03  0.11557409929E+02  0.17392253726E+03  0.46999998093E+01 0. -1.
</event>
<event>
 5   0  0.1683148E-01  0.5040065E+03  0.7818609E-02  0.1012738E+00
        2   -1    0    0  501    0  0.00000000000E+00  0.00000000000E+00  0.97284346758E+03  0.97284346759E+03  0.25500000920E-02 0.  1.
       -2   -1    0    0    0  501  0.00000000000E+00  0.00000000000E+00 -0.65278383329E+02  0.65278383378E+02  0.25500000920E-02 0. -1.
    10030    2    1    2    0    0  0.00000000000E+00  0.00000000000E+00  0.90756508425E+03  0.10381218510E+04  0.50400654291E+03 0.  0.
        2    1    3    3  502    0  0.16480478497E+03 -0.16417569330E+03  0.65338997633E+03  0.69356523600E+03  0.25500000920E-02 0. -1.
       -2    1    3    3    0  502 -0.16480478497E+03  0.16417569330E+03  0.25417510793E+03  0.34455661496E+03  0.25500000920E-02 0.  1.
</event>
<event>
 5   0  0.1141970E-01  0.5005605E+03  0.7818609E-02  0.1013633E+00
       -1   -1    0    0    0  501  0.00000000000E+00  0.00000000000E+00  0.15742596903E+03  0.15742596911E+03  0.50400001928E-02 0. -1.
        1   -1    0    0  501    0  0.00000000000E+00  0.00000000000E+00 -0.39790259187E+03  0.39790259190E+03  0.50400001928E-02 0.  1.
    10030    2    1    2    0    0  0.00000000000E+00  0.00000000000E+00 -0.24047662283E+03  0.55532856101E+03  0.50056049040E+03 0.  0.
        3    1    3    3  502    0 -0.19663475290E+03 -0.13944879548E+03 -0.19489943526E+03  0.30999514944E+03  0.10100000352E+00 0.  1.
       -3    1    3    3    0  502  0.19663475290E+03  0.13944879548E+03 -0.45577187574E+02  0.24533341158E+03  0.10100000352E+00 0. -1.
</event>
<event>
 5   0  0.1782124E-01  0.5155897E+03  0.7818609E-02  0.1009788E+00
        2   -1    0    0  501    0  0.00000000000E+00  0.00000000000E+00  0.43816542744E+03  0.43816542745E+03  0.25500000920E-02 0. -1.
       -2   -1    0    0    0  501  0.00000000000E+00  0.00000000000E+00 -0.15167371242E+03  0.15167371244E+03  0.25500000920E-02 0.  1.
    10030    2    1    2    0    0  0.00000000000E+00  0.00000000000E+00  0.28649171502E+03  0.58983913990E+03  0.51558967036E+03 0.  0.
        3    1    3    3  502    0 -0.13878950381E+03  0.80167600263E+02  0.37423593500E+03  0.40711413110E+03  0.10100000352E+00 0. -1.
       -3    1    3    3    0  502  0.13878950381E+03 -0.80167600263E+02 -0.87744219977E+02  0.18272500879E+03  0.10100000352E+00 0.  1.
</event>
<event>
 5   0  0.1068522E-01  0.5002547E+03  0.7818609E-02  0.1013712E+00
        1   -1    0    0  501    0  0.00000000000E+00  0.00000000000E+00  0.16418167911E+03  0.16418167919E+03  0.50400001928E-02 0. -1.
       -1   -1    0    0    0  501  0.00000000000E+00  0.00000000000E+00 -0.38106379750E+03  0.38106379753E+03  0.50400001928E-02 0.  1.
    10030    2    1    2    0    0  0.00000000000E+00  0.00000000000E+00 -0.21688211839E+03  0.54524547672E+03  0.50025471173E+03 0.  0.
        2    1    3    3  502    0 -0.34760058469E+00 -0.24461784060E+03 -0.51537589789E+02  0.24998826359E+03  0.25500000920E-02 0.  1.
       -2    1    3    3    0  502  0.34760058469E+00  0.24461784060E+03 -0.16534452860E+03  0.29525721313E+03  0.25500000920E-02 0. -1.
</event>
<event>
 5   0  0.1147245E-01  0.4920508E+03  0.7818609E-02  0.1015875E+00
        1   -1    0    0  501    0  0.00000000000E+00  0.00000000000E+00  0.86498584451E+03  0.86498584452E+03  0.50400001928E-02 0.  1.
       -1   -1    0    0    0  501  0.00000000000E+00  0.00000000000E+00 -0.69976296131E+02  0.69976296313E+02  0.50400001928E-02 0. -1.
    10030    2    1    2    0    0  0.00000000000E+00  0.00000000000E+00  0.79500954837E+03  0.93496214083E+03  0.49205083354E+03 0.  0.
        1    1    3    3  502    0 -0.20618269369E+03 -0.42677957710E+02  0.15568869159E+03  0.26186194829E+03  0.50400001928E-02 0. -1.
       -1    1    3    3    0  502  0.20618269369E+03  0.42677957710E+02  0.63932085679E+03  0.67310019254E+03  0.50400001928E-02 0.  1.
</event>
<event>
 5   0  0.1683148E-01  0.4959784E+03  0.7818609E-02  0.1014834E+00
       -2   -1    0    0    0  501  0.00000000000E+00  0.00000000000E+00  0.16332739180E+03  0.16332739182E+03  0.25500000920E-02 0. -1.
        2   -1    0    0  501    0  0.00000000000E+00  0.00000000000E+00 -0.37653607016E+03  0.37653607017E+03  0.25500000920E-02 0.  1.
    10030    2    1    2    0    0  0.00000000000E+00  0.00000000000E+00 -0.21320867836E+03  0.53986346198E+03  0.49597844414E+03 0.  0.
        2    1    3    3  502    0  0.47970603597E+02  0.16399684505E+03 -0.30223605772E+03  0.34719271102E+03  0.25500000920E-02 0.  1.
       -2    1    3    3    0  502 -0.47970603597E+02 -0.16399684505E+03  0.89027379356E+02  0.19267075096E+03  0.25500000920E-02 0. -1.
</event>
<event>
 5   0  0.1141970E-01  0.4885841E+03  0.7818609E-02  0.1016802E+00
       -1   -1    0    0    0  501  0.00000000000E+00  0.00000000000E+00  0.47640010906E+02  0.47640011172E+02  0.50400001928E-02 0. -1.
        1   -1    0    0  501    0  0.00000000000E+00  0.00000000000E+00 -0.12526990642E+04  0.12526990642E+04  0.50400001928E-02 0.  1.
    10030    2    1    2    0    0  0.00000000000E+00  0.00000000000E+00 -0.12050590533E+04  0.13003390754E+04  0.48858406548E+03 0.  0.
        3    1    3    3  502    0  0.10123638405E+03  0.16636174377E+03 -0.20999089639E+03  0.28639347411E+03  0.10100000352E+00 0. -1.
       -3    1    3    3    0  502 -0.10123638405E+03 -0.16636174377E+03 -0.99506815689E+03  0.10139456013E+04  0.10100000352E+00 0.  1.
</event>
<event>
 5   0  0.1709372E-01  0.4898021E+03  0.7818609E-02  0.1016476E+00
        2   -1    0    0  501    0  0.00000000000E+00  0.00000000000E+00  0.13340869053E+03  0.13340869055E+03  0.25500000920E-02 0. -1.
       -2   -1    0    0    0  501  0.00000000000E+00  0.00000000000E+00 -0.44956986497E+03  0.44956986498E+03  0.25500000920E-02 0.  1.
    10030    2    1    2    0    0  0.00000000000E+00  0.00000000000E+00 -0.31616117444E+03  0.58297855553E+03  0.48980211105E+03 0.  0.
        4    1    3    3  502    0 -0.63542149145E+02  0.22179273662E+02  0.12218168931E+03  0.13949732256E+03  0.12699999809E+01 0. -1.
       -4    1    3    3    0  502  0.63542149145E+02 -0.22179273662E+02 -0.43834286375E+03  0.44348123297E+03  0.12699999809E+01 0.  1.
</event>
<event>
 5   0  0.1782124E-01  0.5357144E+03  0.7818609E-02  0.1004856E+00
        2   -1    0    0  501    0  0.00000000000E+00  0.00000000000E+00  0.82627750331E+03  0.82627750332E+03  0.25500000920E-02 0.  1.
       -2   -1    0    0    0  501  0.00000000000E+00  0.00000000000E+00 -0.86832190259E+02  0.86832190297E+02  0.25500000920E-02 0. -1.
    10030    2    1    2    0    0  0.00000000000E+00  0.00000000000E+00  0.73944531305E+03  0.91310969361E+03  0.53571442166E+03 0.  0.
        3    1    3    3  502    0 -0.13498723041E+03  0.88728506086E+02  0.73391021797E+03  0.75147755682E+03  0.10100000352E+00 0.  1.
       -3    1    3    3    0  502  0.13498723041E+03 -0.88728506086E+02  0.55350950872E+01  0.16163213679E+03  0.10100000352E+00 0. -1.
</event>
<event>
 5   0  0.1760649E-01  0.3897300E+03  0.7818609E-02  0.1047395E+00
        2   -1    0    0  501    0  0.00000000000E+00  0.00000000000E+00  0.15927951328E+04  0.15927951328E+04  0.25500000920E-02 0. -1.
       -2   -1    0    0    0  501  0.00000000000E+00  0.00000000000E+00 -0.23840081346E+02  0.23840081483E+02  0.25500000920E-02 0.  1.
    10030    2    1    2    0    0  0.00000000000E+00  0.00000000000E+00  0.15689550514E+04  0.16166352142E+04  0.38972998676E+03 0.  0.
        5    1    3    3  502    0 -0.28769260290E+02  0.70108236942E+02  0.15289117275E+04  0.15307958701E+04  0.46999998093E+01 0. -1.
       -5    1    3    3    0  502  0.28769260290E+02 -0.70108236942E+02  0.40043323896E+02  0.85839344194E+02  0.46999998093E+01 0.  1.
</event>
<event>
 5   0  0.1074281E-01  0.4941524E+03  0.7818609E-02  0.1015317E+00
       -1   -1    0    0    0  501  0.00000000000E+00  0.00000000000E+00  0.83158097801E+03  0.83158097803E+03  0.50400001928E-02 0. -1.
        1   -1    0    0  501    0  0.00000000000E+00  0.00000000000E+00 -0.73410335278E+02  0.73410335451E+02  0.50400001928E-02 0.  1.
    10030    2    1    2    0    0  0.00000000000E+00  0.00000000000E+00  0.75817064274E+03  0.90499131348E+03  0.49415235906E+03 0.  0.
        4    1    3    3  502    0  0.21725663743E+03 -0.65539788151E+01  0.16393170982E+03  0.27224734990E+03  0.12699999809E+01 0.  1.
       -4    1    3    3    0  502 -0.21725663743E+03  0.65539788151E+01  0.59423893292E+03  0.63274396358E+03  0.12699999809E+01 0. -1.
</event>
<event>
 5   0  0.1147245E-01  0.4743960E+03  0.7818609E-02  0.1020687E+00
       -1   -1    0    0    0  501  0.00000000000E+00  0.00000000000E+00  0.12008759788E+04  0.12008759788E+04  0.50400001928E-02 0.  1.
        1   -1    0    0  501    0  0.00000000000E+00  0.00000000000E+00 -0.46851540881E+02  0.46851541152E+02  0.50400001928E-02 0. -1.
    10030    2    1    2    0    0  0.00000000000E+00  0.00000000000E+00  0.11540244379E+04  0.12477275199E+04  0.47439599572E+03 0.  0.
        1    1    3    3  502    0  0.10467924302E+03  0.10463151616E+03  0.89496262374E+02  0.17295976149E+03  0.50400001928E-02 0. -1.
       -1    1    3    3    0  502 -0.10467924302E+03 -0.10463151616E+03  0.10645281755E+04  0.10747677584E+04  0.50400001928E-02 0.  1.
</event>
<event>
 5   0  0.1123271E-01  0.4993352E+03  0.7818609E-02  0.1013953E+00
        1   -1    0    0  501    0  0.00000000000E+00  0.00000000000E+00  0.38162632029E+03  0.38162632032E+03  0.50400001928E-02 0. -1.
       -1   -1    0    0    0  501  0.00000000000E+00  0.00000000000E+00 -0.16333753131E+03  0.16333753139E+03  0.50400001928E-02 0.  1.
    10030    2    1    2    0    0  0.00000000000E+00  0.00000000000E+00  0.21828878898E+03  0.54496385172E+03  0.49933516227E+03 0.  0.
        5    1    3    3  502    0  0.24467791548E+03  0.12611424922E+02  0.16131961900E+03  0.29338104887E+03  0.46999998093E+01 0. -1.
       -5    1    3    3    0  502 -0.24467791548E+03 -0.12611424922E+02  0.56969169975E+02  0.25158280285E+03  0.46999998093E+01 0.  1.
</event>
<event>
 5   0  0.1683148E-01  0.4998188E+03  0.7818609E-02  0.1013826E+00
        2   -1    0    0  501    0  0.00000000000E+00  0.00000000000E+00  0.13892415145E+04  0.13892415145E+04  0.25500000920E-02 0.  1.
       -2   -1    0    0    0  501  0.00000000000E+00  0.00000000000E+00 -0.44955982636E+02  0.44955982709E+02  0.25500000920E-02 0. -1.
    10030    2    1    2    0    0  0.00000000000E+00  0.00000000000E+00  0.13442855319E+04  0.14341974972E+04  0.49981883701E+03 0.  0.
        2    1    3    3  502    0 -0.21222159221E+03  0.67286135614E+02  0.99791256861E+03  0.10224455598E+04  0.25500000920E-02 0.  1.
       -2    1    3    3    0  502  0.21222159221E+03 -0.67286135614E+02  0.34637296325E+03  0.41175193737E+03  0.25500000920E-02 0. -1.
</event>
<event>
 5   0  0.1709372E-01  0.4969037E+03  0.7818609E-02  0.1014590E+00
        2   -1    0    0  501    0  0.00000000000E+00  0.00000000000E+00  0.15001984681E+03  0.15001984684E+03  0.25500000920E-02 0. -1.
       -2   -1    0    0    0  501  0.00000000000E+00  0.00000000000E+00 -0.41146778563E+03  0.41146778564E+03  0.25500000920E-02 0.  1.
    10030    2    1    2    0    0  0.00000000000E+00  0.00000000000E+00 -0.26144793881E+03  0.56148763247E+03  0.49690374994E+03 0.  0.
        4    1    3    3  502    0  0.26656311333E+02  0.69152691626E+02 -0.39868255074E+03  0.40551454087E+03  0.12699999809E+01 0.  1.
       -4    1    3    3    0  502 -0.26656311333E+02 -0.69152691626E+02  0.13723461193E+03  0.15597309160E+03  0.12699999809E+01 0. -1.
</event>
<event>
 5   0  0.1760649E-01  0.5096523E+03  0.7818609E-02  0.1011290E+00
        2   -1    0    0  501    0  0.00000000000E+00  0.00000000000E+00  0.13040147593E+04  0.13040147593E+04  0.25500000920E-02 0. -1.
       -2   -1    0    0    0  501  0.00000000000E+00  0.00000000000E+00 -0.49797257822E+02  0.49797257888E+02  0.25500000920E-02 0.  1.
    10030    2    1    2    0    0  0.00000000000E+00  0.00000000000E+00  0.12542175015E+04  0.13538120172E+04  0.50965227055E+03 0.  0.
        5    1    3    3  502    0 -0.78970258119E+02  0.81454294196E+02  0.12330998617E+04  0.12383167861E+04  0.46999998093E+01 0. -1.
       -5    1    3    3    0  502  0.78970258119E+02 -0.81454294196E+02  0.21117639799E+02  0.11549523115E+03  0.46999998093E+01 0.  1.
</event>
<event>
 5   0  0.1709372E-01  0.5048657E+03  0.7818609E-02  0.1012517E+00
        2   -1    0    0  501    0  0.00000000000E+00  0.00000000000E+00  0.42518019803E+03  0.42518019803E+03  0.25500000920E-02 0.  1.
       -2   -1    0    0    0  501  0.00000000000E+00  0.00000000000E+00 -0.14987140473E+03  0.14987140475E+03  0.25500000920E-02 0. -1.
    10030    2    1    2    0    0  0.00000000000E+00  0.00000000000E+00  0.27530879330E+03  0.57505160278E+03  0.50486573878E+03 0.  0.
        4    1    3    3  502    0  0.14498321697E+03 -0.50755735349E+02 -0.90503515507E+02  0.17829407476E+03  0.12699999809E+01 0. -1.
       -4    1    3    3    0  502 -0.14498321697E+03  0.50755735349E+02  0.36581230881E+03  0.39675752803E+03  0.12699999809E+01 0.  1.
</event>
<event>
 5   0  0.1683148E-01  0.5028251E+03  0.7818609E-02  0.1013044E+00
        2   -1    0    0  501    0  0.00000000000E+00  0.00000000000E+00  0.11534476364E+04  0.11534476364E+04  0.25500000920E-02 0.  1.
       -2   -1    0    0    0  501  0.00000000000E+00  0.00000000000E+00 -0.54799422456E+02  0.54799422515E+02  0.25500000920E-02 0. -1.
    10030    2    1    2    0    0  0.00000000000E+00  0.00000000000E+00  0.10986482139E+04  0.12082470589E+04  0.50282507632E+03 0.  0.
        2    1    3    3  502    0  0.22359273063E+03 -0.79398457811E+01  0.27375743311E+03  0.35355322446E+03  0.25500000920E-02 0. -1.
       -2    1    3    3    0  502 -0.22359273063E+03  0.79398457811E+01  0.82489078081E+03  0.85469383443E+03  0.25500000920E-02 0.  1.
</event>
<event>
 5   0  0.1760649E-01  0.4973416E+03  0.7818609E-02  0.1014475E+00
       -2   -1    0    0    0  501  0.00000000000E+00  0.00000000000E+00  0.51739099043E+02  0.51739099106E+02  0.25500000920E-02 0. -1.
        2   -1    0    0  501    0  0.00000000000E+00  0.00000000000E+00 -0.11951727282E+04  0.11951727282E+04  0.25500000920E-02 0.  1.
    10030    2    1    2    0    0  0.00000000000E+00  0.00000000000E+00 -0.11434336292E+04  0.12469118273E+04  0.49734157357E+03 0.  0.
        5    1    3    3  502    0  0.11750860224E+03  0.16636492262E+03 -0.92919080458E+03  0.95126400142E+03  0.46999998093E+01 0.  1.
       -5    1    3    3    0  502 -0.11750860224E+03 -0.16636492262E+03 -0.21424282460E+03  0.29564782592E+03  0.46999998093E+01 0. -1.
</event>
<event>
 5   0  0.1760649E-01  0.4933414E+03  0.7818609E-02  0.1015532E+00
        2   -1    0    0  501    0  0.00000000000E+00  0.00000000000E+00  0.48350960923E+03  0.48350960924E+03  0.25500000920E-02 0. -1.
       -2   -1    0    0    0  501  0.00000000000E+00  0.00000000000E+00 -0.12584326957E+03  0.12584326959E+03  0.25500000920E-02 0.  1.
    10030    2    1    2    0    0  0.00000000000E+00  0.00000000000E+00  0.35766633966E+03  0.60935287883E+03  0.49334138323E+03 0.  0.
        5    1    3    3  502    0 -0.12335061388E+03 -0.16998319046E+03  0.33852046617E+03  0.39840664527E+03  0.46999998093E+01 0. -1.
       -5    1    3    3    0  502  0.12335061388E+03  0.16998319046E+03  0.19145873490E+02  0.21094623356E+03  0.46999998093E+01 0.  1.
</event>
<event>
 5   0  0.7220250E-02  0.5074334E+03  0.7818609E-02  0.1011857E+00
       -4   -1    0    0    0  501  0.00000000000E+00  0.00000000000E+00  0.60018860660E+03  0.60018995026E+03  0.12699999809E+01 0. -1.
        4   -1    0    0  501    0  0.00000000000E+00  0.00000000000E+00 -0.10724799144E+03  0.10725551066E+03  0.12699999809E+01 0.  1.
    10030    2    1    2    0    0  0.00000000000E+00  0.00000000000E+00  0.49294061516E+03  0.70744546092E+03  0.50743337504E+03 0.  0.
        1    1    3    3  502    0  0.12709381028E+03  0.21953041805E+03  0.25354030684E+03  0.35864903217E+03  0.50400001928E-02 0.  1.
       -1    1    3    3    0  502 -0.12709381028E+03 -0.21953041805E+03  0.23940030831E+03  0.34879642874E+03  0.50400001928E-02 0. -1.
</event>
<event>
 5   0  0.7220250E-02  0.4858679E+03  0.7818609E-02  0.1017535E+00
        4   -1    0    0  501    0  0.00000000000E+00  0.00000000000E+00  0.29342769981E+03  0.29343044817E+03  0.12699999809E+01 0. -1.
       -4   -1    0    0    0  501  0.00000000000E+00  0.00000000000E+00 -0.20112357148E+03  0.20112758117E+03  0.12699999809E+01 0.  1.
    10030    2    1    2    0    0  0.00000000000E+00  0.00000000000E+00  0.92304128322E+02  0.49455802934E+03  0.48586787533E+03 0.  0.
        3    1    3    3  502    0 -0.15967986849E+03  0.18159717434E+03  0.69842659842E+02  0.25170061872E+03  0.10100000352E+00 0.  1.
       -3    1    3    3    0  502  0.15967986849E+03 -0.18159717434E+03  0.22461468480E+02  0.24285741062E+03  0.10100000352E+00 0. -1.
</event>
<event>
 5   0  0.7220250E-02  0.4982508E+03  0.7818609E-02  0.1014237E+00
        4   -1    0    0  501    0  0.00000000000E+00  0.00000000000E+00  0.24649096564E+03  0.24649423734E+03  0.12699999809E+01 0. -1.
       -4   -1    0    0    0  501  0.00000000000E+00  0.00000000000E+00 -0.25178140691E+03  0.25178460987E+03  0.12699999809E+01 0.  1.
    10030    2    1    2    0    0  0.00000000000E+00  0.00000000000E+00 -0.52904412706E+01  0.49827884721E+03  0.49825076097E+03 0.  0.
        2    1    3    3  502    0 -0.24752074733E+03 -0.27967071344E+02 -0.64896219142E+01  0.24918024127E+03  0.25500000920E-02 0.  1.
       -2    1    3    3    0  502  0.24752074733E+03  0.27967071344E+02  0.11991806436E+01  0.24909860594E+03  0.25500000920E-02 0. -1.
</event>
<event>
 5   0  0.1141970E-01  0.4845678E+03  0.7818609E-02  0.1017887E+00
        1   -1    0    0  501    0  0.00000000000E+00  0.00000000000E+00  0.17057036905E+04  0.17057036905E+04  0.50400001928E-02 0. -1.
       -1   -1    0    0    0  501  0.00000000000E+00  0.00000000000E+00 -0.34414817265E+02  0.34414817634E+02  0.50400001928E-02 0.  1.
    10030    2    1    2    0    0  0.00000000000E+00  0.00000000000E+00  0.16712888732E+04  0.17401185081E+04  0.48456777088E+03 0.  0.
        3    1    3    3  502    0 -0.46727528611E+02  0.23130320000E+03  0.63840200637E+03  0.68061866283E+03  0.10100000352E+00 0. -1.
       -3    1    3    3    0  502  0.46727528611E+02 -0.23130320000E+03  0.10328868668E+04  0.10594998453E+04  0.10100000352E+00 0.  1.
</event>
<event>
 5   0  0.1782124E-01  0.4950579E+03  0.7818609E-02  0.1015077E+00
       -2   -1    0    0    0  501  0.00000000000E+00  0.00000000000E+00  0.60359684268E+02  0.60359684322E+02  0.25500000920E-02 0. -1.
        2   -1    0    0  501    0  0.00000000000E+00  0.00000000000E+00 -0.10150910910E+04  0.10150910910E+04  0.25500000920E-02 0.  1.
    10030    2    1    2    0    0  0.00000000000E+00  0.00000000000E+00 -0.95473140678E+03  0.10754507754E+04  0.49505788667E+03 0.  0.
        3    1    3    3  502    0  0.13637419747E+03  0.20503781315E+03 -0.53198442655E+03  0.58621315821E+03  0.10100000352E+00 0. -1.
       -3    1    3    3    0  502 -0.13637419747E+03 -0.20503781315E+03 -0.42274698022E+03  0.48923761716E+03  0.10100000352E+00 0.  1.
</event>
<event>
 5   0  0.1147245E-01  0.5049461E+03  0.7818609E-02  0.1012496E+00
       -1   -1    0    0    0  501  0.00000000000E+00  0.00000000000E+00  0.99339407828E+02  0.99339407956E+02  0.50400001928E-02 0.  1.
        1   -1    0    0  501    0  0.00000000000E+00  0.00000000000E+00 -0.64166511501E+03  0.64166511503E+03  0.50400001928E-02 0. -1.
    10030    2    1    2    0    0  0.00000000000E+00  0.00000000000E+00 -0.54232570718E+03  0.74100452298E+03  0.50494606684E+03 0.  0.
        1    1    3    3  502    0  0.13185248806E+03  0.76288640999E+02  0.24301346273E+02  0.15425819527E+03  0.50400001928E-02 0.  1.
       -1    1    3    3    0  502 -0.13185248806E+03 -0.76288640999E+02 -0.56662705345E+03  0.58674632771E+03  0.50400001928E-02 0. -1.
</event>
<event>
 5   0  0.1068522E-01  0.4957393E+03  0.7818609E-02  0.1014897E+00
       -1   -1    0    0    0  501  0.00000000000E+00  0.00000000000E+00  0.33779958369E+03  0.33779958372E+03  0.50400001928E-02 0.  1.
        1   -1    0    0  501    0  0.00000000000E+00  0.00000000000E+00 -0.18188109661E+03  0.18188109668E+03  0.50400001928E-02 0. -1.
    10030    2    1    2    0    0  0.00000000000E+00  0.00000000000E+00  0.15591848708E+03  0.51968068040E+03  0.49573928125E+03 0.  0.
        2    1    3    3  502    0 -0.16052096946E+03 -0.16886785395E+03 -0.10719424983E+02  0.23323430239E+03  0.25500000920E-02 0. -1.
       -2    1    3    3    0  502  0.16052096946E+03  0.16886785395E+03  0.16663791206E+03  0.28644637801E+03  0.25500000920E-02 0.  1.
</event>
<event>
 5   0  0.1123271E-01  0.5059632E+03  0.7818609E-02  0.1012234E+00
        1   -1    0    0  501    0  0.00000000000E+00  0.00000000000E+00  0.20814667606E+03  0.20814667612E+03  0.50400001928E-02 0. -1.
       -1   -1    0    0    0  501  0.00000000000E+00  0.00000000000E+00 -0.30747394926E+03  0.30747394930E+03  0.50400001928E-02 0.  1.
    10030    2    1    2    0    0  0.00000000000E+00  0.00000000000E+00 -0.99327273196E+02  0.51562062542E+03  0.50596316285E+03 0.  0.
        5    1    3    3  502    0  0.88314040183E+02  0.22125133533E+03 -0.13629245455E+03  0.27449817166E+03  0.46999998093E+01 0. -1.
       -5    1    3    3    0  502 -0.88314040183E+02 -0.22125133533E+03  0.36965181350E+02  0.24112245376E+03  0.46999998093E+01 0.  1.
</event>
<event>
 5   0  0.1683148E-01  0.5082407E+03  0.7818609E-02  0.1011650E+00
       -2   -1    0    0    0  501  0.00000000000E+00  0.00000000000E+00  0.51118031283E+02  0.51118031347E+02  0.25500000920E-02 0. -1.
        2   -1    0    0  501    0  0.00000000000E+00  0.00000000000E+00 -0.12632949852E+04  0.12632949853E+04  0.25500000920E-02 0.  1.
    10030    2    1    2    0    0  0.00000000000E+00  0.00000000000E+00 -0.12121769540E+04  0.13144130166E+04  0.50824070132E+03 0.  0.
        2    1    3    3  502    0 -0.16467764566E+02 -0.12149088886E+03 -0.30428019082E+02  0.12632136675E+03  0.25500000920E-02 0. -1.
       -2    1    3    3    0  502  0.16467764566E+02  0.12149088886E+03 -0.11817489349E+04  0.11880916499E+04  0.25500000920E-02 0.  1.
</event>
<event>
 5   0  0.1709372E-01  0.4982411E+03  0.7818609E-02  0.1014239E+00
        2   -1    0    0  501    0  0.00000000000E+00  0.00000000000E+00  0.50881475795E+03  0.50881475796E+03  0.25500000920E-02 0.  1.
       -2   -1    0    0    0  501  0.00000000000E+00  0.00000000000E+00 -0.12197179066E+03  0.12197179069E+03  0.25500000920E-02 0. -1.
    10030    2    1    2    0    0  0.00000000000E+00  0.00000000000E+00  0.38684296729E+03  0.63078654865E+03  0.49824109487E+03 0.  0.
        4    1    3    3  502    0 -0.13579553125E+03 -0.20621412499E+03  0.15153259028E+03  0.28970403945E+03  0.12699999809E+01 0.  1.
       -4    1    3    3    0  502  0.13579553125E+03  0.20621412499E+03  0.23531037701E+03  0.34108250920E+03  0.12699999809E+01 0. -1.
</event>
<event>
 5   0  0.1141970E-01  0.5085012E+03  0.7818609E-02  0.1011584E+00
        1   -1    0    0  501    0  0.00000000000E+00  0.00000000000E+00  0.11083971096E+04  0.11083971096E+04  0.50400001928E-02 0.  1.
       -1   -1    0    0    0  501  0.00000000000E+00  0.00000000000E+00 -0.58321478107E+02  0.58321478325E+02  0.50400001928E-02 0. -1.
    10030    2    1    2    0    0  0.00000000000E+00  0.00000000000E+00  0.10500756315E+04  0.11667185879E+04  0.50850116183E+03 0.  0.
        3    1    3    3  502    0  0.17222523747E+01  0.49667816584E+02 -0.47068561778E+02  0.68449381782E+02  0.10100000352E+00 0. -1.
       -3    1    3    3    0  502 -0.17222523747E+01 -0.49667816584E+02  0.10971441933E+04  0.10982692061E+04  0.10100000352E+00 0.  1.
</event>
<event>
 5   0  0.1683148E-01  0.4960986E+03  0.7818609E-02  0.1014802E+00
       -2   -1    0    0    0  501  0.00000000000E+00  0.00000000000E+00  0.39155884835E+02  0.39155884918E+02  0.25500000920E-02 0.  1.
        2   -1    0    0  501    0  0.00000000000E+00  0.00000000000E+00 -0.15713717346E+04  0.15713717346E+04  0.25500000920E-02 0. -1.
    10030    2    1    2    0    0  0.00000000000E+00  0.00000000000E+00 -0.15322158498E+04  0.16105276196E+04  0.49609858191E+03 0.  0.
        2    1    3    3  502    0  0.86677977405E+02 -0.60190454929E+02 -0.37350332366E+02  0.11194199376E+03  0.25500000920E-02 0.  1.
       -2    1    3    3    0  502 -0.86677977405E+02  0.60190454929E+02 -0.14948655174E+04  0.14985856258E+04  0.25500000920E-02 0. -1.
</event>
<event>
 5   0  0.1123271E-01  0.4876431E+03  0.7818609E-02  0.1017056E+00
        1   -1    0    0  501    0  0.00000000000E+00  0.00000000000E+00  0.91362841733E+02  0.91362841872E+02  0.50400001928E-02 0.  1.
       -1   -1    0    0    0  501  0.00000000000E+00  0.00000000000E+00 -0.65069066851E+03  0.65069066853E+03  0.50400001928E-02 0. -1.
    10030    2    1    2    0    0  0.00000000000E+00  0.00000000000E+00 -0.55932782678E+03  0.74205351040E+03  0.48764310155E+03 0.  0.
        5    1    3    3  502    0  0.23760437451E+03 -0.54499831149E+02 -0.28101493830E+03  0.37204509932E+03  0.46999998093E+01 0.  1.
       -5    1    3    3    0  502 -0.23760437451E+03  0.54499831149E+02 -0.27831288848E+03  0.37000841109E+03  0.46999998093E+01 0. -1.
</event>
<event>
 5   0  0.1123271E-01  0.4865074E+03  0.7818609E-02  0.1017362E+00
        1   -1    0    0  501    0  0.00000000000E+00  0.00000000000E+00  0.10400554342E+04  0.10400554342E+04  0.50400001928E-02 0. -1.
       -1   -1    0    0    0  501  0.00000000000E+00  0.00000000000E+00 -0.56893477145E+02  0.56893477369E+02  0.50400001928E-02 0.  1.
    10030    2    1    2    0    0  0.00000000000E+00  0.00000000000E+00  0.98316195704E+03  0.10969489116E+04  0.48650743141E+03 0.  0.
        5    1    3    3  502    0 -0.47004035532E+02 -0.23511476199E+03  0.39966186227E+03  0.46609014666E+03  0.46999998093E+01 0.  1.
       -5    1    3    3    0  502  0.47004035532E+02  0.23511476199E+03  0.58350009477E+03  0.63085876491E+03  0.46999998093E+01 0. -1.
</event>
<event>
 5   0  0.1074281E-01  0.4840615E+03  0.7818609E-02  0.1018025E+00
        1   -1    0    0  501    0  0.00000000000E+00  0.00000000000E+00  0.28134748511E+03  0.28134748515E+03  0.50400001928E-02 0.  1.
       -1   -1    0    0    0  501  0.00000000000E+00  0.00000000000E+00 -0.20820832008E+03  0.20820832014E+03  0.50400001928E-02 0. -1.
    10030    2    1    2    0    0  0.00000000000E+00  0.00000000000E+00  0.73139165028E+02  0.48955580529E+03  0.48406151369E+03 0.  0.
        4    1    3    3  502    0 -0.21892064857E+03 -0.76166252693E+02  0.10699999777E+03  0.25530013874E+03  0.12699999809E+01 0.  1.
       -4    1    3    3    0  502  0.21892064857E+03  0.76166252693E+02 -0.33860832737E+02  0.23425566655E+03  0.12699999809E+01 0. -1.
</event>
<event>
 5   0  0.1068522E-01  0.5014284E+03  0.7818609E-02  0.1013407E+00
        1   -1    0    0  501    0  0.00000000000E+00  0.00000000000E+00  0.41602798910E+02  0.41602799215E+02  0.50400001928E-02 0. -1.
       -1   -1    0    0    0  501  0.00000000000E+00  0.00000000000E+00 -0.15108984660E+04  0.15108984661E+04  0.50400001928E-02 0.  1.
    10030    2    1    2    0    0  0.00000000000E+00  0.00000000000E+00 -0.14692956671E+04  0.15525012653E+04  0.50142838093E+03 0.  0.
        2    1    3    3  502    0 -0.15410279670E+03 -0.17046198224E+03 -0.10450775191E+04  0.10700429806E+04  0.25500000920E-02 0.  1.
       -2    1    3    3    0  502  0.15410279670E+03  0.17046198224E+03 -0.42421814802E+03  0.48245828468E+03  0.25500000920E-02 0. -1.
</event>
<event>
 5   0  0.1123271E-01  0.5025002E+03  0.7818609E-02  0.1013128E+00
       -1   -1    0    0    0  501  0.00000000000E+00  0.00000000000E+00  0.50549359331E+02  0.50549359582E+02  0.50400001928E-02 0. -1.
        1   -1    0    0  501    0  0.00000000000E+00  0.00000000000E+00 -0.12488111470E+04  0.12488111470E+04  0.50400001928E-02 0.  1.
    10030    2    1    2    0    0  0.00000000000E+00  0.00000000000E+00 -0.11982617876E+04  0.12993605065E+04  0.50250016348E+03 0.  0.
        5    1    3    3  502    0 -0.10951074869E+02  0.12579713229E+03 -0.11606684782E+04  0.11675265525E+04  0.46999998093E+01 0.  1.
       -5    1    3    3    0  502  0.10951074869E+02 -0.12579713229E+03 -0.37593309467E+02  0.13183395408E+03  0.46999998093E+01 0. -1.
</event>
<event>
 5   0  0.1147245E-01  0.5106154E+03  0.7818609E-02  0.1011045E+00
       -1   -1    0    0    0  501  0.00000000000E+00  0.00000000000E+00  0.81620859572E+02  0.81620859728E+02  0.50400001928E-02 0. -1.
        1   -1    0    0  501    0  0.00000000000E+00  0.00000000000E+00 -0.79859525501E+03  0.79859525502E+03  0.50400001928E-02 0.  1.
    10030    2    1    2    0    0  0.00000000000E+00  0.00000000000E+00 -0.71697439543E+03  0.88021611475E+03  0.51061543744E+03 0.  0.
        1    1    3    3  502    0  0.22372334550E+03  0.81989398731E+02 -0.51655094852E+03  0.56885787264E+03  0.50400001928E-02 0.  1.
       -1    1    3    3    0  502 -0.22372334550E+03 -0.81989398731E+02 -0.20042344691E+03  0.31135824211E+03  0.50400001928E-02 0. -1.
</event>
<event>
 5   0  0.1782124E-01  0.5184459E+03  0.7818609E-02  0.1009073E+00
       -2   -1    0    0    0  501  0.00000000000E+00  0.00000000000E+00  0.60345955839E+02  0.60345955893E+02  0.25500000920E-02 0.  1.
        2   -1    0    0  501    0  0.00000000000E+00  0.00000000000E+00 -0.11135218931E+04  0.11135218931E+04  0.25500000920E-02 0. -1.
    10030    2    1    2    0    0  0.00000000000E+00  0.00000000000E+00 -0.10531759372E+04  0.11738678490E+04  0.51844592010E+03 0.  0.
        3    1    3    3  502    0  0.91003831058E+02 -0.18271896601E+03 -0.88835532284E+03  0.91150595590E+03  0.10100000352E+00 0. -1.
       -3    1    3    3    0  502 -0.91003831058E+02  0.18271896601E+03 -0.16482061438E+03  0.26236189306E+03  0.10100000352E+00 0.  1.
</event>
<event>
 5   0  0.1782124E-01  0.5018296E+03  0.7818609E-02  0.1013302E+00
       -2   -1    0    0    0  501  0.00000000000E+00  0.00000000000E+00  0.85261410328E+02  0.85261410366E+02  0.25500000920E-02 0.  1.
        2   -1    0    0  501    0  0.00000000000E+00  0.00000000000E+00 -0.73841412984E+03  0.73841412984E+03  0.25500000920E-02 0. -1.
    10030    2    1    2    0    0  0.00000000000E+00  0.00000000000E+00 -0.65315271951E+03  0.82367554021E+03  0.50182957320E+03 0.  0.
        3    1    3    3  502    0  0.14303459794E+03 -0.18426205374E+03 -0.17483562633E+03  0.29151141846E+03  0.10100000352E+00 0.  1.
       -3    1    3    3    0  502 -0.14303459794E+03  0.18426205374E+03 -0.47831709318E+03  0.53216412175E+03  0.10100000352E+00 0. -1.
</event>
<event>
 5   0  0.1123271E-01  0.5021398E+03  0.7818609E-02  0.1013222E+00
       -1   -1    0    0    0  501  0.00000000000E+00  0.00000000000E+00  0.13240302883E+03  0.13240302893E+03  0.50400001928E-02 0. -1.
        1   -1    0    0  501    0  0.00000000000E+00  0.00000000000E+00 -0.47609249448E+03  0.47609249450E+03  0.50400001928E-02 0.  1.
    10030    2    1    2    0    0  0.00000000000E+00  0.00000000000E+00 -0.34368946565E+03  0.60849552343E+03  0.50213977460E+03 0.  0.
        5    1    3    3  502    0 -0.10142168692E+03  0.22727271235E+03 -0.13211759384E+03  0.28180914279E+03  0.46999998093E+01 0. -1.
       -5    1    3    3    0  502  0.10142168692E+03 -0.22727271235E+03 -0.21157187181E+03  0.32668638064E+03  0.46999998093E+01 0.  1.
</event>
<event>
 5   0  0.1147245E-01  0.5175469E+03  0.7818609E-02  0.1009298E+00
        1   -1    0    0  501    0  0.00000000000E+00  0.00000000000E+00  0.36469616624E+03  0.36469616628E+03  0.50400001928E-02 0.  1.
       -1   -1    0    0    0  501  0.00000000000E+00  0.00000000000E+00 -0.18361506021E+03  0.18361506028E+03  0.50400001928E-02 0. -1.
    10030    2    1    2    0    0  0.00000000000E+00  0.00000000000E+00  0.18108110604E+03  0.54831122655E+03  0.51754693913E+03 0.  0.
        1    1    3    3  502    0  0.17591454738E+03 -0.18947037789E+03  0.78995232624E+02  0.27034274335E+03  0.50400001928E-02 0. -1.
       -1    1    3    3    0  502 -0.17591454738E+03  0.18947037789E+03  0.10208587341E+03  0.27796848320E+03  0.50400001928E-02 0.  1.
</event>
<event>
 5   0  0.1141970E-01  0.4979342E+03  0.7818609E-02  0.1014320E+00
        1   -1    0    0  501    0  0.00000000000E+00  0.00000000000E+00  0.52743429256E+03  0.52743429258E+03  0.50400001928E-02 0. -1.
       -1   -1    0    0    0  501  0.00000000000E+00  0.00000000000E+00 -0.11752104067E+03  0.11752104077E+03  0.50400001928E-02 0.  1.
    10030    2    1    2    0    0  0.00000000000E+00  0.00000000000E+00  0.40991325189E+03  0.64495533336E+03  0.49793424058E+03 0.  0.
        3    1    3    3  502    0 -0.68676633665E+02 -0.30620671013E+02  0.51237476787E+03  0.51786293405E+03  0.10100000352E+00 0. -1.
       -3    1    3    3    0  502  0.68676633665E+02  0.30620671013E+02 -0.10246151598E+03  0.12709239931E+03  0.10100000352E+00 0.  1.
</event>
<event>
 5   0  0.1683148E-01  0.4967508E+03  0.7818609E-02  0.1014631E+00
       -2   -1    0    0    0  501  0.00000000000E+00  0.00000000000E+00  0.23159781879E+03  0.23159781880E+03  0.25500000920E-02 0. -1.
        2   -1    0    0  501    0  0.00000000000E+00  0.00000000000E+00 -0.26636837978E+03  0.26636837979E+03  0.25500000920E-02 0.  1.
    10030    2    1    2    0    0  0.00000000000E+00  0.00000000000E+00 -0.34770560994E+02  0.49796619859E+03  0.49675078563E+03 0.  0.
        2    1    3    3  502    0 -0.36610277092E+02  0.24355198917E+03 -0.49595688225E+02  0.25123219562E+03  0.25500000920E-02 0.  1.
       -2    1    3    3    0  502  0.36610277092E+02 -0.24355198917E+03  0.14825127231E+02  0.24673400297E+03  0.25500000920E-02 0. -1.
</event>
<event>
 5   0  0.1683148E-01  0.4899659E+03  0.7818609E-02  0.1016432E+00
       -2   -1    0    0    0  501  0.00000000000E+00  0.00000000000E+00  0.99915544168E+02  0.99915544201E+02  0.25500000920E-02 0. -1.
        2   -1    0    0  501    0  0.00000000000E+00  0.00000000000E+00 -0.60067381946E+03  0.60067381946E+03  0.25500000920E-02 0.  1.
    10030    2    1    2    0    0  0.00000000000E+00  0.00000000000E+00 -0.50075827529E+03  0.70058936366E+03  0.48996592352E+03 0.  0.
        2    1    3    3  502    0  0.99403078991E+02  0.23474170383E+02  0.68019541493E+02  0.12271375970E+03  0.25500000920E-02 0. -1.
       -2    1    3    3    0  502 -0.99403078991E+02 -0.23474170383E+02 -0.56877781678E+03  0.57787560396E+03  0.25500000920E-02 0.  1.
</event>
<event>
 5   0  0.1074281E-01  0.4819312E+03  0.7818609E-02  0.1018606E+00
        1   -1    0    0  501    0  0.00000000000E+00  0.00000000000E+00  0.35262538818E+03  0.35262538821E+03  0.50400001928E-02 0. -1.
       -1   -1    0    0    0  501  0.00000000000E+00  0.00000000000E+00 -0.16466317255E+03  0.16466317263E+03  0.50400001928E-02 0.  1.
    10030    2    1    2    0    0  0.00000000000E+00  0.00000000000E+00  0.18796221563E+03  0.51728856084E+03  0.48193117836E+03 0.  0.
        4    1    3    3  502    0 -0.21011127454E+02 -0.11867731960E+03 -0.12998239099E+03  0.17726479778E+03  0.12699999809E+01 0.  1.
       -4    1    3    3    0  502  0.21011127454E+02  0.11867731960E+03  0.31794460662E+03  0.34002376306E+03  0.12699999809E+01 0. -1.
</event>
<event>
 5   0  0.1827698E-01  0.4992156E+03  0.7818609E-02  0.1013984E+00
        2   -1    0    0  501    0  0.00000000000E+00  0.00000000000E+00  0.63343749839E+03  0.63343749839E+03  0.25500000920E-02 0.  1.
       -2   -1    0    0    0  501  0.00000000000E+00  0.00000000000E+00 -0.98358653874E+02  0.98358653907E+02  0.25500000920E-02 0. -1.
    10030    2    1    2    0    0  0.00000000000E+00  0.00000000000E+00  0.53507884452E+03  0.73179615230E+03  0.49921562343E+03 0.  0.
        1    1    3    3  502    0  0.10180462641E+03  0.22709695400E+03  0.29561617686E+03  0.38642739619E+03  0.50400001928E-02 0. -1.
       -1    1    3    3    0  502 -0.10180462641E+03 -0.22709695400E+03  0.23946266765E+03  0.34536875611E+03  0.50400001928E-02 0.  1.
</event>
<event>
 5   0  0.1123271E-01  0.4978412E+03  0.7818609E-02  0.1014344E+00
        1   -1    0    0  501    0  0.00000000000E+00  0.00000000000E+00  0.68991469607E+03  0.68991469609E+03  0.50400001928E-02 0. -1.
       -1   -1    0    0    0  501  0.00000000000E+00  0.00000000000E+00 -0.89810345402E+02  0.89810345544E+02  0.50400001928E-02 0.  1.
    10030    2    1    2    0    0  0.00000000000E+00  0.00000000000E+00  0.60010435067E+03  0.77972504163E+03  0.49784124865E+03 0.  0.
        5    1    3    3  502    0 -0.15948972267E+03  0.19041088085E+03  0.32462284707E+03  0.40877299082E+03  0.46999998093E+01 0.  1.
       -5    1    3    3    0  502  0.15948972267E+03 -0.19041088085E+03  0.27548150360E+03  0.37095205082E+03  0.46999998093E+01 0. -1.
</event>
<event>
 5   0  0.1760649E-01  0.4552124E+03  0.7818609E-02  0.1026179E+00
        2   -1    0    0  501    0  0.00000000000E+00  0.00000000000E+00  0.23012983063E+03  0.23012983065E+03  0.25500000920E-02 0.  1.
       -2   -1    0    0    0  501  0.00000000000E+00  0.00000000000E+00 -0.22511022973E+03  0.22511022975E+03  0.25500000920E-02 0. -1.
    10030    2    1    2    0    0  0.00000000000E+00  0.00000000000E+00  0.50196009014E+01  0.45524006040E+03  0.45521238581E+03 0.  0.
        5    1    3    3  502    0 -0.48513641239E+02 -0.20986548665E+02  0.22385667104E+03  0.23006066108E+03  0.46999998093E+01 0.  1.
       -5    1    3    3    0  502  0.48513641239E+02  0.20986548665E+02 -0.21883707014E+03  0.22517939931E+03  0.46999998093E+01 0. -1.
</event>
<event>
 5   0  0.1760649E-01  0.4906393E+03  0.7818609E-02  0.1016251E+00
       -2   -1    0    0    0  501  0.00000000000E+00  0.00000000000E+00  0.84121633872E+02  0.84121633910E+02  0.25500000920E-02 0. -1.
        2   -1    0    0  501    0  0.00000000000E+00  0.00000000000E+00 -0.71541322362E+03  0.71541322362E+03  0.25500000920E-02 0.  1.
    10030    2    1    2    0    0  0.00000000000E+00  0.00000000000E+00 -0.63129158975E+03  0.79953485753E+03  0.49063929432E+03 0.  0.
        5    1    3    3  502    0 -0.61951149721E+02  0.10378825280E+03  0.32144775001E+02  0.12516118779E+03  0.46999998093E+01 0. -1.
       -5    1    3    3    0  502  0.61951149721E+02 -0.10378825280E+03 -0.66343636475E+03  0.67437366974E+03  0.46999998093E+01 0.  1.
</event>
<event>
 5   0  0.7220250E-02  0.4796101E+03  0.7818609E-02  0.1019242E+00
        3   -1    0    0  501    0  0.00000000000E+00  0.00000000000E+00  0.19175384056E+03  0.19175386716E+03  0.10100000352E+00 0.  1.
       -3   -1    0    0    0  501  0.00000000000E+00  0.00000000000E+00 -0.29989722168E+03  0.29989723868E+03  0.10100000352E+00 0. -1.
    10030    2    1    2    0    0  0.00000000000E+00  0.00000000000E+00 -0.10814338112E+03  0.49165110584E+03  0.47961006974E+03 0.  0.
        4    1    3    3  502    0 -0.11534095196E+03 -0.84617076862E+02  0.14322126793E+03  0.20242907247E+03  0.12699999809E+01 0.  1.
       -4    1    3    3    0  502  0.11534095196E+03  0.84617076862E+02 -0.25136464905E+03  0.28922203337E+03  0.12699999809E+01 0. -1.
</event>
<event>
 5   0  0.1683148E-01  0.4955651E+03  0.7818609E-02  0.1014943E+00
        2   -1    0    0  501    0  0.00000000000E+00  0.00000000000E+00  0.80725371229E+03  0.80725371229E+03  0.25500000920E-02 0. -1.
       -2   -1    0    0    0  501  0.00000000000E+00  0.00000000000E+00 -0.76055634592E+02  0.76055634635E+02  0.25500000920E-02 0.  1.
    10030    2    1    2    0    0  0.00000000000E+00  0.00000000000E+00  0.73119807770E+03  0.88330934693E+03  0.49556510525E+03 0.  0.
        2    1    3    3  502    0  0.18639541942E+02  0.44735544249E+02 -0.67525545776E+02  0.83116790012E+02  0.25500000920E-02 0.  1.
       -2    1    3    3    0  502 -0.18639541942E+02 -0.44735544249E+02  0.79872362347E+03  0.80019255691E+03  0.25500000920E-02 0. -1.
</event>
<event>
 5   0  0.1123271E-01  0.4988436E+03  0.7818609E-02  0.1014081E+00
        1   -1    0    0  501    0  0.00000000000E+00  0.00000000000E+00  0.15610865766E+03  0.15610865775E+03  0.50400001928E-02 0.  1.
       -1   -1    0    0    0  501  0.00000000000E+00  0.00000000000E+00 -0.39851231745E+03  0.39851231748E+03  0.50400001928E-02 0. -1.
    10030    2    1    2    0    0  0.00000000000E+00  0.00000000000E+00 -0.24240365978E+03  0.55462097523E+03  0.49884355452E+03 0.  0.
        5    1    3    3  502    0 -0.58794472687E+02  0.98636987760E+02  0.12491632326E+03  0.16974163658E+03  0.46999998093E+01 0.  1.
       -5    1    3    3    0  502  0.58794472687E+02 -0.98636987760E+02 -0.36731998305E+03  0.38487933865E+03  0.46999998093E+01 0. -1.
</event>
<event>
 5   0  0.1782124E-01  0.5045727E+03  0.7818609E-02  0.1012592E+00
       -2   -1    0    0    0  501  0.00000000000E+00  0.00000000000E+00  0.82096030040E+02  0.82096030080E+02  0.25500000920E-02 0. -1.
        2   -1    0    0  501    0  0.00000000000E+00  0.00000000000E+00 -0.77529218750E+03  0.77529218750E+03  0.25500000920E-02 0.  1.
    10030    2    1    2    0    0  0.00000000000E+00  0.00000000000E+00 -0.69319615746E+03  0.85738821758E+03  0.50457273305E+03 0.  0.
        3    1    3    3  502    0 -0.20515464261E+03  0.36233626109E+01 -0.97169868178E+02  0.22703204536E+03  0.10100000352E+00 0. -1.
       -3    1    3    3    0  502  0.20515464261E+03 -0.36233626109E+01 -0.59602628928E+03  0.63035617222E+03  0.10100000352E+00 0.  1.
</event>
<event>
 5   0  0.1141970E-01  0.5043358E+03  0.7818609E-02  0.1012653E+00
       -1   -1    0    0    0  501  0.00000000000E+00  0.00000000000E+00  0.15619504469E+03  0.15619504477E+03  0.50400001928E-02 0.  1.
        1   -1    0    0  501    0  0.00000000000E+00  0.00000000000E+00 -0.40711054778E+03  0.40711054781E+03  0.50400001928E-02 0. -1.
    10030    2    1    2    0    0  0.00000000000E+00  0.00000000000E+00 -0.25091550310E+03  0.56330559258E+03  0.50433580176E+03 0.  0.
        3    1    3    3  502    0  0.10183335134E+03 -0.17799844717E+03  0.38449560986E+02  0.20864289487E+03  0.10100000352E+00 0.  1.
       -3    1    3    3    0  502 -0.10183335134E+03  0.17799844717E+03 -0.28936506408E+03  0.35466269771E+03  0.10100000352E+00 0. -1.
</event>
<event>
 5   0  0.1709372E-01  0.4935970E+03  0.7818609E-02  0.1015464E+00
        2   -1    0    0  501    0  0.00000000000E+00  0.00000000000E+00  0.11352366459E+04  0.11352366459E+04  0.25500000920E-02 0.  1.
       -2   -1    0    0    0  501  0.00000000000E+00  0.00000000000E+00 -0.53653577980E+02  0.53653578041E+02  0.25500000920E-02 0. -1.
    10030    2    1    2    0    0  0.00000000000E+00  0.00000000000E+00  0.10815830679E+04  0.11888902240E+04  0.49359703381E+03 0.  0.
        4    1    3    3  502    0  0.24255892490E+02 -0.17298262802E+03  0.96072589555E+03  0.97647693121E+03  0.12699999809E+01 0.  1.
       -4    1    3    3    0  502 -0.24255892490E+02  0.17298262802E+03  0.12085717240E+03  0.21241329275E+03  0.12699999809E+01 0. -1.
</event>
<event>
 5   0  0.1068522E-01  0.4993306E+03  0.7818609E-02  0.1013954E+00
        1   -1    0    0  501    0  0.00000000000E+00  0.00000000000E+00  0.28381552273E+04  0.28381552273E+04  0.50400001928E-02 0.  1.
       -1   -1    0    0    0  501  0.00000000000E+00  0.00000000000E+00 -0.21962421415E+02  0.21962421993E+02  0.50400001928E-02 0. -1.
    10030    2    1    2    0    0  0.00000000000E+00  0.00000000000E+00  0.28161928059E+04  0.28601176493E+04  0.49933059980E+03 0.  0.
        2    1    3    3  502    0  0.22244729418E+03  0.39829061945E+02  0.80019310159E+03  0.83149152293E+03  0.25500000920E-02 0. -1.
       -2    1    3    3    0  502 -0.22244729418E+03 -0.39829061945E+02  0.20159997043E+04  0.20286261263E+04  0.25500000920E-02 0.  1.
</event>
<event>
 5   0  0.1147245E-01  0.5241356E+03  0.7818609E-02  0.1007664E+00
       -1   -1    0    0    0  501  0.00000000000E+00  0.00000000000E+00  0.85895559777E+02  0.85895559925E+02  0.50400001928E-02 0.  1.
        1   -1    0    0  501    0  0.00000000000E+00  0.00000000000E+00 -0.79957011214E+03  0.79957011216E+03  0.50400001928E-02 0. -1.
    10030    2    1    2    0    0  0.00000000000E+00  0.00000000000E+00 -0.71367455236E+03  0.88546567208E+03  0.52413556428E+03 0.  0.
        1    1    3    3  502    0 -0.17209897079E+03 -0.14161329787E+03 -0.58974639534E+03  0.63045475073E+03  0.50400001928E-02 0. -1.
       -1    1    3    3    0  502  0.17209897079E+03  0.14161329787E+03 -0.12392815703E+03  0.25501092135E+03  0.50400001928E-02 0.  1.
</event>
<event>
 5   0  0.1760649E-01  0.4874433E+03  0.7818609E-02  0.1017109E+00
       -2   -1    0    0    0  501  0.00000000000E+00  0.00000000000E+00  0.80341230519E+02  0.80341230559E+02  0.25500000920E-02 0. -1.
        2   -1    0    0  501    0  0.00000000000E+00  0.00000000000E+00 -0.73934940975E+03  0.73934940975E+03  0.25500000920E-02 0.  1.
    10030    2    1    2    0    0  0.00000000000E+00  0.00000000000E+00 -0.65900817923E+03  0.81969064031E+03  0.48744329467E+03 0.  0.
        5    1    3    3  502    0 -0.15026918148E+02  0.20992243966E+03 -0.12296737122E+03  0.24379561794E+03  0.46999998093E+01 0. -1.
       -5    1    3    3    0  502  0.15026918148E+02 -0.20992243966E+03 -0.53604080800E+03  0.57589502237E+03  0.46999998093E+01 0.  1.
</event>
<event>
 5   0  0.1141970E-01  0.4997235E+03  0.7818609E-02  0.1013851E+00
       -1   -1    0    0    0  501  0.00000000000E+00  0.00000000000E+00  0.17129877391E+03  0.17129877398E+03  0.50400001928E-02 0. -1.
        1   -1    0    0  501    0  0.00000000000E+00  0.00000000000E+00 -0.36445617505E+03  0.36445617508E+03  0.50400001928E-02 0.  1.
    10030    2    1    2    0    0  0.00000000000E+00  0.00000000000E+00 -0.19315740114E+03  0.53575494907E+03  0.49972350739E+03 0.  0.
        3    1    3    3  502    0  0.21936475122E+03 -0.82060237519E+02 -0.32619683828E+01  0.23423370232E+03  0.10100000352E+00 0. -1.
       -3    1    3    3    0  502 -0.21936475122E+03  0.82060237519E+02 -0.18989543276E+03  0.30152124675E+03  0.10100000352E+00 0.  1.
</event>
<event>
 5   0  0.1782124E-01  0.4962496E+03  0.7818609E-02  0.1014762E+00
        2   -1    0    0  501    0  0.00000000000E+00  0.00000000000E+00  0.10556150680E+04  0.10556150680E+04  0.25500000920E-02 0.  1.
       -2   -1    0    0    0  501  0.00000000000E+00  0.00000000000E+00 -0.58322319615E+02  0.58322319671E+02  0.25500000920E-02 0. -1.
    10030    2    1    2    0    0  0.00000000000E+00  0.00000000000E+00  0.99729274839E+03  0.11139373877E+04  0.49624961227E+03 0.  0.
        3    1    3    3  502    0 -0.44003715393E+02 -0.24269345559E+03  0.43801966712E+03  0.50269044086E+03  0.10100000352E+00 0.  1.
       -3    1    3    3    0  502  0.44003715393E+02  0.24269345559E+03  0.55927308127E+03  0.61124694681E+03  0.10100000352E+00 0. -1.
</event>
<event>
 5   0  0.1827698E-01  0.5144900E+03  0.7818609E-02  0.1010065E+00
       -2   -1    0    0    0  501  0.00000000000E+00  0.00000000000E+00  0.77422384819E+02  0.77422384861E+02  0.25500000920E-02 0.  1.
        2   -1    0    0  501    0  0.00000000000E+00  0.00000000000E+00 -0.85472677715E+03  0.85472677715E+03  0.25500000920E-02 0. -1.
    10030    2    1    2    0    0  0.00000000000E+00  0.00000000000E+00 -0.77730439233E+03  0.93214916202E+03  0.51448998232E+03 0.  0.
        1    1    3    3  502    0  0.12466808136E+03  0.18892928067E+03 -0.16720857433E+03  0.28141625923E+03  0.50400001928E-02 0.  1.
       -1    1    3    3    0  502 -0.12466808136E+03 -0.18892928067E+03 -0.61009581800E+03  0.65073290278E+03  0.50400001928E-02 0. -1.
</event>
<event>
 5   0  0.7220250E-02  0.4919532E+03  0.7818609E-02  0.1015901E+00
        4   -1    0    0  501    0  0.00000000000E+00  0.00000000000E+00  0.68724348517E+02  0.68736082075E+02  0.12699999809E+01 0.  1.
       -4   -1    0    0    0  501  0.00000000000E+00  0.00000000000E+00 -0.88030643503E+03  0.88030735113E+03  0.12699999809E+01 0. -1.
    10030    2    1    2    0    0  0.00000000000E+00  0.00000000000E+00 -0.81158208652E+03  0.94904343321E+03  0.49195320404E+03 0.  0.
        5    1    3    3  502    0  0.10098402181E+03  0.54186728233E+02  0.13982498533E+02  0.11554901315E+03  0.46999998093E+01 0.  1.
       -5    1    3    3    0  502 -0.10098402181E+03 -0.54186728233E+02 -0.82556458505E+03  0.83349442005E+03  0.46999998093E+01 0. -1.
</event>
<event>
 5   0  0.7220250E-02  0.5002076E+03  0.7818609E-02  0.1013725E+00
       -4   -1    0    0    0  501  0.00000000000E+00  0.00000000000E+00  0.23447012776E+03  0.23447356720E+03  0.12699999809E+01 0.  1.
        4   -1    0    0  501    0  0.00000000000E+00  0.00000000000E+00 -0.26677301147E+03  0.26677603443E+03  0.12699999809E+01 0. -1.
    10030    2    1    2    0    0  0.00000000000E+00  0.00000000000E+00 -0.32302883702E+02  0.50124960163E+03  0.50020764372E+03 0.  0.
        1    1    3    3  502    0  0.15164365208E+03  0.62622020218E+02 -0.20531597094E+03  0.26281545346E+03  0.50400001928E-02 0. -1.
       -1    1    3    3    0  502 -0.15164365208E+03 -0.62622020218E+02  0.17301308724E+03  0.23843414816E+03  0.50400001928E-02 0.  1.
</event>
<event>
 5   0  0.1782124E-01  0.4944694E+03  0.7818609E-02  0.1015233E+00
        2   -1    0    0  501    0  0.00000000000E+00  0.00000000000E+00  0.11771814955E+04  0.11771814955E+04  0.25500000920E-02 0. -1.
       -2   -1    0    0    0  501  0.00000000000E+00  0.00000000000E+00 -0.51924872798E+02  0.51924872861E+02  0.25500000920E-02 0.  1.
    10030    2    1    2    0    0  0.00000000000E+00  0.00000000000E+00  0.11252566227E+04  0.12291063684E+04  0.49446941041E+03 0.  0.
        3    1    3    3  502    0  0.99035464113E+02 -0.19794432340E+03  0.83645143804E+03  0.86524042712E+03  0.10100000352E+00 0. -1.
       -3    1    3    3    0  502 -0.99035464113E+02  0.19794432340E+03  0.28880518470E+03  0.36386594129E+03  0.10100000352E+00 0.  1.
</event>
<event>
 5   0  0.1782124E-01  0.4861870E+03  0.7818609E-02  0.1017449E+00
       -2   -1    0    0    0  501  0.00000000000E+00  0.00000000000E+00  0.60598532960E+03  0.60598532961E+03  0.25500000920E-02 0.  1.
        2   -1    0    0  501    0  0.00000000000E+00  0.00000000000E+00 -0.97517938948E+02  0.97517938981E+02  0.25500000920E-02 0. -1.
    10030    2    1    2    0    0  0.00000000000E+00  0.00000000000E+00  0.50846739066E+03  0.70350326859E+03  0.48618696152E+03 0.  0.
        3    1    3    3  502    0  0.16188473629E+03 -0.38955831154E+02 -0.20503048644E+01  0.16651858327E+03  0.10100000352E+00 0. -1.
       -3    1    3    3    0  502 -0.16188473629E+03  0.38955831154E+02  0.51051769552E+03  0.53698468532E+03  0.10100000352E+00 0.  1.
</event>
<event>
 5   0  0.1068522E-01  0.4873282E+03  0.7818609E-02  0.1017140E+00
       -1   -1    0    0    0  501  0.00000000000E+00  0.00000000000E+00  0.16006007120E+03  0.16006007128E+03  0.50400001928E-02 0.  1.
        1   -1    0    0  501    0  0.00000000000E+00  0.00000000000E+00 -0.37093698138E+03  0.37093698141E+03  0.50400001928E-02 0. -1.
    10030    2    1    2    0    0  0.00000000000E+00  0.00000000000E+00 -0.21087691018E+03  0.53099705269E+03  0.48732822484E+03 0.  0.
        2    1    3    3  502    0 -0.60665110868E+02 -0.19143075010E+03  0.44936271667E+02  0.20577963038E+03  0.25500000920E-02 0.  1.
       -2    1    3    3    0  502  0.60665110868E+02  0.19143075010E+03 -0.25581318184E+03  0.32521742231E+03  0.25500000920E-02 0. -1.
</event>
<event>
 5   0  0.1074281E-01  0.4945467E+03  0.7818609E-02  0.1015212E+00
       -1   -1    0    0    0  501  0.00000000000E+00  0.00000000000E+00  0.53058305882E+02  0.53058306122E+02  0.50400001928E-02 0. -1.
        1   -1    0    0  501    0  0.00000000000E+00  0.00000000000E+00 -0.11523947974E+04  0.11523947974E+04  0.50400001928E-02 0.  1.
    10030    2    1    2    0    0  0.00000000000E+00  0.00000000000E+00 -0.10993364916E+04  0.12054531036E+04  0.49454672503E+03 0.  0.
        4    1    3    3  502    0  0.10877649040E+03 -0.15610342738E+03 -0.93462127253E+03  0.95379197987E+03  0.12699999809E+01 0.  1.
       -4    1    3    3    0  502 -0.10877649040E+03  0.15610342738E+03 -0.16471521903E+03  0.25166112370E+03  0.12699999809E+01 0. -1.
</event>
<event>
 5   0  0.1147245E-01  0.5024029E+03  0.7818609E-02  0.1013154E+00
        1   -1    0    0  501    0  0.00000000000E+00  0.00000000000E+00  0.40392257713E+03  0.40392257716E+03  0.50400001928E-02 0.  1.
       -1   -1    0    0    0  501  0.00000000000E+00  0.00000000000E+00 -0.15622345216E+03  0.15622345225E+03  0.50400001928E-02 0. -1.
    10030    2    1    2    0    0  0.00000000000E+00  0.00000000000E+00  0.24769912496E+03  0.56014602940E+03  0.50240294361E+03 0.  0.
        1    1    3    3  502    0 -0.60708813654E+02  0.16242408509E+03 -0.78795710845E+02  0.19046235204E+03  0.50400001928E-02 0.  1.
       -1    1    3    3    0  502  0.60708813654E+02 -0.16242408509E+03  0.32649483581E+03  0.36968367736E+03  0.50400001928E-02 0. -1.
</event>
<event>
 5   0  0.1147245E-01  0.4993992E+03  0.7818609E-02  0.1013936E+00
        1   -1    0    0  501    0  0.00000000000E+00  0.00000000000E+00  0.18552896938E+04  0.18552896939E+04  0.50400001928E-02 0.  1.
       -1   -1    0    0    0  501  0.00000000000E+00  0.00000000000E+00 -0.33606550206E+02  0.33606550584E+02  0.50400001928E-02 0. -1.
    10030    2    1    2    0    0  0.00000000000E+00  0.00000000000E+00  0.18216831436E+04  0.18888962444E+04  0.49939918545E+03 0.  0.
        1    1    3    3  502    0  0.62587564138E+02 -0.20069453368E+03  0.14204669827E+04  0.14359393956E+04  0.50400001928E-02 0.  1.
       -1    1    3    3    0  502 -0.62587564138E+02  0.20069453368E+03  0.40121616095E+03  0.45295684879E+03  0.50400001928E-02 0. -1.
</event>
<event>
 5   0  0.1068522E-01  0.5172147E+03  0.7818609E-02  0.1009381E+00
        1   -1    0    0  501    0  0.00000000000E+00  0.00000000000E+00  0.63820285701E+03  0.63820285703E+03  0.50400001928E-02 0. -1.
       -1   -1    0    0    0  501  0.00000000000E+00  0.00000000000E+00 -0.10479077301E+03  0.10479077313E+03  0.50400001928E-02 0.  1.
    10030    2    1    2    0    0  0.00000000000E+00  0.00000000000E+00  0.53341208400E+03  0.74299363016E+03  0.51721473596E+03 0.  0.
        2    1    3    3  502    0 -0.17525116787E+03 -0.69613477435E+02  0.12482070723E+02  0.18898362409E+03  0.25500000920E-02 0.  1.
       -2    1    3    3    0  502  0.17525116787E+03  0.69613477435E+02  0.52093001328E+03  0.55401000606E+03  0.25500000920E-02 0. -1.
</event>
<event>
 5   0  0.1141970E-01  0.5076092E+03  0.7818609E-02  0.1011812E+00
       -1   -1    0    0    0  501  0.00000000000E+00  0.00000000000E+00  0.39474056150E+02  0.39474056472E+02  0.50400001928E-02 0.  1.
        1   -1    0    0  501    0  0.00000000000E+00  0.00000000000E+00 -0.16318759378E+04  0.16318759378E+04  0.50400001928E-02 0. -1.
    10030    2    1    2    0    0  0.00000000000E+00  0.00000000000E+00 -0.15924018817E+04  0.16713499943E+04  0.50760915151E+03 0.  0.
        3    1    3    3  502    0  0.11652819007E+03  0.17773514017E+03 -0.12530076732E+04  0.12709039454E+04  0.10100000352E+00 0. -1.
       -3    1    3    3    0  502 -0.11652819007E+03 -0.17773514017E+03 -0.33939420842E+03  0.40044604885E+03  0.10100000352E+00 0.  1.
</event>
<event>
 5   0  0.7220250E-02  0.4713207E+03  0.7818609E-02  0.1021548E+00
        3   -1    0    0  501    0  0.00000000000E+00  0.00000000000E+00  0.10453600848E+03  0.10453605727E+03  0.10100000352E+00 0. -1.
       -3   -1    0    0    0  501  0.00000000000E+00  0.00000000000E+00 -0.53125981894E+03  0.53125982854E+03  0.10100000352E+00 0.  1.
    10030    2    1    2    0    0  0.00000000000E+00  0.00000000000E+00 -0.42672381045E+03  0.63579588581E+03  0.47132069550E+03 0.  0.
        4    1    3    3  502    0 -0.25886713422E+02 -0.14424114742E+03 -0.46231315985E+03  0.48498525876E+03  0.12699999809E+01 0.  1.
       -4    1    3    3    0  502  0.25886713422E+02  0.14424114742E+03  0.35589349397E+02  0.15081062705E+03  0.12699999809E+01 0. -1.
</event>
<event>
 5   0  0.1068522E-01  0.4948993E+03  0.7818609E-02  0.1015119E+00
       -1   -1    0    0    0  501  0.00000000000E+00  0.00000000000E+00  0.36859147861E+02  0.36859148206E+02  0.50400001928E-02 0.  1.
        1   -1    0    0  501    0  0.00000000000E+00  0.00000000000E+00 -0.16612250293E+04  0.16612250293E+04  0.50400001928E-02 0. -1.
    10030    2    1    2    0    0  0.00000000000E+00  0.00000000000E+00 -0.16243658814E+04  0.16980841775E+04  0.49489934041E+03 0.  0.
        2    1    3    3  502    0  0.95036640857E+02 -0.17857829633E+03 -0.32320596618E+03  0.38129288953E+03  0.25500000920E-02 0.  1.
       -2    1    3    3    0  502 -0.95036640857E+02  0.17857829633E+03 -0.13011599153E+04  0.13167912880E+04  0.25500000920E-02 0. -1.
</event>
<event>
 5   0  0.1827698E-01  0.5080304E+03  0.7818609E-02  0.1011704E+00
       -2   -1    0    0    0  501  0.00000000000E+00  0.00000000000E+00  0.10212277934E+03  0.10212277937E+03  0.25500000920E-02 0.  1.
        2   -1    0    0  501    0  0.00000000000E+00  0.00000000000E+00 -0.63182497248E+03  0.63182497248E+03  0.25500000920E-02 0. -1.
    10030    2    1    2    0    0  0.00000000000E+00  0.00000000000E+00 -0.52970219314E+03  0.73394775186E+03  0.50803040169E+03 0.  0.
        1    1    3    3  502    0 -0.22789570336E+03 -0.10452985826E+03 -0.32372616317E+03  0.40946498217E+03  0.50400001928E-02 0. -1.
       -1    1    3    3    0  502  0.22789570336E+03  0.10452985826E+03 -0.20597602997E+03  0.32448276969E+03  0.50400001928E-02 0.  1.
</event>
<event>
 5   0  0.1827698E-01  0.5032579E+03  0.7818609E-02  0.1012932E+00
       -2   -1    0    0    0  501  0.00000000000E+00  0.00000000000E+00  0.32270447689E+02  0.32270447790E+02  0.25500000920E-02 0. -1.
        2   -1    0    0  501    0  0.00000000000E+00  0.00000000000E+00 -0.19620775125E+04  0.19620775125E+04  0.25500000920E-02 0.  1.
    10030    2    1    2    0    0  0.00000000000E+00  0.00000000000E+00 -0.19298070648E+04  0.19943479603E+04  0.50325786563E+03 0.  0.
        1    1    3    3  502    0 -0.13083521306E+03 -0.48854028203E+02 -0.17943906225E+04  0.17998172894E+04  0.50400001928E-02 0.  1.
       -1    1    3    3    0  502  0.13083521306E+03  0.48854028203E+02 -0.13541644232E+03  0.19453067091E+03  0.50400001928E-02 0. -1.
</event>
<event>
 5   0  0.1683148E-01  0.4997849E+03  0.7818609E-02  0.1013835E+00
       -2   -1    0    0    0  501  0.00000000000E+00  0.00000000000E+00  0.22277612233E+03  0.22277612234E+03  0.25500000920E-02 0. -1.
        2   -1    0    0  501    0  0.00000000000E+00  0.00000000000E+00 -0.28030936092E+03  0.28030936093E+03  0.25500000920E-02 0.  1.
    10030    2    1    2    0    0  0.00000000000E+00  0.00000000000E+00 -0.57533238590E+02  0.50308548328E+03  0.49978488367E+03 0.  0.
        2    1    3    3  502    0 -0.14423955653E+03  0.85990783039E+02 -0.21504757845E+03  0.27284597384E+03  0.25500000920E-02 0.  1.
       -2    1    3    3    0  502  0.14423955653E+03 -0.85990783039E+02  0.15751433986E+03  0.23023950944E+03  0.25500000920E-02 0. -1.
</event>
<event>
 5   0  0.1068522E-01  0.5074725E+03  0.7818609E-02  0.1011847E+00
       -1   -1    0    0    0  501  0.00000000000E+00  0.00000000000E+00  0.17202903131E+03  0.17202903139E+03  0.50400001928E-02 0.  1.
        1   -1    0    0  501    0  0.00000000000E+00  0.00000000000E+00 -0.37425124335E+03  0.37425124339E+03  0.50400001928E-02 0. -1.
    10030    2    1    2    0    0  0.00000000000E+00  0.00000000000E+00 -0.20222221204E+03  0.54628027477E+03  0.50747247764E+03 0.  0.
        2    1    3    3  502    0 -0.30440664481E+02 -0.16712794589E+03 -0.30400178196E+03  0.34824627463E+03  0.25500000920E-02 0. -1.
       -2    1    3    3    0  502  0.30440664481E+02  0.16712794589E+03  0.10177956993E+03  0.19803400014E+03  0.25500000920E-02 0.  1.
</event>
<event>
 5   0  0.1068522E-01  0.5003992E+03  0.7818609E-02  0.1013675E+00
       -1   -1    0    0    0  501  0.00000000000E+00  0.00000000000E+00  0.13798863182E+03  0.13798863191E+03  0.50400001928E-02 0.  1.
        1   -1    0    0  501    0  0.00000000000E+00  0.00000000000E+00 -0.45365939116E+03  0.45365939118E+03  0.50400001928E-02 0. -1.
    10030    2    1    2    0    0  0.00000000000E+00  0.00000000000E+00 -0.31567075934E+03  0.59164802309E+03  0.50039919557E+03 0.  0.
        2    1    3    3  502    0  0.23501143843E+03  0.84254494338E+02 -0.17728651641E+03  0.30620206550E+03  0.25500000920E-02 0.  1.
       -2    1    3    3    0  502 -0.23501143843E+03 -0.84254494338E+02 -0.13838424293E+03  0.28544595760E+03  0.25500000920E-02 0. -1.
</event>
<event>
 5   0  0.1074281E-01  0.5180764E+03  0.7818609E-02  0.1009166E+00
        1   -1    0    0  501    0  0.00000000000E+00  0.00000000000E+00  0.19217343934E+03  0.19217343940E+03  0.50400001928E-02 0.  1.
       -1   -1    0    0    0  501  0.00000000000E+00  0.00000000000E+00 -0.34916790132E+03  0.34916790136E+03  0.50400001928E-02 0. -1.
    10030    2    1    2    0    0  0.00000000000E+00  0.00000000000E+00 -0.15699446198E+03  0.54134134076E+03  0.51807642884E+03 0.  0.
        4    1    3    3  502    0  0.44520659809E+02  0.16107402759E+03 -0.28530489606E+03  0.33064698415E+03  0.12699999809E+01 0. -1.
       -4    1    3    3    0  502 -0.44520659809E+02 -0.16107402759E+03  0.12831043408E+03  0.21069435661E+03  0.12699999809E+01 0.  1.
</event>
<event>
 5   0  0.1068522E-01  0.4960182E+03  0.7818609E-02  0.1014823E+00
       -1   -1    0    0    0  501  0.00000000000E+00  0.00000000000E+00  0.22291887716E+03  0.22291887721E+03  0.50400001928E-02 0.  1.
        1   -1    0    0  501    0  0.00000000000E+00  0.00000000000E+00 -0.27592335819E+03  0.27592335824E+03  0.50400001928E-02 0. -1.
    10030    2    1    2    0    0  0.00000000000E+00  0.00000000000E+00 -0.53004481039E+02  0.49884223545E+03  0.49601824650E+03 0.  0.
        2    1    3    3  502    0 -0.20296629948E+03  0.12022219614E+03  0.50483106884E+02  0.24124103974E+03  0.25500000920E-02 0.  1.
       -2    1    3    3    0  502  0.20296629948E+03 -0.12022219614E+03 -0.10348758792E+03  0.25760119571E+03  0.25500000920E-02 0. -1.
</event>
<event>
 5   0  0.7220250E-02  0.4995838E+03  0.7818609E-02  0.1013888E+00
       -4   -1    0    0    0  501  0.00000000000E+00  0.00000000000E+00  0.28218451291E+03  0.28218737078E+03  0.12699999809E+01 0.  1.
        4   -1    0    0  501    0  0.00000000000E+00  0.00000000000E+00 -0.22111187786E+03  0.22111552508E+03  0.12699999809E+01 0. -1.
    10030    2    1    2    0    0  0.00000000000E+00  0.00000000000E+00  0.61072635049E+02  0.50330289585E+03  0.49958376497E+03 0.  0.
        4    1    3    3  502    0 -0.22048657010E+03  0.55869426859E+02 -0.73472997888E+02  0.23903057288E+03  0.12699999809E+01 0.  1.
       -4    1    3    3    0  502  0.22048657010E+03 -0.55869426859E+02  0.13454563294E+03  0.26427232298E+03  0.12699999809E+01 0. -1.
</event>
<event>
 5   0  0.1782124E-01  0.4879372E+03  0.7818609E-02  0.1016976E+00
        2   -1    0    0  501    0  0.00000000000E+00  0.00000000000E+00  0.73707468946E+03  0.73707468946E+03  0.25500000920E-02 0.  1.
       -2   -1    0    0    0  501  0.00000000000E+00  0.00000000000E+00 -0.80752576512E+02  0.80752576553E+02  0.25500000920E-02 0. -1.
    10030    2    1    2    0    0  0.00000000000E+00  0.00000000000E+00  0.65632211294E+03  0.81782726601E+03  0.48793721020E+03 0.  0.
        3    1    3    3  502    0  0.23447386883E+03  0.56763409365E+02  0.38907008775E+03  0.45779430227E+03  0.10100000352E+00 0.  1.
       -3    1    3    3    0  502 -0.23447386883E+03 -0.56763409365E+02  0.26725202519E+03  0.36003296374E+03  0.10100000352E+00 0. -1.
</event>
<event>
 5   0  0.1827698E-01  0.5008111E+03  0.7818609E-02  0.1013567E+00
       -2   -1    0    0    0  501  0.00000000000E+00  0.00000000000E+00  0.24873621205E+03  0.24873621206E+03  0.25500000920E-02 0. -1.
        2   -1    0    0  501    0  0.00000000000E+00  0.00000000000E+00 -0.25208606012E+03  0.25208606013E+03  0.25500000920E-02 0.  1.
    10030    2    1    2    0    0  0.00000000000E+00  0.00000000000E+00 -0.33498480715E+01  0.50082227220E+03  0.50081106902E+03 0.  0.
        1    1    3    3  502    0  0.11586353128E+03 -0.19622471278E+03  0.10212737823E+03  0.24971683403E+03  0.50400001928E-02 0. -1.
       -1    1    3    3    0  502 -0.11586353128E+03  0.19622471278E+03 -0.10547722630E+03  0.25110543817E+03  0.50400001928E-02 0.  1.
</event>
<event>
 5   0  0.1782124E-01  0.4957493E+03  0.7818609E-02  0.1014894E+00
       -2   -1    0    0    0  501  0.00000000000E+00  0.00000000000E+00  0.30906504685E+03  0.30906504686E+03  0.25500000920E-02 0. -1.
        2   -1    0    0  501    0  0.00000000000E+00  0.00000000000E+00 -0.19879905495E+03  0.19879905497E+03  0.25500000920E-02 0.  1.
    10030    2    1    2    0    0  0.00000000000E+00  0.00000000000E+00  0.11026599190E+03  0.50786410183E+03  0.49574928841E+03 0.  0.
        3    1    3    3  502    0 -0.11240065250E+03 -0.21764445212E+02 -0.17009004833E+03  0.20503227185E+03  0.10100000352E+00 0.  1.
       -3    1    3    3    0  502  0.11240065250E+03  0.21764445212E+02  0.28035604022E+03  0.30283182998E+03  0.10100000352E+00 0. -1.
</event>
<event>
 5   0  0.1074281E-01  0.5046202E+03  0.7818609E-02  0.1012580E+00
       -1   -1    0    0    0  501  0.00000000000E+00  0.00000000000E+00  0.16623619566E+03  0.16623619574E+03  0.50400001928E-02 0. -1.
        1   -1    0    0  501    0  0.00000000000E+00  0.00000000000E+00 -0.38295135168E+03  0.38295135171E+03  0.50400001928E-02 0.  1.
    10030    2    1    2    0    0  0.00000000000E+00  0.00000000000E+00 -0.21671515602E+03  0.54918754745E+03  0.50462015758E+03 0.  0.
        4    1    3    3  502    0 -0.12727441489E+03 -0.10444104805E+03 -0.31642878108E+03  0.35670084889E+03  0.12699999809E+01 0.  1.
       -4    1    3    3    0  502  0.12727441489E+03  0.10444104805E+03  0.99713625065E+02  0.19248669857E+03  0.12699999809E+01 0. -1.
</event>
<event>
 5   0  0.1683148E-01  0.5022835E+03  0.7818609E-02  0.1013185E+00
        2   -1    0    0  501    0  0.00000000000E+00  0.00000000000E+00  0.62006122458E+02  0.62006122510E+02  0.25500000920E-02 0. -1.
       -2   -1    0    0    0  501  0.00000000000E+00  0.00000000000E+00 -0.10171927729E+04  0.10171927729E+04  0.25500000920E-02 0.  1.
    10030    2    1    2    0    0  0.00000000000E+00  0.00000000000E+00 -0.95518665044E+03  0.10791988954E+04  0.50228350429E+03 0.  0.
        2    1    3    3  502    0  0.11029252284E+03  0.21845571562E+03 -0.35633924991E+03  0.43227884671E+03  0.25500000920E-02 0.  1.
       -2    1    3    3    0  502 -0.11029252284E+03 -0.21845571562E+03 -0.59884740054E+03  0.64692004870E+03  0.25500000920E-02 0. -1.
</event>
<event>
 5   0  0.1683148E-01  0.4898699E+03  0.7818609E-02  0.1016457E+00
       -2   -1    0    0    0  501  0.00000000000E+00  0.00000000000E+00  0.53366196142E+03  0.53366196143E+03  0.25500000920E-02 0.  1.
        2   -1    0    0  501    0  0.00000000000E+00  0.00000000000E+00 -0.11241785230E+03  0.11241785233E+03  0.25500000920E-02 0. -1.
    10030    2    1    2    0    0  0.00000000000E+00  0.00000000000E+00  0.42124410912E+03  0.64607981376E+03  0.48986990751E+03 0.  0.
        2    1    3    3  502    0  0.14911515376E+03 -0.59608526441E+02 -0.33298182673E+02  0.16400388557E+03  0.25500000920E-02 0. -1.
       -2    1    3    3    0  502 -0.14911515376E+03  0.59608526441E+02  0.45454229179E+03  0.48207592819E+03  0.25500000920E-02 0.  1.
</event>
<event>
 5   0  0.1074281E-01  0.4966074E+03  0.7818609E-02  0.1014668E+00
       -1   -1    0    0    0  501  0.00000000000E+00  0.00000000000E+00  0.36756912561E+02  0.36756912906E+02  0.50400001928E-02 0.  1.
        1   -1    0    0  501    0  0.00000000000E+00  0.00000000000E+00 -0.16773643941E+04  0.16773643941E+04  0.50400001928E-02 0. -1.
    10030    2    1    2    0    0  0.00000000000E+00  0.00000000000E+00 -0.16406074815E+04  0.17141213070E+04  0.49660743719E+03 0.  0.
        4    1    3    3  502    0 -0.11740302186E+03 -0.21598082430E+03 -0.94096083915E+03  0.97254310945E+03  0.12699999809E+01 0. -1.
       -4    1    3    3    0  502  0.11740302186E+03  0.21598082430E+03 -0.69964664238E+03  0.74157819756E+03  0.12699999809E+01 0.  1.
</event>
<event>
 5   0  0.1068522E-01  0.5039548E+03  0.7818609E-02  0.1012752E+00
       -1   -1    0    0    0  501  0.00000000000E+00  0.00000000000E+00  0.46526524071E+02  0.46526524344E+02  0.50400001928E-02 0.  1.
        1   -1    0    0  501    0  0.00000000000E+00  0.00000000000E+00 -0.13646542326E+04  0.13646542326E+04  0.50400001928E-02 0. -1.
    10030    2    1    2    0    0  0.00000000000E+00  0.00000000000E+00 -0.13181277085E+04  0.14111807569E+04  0.50395483210E+03 0.  0.
        2    1    3    3  502    0  0.13219393026E+02  0.14774236857E+03 -0.12294422336E+04  0.12383580927E+04  0.25500000920E-02 0. -1.
       -2    1    3    3    0  502 -0.13219393026E+02 -0.14774236857E+03 -0.88685474867E+02  0.17282266426E+03  0.25500000920E-02 0.  1.
</event>
<event>
 5   0  0.1123271E-01  0.5012876E+03  0.7818609E-02  0.1013443E+00
       -1   -1    0    0    0  501  0.00000000000E+00  0.00000000000E+00  0.11466274345E+03  0.11466274356E+03  0.50400001928E-02 0. -1.
        1   -1    0    0  501    0  0.00000000000E+00  0.00000000000E+00 -0.54788772098E+03  0.54788772100E+03  0.50400001928E-02 0.  1.
    10030    2    1    2    0    0  0.00000000000E+00  0.00000000000E+00 -0.43322497753E+03  0.66255046456E+03  0.50128757907E+03 0.  0.
        5    1    3    3  502    0 -0.20779397098E+03 -0.61561400039E+02 -0.38291583642E+03  0.44001678165E+03  0.46999998093E+01 0.  1.
       -5    1    3    3    0  502  0.20779397098E+03  0.61561400039E+02 -0.50309141108E+02  0.22253368291E+03  0.46999998093E+01 0. -1.
</event>
<event>
 5   0  0.1709372E-01  0.4892181E+03  0.7818609E-02  0.1016632E+00
       -2   -1    0    0    0  501  0.00000000000E+00  0.00000000000E+00  0.51419369171E+02  0.51419369235E+02  0.25500000920E-02 0. -1.
        2   -1    0    0  501    0  0.00000000000E+00  0.00000000000E+00 -0.11636391322E+04  0.11636391322E+04  0.25500000920E-02 0.  1.
    10030    2    1    2    0    0  0.00000000000E+00  0.00000000000E+00 -0.11122197630E+04  0.12150585014E+04  0.48921811153E+03 0.  0.
        4    1    3    3  502    0  0.21720132567E+03 -0.11240957615E+03 -0.54510056880E+03  0.59745173168E+03  0.12699999809E+01 0. -1.
       -4    1    3    3    0  502 -0.21720132567E+03  0.11240957615E+03 -0.56711919423E+03  0.61760676975E+03  0.12699999809E+01 0.  1.
</event>
<event>
 5   0  0.1123271E-01  0.4802575E+03  0.7818609E-02  0.1019064E+00
       -1   -1    0    0    0  501  0.00000000000E+00  0.00000000000E+00  0.10769676515E+03  0.10769676527E+03  0.50400001928E-02 0.  1.
        1   -1    0    0  501    0  0.00000000000E+00  0.00000000000E+00 -0.53540906045E+03  0.53540906048E+03  0.50400001928E-02 0. -1.
    10030    2    1    2    0    0  0.00000000000E+00  0.00000000000E+00 -0.42771229530E+03  0.64310582574E+03  0.48025753045E+03 0.  0.
        5    1    3    3  502    0 -0.23413420847E+03  0.47405750574E+02 -0.18178509172E+03  0.30022332076E+03  0.46999998093E+01 0. -1.
       -5    1    3    3    0  502  0.23413420847E+03 -0.47405750574E+02 -0.24592720358E+03  0.34288250498E+03  0.46999998093E+01 0.  1.
</event>
<event>
 5   0  0.1827698E-01  0.5081274E+03  0.7818609E-02  0.1011679E+00
        2   -1    0    0  501    0  0.00000000000E+00  0.00000000000E+00  0.59242398997E+03  0.59242398998E+03  0.25500000920E-02 0.  1.
       -2   -1    0    0    0  501  0.00000000000E+00  0.00000000000E+00 -0.10895637821E+03  0.10895637824E+03  0.25500000920E-02 0. -1.
    10030    2    1    2    0    0  0.00000000000E+00  0.00000000000E+00  0.48346761176E+03  0.70138036822E+03  0.50812743412E+03 0.  0.
        1    1    3    3  502    0  0.19177869192E+03  0.16515416403E+03  0.27239463794E+03  0.37182496335E+03  0.50400001928E-02 0. -1.
       -1    1    3    3    0  502 -0.19177869192E+03 -0.16515416403E+03  0.21107297382E+03  0.32955540487E+03  0.50400001928E-02 0.  1.
</event>
<event>
 5   0  0.1123271E-01  0.5079575E+03  0.7818609E-02  0.1011723E+00
        1   -1    0    0  501    0  0.00000000000E+00  0.00000000000E+00  0.15822778292E+03  0.15822778300E+03  0.50400001928E-02 0. -1.
       -1   -1    0    0    0  501  0.00000000000E+00  0.00000000000E+00 -0.40767308011E+03  0.40767308014E+03  0.50400001928E-02 0.  1.
    10030    2    1    2    0    0  0.00000000000E+00  0.00000000000E+00 -0.24944529718E+03  0.56590086314E+03  0.50795750868E+03 0.  0.
        5    1    3    3  502    0 -0.83488213753E+02 -0.41196270804E+02  0.13848055545E+03  0.16693222816E+03  0.46999998093E+01 0. -1.
       -5    1    3    3    0  502  0.83488213753E+02  0.41196270804E+02 -0.38792585263E+03  0.39896863498E+03  0.46999998093E+01 0.  1.
</event>
<event>
 5   0  0.1147245E-01  0.5004916E+03  0.7818609E-02  0.1013651E+00
        1   -1    0    0  501    0  0.00000000000E+00  0.00000000000E+00  0.13829160314E+04  0.13829160314E+04  0.50400001928E-02 0.  1.
       -1   -1    0    0    0  501  0.00000000000E+00  0.00000000000E+00 -0.45283271339E+02  0.45283271620E+02  0.50400001928E-02 0. -1.
    10030    2    1    2    0    0  0.00000000000E+00  0.00000000000E+00  0.13376327601E+04  0.14281993031E+04  0.50049160671E+03 0.  0.
        1    1    3    3  502    0  0.12804814881E+03 -0.16018265469E+03  0.10780672789E+04  0.10973986828E+04  0.50400001928E-02 0.  1.
       -1    1    3    3    0  502 -0.12804814881E+03  0.16018265469E+03  0.25956548122E+03  0.33080062023E+03  0.50400001928E-02 0. -1.
</event>
<event>
 5   0  0.1147245E-01  0.5040184E+03  0.7818609E-02  0.1012735E+00
        1   -1    0    0  501    0  0.00000000000E+00  0.00000000000E+00  0.85185799073E+03  0.85185799075E+03  0.50400001928E-02 0. -1.
       -1   -1    0    0    0  501  0.00000000000E+00  0.00000000000E+00 -0.74553093777E+02  0.74553093947E+02  0.50400001928E-02 0.  1.
    10030    2    1    2    0    0  0.00000000000E+00  0.00000000000E+00  0.77730489696E+03  0.92641108469E+03  0.50401844710E+03 0.  0.
        1    1    3    3  502    0  0.19666237791E+03  0.15201476918E+03  0.46497176638E+03  0.52724123937E+03  0.50400001928E-02 0. -1.
       -1    1    3    3    0  502 -0.19666237791E+03 -0.15201476918E+03  0.31233313058E+03  0.39916984533E+03  0.50400001928E-02 0.  1.
</event>
<event>
 5   0  0.1123271E-01  0.4906493E+03  0.7818609E-02  0.1016249E+00
        1   -1    0    0  501    0  0.00000000000E+00  0.00000000000E+00  0.65090945831E+03  0.65090945832E+03  0.50400001928E-02 0. -1.
       -1   -1    0    0    0  501  0.00000000000E+00  0.00000000000E+00 -0.92461675523E+02  0.92461675660E+02  0.50400001928E-02 0.  1.
    10030    2    1    2    0    0  0.00000000000E+00  0.00000000000E+00  0.55844778278E+03  0.74337113398E+03  0.49064928080E+03 0.  0.
        5    1    3    3  502    0 -0.89390498860E+02  0.15507417964E+03  0.25144965670E+02  0.18081211733E+03  0.46999998093E+01 0.  1.
       -5    1    3    3    0  502  0.89390498860E+02 -0.15507417964E+03  0.53330281711E+03  0.56255901665E+03  0.46999998093E+01 0. -1.
</event>
<event>
 5   0  0.1709372E-01  0.4992921E+03  0.7818609E-02  0.1013964E+00
       -2   -1    0    0    0  501  0.00000000000E+00  0.00000000000E+00  0.29607916412E+02  0.29607916521E+02  0.25500000920E-02 0.  1.
        2   -1    0    0  501    0  0.00000000000E+00  0.00000000000E+00 -0.21049489503E+04  0.21049489503E+04  0.25500000920E-02 0. -1.
    10030    2    1    2    0    0  0.00000000000E+00  0.00000000000E+00 -0.20753410339E+04  0.21345568668E+04  0.49929210966E+03 0.  0.
        4    1    3    3  502    0  0.45294033716E+02 -0.20724730590E+03 -0.16002821675E+04  0.16142823867E+04  0.12699999809E+01 0. -1.
       -4    1    3    3    0  502 -0.45294033716E+02  0.20724730590E+03 -0.47505886637E+03  0.52027448016E+03  0.12699999809E+01 0.  1.
</event>
<event>
 5   0  0.1782124E-01  0.4972543E+03  0.7818609E-02  0.1014498E+00
       -2   -1    0    0    0  501  0.00000000000E+00  0.00000000000E+00  0.50063033521E+02  0.50063033586E+02  0.25500000920E-02 0. -1.
        2   -1    0    0  501    0  0.00000000000E+00  0.00000000000E+00 -0.12347526322E+04  0.12347526322E+04  0.25500000920E-02 0.  1.
    10030    2    1    2    0    0  0.00000000000E+00  0.00000000000E+00 -0.11846895987E+04  0.12848156658E+04  0.49725431103E+03 0.  0.
        3    1    3    3  502    0 -0.57598559608E+02  0.14422011472E+03 -0.10940213730E+04  0.11049886019E+04  0.10100000352E+00 0.  1.
       -3    1    3    3    0  502  0.57598559608E+02 -0.14422011472E+03 -0.90668225705E+02  0.17982706391E+03  0.10100000352E+00 0. -1.
</event>
<event>
 5   0  0.1683148E-01  0.4901676E+03  0.7818609E-02  0.1016378E+00
       -2   -1    0    0    0  501  0.00000000000E+00  0.00000000000E+00  0.67170424567E+02  0.67170424615E+02  0.25500000920E-02 0. -1.
        2   -1    0    0  501    0  0.00000000000E+00  0.00000000000E+00 -0.89423384016E+03  0.89423384016E+03  0.25500000920E-02 0.  1.
    10030    2    1    2    0    0  0.00000000000E+00  0.00000000000E+00 -0.82706341559E+03  0.96140426478E+03  0.49016759065E+03 0.  0.
        2    1    3    3  502    0 -0.84461632334E+02  0.41605012928E+01 -0.86471271474E+03  0.86883781924E+03  0.25500000920E-02 0.  1.
       -2    1    3    3    0  502  0.84461632334E+02 -0.41605012928E+01  0.37649299142E+02  0.92566445540E+02  0.25500000920E-02 0. -1.
</event>
<event>
 5   0  0.1827698E-01  0.4886097E+03  0.7818609E-02  0.1016795E+00
       -2   -1    0    0    0  501  0.00000000000E+00  0.00000000000E+00  0.58758088749E+02  0.58758088805E+02  0.25500000920E-02 0. -1.
        2   -1    0    0  501    0  0.00000000000E+00  0.00000000000E+00 -0.10157725701E+04  0.10157725701E+04  0.25500000920E-02 0.  1.
    10030    2    1    2    0    0  0.00000000000E+00  0.00000000000E+00 -0.95701448130E+03  0.10745306589E+04  0.48860968002E+03 0.  0.
        1    1    3    3  502    0  0.13838422829E+03 -0.82577298504E+02 -0.74701477543E+02  0.17762183323E+03  0.50400001928E-02 0. -1.
       -1    1    3    3    0  502 -0.13838422829E+03  0.82577298504E+02 -0.88231300376E+03  0.89690882563E+03  0.50400001928E-02 0.  1.
</event>
<event>
 5   0  0.1760649E-01  0.5063081E+03  0.7818609E-02  0.1012145E+00
        2   -1    0    0  501    0  0.00000000000E+00  0.00000000000E+00  0.50317792463E+03  0.50317792464E+03  0.25500000920E-02 0.  1.
       -2   -1    0    0    0  501  0.00000000000E+00  0.00000000000E+00 -0.12736444093E+03  0.12736444095E+03  0.25500000920E-02 0. -1.
    10030    2    1    2    0    0  0.00000000000E+00  0.00000000000E+00  0.37581348370E+03  0.63054236559E+03  0.50630810805E+03 0.  0.
        5    1    3    3  502    0 -0.72752225288E+02 -0.78661880098E+02  0.47348653098E+03  0.48548137212E+03  0.46999998093E+01 0.  1.
       -5    1    3    3    0  502  0.72752225288E+02  0.78661880098E+02 -0.97673047272E+02  0.14506099347E+03  0.46999998093E+01 0. -1.
</event>
<event>
 5   0  0.1782124E-01  0.4946947E+03  0.7818609E-02  0.1015173E+00
       -2   -1    0    0    0  501  0.00000000000E+00  0.00000000000E+00  0.93435019160E+02  0.93435019195E+02  0.25500000920E-02 0.  1.
        2   -1    0    0  501    0  0.00000000000E+00  0.00000000000E+00 -0.65479435102E+03  0.65479435103E+03  0.25500000920E-02 0. -1.
    10030    2    1    2    0    0  0.00000000000E+00  0.00000000000E+00 -0.56135933186E+03  0.74822937022E+03  0.49469474527E+03 0.  0.
        3    1    3    3  502    0 -0.17971770703E+03  0.16979112821E+03 -0.26964446610E+03  0.36583552280E+03  0.10100000352E+00 0.  1.
       -3    1    3    3    0  502  0.17971770703E+03 -0.16979112821E+03 -0.29171486576E+03  0.38239384742E+03  0.10100000352E+00 0. -1.
</event>
<event>
 5   0  0.1147245E-01  0.4892774E+03  0.7818609E-02  0.1016616E+00
       -1   -1    0    0    0  501  0.00000000000E+00  0.00000000000E+00  0.23662504276E+03  0.23662504282E+03  0.50400001928E-02 0.  1.
        1   -1    0    0  501    0  0.00000000000E+00  0.00000000000E+00 -0.25292374611E+03  0.25292374616E+03  0.50400001928E-02 0. -1.
    10030    2    1    2    0    0  0.00000000000E+00  0.00000000000E+00 -0.16298703342E+02  0.48954878897E+03  0.48927739479E+03 0.  0.
        1    1    3    3  502    0  0.12917655141E+03  0.39615178951E+02 -0.21220400653E+03  0.25156805093E+03  0.50400001928E-02 0. -1.
       -1    1    3    3    0  502 -0.12917655141E+03 -0.39615178951E+02  0.19590530319E+03  0.23798073804E+03  0.50400001928E-02 0.  1.
</event>
<event>
 5   0  0.1141970E-01  0.4968483E+03  0.7818609E-02  0.1014605E+00
       -1   -1    0    0    0  501  0.00000000000E+00  0.00000000000E+00  0.69268992075E+03  0.69268992077E+03  0.50400001928E-02 0. -1.
        1   -1    0    0  501    0  0.00000000000E+00  0.00000000000E+00 -0.89094048089E+02  0.89094048232E+02  0.50400001928E-02 0.  1.
    10030    2    1    2    0    0  0.00000000000E+00  0.00000000000E+00  0.60359587266E+03  0.78178396900E+03  0.49684826325E+03 0.  0.
        3    1    3    3  502    0 -0.21804982195E+03 -0.59158984818E+02  0.13927097153E+03  0.26540897507E+03  0.10100000352E+00 0.  1.
       -3    1    3    3    0  502  0.21804982195E+03  0.59158984818E+02  0.46432490113E+03  0.51637499392E+03  0.10100000352E+00 0. -1.
</event>
<event>
 5   0  0.1123271E-01  0.5063608E+03  0.7818609E-02  0.1012132E+00
       -1   -1    0    0    0  501  0.00000000000E+00  0.00000000000E+00  0.19653241891E+03  0.19653241897E+03  0.50400001928E-02 0.  1.
        1   -1    0    0  501    0  0.00000000000E+00  0.00000000000E+00 -0.32615650514E+03  0.32615650518E+03  0.50400001928E-02 0. -1.
    10030    2    1    2    0    0  0.00000000000E+00  0.00000000000E+00 -0.12962408624E+03  0.52268892415E+03  0.50636084732E+03 0.  0.
        5    1    3    3  502    0 -0.31386102474E+02 -0.23579939763E+03  0.24534155784E+02  0.23918707772E+03  0.46999998093E+01 0.  1.
       -5    1    3    3    0  502  0.31386102474E+02  0.23579939763E+03 -0.15415824202E+03  0.28350184643E+03  0.46999998093E+01 0. -1.
</event>
<event>
 5   0  0.1141970E-01  0.5025894E+03  0.7818609E-02  0.1013105E+00
        1   -1    0    0  501    0  0.00000000000E+00  0.00000000000E+00  0.10532423762E+03  0.10532423774E+03  0.50400001928E-02 0.  1.
       -1   -1    0    0    0  501  0.00000000000E+00  0.00000000000E+00 -0.59956772838E+03  0.59956772840E+03  0.50400001928E-02 0. -1.
    10030    2    1    2    0    0  0.00000000000E+00  0.00000000000E+00 -0.49424349076E+03  0.70489196615E+03  0.50258935104E+03 0.  0.
        3    1    3    3  502    0 -0.61220677947E+02 -0.45944081343E+02 -0.58282020463E+03  0.58782500044E+03  0.10100000352E+00 0. -1.
       -3    1    3    3    0  502  0.61220677947E+02  0.45944081343E+02  0.88576713869E+02  0.11706696571E+03  0.10100000352E+00 0.  1.
</event>
<event>
 5   0  0.1683148E-01  0.5076972E+03  0.7818609E-02  0.1011789E+00
       -2   -1    0    0    0  501  0.00000000000E+00  0.00000000000E+00  0.10996079305E+03  0.10996079308E+03  0.25500000920E-02 0.  1.
        2   -1    0    0  501    0  0.00000000000E+00  0.00000000000E+00 -0.58601889265E+03  0.58601889266E+03  0.25500000920E-02 0. -1.
    10030    2    1    2    0    0  0.00000000000E+00  0.00000000000E+00 -0.47605809960E+03  0.69597968574E+03  0.50769716245E+03 0.  0.
        2    1    3    3  502    0 -0.17910873117E+03  0.15108136113E+03 -0.37187954823E+03  0.43954512131E+03  0.25500000920E-02 0. -1.
       -2    1    3    3    0  502  0.17910873117E+03 -0.15108136113E+03 -0.10417855137E+03  0.25643456443E+03  0.25500000920E-02 0.  1.
</event>
<event>
 5   0  0.1782124E-01  0.5036257E+03  0.7818609E-02  0.1012837E+00
        2   -1    0    0  501    0  0.00000000000E+00  0.00000000000E+00  0.17317177077E+04  0.17317177077E+04  0.25500000920E-02 0. -1.
       -2   -1    0    0    0  501  0.00000000000E+00  0.00000000000E+00 -0.36616649258E+02  0.36616649346E+02  0.25500000920E-02 0.  1.
    10030    2    1    2    0    0  0.00000000000E+00  0.00000000000E+00  0.16951010584E+04  0.17683343571E+04  0.50362565461E+03 0.  0.
        3    1    3    3  502    0 -0.54401857987E+02 -0.47025711817E+01 -0.15578451158E+02  0.56783577464E+02  0.10100000352E+00 0.  1.
       -3    1    3    3    0  502  0.54401857987E+02  0.47025711817E+01  0.17106795096E+04  0.17115507796E+04  0.10100000352E+00 0. -1.
</event>
<event>
 5   0  0.1141970E-01  0.4985975E+03  0.7818609E-02  0.1014146E+00
        1   -1    0    0  501    0  0.00000000000E+00  0.00000000000E+00  0.28233167139E+03  0.28233167143E+03  0.50400001928E-02 0. -1.
       -1   -1    0    0    0  501  0.00000000000E+00  0.00000000000E+00 -0.22013072438E+03  0.22013072443E+03  0.50400001928E-02 0.  1.
    10030    2    1    2    0    0  0.00000000000E+00  0.00000000000E+00  0.62200947014E+02  0.50246239587E+03  0.49859753454E+03 0.  0.
        3    1    3    3  502    0 -0.47136221830E+02 -0.18337987083E+02  0.27710695197E+03  0.28168489170E+03  0.10100000352E+00 0. -1.
       -3    1    3    3    0  502  0.47136221830E+02  0.18337987083E+02 -0.21490600496E+03  0.22077750417E+03  0.10100000352E+00 0.  1.
</event>
<event>
 5   0  0.1068522E-01  0.4994963E+03  0.7818609E-02  0.1013910E+00
       -1   -1    0    0    0  501  0.00000000000E+00  0.00000000000E+00  0.58858668577E+02  0.58858668793E+02  0.50400001928E-02 0.  1.
        1   -1    0    0  501    0  0.00000000000E+00  0.00000000000E+00 -0.10597272177E+04  0.10597272177E+04  0.50400001928E-02 0. -1.
    10030    2    1    2    0    0  0.00000000000E+00  0.00000000000E+00 -0.10008685491E+04  0.11185858865E+04  0.49949627912E+03 0.  0.
        2    1    3    3  502    0  0.10184026461E+02  0.24655289224E+03 -0.41422095117E+03  0.48215250644E+03  0.25500000920E-02 0.  1.
       -2    1    3    3    0  502 -0.10184026461E+02 -0.24655289224E+03 -0.58664759791E+03  0.63643338003E+03  0.25500000920E-02 0. -1.
</event>
<event>
 5   0  0.1683148E-01  0.4949472E+03  0.7818609E-02  0.1015106E+00
        2   -1    0    0  501    0  0.00000000000E+00  0.00000000000E+00  0.33094312963E+03  0.33094312964E+03  0.25500000920E-02 0.  1.
       -2   -1    0    0    0  501  0.00000000000E+00  0.00000000000E+00 -0.18505650669E+03  0.18505650670E+03  0.25500000920E-02 0. -1.
    10030    2    1    2    0    0  0.00000000000E+00  0.00000000000E+00  0.14588662295E+03  0.51599963635E+03  0.49494718704E+03 0.  0.
        2    1    3    3  502    0  0.95199480147E+02  0.15140534289E+03 -0.10537786144E+03  0.20758374831E+03  0.25500000920E-02 0. -1.
       -2    1    3    3    0  502 -0.95199480147E+02 -0.15140534289E+03  0.25126448438E+03  0.30841588804E+03  0.25500000920E-02 0.  1.
</event>
<event>
 5   0  0.1068522E-01  0.5424156E+03  0.7818609E-02  0.1003265E+00
        1   -1    0    0  501    0  0.00000000000E+00  0.00000000000E+00  0.10253689745E+04  0.10253689745E+04  0.50400001928E-02 0.  1.
       -1   -1    0    0    0  501  0.00000000000E+00  0.00000000000E+00 -0.71733850866E+02  0.71733851043E+02  0.50400001928E-02 0. -1.
    10030    2    1    2    0    0  0.00000000000E+00  0.00000000000E+00  0.95363512363E+03  0.10971028256E+04  0.54241557944E+03 0.  0.
        2    1    3    3  502    0 -0.22596943396E+03  0.49481159385E+02  0.19046730903E+03  0.29964706912E+03  0.25500000920E-02 0. -1.
       -2    1    3    3    0  502  0.22596943396E+03 -0.49481159385E+02  0.76316781460E+03  0.79745575643E+03  0.25500000920E-02 0.  1.
</event>
<event>
 5   0  0.1123271E-01  0.5125302E+03  0.7818609E-02  0.1010559E+00
        1   -1    0    0  501    0  0.00000000000E+00  0.00000000000E+00  0.60500931647E+03  0.60500931649E+03  0.50400001928E-02 0. -1.
       -1   -1    0    0    0  501  0.00000000000E+00  0.00000000000E+00 -0.10854675407E+03  0.10854675418E+03  0.50400001928E-02 0.  1.
    10030    2    1    2    0    0  0.00000000000E+00  0.00000000000E+00  0.49646256240E+03  0.71355607067E+03  0.51253018460E+03 0.  0.
        5    1    3    3  502    0  0.10438418097E+03 -0.22407667700E+03  0.34207258569E+03  0.42206890230E+03  0.46999998093E+01 0. -1.
       -5    1    3    3    0  502 -0.10438418097E+03  0.22407667700E+03  0.15438997672E+03  0.29148716837E+03  0.46999998093E+01 0.  1.
</event>
<event>
 5   0  0.1827698E-01  0.5053395E+03  0.7818609E-02  0.1012395E+00
        2   -1    0    0  501    0  0.00000000000E+00  0.00000000000E+00  0.17272842263E+04  0.17272842263E+04  0.25500000920E-02 0. -1.
       -2   -1    0    0    0  501  0.00000000000E+00  0.00000000000E+00 -0.36960911889E+02  0.36960911977E+02  0.25500000920E-02 0.  1.
    10030    2    1    2    0    0  0.00000000000E+00  0.00000000000E+00  0.16903233144E+04  0.17642451383E+04  0.50533949054E+03 0.  0.
        1    1    3    3  502    0 -0.14829651837E+03  0.44325157580E+02  0.14792085590E+03  0.21409613866E+03  0.50400001928E-02 0.  1.
       -1    1    3    3    0  502  0.14829651837E+03 -0.44325157580E+02  0.15424024585E+04  0.15501489996E+04  0.50400001928E-02 0. -1.
</event>
<event>
 5   0  0.1068522E-01  0.4994818E+03  0.7818609E-02  0.1013914E+00
       -1   -1    0    0    0  501  0.00000000000E+00  0.00000000000E+00  0.82477316380E+02  0.82477316534E+02  0.50400001928E-02 0. -1.
        1   -1    0    0  501    0  0.00000000000E+00  0.00000000000E+00 -0.75621415542E+03  0.75621415544E+03  0.50400001928E-02 0.  1.
    10030    2    1    2    0    0  0.00000000000E+00  0.00000000000E+00 -0.67373683904E+03  0.83869147197E+03  0.49948178833E+03 0.  0.
        2    1    3    3  502    0  0.14198143656E+03  0.20373427866E+03 -0.38142469331E+03  0.45513863966E+03  0.25500000920E-02 0. -1.
       -2    1    3    3    0  502 -0.14198143656E+03 -0.20373427866E+03 -0.29231214573E+03  0.38355283231E+03  0.25500000920E-02 0.  1.
</event>
<event>
 5   0  0.1147245E-01  0.4982355E+03  0.7818609E-02  0.1014241E+00
       -1   -1    0    0    0  501  0.00000000000E+00  0.00000000000E+00  0.47721817961E+03  0.47721817964E+03  0.50400001928E-02 0. -1.
        1   -1    0    0  501    0  0.00000000000E+00  0.00000000000E+00 -0.13004460536E+03  0.13004460546E+03  0.50400001928E-02 0.  1.
    10030    2    1    2    0    0  0.00000000000E+00  0.00000000000E+00  0.34717357425E+03  0.60726278509E+03  0.49823548599E+03 0.  0.
        1    1    3    3  502    0  0.10312594952E+03  0.39637555343E+02 -0.98551763062E+02  0.14804913808E+03  0.50400001928E-02 0.  1.
       -1    1    3    3    0  502 -0.10312594952E+03 -0.39637555343E+02  0.44572533731E+03  0.45921364701E+03  0.50400001928E-02 0. -1.
</event>
<event>
 5   0  0.1068522E-01  0.5085552E+03  0.7818609E-02  0.1011570E+00
        1   -1    0    0  501    0  0.00000000000E+00  0.00000000000E+00  0.23361067607E+03  0.23361067612E+03  0.50400001928E-02 0.  1.
       -1   -1    0    0    0  501  0.00000000000E+00  0.00000000000E+00 -0.27677289267E+03  0.27677289271E+03  0.50400001928E-02 0. -1.
    10030    2    1    2    0    0  0.00000000000E+00  0.00000000000E+00 -0.43162216600E+02  0.51038356884E+03  0.50855521863E+03 0.  0.
        2    1    3    3  502    0 -0.35274580396E+02 -0.18998462966E+03 -0.18745886859E+03  0.26921976701E+03  0.25500000920E-02 0. -1.
       -2    1    3    3    0  502  0.35274580396E+02  0.18998462966E+03  0.14429665199E+03  0.24116380183E+03  0.25500000920E-02 0.  1.
</event>
<event>
 5   0  0.1709372E-01  0.4926814E+03  0.7818609E-02  0.1015707E+00
       -2   -1    0    0    0  501  0.00000000000E+00  0.00000000000E+00  0.83539979274E+02  0.83539979313E+02  0.25500000920E-02 0.  1.
        2   -1    0    0  501    0  0.00000000000E+00  0.00000000000E+00 -0.72640348042E+03  0.72640348042E+03  0.25500000920E-02 0. -1.
    10030    2    1    2    0    0  0.00000000000E+00  0.00000000000E+00 -0.64286350115E+03  0.80994345974E+03  0.49268136444E+03 0.  0.
        4    1    3    3  502    0  0.16587470183E+03 -0.86777442309E+02 -0.58207821487E+02  0.19604719989E+03  0.12699999809E+01 0.  1.
       -4    1    3    3    0  502 -0.16587470183E+03  0.86777442309E+02 -0.58465567966E+03  0.61389625985E+03  0.12699999809E+01 0. -1.
</event>
<event>
 5   0  0.1760649E-01  0.4986363E+03  0.7818609E-02  0.1014135E+00
        2   -1    0    0  501    0  0.00000000000E+00  0.00000000000E+00  0.76897610070E+03  0.76897610070E+03  0.25500000920E-02 0. -1.
       -2   -1    0    0    0  501  0.00000000000E+00  0.00000000000E+00 -0.80834149381E+02  0.80834149421E+02  0.25500000920E-02 0.  1.
    10030    2    1    2    0    0  0.00000000000E+00  0.00000000000E+00  0.68814195132E+03  0.84981025012E+03  0.49863625626E+03 0.  0.
        5    1    3    3  502    0  0.36113566655E+02  0.83509001133E+02 -0.51449757966E+02  0.10462844049E+03  0.46999998093E+01 0.  1.
       -5    1    3    3    0  502 -0.36113566655E+02 -0.83509001133E+02  0.73959170929E+03  0.74518180963E+03  0.46999998093E+01 0. -1.
</event>
<event>
 5   0  0.1141970E-01  0.5055732E+03  0.7818609E-02  0.1012334E+00
        1   -1    0    0  501    0  0.00000000000E+00  0.00000000000E+00  0.20678508977E+03  0.20678508983E+03  0.50400001928E-02 0. -1.
       -1   -1    0    0    0  501  0.00000000000E+00  0.00000000000E+00 -0.30902168401E+03  0.30902168406E+03  0.50400001928E-02 0.  1.
    10030    2    1    2    0    0  0.00000000000E+00  0.00000000000E+00 -0.10223659425E+03  0.51580677388E+03  0.50557324571E+03 0.  0.
        3    1    3    3  502    0 -0.63914147115E+02 -0.24136286529E+03 -0.10821788297E+02  0.24991633049E+03  0.10100000352E+00 0.  1.
       -3    1    3    3    0  502  0.63914147115E+02  0.24136286529E+03 -0.91414805950E+02  0.26589044340E+03  0.10100000352E+00 0. -1.
</event>
<event>
 5   0  0.1709372E-01  0.4876898E+03  0.7818609E-02  0.1017043E+00
        2   -1    0    0  501    0  0.00000000000E+00  0.00000000000E+00  0.19145292623E+04  0.19145292623E+04  0.25500000920E-02 0. -1.
       -2   -1    0    0    0  501  0.00000000000E+00  0.00000000000E+00 -0.31057414956E+02  0.31057415061E+02  0.25500000920E-02 0.  1.
    10030    2    1    2    0    0  0.00000000000E+00  0.00000000000E+00  0.18834718474E+04  0.19455866774E+04  0.48768977783E+03 0.  0.
        4    1    3    3  502    0 -0.77214040348E+02 -0.22613185091E+03  0.11355849638E+04  0.11604535514E+04  0.12699999809E+01 0. -1.
       -4    1    3    3    0  502  0.77214040348E+02  0.22613185091E+03  0.74788688352E+03  0.78513312595E+03  0.12699999809E+01 0.  1.
</event>
<event>
 5   0  0.1074281E-01  0.4964287E+03  0.7818609E-02  0.1014715E+00
        1   -1    0    0  501    0  0.00000000000E+00  0.00000000000E+00  0.11717003342E+03  0.11717003353E+03  0.50400001928E-02 0.  1.
       -1   -1    0    0    0  501  0.00000000000E+00  0.00000000000E+00 -0.52582008522E+03  0.52582008525E+03  0.50400001928E-02 0. -1.
    10030    2    1    2    0    0  0.00000000000E+00  0.00000000000E+00 -0.40865005180E+03  0.64299011877E+03  0.49642867363E+03 0.  0.
        4    1    3    3  502    0  0.15762202509E+03 -0.93873431413E+02 -0.42087218346E+03  0.45912082465E+03  0.12699999809E+01 0. -1.
       -4    1    3    3    0  502 -0.15762202509E+03  0.93873431413E+02  0.12222131660E+02  0.18386929412E+03  0.12699999809E+01 0.  1.
</event>
<event>
 5   0  0.1123271E-01  0.4879580E+03  0.7818609E-02  0.1016971E+00
       -1   -1    0    0    0  501  0.00000000000E+00  0.00000000000E+00  0.88841514474E+02  0.88841514617E+02  0.50400001928E-02 0. -1.
        1   -1    0    0  501    0  0.00000000000E+00  0.00000000000E+00 -0.67002190016E+03  0.67002190018E+03  0.50400001928E-02 0.  1.
    10030    2    1    2    0    0  0.00000000000E+00  0.00000000000E+00 -0.58118038568E+03  0.75886341479E+03  0.48795803263E+03 0.  0.
        5    1    3    3  502    0 -0.16824047181E+03  0.44058285919E+02 -0.55660211295E+03  0.58315863283E+03  0.46999998093E+01 0.  1.
       -5    1    3    3    0  502  0.16824047181E+03 -0.44058285919E+02 -0.24578272735E+02  0.17570478196E+03  0.46999998093E+01 0. -1.
</event>
<event>
 5   0  0.1068522E-01  0.4651009E+03  0.7818609E-02  0.1023312E+00
       -1   -1    0    0    0  501  0.00000000000E+00  0.00000000000E+00  0.95139626471E+02  0.95139626605E+02  0.50400001928E-02 0. -1.
        1   -1    0    0  501    0  0.00000000000E+00  0.00000000000E+00 -0.56842465707E+03  0.56842465710E+03  0.50400001928E-02 0.  1.
    10030    2    1    2    0    0  0.00000000000E+00  0.00000000000E+00 -0.47328503060E+03  0.66356428370E+03  0.46510089057E+03 0.  0.
        2    1    3    3  502    0 -0.11586699690E+03 -0.17725029803E+03 -0.37376178544E+03  0.42958200775E+03  0.25500000920E-02 0.  1.
       -2    1    3    3    0  502  0.11586699690E+03  0.17725029803E+03 -0.99523245166E+02  0.23398227595E+03  0.25500000920E-02 0. -1.
</event>
<event>
 5   0  0.7220250E-02  0.4984580E+03  0.7818609E-02  0.1014182E+00
       -4   -1    0    0    0  501  0.00000000000E+00  0.00000000000E+00  0.48752374894E+03  0.48752540311E+03  0.12699999809E+01 0.  1.
        4   -1    0    0  501    0  0.00000000000E+00  0.00000000000E+00 -0.12740431332E+03  0.12741064302E+03  0.12699999809E+01 0. -1.
    10030    2    1    2    0    0  0.00000000000E+00  0.00000000000E+00  0.36011943561E+03  0.61493604613E+03  0.49845795502E+03 0.  0.
        5    1    3    3  502    0  0.35079205694E+01  0.17723909020E+03  0.39610113332E+03  0.43398640349E+03  0.46999998093E+01 0.  1.
       -5    1    3    3    0  502 -0.35079205694E+01 -0.17723909020E+03 -0.35981697707E+02  0.18094964263E+03  0.46999998093E+01 0. -1.
</event>
<event>
 5   0  0.1123271E-01  0.5071064E+03  0.7818609E-02  0.1011941E+00
        1   -1    0    0  501    0  0.00000000000E+00  0.00000000000E+00  0.15467999804E+04  0.15467999804E+04  0.50400001928E-02 0.  1.
       -1   -1    0    0    0  501  0.00000000000E+00  0.00000000000E+00 -0.41562722610E+02  0.41562722916E+02  0.50400001928E-02 0. -1.
    10030    2    1    2    0    0  0.00000000000E+00  0.00000000000E+00  0.15052372578E+04  0.15883627033E+04  0.50710637451E+03 0.  0.
        5    1    3    3  502    0 -0.24304855269E+03 -0.47030966204E+02  0.58155824996E+03  0.63207325433E+03  0.46999998093E+01 0. -1.
       -5    1    3    3    0  502  0.24304855269E+03  0.47030966204E+02  0.92367900784E+03  0.95628944900E+03  0.46999998093E+01 0.  1.
</event>
<event>
 5   0  0.1123271E-01  0.4972400E+03  0.7818609E-02  0.1014502E+00
        1   -1    0    0  501    0  0.00000000000E+00  0.00000000000E+00  0.13344942513E+03  0.13344942523E+03  0.50400001928E-02 0. -1.
       -1   -1    0    0    0  501  0.00000000000E+00  0.00000000000E+00 -0.46318595493E+03  0.46318595496E+03  0.50400001928E-02 0.  1.
    10030    2    1    2    0    0  0.00000000000E+00  0.00000000000E+00 -0.32973652980E+03  0.59663538019E+03  0.49723998010E+03 0.  0.
        5    1    3    3  502    0  0.20599667506E+03  0.13512949614E+03 -0.12515922368E+03  0.27637209000E+03  0.46999998093E+01 0. -1.
       -5    1    3    3    0  502 -0.20599667506E+03 -0.13512949614E+03 -0.20457730612E+03  0.32026329019E+03  0.46999998093E+01 0.  1.
</event>
<event>
 5   0  0.1068522E-01  0.4997845E+03  0.7818609E-02  0.1013835E+00
       -1   -1    0    0    0  501  0.00000000000E+00  0.00000000000E+00  0.16804799774E+03  0.16804799782E+03  0.50400001928E-02 0.  1.
        1   -1    0    0  501    0  0.00000000000E+00  0.00000000000E+00 -0.37159703726E+03  0.37159703729E+03  0.50400001928E-02 0. -1.
    10030    2    1    2    0    0  0.00000000000E+00  0.00000000000E+00 -0.20354903952E+03  0.53964503511E+03  0.49978450599E+03 0.  0.
        2    1    3    3  502    0  0.23577697737E+03 -0.11180589009E+02 -0.19035625943E+03  0.30323471790E+03  0.25500000920E-02 0. -1.
       -2    1    3    3    0  502 -0.23577697737E+03  0.11180589009E+02 -0.13192780081E+02  0.23641031720E+03  0.25500000920E-02 0.  1.
</event>
<event>
 5   0  0.7220250E-02  0.5023379E+03  0.7818609E-02  0.1013170E+00
        4   -1    0    0  501    0  0.00000000000E+00  0.00000000000E+00  0.59639389221E+03  0.59639524441E+03  0.12699999809E+01 0.  1.
       -4   -1    0    0    0  501  0.00000000000E+00  0.00000000000E+00 -0.10577355411E+03  0.10578117814E+03  0.12699999809E+01 0. -1.
    10030    2    1    2    0    0  0.00000000000E+00  0.00000000000E+00  0.49062033810E+03  0.70217642255E+03  0.50233794624E+03 0.  0.
        1    1    3    3  502    0 -0.87557660094E+02 -0.18504152750E+03  0.41885114475E+02  0.20895232371E+03  0.50400001928E-02 0. -1.
       -1    1    3    3    0  502  0.87557660094E+02  0.18504152750E+03  0.44873522362E+03  0.49322409885E+03  0.50400001928E-02 0.  1.
</event>
<event>
 5   0  0.7220250E-02  0.5082117E+03  0.7818609E-02  0.1011657E+00
        3   -1    0    0  501    0  0.00000000000E+00  0.00000000000E+00  0.35930035026E+03  0.35930036445E+03  0.10100000352E+00 0.  1.
       -3   -1    0    0    0  501  0.00000000000E+00  0.00000000000E+00 -0.17970974799E+03  0.17970977638E+03  0.10100000352E+00 0. -1.
    10030    2    1    2    0    0  0.00000000000E+00  0.00000000000E+00  0.17959060226E+03  0.53901014083E+03  0.50821171523E+03 0.  0.
        1    1    3    3  502    0 -0.11394272751E+03  0.74481149672E+02  0.31736639216E+03  0.34532855907E+03  0.50400001928E-02 0.  1.
       -1    1    3    3    0  502  0.11394272751E+03 -0.74481149672E+02 -0.13777578989E+03  0.19368158177E+03  0.50400001928E-02 0. -1.
</event>
<event>
 5   0  0.7220250E-02  0.4960522E+03  0.7818609E-02  0.1014815E+00
        4   -1    0    0  501    0  0.00000000000E+00  0.00000000000E+00  0.99800904079E+02  0.99808984339E+02  0.12699999809E+01 0. -1.
       -4   -1    0    0    0  501  0.00000000000E+00  0.00000000000E+00 -0.61636298668E+03  0.61636429508E+03  0.12699999809E+01 0.  1.
    10030    2    1    2    0    0  0.00000000000E+00  0.00000000000E+00 -0.51656208260E+03  0.71617327942E+03  0.49605219581E+03 0.  0.
        2    1    3    3  502    0 -0.62337790268E+02  0.36398358268E+02  0.84304065178E+02  0.11098655771E+03  0.25500000920E-02 0. -1.
       -2    1    3    3    0  502  0.62337790268E+02 -0.36398358268E+02 -0.60086614778E+03  0.60518672171E+03  0.25500000920E-02 0.  1.
</event>
<event>
 5   0  0.1827698E-01  0.5082244E+03  0.7818609E-02  0.1011654E+00
        2   -1    0    0  501    0  0.00000000000E+00  0.00000000000E+00  0.10465888891E+04  0.10465888891E+04  0.25500000920E-02 0.  1.
       -2   -1    0    0    0  501  0.00000000000E+00  0.00000000000E+00 -0.61698547905E+02  0.61698547958E+02  0.25500000920E-02 0. -1.
    10030    2    1    2    0    0  0.00000000000E+00  0.00000000000E+00  0.98489034124E+03  0.11082874371E+04  0.50822441793E+03 0.  0.
        1    1    3    3  502    0  0.32409970891E+02  0.47446545513E+02 -0.47346159637E+02  0.74452936491E+02  0.50400001928E-02 0. -1.
       -1    1    3    3    0  502 -0.32409970891E+02 -0.47446545513E+02  0.10322365009E+04  0.10338345006E+04  0.50400001928E-02 0.  1.
</event>
<event>
 5   0  0.1123271E-01  0.5317427E+03  0.7818609E-02  0.1005810E+00
        1   -1    0    0  501    0  0.00000000000E+00  0.00000000000E+00  0.31040830042E+03  0.31040830046E+03  0.50400001928E-02 0.  1.
       -1   -1    0    0    0  501  0.00000000000E+00  0.00000000000E+00 -0.22772451141E+03  0.22772451146E+03  0.50400001928E-02 0. -1.
    10030    2    1    2    0    0  0.00000000000E+00  0.00000000000E+00  0.82683789014E+02  0.53813281192E+03  0.53174271439E+03 0.  0.
        5    1    3    3  502    0  0.19078599186E+03 -0.17620538287E+03 -0.16065956660E+02  0.26024572350E+03  0.46999998093E+01 0. -1.
       -5    1    3    3    0  502 -0.19078599186E+03  0.17620538287E+03  0.98749745673E+02  0.27788708842E+03  0.46999998093E+01 0.  1.
</event>
<event>
 5   0  0.1068522E-01  0.4955378E+03  0.7818609E-02  0.1014950E+00
        1   -1    0    0  501    0  0.00000000000E+00  0.00000000000E+00  0.25552892774E+03  0.25552892779E+03  0.50400001928E-02 0. -1.
       -1   -1    0    0    0  501  0.00000000000E+00  0.00000000000E+00 -0.24024453955E+03  0.24024453961E+03  0.50400001928E-02 0.  1.
    10030    2    1    2    0    0  0.00000000000E+00  0.00000000000E+00  0.15284388181E+02  0.49577346739E+03  0.49553780728E+03 0.  0.
        2    1    3    3  502    0 -0.12349656615E+03 -0.10905718929E+03  0.19278304843E+03  0.25359451128E+03  0.25500000920E-02 0. -1.
       -2    1    3    3    0  502  0.12349656615E+03  0.10905718929E+03 -0.17749866025E+03  0.24217895611E+03  0.25500000920E-02 0.  1.
</event>
<event>
 5   0  0.1147245E-01  0.4996759E+03  0.7818609E-02  0.1013864E+00
        1   -1    0    0  501    0  0.00000000000E+00  0.00000000000E+00  0.48621335085E+03  0.48621335088E+03  0.50400001928E-02 0.  1.
       -1   -1    0    0    0  501  0.00000000000E+00  0.00000000000E+00 -0.12837777906E+03  0.12837777916E+03  0.50400001928E-02 0. -1.
    10030    2    1    2    0    0  0.00000000000E+00  0.00000000000E+00  0.35783557179E+03  0.61459113004E+03  0.49967585561E+03 0.  0.
        1    1    3    3  502    0 -0.17055109335E+03 -0.75603981820E+02  0.38331417535E+03  0.42630199924E+03  0.50400001928E-02 0.  1.
       -1    1    3    3    0  502  0.17055109335E+03  0.75603981820E+02 -0.25478603555E+02  0.18828913079E+03  0.50400001928E-02 0. -1.
</event>
<event>
 5   0  0.1760649E-01  0.5009885E+03  0.7818609E-02  0.1013521E+00
        2   -1    0    0  501    0  0.00000000000E+00  0.00000000000E+00  0.18066759202E+03  0.18066759203E+03  0.25500000920E-02 0. -1.
       -2   -1    0    0    0  501  0.00000000000E+00  0.00000000000E+00 -0.34730841639E+03  0.34730841640E+03  0.25500000920E-02 0.  1.
    10030    2    1    2    0    0  0.00000000000E+00  0.00000000000E+00 -0.16664082437E+03  0.52797600843E+03  0.50098852395E+03 0.  0.
        5    1    3    3  502    0  0.17441003499E+03  0.10325786067E+03  0.71724519146E+02  0.21505241858E+03  0.46999998093E+01 0. -1.
       -5    1    3    3    0  502 -0.17441003499E+03 -0.10325786067E+03 -0.23836534352E+03  0.31292358985E+03  0.46999998093E+01 0.  1.
</event>
<event>
 5   0  0.1760649E-01  0.4953015E+03  0.7818609E-02  0.1015013E+00
       -2   -1    0    0    0  501  0.00000000000E+00  0.00000000000E+00  0.61875703750E+03  0.61875703750E+03  0.25500000920E-02 0. -1.
        2   -1    0    0  501    0  0.00000000000E+00  0.00000000000E+00 -0.99119519764E+02  0.99119519797E+02  0.25500000920E-02 0.  1.
    10030    2    1    2    0    0  0.00000000000E+00  0.00000000000E+00  0.51963751773E+03  0.71787655730E+03  0.49530152603E+03 0.  0.
        5    1    3    3  502    0  0.78974063521E+02  0.57671846776E+02 -0.69880472227E+02  0.12028430910E+03  0.46999998093E+01 0.  1.
       -5    1    3    3    0  502 -0.78974063521E+02 -0.57671846776E+02  0.58951798996E+03  0.59759224819E+03  0.46999998093E+01 0. -1.
</event>
<event>
 5   0  0.1709372E-01  0.4548874E+03  0.7818609E-02  0.1026275E+00
        2   -1    0    0  501    0  0.00000000000E+00  0.00000000000E+00  0.14310423413E+04  0.14310423413E+04  0.25500000920E-02 0.  1.
       -2   -1    0    0    0  501  0.00000000000E+00  0.00000000000E+00 -0.36148920945E+02  0.36148921035E+02  0.25500000920E-02 0. -1.
    10030    2    1    2    0    0  0.00000000000E+00  0.00000000000E+00  0.13948934203E+04  0.14671912623E+04  0.45488739939E+03 0.  0.
        4    1    3    3  502    0 -0.12494803605E+03 -0.18079507270E+03  0.50854338198E+03  0.55400077101E+03  0.12699999809E+01 0. -1.
       -4    1    3    3    0  502  0.12494803605E+03  0.18079507270E+03  0.88635003835E+03  0.91319049130E+03  0.12699999809E+01 0.  1.
</event>
<event>
 5   0  0.1123271E-01  0.5028164E+03  0.7818609E-02  0.1013046E+00
        1   -1    0    0  501    0  0.00000000000E+00  0.00000000000E+00  0.19380134708E+03  0.19380134715E+03  0.50400001928E-02 0. -1.
       -1   -1    0    0    0  501  0.00000000000E+00  0.00000000000E+00 -0.32613849845E+03  0.32613849848E+03  0.50400001928E-02 0.  1.
    10030    2    1    2    0    0  0.00000000000E+00  0.00000000000E+00 -0.13233715136E+03  0.51993984563E+03  0.50281638940E+03 0.  0.
        5    1    3    3  502    0 -0.60458798676E+02  0.11376269236E+03 -0.28935871022E+03  0.31677716093E+03  0.46999998093E+01 0.  1.
       -5    1    3    3    0  502  0.60458798676E+02 -0.11376269236E+03  0.15702155886E+03  0.20316268470E+03  0.46999998093E+01 0. -1.
</event>
<event>
 5   0  0.1683148E-01  0.5053056E+03  0.7818609E-02  0.1012403E+00
       -2   -1    0    0    0  501  0.00000000000E+00  0.00000000000E+00  0.24736293341E+03  0.24736293342E+03  0.25500000920E-02 0.  1.
        2   -1    0    0  501    0  0.00000000000E+00  0.00000000000E+00 -0.25805583993E+03  0.25805583995E+03  0.25500000920E-02 0. -1.
    10030    2    1    2    0    0  0.00000000000E+00  0.00000000000E+00 -0.10692906528E+02  0.50541877337E+03  0.50530564832E+03 0.  0.
        2    1    3    3  502    0 -0.15987962121E+03 -0.14549783863E+03 -0.13615162760E+03  0.25547677004E+03  0.25500000920E-02 0. -1.
       -2    1    3    3    0  502  0.15987962121E+03  0.14549783863E+03  0.12545872107E+03  0.24994200332E+03  0.25500000920E-02 0.  1.
</event>
<event>
 5   0  0.1068522E-01  0.4950624E+03  0.7818609E-02  0.1015076E+00
        1   -1    0    0  501    0  0.00000000000E+00  0.00000000000E+00  0.55106171821E+03  0.55106171823E+03  0.50400001928E-02 0. -1.
       -1   -1    0    0    0  501  0.00000000000E+00  0.00000000000E+00 -0.11118845606E+03  0.11118845617E+03  0.50400001928E-02 0.  1.
    10030    2    1    2    0    0  0.00000000000E+00  0.00000000000E+00  0.43987326215E+03  0.66225017440E+03  0.49506242711E+03 0.  0.
        2    1    3    3  502    0 -0.16290788853E+03 -0.62637451464E+01  0.46910108820E+03  0.49662263904E+03  0.25500000920E-02 0. -1.
       -2    1    3    3    0  502  0.16290788853E+03  0.62637451464E+01 -0.29227826050E+02  0.16562753536E+03  0.25500000920E-02 0.  1.
</event>
<event>
 5   0  0.1683148E-01  0.4988965E+03  0.7818609E-02  0.1014067E+00
       -2   -1    0    0    0  501  0.00000000000E+00  0.00000000000E+00  0.12490468452E+03  0.12490468455E+03  0.25500000920E-02 0. -1.
        2   -1    0    0  501    0  0.00000000000E+00  0.00000000000E+00 -0.49817540093E+03  0.49817540093E+03  0.25500000920E-02 0.  1.
    10030    2    1    2    0    0  0.00000000000E+00  0.00000000000E+00 -0.37327071640E+03  0.62308008548E+03  0.49889654759E+03 0.  0.
        2    1    3    3  502    0 -0.24216905140E+03  0.55361201729E+02 -0.21494279135E+03  0.32849827347E+03  0.25500000920E-02 0. -1.
       -2    1    3    3    0  502  0.24216905140E+03 -0.55361201729E+02 -0.15832792505E+03  0.29458181201E+03  0.25500000920E-02 0.  1.
</event>
<event>
 5   0  0.1123271E-01  0.4914358E+03  0.7818609E-02  0.1016039E+00
        1   -1    0    0  501    0  0.00000000000E+00  0.00000000000E+00  0.13767412145E+03  0.13767412155E+03  0.50400001928E-02 0. -1.
       -1   -1    0    0    0  501  0.00000000000E+00  0.00000000000E+00 -0.43855210172E+03  0.43855210175E+03  0.50400001928E-02 0.  1.
    10030    2    1    2    0    0  0.00000000000E+00  0.00000000000E+00 -0.30087798027E+03  0.57622622330E+03  0.49143575511E+03 0.  0.
        5    1    3    3  502    0  0.59708198466E+02 -0.23295091937E+03 -0.20934636912E+03  0.31887174861E+03  0.46999998093E+01 0.  1.
       -5    1    3    3    0  502 -0.59708198466E+02  0.23295091937E+03 -0.91531611146E+02  0.25735447468E+03  0.46999998093E+01 0. -1.
</event>
<event>
 5   0  0.1709372E-01  0.5004778E+03  0.7818609E-02  0.1013654E+00
        2   -1    0    0  501    0  0.00000000000E+00  0.00000000000E+00  0.97573011331E+02  0.97573011364E+02  0.25500000920E-02 0. -1.
       -2   -1    0    0    0  501  0.00000000000E+00  0.00000000000E+00 -0.64177073965E+03  0.64177073966E+03  0.25500000920E-02 0.  1.
    10030    2    1    2    0    0  0.00000000000E+00  0.00000000000E+00 -0.54419772832E+03  0.73934375102E+03  0.50047778638E+03 0.  0.
        4    1    3    3  502    0  0.13152311700E+03  0.19699867841E+03 -0.15289559807E+03  0.28193170523E+03  0.12699999809E+01 0. -1.
       -4    1    3    3    0  502 -0.13152311700E+03 -0.19699867841E+03 -0.39130213025E+03  0.45741204580E+03  0.12699999809E+01 0.  1.
</event>
<event>
 5   0  0.1147245E-01  0.4885634E+03  0.7818609E-02  0.1016808E+00
        1   -1    0    0  501    0  0.00000000000E+00  0.00000000000E+00  0.15700694496E+03  0.15700694504E+03  0.50400001928E-02 0.  1.
       -1   -1    0    0    0  501  0.00000000000E+00  0.00000000000E+00 -0.38006947447E+03  0.38006947450E+03  0.50400001928E-02 0. -1.
    10030    2    1    2    0    0  0.00000000000E+00  0.00000000000E+00 -0.22306252951E+03  0.53707641954E+03  0.48856339236E+03 0.  0.
        1    1    3    3  502    0  0.11636832523E+03 -0.19593079209E+03 -0.14798819499E+02  0.22836257900E+03  0.50400001928E-02 0.  1.
       -1    1    3    3    0  502 -0.11636832523E+03  0.19593079209E+03 -0.20826371001E+03  0.30871384054E+03  0.50400001928E-02 0. -1.
</event>
<event>
 5   0  0.1123271E-01  0.5278984E+03  0.7818609E-02  0.1006743E+00
        1   -1    0    0  501    0  0.00000000000E+00  0.00000000000E+00  0.15513502120E+04  0.15513502120E+04  0.50400001928E-02 0. -1.
       -1   -1    0    0    0  501  0.00000000000E+00  0.00000000000E+00 -0.44908739865E+02  0.44908740148E+02  0.50400001928E-02 0.  1.
    10030    2    1    2    0    0  0.00000000000E+00  0.00000000000E+00  0.15064414721E+04  0.15962589522E+04  0.52789841198E+03 0.  0.
        5    1    3    3  502    0  0.18328633964E+02 -0.26061965511E+03  0.86589733644E+03  0.90446604729E+03  0.46999998093E+01 0. -1.
       -5    1    3    3    0  502 -0.18328633964E+02  0.26061965511E+03  0.64054413571E+03  0.69179290488E+03  0.46999998093E+01 0.  1.
</event>
<event>
 5   0  0.1074281E-01  0.4960195E+03  0.7818609E-02  0.1014823E+00
       -1   -1    0    0    0  501  0.00000000000E+00  0.00000000000E+00  0.60763860217E+02  0.60763860426E+02  0.50400001928E-02 0.  1.
        1   -1    0    0  501    0  0.00000000000E+00  0.00000000000E+00 -0.10122603473E+04  0.10122603473E+04  0.50400001928E-02 0. -1.
    10030    2    1    2    0    0  0.00000000000E+00  0.00000000000E+00 -0.95149648711E+03  0.10730242078E+04  0.49601954142E+03 0.  0.
        4    1    3    3  502    0 -0.24117820307E+00  0.96332523432E+02  0.18629816565E+02  0.98125920137E+02  0.12699999809E+01 0.  1.
       -4    1    3    3    0  502  0.24117820307E+00 -0.96332523432E+02 -0.97012630368E+03  0.97489828763E+03  0.12699999809E+01 0. -1.
</event>
<event>
 5   0  0.1683148E-01  0.4404879E+03  0.7818609E-02  0.1030597E+00
        2   -1    0    0  501    0  0.00000000000E+00  0.00000000000E+00  0.15905083996E+03  0.15905083998E+03  0.25500000920E-02 0.  1.
       -2   -1    0    0    0  501  0.00000000000E+00  0.00000000000E+00 -0.30498043274E+03  0.30498043275E+03  0.25500000920E-02 0. -1.
    10030    2    1    2    0    0  0.00000000000E+00  0.00000000000E+00 -0.14592959278E+03  0.46403127273E+03  0.44048788408E+03 0.  0.
        2    1    3    3  502    0 -0.62040699373E+02  0.30197092784E+02 -0.29330048429E+03  0.30130729643E+03  0.25500000920E-02 0. -1.
       -2    1    3    3    0  502  0.62040699373E+02 -0.30197092784E+02  0.14737089151E+03  0.16272397630E+03  0.25500000920E-02 0.  1.
</event>
<event>
 5   0  0.1827698E-01  0.4994494E+03  0.7818609E-02  0.1013923E+00
       -2   -1    0    0    0  501  0.00000000000E+00  0.00000000000E+00  0.67959671755E+02  0.67959671803E+02  0.25500000920E-02 0.  1.
        2   -1    0    0  501    0  0.00000000000E+00  0.00000000000E+00 -0.91763888245E+03  0.91763888246E+03  0.25500000920E-02 0. -1.
    10030    2    1    2    0    0  0.00000000000E+00  0.00000000000E+00 -0.84967921070E+03  0.98559855426E+03  0.49944944596E+03 0.  0.
        1    1    3    3  502    0  0.23270074569E+03  0.83862620229E+02 -0.35705610871E+03  0.43436348938E+03  0.50400001928E-02 0. -1.
       -1    1    3    3    0  502 -0.23270074569E+03 -0.83862620229E+02 -0.49262310199E+03  0.55123506488E+03  0.50400001928E-02 0.  1.
</event>
<event>
 5   0  0.1141970E-01  0.4978954E+03  0.7818609E-02  0.1014330E+00
       -1   -1    0    0    0  501  0.00000000000E+00  0.00000000000E+00  0.39937893103E+03  0.39937893106E+03  0.50400001928E-02 0. -1.
        1   -1    0    0  501    0  0.00000000000E+00  0.00000000000E+00 -0.15517835270E+03  0.15517835278E+03  0.50400001928E-02 0.  1.
    10030    2    1    2    0    0  0.00000000000E+00  0.00000000000E+00  0.24420057833E+03  0.55455728385E+03  0.49789542939E+03 0.  0.
        3    1    3    3  502    0  0.16127100816E+03  0.18794653135E+03  0.15033728019E+03  0.28971286601E+03  0.10100000352E+00 0. -1.
       -3    1    3    3    0  502 -0.16127100816E+03 -0.18794653135E+03  0.93863298142E+02  0.26484441783E+03  0.10100000352E+00 0.  1.
</event>
<event>
 5   0  0.1760649E-01  0.4822377E+03  0.7818609E-02  0.1018522E+00
       -2   -1    0    0    0  501  0.00000000000E+00  0.00000000000E+00  0.83013032520E+03  0.83013032521E+03  0.25500000920E-02 0. -1.
        2   -1    0    0  501    0  0.00000000000E+00  0.00000000000E+00 -0.70035141948E+02  0.70035141994E+02  0.25500000920E-02 0.  1.
    10030    2    1    2    0    0  0.00000000000E+00  0.00000000000E+00  0.76009518325E+03  0.90016546720E+03  0.48223768075E+03 0.  0.
        5    1    3    3  502    0 -0.13575785478E+03 -0.12577552908E+03  0.91673783038E+02  0.20658134317E+03  0.46999998093E+01 0.  1.
       -5    1    3    3    0  502  0.13575785478E+03  0.12577552908E+03  0.66842140022E+03  0.69358412404E+03  0.46999998093E+01 0. -1.
</event>
<event>
 5   0  0.1760649E-01  0.5082676E+03  0.7818609E-02  0.1011643E+00
        2   -1    0    0  501    0  0.00000000000E+00  0.00000000000E+00  0.30541775335E+03  0.30541775336E+03  0.25500000920E-02 0.  1.
       -2   -1    0    0    0  501  0.00000000000E+00  0.00000000000E+00 -0.21146112449E+03  0.21146112450E+03  0.25500000920E-02 0. -1.
    10030    2    1    2    0    0  0.00000000000E+00  0.00000000000E+00  0.93956628861E+02  0.51687887786E+03  0.50826757350E+03 0.  0.
        5    1    3    3  502    0 -0.14430221373E+03  0.11835395633E+03  0.22232675085E+03  0.29031373031E+03  0.46999998093E+01 0.  1.
       -5    1    3    3    0  502  0.14430221373E+03 -0.11835395633E+03 -0.12837012198E+03  0.22656514755E+03  0.46999998093E+01 0. -1.
</event>
<event>
 5   0  0.1760649E-01  0.5095693E+03  0.7818609E-02  0.1011311E+00
        2   -1    0    0  501    0  0.00000000000E+00  0.00000000000E+00  0.15227949872E+04  0.15227949872E+04  0.25500000920E-02 0. -1.
       -2   -1    0    0    0  501  0.00000000000E+00  0.00000000000E+00 -0.42629000787E+02  0.42629000863E+02  0.25500000920E-02 0.  1.
    10030    2    1    2    0    0  0.00000000000E+00  0.00000000000E+00  0.14801659864E+04  0.15654239880E+04  0.50956934275E+03 0.  0.
        5    1    3    3  502    0  0.43554943428E+02  0.15128490281E+03  0.12483596785E+03  0.20097329122E+03  0.46999998093E+01 0.  1.
       -5    1    3    3    0  502 -0.43554943428E+02 -0.15128490281E+03  0.13553300185E+04  0.13644506968E+04  0.46999998093E+01 0. -1.
</event>
<event>
 5   0  0.1074281E-01  0.4953745E+03  0.7818609E-02  0.1014993E+00
        1   -1    0    0  501    0  0.00000000000E+00  0.00000000000E+00  0.20839878863E+03  0.20839878869E+03  0.50400001928E-02 0.  1.
       -1   -1    0    0    0  501  0.00000000000E+00  0.00000000000E+00 -0.29438258542E+03  0.29438258547E+03  0.50400001928E-02 0. -1.
    10030    2    1    2    0    0  0.00000000000E+00  0.00000000000E+00 -0.85983796794E+02  0.50278137416E+03  0.49537450166E+03 0.  0.
        4    1    3    3  502    0 -0.12427222029E+03  0.16464088796E+03  0.96160786031E+02  0.22759331360E+03  0.12699999809E+01 0.  1.
       -4    1    3    3    0  502  0.12427222029E+03 -0.16464088796E+03 -0.18214458282E+03  0.27518806056E+03  0.12699999809E+01 0. -1.
</event>
<event>
 5   0  0.1709372E-01  0.5084247E+03  0.7818609E-02  0.1011603E+00
        2   -1    0    0  501    0  0.00000000000E+00  0.00000000000E+00  0.33087651126E+03  0.33087651127E+03  0.25500000920E-02 0. -1.
       -2   -1    0    0    0  501  0.00000000000E+00  0.00000000000E+00 -0.19531125897E+03  0.19531125898E+03  0.25500000920E-02 0.  1.
    10030    2    1    2    0    0  0.00000000000E+00  0.00000000000E+00  0.13556525229E+03  0.52618777025E+03  0.50842465709E+03 0.  0.
        4    1    3    3  502    0 -0.14887815068E+03  0.18067289536E+03  0.17031405305E+03  0.28950973806E+03  0.12699999809E+01 0. -1.
       -4    1    3    3    0  502  0.14887815068E+03 -0.18067289536E+03 -0.34748800763E+02  0.23667803219E+03  0.12699999809E+01 0.  1.
</event>
<event>
 5   0  0.1074281E-01  0.5028872E+03  0.7818609E-02  0.1013028E+00
        1   -1    0    0  501    0  0.00000000000E+00  0.00000000000E+00  0.14295127311E+03  0.14295127320E+03  0.50400001928E-02 0. -1.
       -1   -1    0    0    0  501  0.00000000000E+00  0.00000000000E+00 -0.44227579805E+03  0.44227579808E+03  0.50400001928E-02 0.  1.
    10030    2    1    2    0    0  0.00000000000E+00  0.00000000000E+00 -0.29932452494E+03  0.58522707129E+03  0.50288721771E+03 0.  0.
        4    1    3    3  502    0 -0.16218553827E+02 -0.16157407068E+02  0.14173217073E+03  0.14357480424E+03  0.12699999809E+01 0. -1.
       -4    1    3    3    0  502  0.16218553827E+02  0.16157407068E+02 -0.44105669567E+03  0.44165226705E+03  0.12699999809E+01 0.  1.
</event>
<event>
 5   0  0.7220250E-02  0.4965244E+03  0.7818609E-02  0.1014690E+00
        3   -1    0    0  501    0  0.00000000000E+00  0.00000000000E+00  0.24010870414E+03  0.24010872538E+03  0.10100000352E+00 0.  1.
       -3   -1    0    0    0  501  0.00000000000E+00  0.00000000000E+00 -0.25669254767E+03  0.25669256754E+03  0.10100000352E+00 0. -1.
    10030    2    1    2    0    0  0.00000000000E+00  0.00000000000E+00 -0.16583843525E+02  0.49680129292E+03  0.49652442113E+03 0.  0.
        4    1    3    3  502    0  0.16986148821E+03 -0.14819712379E+03  0.95771841136E+02  0.24492686895E+03  0.12699999809E+01 0.  1.
       -4    1    3    3    0  502 -0.16986148821E+03  0.14819712379E+03 -0.11235568466E+03  0.25187442397E+03  0.12699999809E+01 0. -1.
</event>
<event>
 5   0  0.1147245E-01  0.5010942E+03  0.7818609E-02  0.1013494E+00
       -1   -1    0    0    0  501  0.00000000000E+00  0.00000000000E+00  0.48141180705E+02  0.48141180968E+02  0.50400001928E-02 0. -1.
        1   -1    0    0  501    0  0.00000000000E+00  0.00000000000E+00 -0.13039533859E+04  0.13039533860E+04  0.50400001928E-02 0.  1.
    10030    2    1    2    0    0  0.00000000000E+00  0.00000000000E+00 -0.12558122052E+04  0.13520945669E+04  0.50109422574E+03 0.  0.
        1    1    3    3  502    0  0.24317112235E+03  0.41431219416E+02 -0.50951583170E+03  0.56608755813E+03  0.50400001928E-02 0. -1.
       -1    1    3    3    0  502 -0.24317112235E+03 -0.41431219416E+02 -0.74629637354E+03  0.78600700879E+03  0.50400001928E-02 0.  1.
</event>
<event>
 5   0  0.1068522E-01  0.4996993E+03  0.7818609E-02  0.1013857E+00
        1   -1    0    0  501    0  0.00000000000E+00  0.00000000000E+00  0.84376947507E+03  0.84376947508E+03  0.50400001928E-02 0. -1.
       -1   -1    0    0    0  501  0.00000000000E+00  0.00000000000E+00 -0.73983300615E+02  0.73983300786E+02  0.50400001928E-02 0.  1.
    10030    2    1    2    0    0  0.00000000000E+00  0.00000000000E+00  0.76978617445E+03  0.91775277587E+03  0.49969931282E+03 0.  0.
        2    1    3    3  502    0 -0.35102939150E+02 -0.24673360172E+03  0.41749817909E+03  0.48622465600E+03  0.25500000920E-02 0.  1.
       -2    1    3    3    0  502  0.35102939150E+02  0.24673360172E+03  0.35228799537E+03  0.43152811987E+03  0.25500000920E-02 0. -1.
</event>
<event>
 5   0  0.1709372E-01  0.5016304E+03  0.7818609E-02  0.1013354E+00
       -2   -1    0    0    0  501  0.00000000000E+00  0.00000000000E+00  0.55099372329E+02  0.55099372388E+02  0.25500000920E-02 0. -1.
        2   -1    0    0  501    0  0.00000000000E+00  0.00000000000E+00 -0.11417237991E+04  0.11417237991E+04  0.25500000920E-02 0.  1.
    10030    2    1    2    0    0  0.00000000000E+00  0.00000000000E+00 -0.10866244268E+04  0.11968231715E+04  0.50163040075E+03 0.  0.
        4    1    3    3  502    0 -0.18101971522E+02 -0.19521629167E+03 -0.17009702581E+03  0.25956057674E+03  0.12699999809E+01 0. -1.
       -4    1    3    3    0  502  0.18101971522E+02  0.19521629167E+03 -0.91652740095E+03  0.93726259474E+03  0.12699999809E+01 0.  1.
</event>
<event>
 5   0  0.1068522E-01  0.5000658E+03  0.7818609E-02  0.1013762E+00
       -1   -1    0    0    0  501  0.00000000000E+00  0.00000000000E+00  0.13483837801E+03  0.13483837811E+03  0.50400001928E-02 0. -1.
        1   -1    0    0  501    0  0.00000000000E+00  0.00000000000E+00 -0.46363980444E+03  0.46363980447E+03  0.50400001928E-02 0.  1.
    10030    2    1    2    0    0  0.00000000000E+00  0.00000000000E+00 -0.32880142643E+03  0.59847818257E+03  0.50006575267E+03 0.  0.
        2    1    3    3  502    0 -0.29856407326E+02 -0.12180645115E+03 -0.42327533905E+03  0.44146373492E+03  0.25500000920E-02 0.  1.
       -2    1    3    3    0  502  0.29856407326E+02  0.12180645115E+03  0.94473912618E+02  0.15701444765E+03  0.25500000920E-02 0. -1.
</event>
<event>
 5   0  0.1147245E-01  0.4994627E+03  0.7818609E-02  0.1013919E+00
       -1   -1    0    0    0  501  0.00000000000E+00  0.00000000000E+00  0.57034880664E+02  0.57034880886E+02  0.50400001928E-02 0.  1.
        1   -1    0    0  501    0  0.00000000000E+00  0.00000000000E+00 -0.10934668895E+04  0.10934668895E+04  0.50400001928E-02 0. -1.
    10030    2    1    2    0    0  0.00000000000E+00  0.00000000000E+00 -0.10364320089E+04  0.11505017704E+04  0.49946272609E+03 0.  0.
        1    1    3    3  502    0  0.11574682821E+03 -0.20914797130E+03 -0.35170218786E+03  0.42524655332E+03  0.50400001928E-02 0.  1.
       -1    1    3    3    0  502 -0.11574682821E+03  0.20914797130E+03 -0.68472982102E+03  0.72525521712E+03  0.50400001928E-02 0. -1.
</event>
<event>
 5   0  0.1827698E-01  0.5014177E+03  0.7818609E-02  0.1013410E+00
       -2   -1    0    0    0  501  0.00000000000E+00  0.00000000000E+00  0.50204930042E+02  0.50204930107E+02  0.25500000920E-02 0. -1.
        2   -1    0    0  501    0  0.00000000000E+00  0.00000000000E+00 -0.12519670589E+04  0.12519670589E+04  0.25500000920E-02 0.  1.
    10030    2    1    2    0    0  0.00000000000E+00  0.00000000000E+00 -0.12017621289E+04  0.13021719890E+04  0.50141766483E+03 0.  0.
        1    1    3    3  502    0 -0.69286916029E+02  0.14808850315E+03 -0.10729048868E+03  0.19555595231E+03  0.50400001928E-02 0. -1.
       -1    1    3    3    0  502  0.69286916029E+02 -0.14808850315E+03 -0.10944716402E+04  0.11066160367E+04  0.50400001928E-02 0.  1.
</event>
<event>
 5   0  0.7220250E-02  0.5104127E+03  0.7818609E-02  0.1011096E+00
       -3   -1    0    0    0  501  0.00000000000E+00  0.00000000000E+00  0.27321337349E+03  0.27321339215E+03  0.10100000352E+00 0.  1.
        3   -1    0    0  501    0  0.00000000000E+00  0.00000000000E+00 -0.23838607958E+03  0.23838610097E+03  0.10100000352E+00 0. -1.
    10030    2    1    2    0    0  0.00000000000E+00  0.00000000000E+00  0.34827293908E+02  0.51159949313E+03  0.51041267712E+03 0.  0.
        3    1    3    3  502    0 -0.15148653973E+03 -0.18044405584E+03 -0.80906414772E+02  0.24910657792E+03  0.10100000352E+00 0.  1.
       -3    1    3    3    0  502  0.15148653973E+03  0.18044405584E+03  0.11573370868E+03  0.26249291521E+03  0.10100000352E+00 0. -1.
</event>
<event>
 5   0  0.1760649E-01  0.4788013E+03  0.7818609E-02  0.1019465E+00
        2   -1    0    0  501    0  0.00000000000E+00  0.00000000000E+00  0.28800375222E+03  0.28800375223E+03  0.25500000920E-02 0.  1.
       -2   -1    0    0    0  501  0.00000000000E+00  0.00000000000E+00 -0.19899971868E+03  0.19899971870E+03  0.25500000920E-02 0. -1.
    10030    2    1    2    0    0  0.00000000000E+00  0.00000000000E+00  0.89004033541E+02  0.48700347093E+03  0.47880127685E+03 0.  0.
        5    1    3    3  502    0 -0.17301227771E+03  0.31291681186E+02  0.20969781253E+03  0.27369267460E+03  0.46999998093E+01 0.  1.
       -5    1    3    3    0  502  0.17301227771E+03 -0.31291681186E+02 -0.12069377899E+03  0.21331079634E+03  0.46999998093E+01 0. -1.
</event>
<event>
 5   0  0.1068522E-01  0.5047059E+03  0.7818609E-02  0.1012558E+00
       -1   -1    0    0    0  501  0.00000000000E+00  0.00000000000E+00  0.11894688034E+03  0.11894688045E+03  0.50400001928E-02 0. -1.
        1   -1    0    0  501    0  0.00000000000E+00  0.00000000000E+00 -0.53538188485E+03  0.53538188488E+03  0.50400001928E-02 0.  1.
    10030    2    1    2    0    0  0.00000000000E+00  0.00000000000E+00 -0.41643500451E+03  0.65432876532E+03  0.50470587488E+03 0.  0.
        2    1    3    3  502    0 -0.12107079160E+03 -0.85336557945E+01 -0.49505679133E+03  0.50971775181E+03  0.25500000920E-02 0.  1.
       -2    1    3    3    0  502  0.12107079160E+03  0.85336557945E+01  0.78621786815E+02  0.14461101351E+03  0.25500000920E-02 0. -1.
</event>
<event>
 5   0  0.1709372E-01  0.4808993E+03  0.7818609E-02  0.1018888E+00
       -2   -1    0    0    0  501  0.00000000000E+00  0.00000000000E+00  0.33376178941E+02  0.33376179038E+02  0.25500000920E-02 0. -1.
        2   -1    0    0  501    0  0.00000000000E+00  0.00000000000E+00 -0.17322543444E+04  0.17322543444E+04  0.25500000920E-02 0.  1.
    10030    2    1    2    0    0  0.00000000000E+00  0.00000000000E+00 -0.16988781655E+04  0.17656305234E+04  0.48089928699E+03 0.  0.
        4    1    3    3  502    0 -0.14469034390E+03 -0.11261551060E+03 -0.14205563414E+04  0.14323405604E+04  0.12699999809E+01 0. -1.
       -4    1    3    3    0  502  0.14469034390E+03  0.11261551060E+03 -0.27832182406E+03  0.33328996309E+03  0.12699999809E+01 0.  1.
</event>
<event>
 5   0  0.1683148E-01  0.5010551E+03  0.7818609E-02  0.1013504E+00
        2   -1    0    0  501    0  0.00000000000E+00  0.00000000000E+00  0.12847458102E+04  0.12847458102E+04  0.25500000920E-02 0. -1.
       -2   -1    0    0    0  501  0.00000000000E+00  0.00000000000E+00 -0.48853283837E+02  0.48853283904E+02  0.25500000920E-02 0.  1.
    10030    2    1    2    0    0  0.00000000000E+00  0.00000000000E+00  0.12358925263E+04  0.13335990941E+04  0.50105509385E+03 0.  0.
        2    1    3    3  502    0  0.10169450502E+03  0.19240230052E+03  0.28761368422E+03  0.36066889103E+03  0.25500000920E-02 0.  1.
       -2    1    3    3    0  502 -0.10169450502E+03 -0.19240230052E+03  0.94827884212E+03  0.97293020305E+03  0.25500000920E-02 0. -1.
</event>
<event>
 5   0  0.1147245E-01  0.4840976E+03  0.7818609E-02  0.1018015E+00
        1   -1    0    0  501    0  0.00000000000E+00  0.00000000000E+00  0.24414161458E+03  0.24414161463E+03  0.50400001928E-02 0.  1.
       -1   -1    0    0    0  501  0.00000000000E+00  0.00000000000E+00 -0.23997391044E+03  0.23997391049E+03  0.50400001928E-02 0. -1.
    10030    2    1    2    0    0  0.00000000000E+00  0.00000000000E+00  0.41677041427E+01  0.48411552512E+03  0.48409758510E+03 0.  0.
        1    1    3    3  502    0 -0.16815692510E+03  0.69925159617E+02 -0.15736276200E+03  0.24068510195E+03  0.50400001928E-02 0. -1.
       -1    1    3    3    0  502  0.16815692510E+03 -0.69925159617E+02  0.16153046615E+03  0.24343042317E+03  0.50400001928E-02 0.  1.
</event>
<event>
 5   0  0.1683148E-01  0.4921304E+03  0.7818609E-02  0.1015854E+00
        2   -1    0    0  501    0  0.00000000000E+00  0.00000000000E+00  0.28436292716E+03  0.28436292717E+03  0.25500000920E-02 0.  1.
       -2   -1    0    0    0  501  0.00000000000E+00  0.00000000000E+00 -0.21292533912E+03  0.21292533914E+03  0.25500000920E-02 0. -1.
    10030    2    1    2    0    0  0.00000000000E+00  0.00000000000E+00  0.71437588036E+02  0.49728826630E+03  0.49213035958E+03 0.  0.
        2    1    3    3  502    0 -0.51717504786E+02  0.81007617740E+02  0.26461251484E+03  0.28152569590E+03  0.25500000920E-02 0.  1.
       -2    1    3    3    0  502  0.51717504786E+02 -0.81007617740E+02 -0.19317492681E+03  0.21576257040E+03  0.25500000920E-02 0. -1.
</event>
<event>
 5   0  0.1068522E-01  0.5089935E+03  0.7818609E-02  0.1011458E+00
       -1   -1    0    0    0  501  0.00000000000E+00  0.00000000000E+00  0.85422619996E+02  0.85422620144E+02  0.50400001928E-02 0.  1.
        1   -1    0    0  501    0  0.00000000000E+00  0.00000000000E+00 -0.75821358172E+03  0.75821358174E+03  0.50400001928E-02 0. -1.
    10030    2    1    2    0    0  0.00000000000E+00  0.00000000000E+00 -0.67279096173E+03  0.84363620188E+03  0.50899348026E+03 0.  0.
        2    1    3    3  502    0  0.11978809167E+03  0.14570310850E+03 -0.61957386244E+03  0.64764986972E+03  0.25500000920E-02 0. -1.
       -2    1    3    3    0  502 -0.11978809167E+03 -0.14570310850E+03 -0.53217099289E+02  0.19598633216E+03  0.25500000920E-02 0.  1.
</event>
<event>
 5   0  0.1074281E-01  0.4946397E+03  0.7818609E-02  0.1015188E+00
       -1   -1    0    0    0  501  0.00000000000E+00  0.00000000000E+00  0.52501927027E+03  0.52501927030E+03  0.50400001928E-02 0.  1.
        1   -1    0    0  501    0  0.00000000000E+00  0.00000000000E+00 -0.11650451197E+03  0.11650451208E+03  0.50400001928E-02 0. -1.
    10030    2    1    2    0    0  0.00000000000E+00  0.00000000000E+00  0.40851475830E+03  0.64152378238E+03  0.49463972304E+03 0.  0.
        4    1    3    3  502    0  0.11772113931E+03  0.12215627544E+03 -0.29140147439E+02  0.17213710629E+03  0.12699999809E+01 0. -1.
       -4    1    3    3    0  502 -0.11772113931E+03 -0.12215627544E+03  0.43765490574E+03  0.46938667609E+03  0.12699999809E+01 0.  1.
</event>
<event>
 5   0  0.1827698E-01  0.4989135E+03  0.7818609E-02  0.1014063E+00
        2   -1    0    0  501    0  0.00000000000E+00  0.00000000000E+00  0.11341443891E+04  0.11341443891E+04  0.25500000920E-02 0.  1.
       -2   -1    0    0    0  501  0.00000000000E+00  0.00000000000E+00 -0.54868374446E+02  0.54868374506E+02  0.25500000920E-02 0. -1.
    10030    2    1    2    0    0  0.00000000000E+00  0.00000000000E+00  0.10792760146E+04  0.11890127636E+04  0.49891345563E+03 0.  0.
        1    1    3    3  502    0  0.11710830896E+03 -0.19253502065E+03  0.79459153014E+03  0.82592965197E+03  0.50400001928E-02 0.  1.
       -1    1    3    3    0  502 -0.11710830896E+03  0.19253502065E+03  0.28468448449E+03  0.36308311162E+03  0.50400001928E-02 0. -1.
</event>
<event>
 5   0  0.1683148E-01  0.5010654E+03  0.7818609E-02  0.1013501E+00
        2   -1    0    0  501    0  0.00000000000E+00  0.00000000000E+00  0.14608890928E+04  0.14608890928E+04  0.25500000920E-02 0. -1.
       -2   -1    0    0    0  501  0.00000000000E+00  0.00000000000E+00 -0.42964680149E+02  0.42964680225E+02  0.25500000920E-02 0.  1.
    10030    2    1    2    0    0  0.00000000000E+00  0.00000000000E+00  0.14179244126E+04  0.15038537730E+04  0.50106539558E+03 0.  0.
        2    1    3    3  502    0 -0.98727767213E+02 -0.61052574526E+01  0.13998000779E+04  0.14032906699E+04  0.25500000920E-02 0. -1.
       -2    1    3    3    0  502  0.98727767213E+02  0.61052574526E+01  0.18124334736E+02  0.10056310309E+03  0.25500000920E-02 0.  1.
</event>
<event>
 5   0  0.1147245E-01  0.4957738E+03  0.7818609E-02  0.1014888E+00
        1   -1    0    0  501    0  0.00000000000E+00  0.00000000000E+00  0.31505189149E+03  0.31505189153E+03  0.50400001928E-02 0.  1.
       -1   -1    0    0    0  501  0.00000000000E+00  0.00000000000E+00 -0.19504059346E+03  0.19504059353E+03  0.50400001928E-02 0. -1.
    10030    2    1    2    0    0  0.00000000000E+00  0.00000000000E+00  0.12001129803E+03  0.51009248506E+03  0.49577377064E+03 0.  0.
        1    1    3    3  502    0 -0.21049419740E+03  0.84898476219E+02  0.16254519148E+03  0.27917109038E+03  0.50400001928E-02 0.  1.
       -1    1    3    3    0  502  0.21049419740E+03 -0.84898476219E+02 -0.42533893444E+02  0.23092139468E+03  0.50400001928E-02 0. -1.
</event>
<event>
 5   0  0.1068522E-01  0.5072700E+03  0.7818609E-02  0.1011899E+00
        1   -1    0    0  501    0  0.00000000000E+00  0.00000000000E+00  0.47673031828E+03  0.47673031830E+03  0.50400001928E-02 0. -1.
       -1   -1    0    0    0  501  0.00000000000E+00  0.00000000000E+00 -0.13494150093E+03  0.13494150103E+03  0.50400001928E-02 0.  1.
    10030    2    1    2    0    0  0.00000000000E+00  0.00000000000E+00  0.34178881734E+03  0.61167181933E+03  0.50726996649E+03 0.  0.
        2    1    3    3  502    0 -0.25238903018E+03 -0.23855562124E+02  0.16144633204E+03  0.30055653135E+03  0.25500000920E-02 0. -1.
       -2    1    3    3    0  502  0.25238903018E+03  0.23855562124E+02  0.18034248531E+03  0.31111528798E+03  0.25500000920E-02 0.  1.
</event>
<event>
 5   0  0.1827698E-01  0.5026590E+03  0.7818609E-02  0.1013087E+00
       -2   -1    0    0    0  501  0.00000000000E+00  0.00000000000E+00  0.61692124083E+03  0.61692124084E+03  0.25500000920E-02 0. -1.
        2   -1    0    0  501    0  0.00000000000E+00  0.00000000000E+00 -0.10238991399E+03  0.10238991402E+03  0.25500000920E-02 0.  1.
    10030    2    1    2    0    0  0.00000000000E+00  0.00000000000E+00  0.51453132684E+03  0.71931115486E+03  0.50265898103E+03 0.  0.
        1    1    3    3  502    0 -0.77506352604E+02  0.23725163906E+03  0.29949720456E+03  0.38986427189E+03  0.50400001928E-02 0. -1.
       -1    1    3    3    0  502  0.77506352604E+02 -0.23725163906E+03  0.21503412229E+03  0.32944688298E+03  0.50400001928E-02 0.  1.
</event>
<event>
 5   0  0.7220250E-02  0.5123679E+03  0.7818609E-02  0.1010600E+00
        4   -1    0    0  501    0  0.00000000000E+00  0.00000000000E+00  0.22770869097E+03  0.22771223253E+03  0.12699999809E+01 0.  1.
       -4   -1    0    0    0  501  0.00000000000E+00  0.00000000000E+00 -0.28821284297E+03  0.28821564107E+03  0.12699999809E+01 0. -1.
    10030    2    1    2    0    0  0.00000000000E+00  0.00000000000E+00 -0.60504152008E+02  0.51592787359E+03  0.51236785451E+03 0.  0.
        5    1    3    3  502    0  0.13841705016E+01 -0.22932867451E+03 -0.14512609716E+03  0.27143550054E+03  0.46999998093E+01 0. -1.
       -5    1    3    3    0  502 -0.13841705016E+01  0.22932867451E+03  0.84621945150E+02  0.24449237305E+03  0.46999998093E+01 0.  1.
</event>
<event>
 5   0  0.1147245E-01  0.5015692E+03  0.7818609E-02  0.1013370E+00
       -1   -1    0    0    0  501  0.00000000000E+00  0.00000000000E+00  0.11381808061E+03  0.11381808072E+03  0.50400001928E-02 0. -1.
        1   -1    0    0  501    0  0.00000000000E+00  0.00000000000E+00 -0.55257393747E+03  0.55257393750E+03  0.50400001928E-02 0.  1.
    10030    2    1    2    0    0  0.00000000000E+00  0.00000000000E+00 -0.43875585686E+03  0.66639201822E+03  0.50156915775E+03 0.  0.
        1    1    3    3  502    0 -0.13091981150E+03  0.10502578306E+03  0.28195717162E+02  0.17019227551E+03  0.50400001928E-02 0. -1.
       -1    1    3    3    0  502  0.13091981150E+03 -0.10502578306E+03 -0.46695157403E+03  0.49619974271E+03  0.50400001928E-02 0.  1.
</event>
<event>
 5   0  0.7220250E-02  0.4998085E+03  0.7818609E-02  0.1013829E+00
       -3   -1    0    0    0  501  0.00000000000E+00  0.00000000000E+00  0.56167429439E+03  0.56167430347E+03  0.10100000352E+00 0.  1.
        3   -1    0    0  501    0  0.00000000000E+00  0.00000000000E+00 -0.11118921945E+03  0.11118926532E+03  0.10100000352E+00 0. -1.
    10030    2    1    2    0    0  0.00000000000E+00  0.00000000000E+00  0.45048507495E+03  0.67286356879E+03  0.49980854281E+03 0.  0.
        1    1    3    3  502    0 -0.37843787191E+02 -0.22249171251E+03  0.36972034398E+03  0.43316030190E+03  0.50400001928E-02 0.  1.
       -1    1    3    3    0  502  0.37843787191E+02  0.22249171251E+03  0.80764730962E+02  0.23970326689E+03  0.50400001928E-02 0. -1.
</event>
<event>
 5   0  0.1709372E-01  0.4990040E+03  0.7818609E-02  0.1014039E+00
       -2   -1    0    0    0  501  0.00000000000E+00  0.00000000000E+00  0.85332149631E+02  0.85332149669E+02  0.25500000920E-02 0. -1.
        2   -1    0    0  501    0  0.00000000000E+00  0.00000000000E+00 -0.72951699206E+03  0.72951699206E+03  0.25500000920E-02 0.  1.
    10030    2    1    2    0    0  0.00000000000E+00  0.00000000000E+00 -0.64418484243E+03  0.81484914173E+03  0.49900402059E+03 0.  0.
        4    1    3    3  502    0  0.81709038835E+02  0.21197105115E+03 -0.15364066427E+03  0.27425382435E+03  0.12699999809E+01 0. -1.
       -4    1    3    3    0  502 -0.81709038835E+02 -0.21197105115E+03 -0.49054417816E+03  0.54059531738E+03  0.12699999809E+01 0.  1.
</event>
<event>
 5   0  0.1709372E-01  0.5014174E+03  0.7818609E-02  0.1013410E+00
        2   -1    0    0  501    0  0.00000000000E+00  0.00000000000E+00  0.12101418902E+04  0.12101418902E+04  0.25500000920E-02 0.  1.
       -2   -1    0    0    0  501  0.00000000000E+00  0.00000000000E+00 -0.51940077153E+02  0.51940077216E+02  0.25500000920E-02 0. -1.
    10030    2    1    2    0    0  0.00000000000E+00  0.00000000000E+00  0.11582018131E+04  0.12620819674E+04  0.50141744360E+03 0.  0.
        4    1    3    3  502    0  0.46816661601E+02 -0.18109821687E+03  0.15893891677E+03  0.24546192397E+03  0.12699999809E+01 0. -1.
       -4    1    3    3    0  502 -0.46816661601E+02  0.18109821687E+03  0.99926289630E+03  0.10166200435E+04  0.12699999809E+01 0.  1.
</event>
<event>
 5   0  0.1709372E-01  0.4953093E+03  0.7818609E-02  0.1015011E+00
        2   -1    0    0  501    0  0.00000000000E+00  0.00000000000E+00  0.13462118717E+04  0.13462118717E+04  0.25500000920E-02 0.  1.
       -2   -1    0    0    0  501  0.00000000000E+00  0.00000000000E+00 -0.45559571166E+02  0.45559571237E+02  0.25500000920E-02 0. -1.
    10030    2    1    2    0    0  0.00000000000E+00  0.00000000000E+00  0.13006523005E+04  0.13917714429E+04  0.49530934020E+03 0.  0.
        4    1    3    3  502    0  0.44467350508E+02 -0.21494906897E+02 -0.31571178228E+02  0.58632145435E+02  0.12699999809E+01 0. -1.
       -4    1    3    3    0  502 -0.44467350508E+02  0.21494906897E+02  0.13322234787E+04  0.13331392975E+04  0.12699999809E+01 0.  1.
</event>
<event>
 5   0  0.1782124E-01  0.4920659E+03  0.7818609E-02  0.1015871E+00
       -2   -1    0    0    0  501  0.00000000000E+00  0.00000000000E+00  0.21808698846E+03  0.21808698847E+03  0.25500000920E-02 0.  1.
        2   -1    0    0  501    0  0.00000000000E+00  0.00000000000E+00 -0.27755993249E+03  0.27755993250E+03  0.25500000920E-02 0. -1.
    10030    2    1    2    0    0  0.00000000000E+00  0.00000000000E+00 -0.59472944029E+02  0.49564692098E+03  0.49206588908E+03 0.  0.
        3    1    3    3  502    0  0.10066896022E+03 -0.21541270336E+03 -0.93405076796E+02  0.25546309106E+03  0.10100000352E+00 0. -1.
       -3    1    3    3    0  502 -0.10066896022E+03  0.21541270336E+03  0.33932132767E+02  0.24018382992E+03  0.10100000352E+00 0.  1.
</event>
<event>
 5   0  0.1147245E-01  0.4964837E+03  0.7818609E-02  0.1014701E+00
        1   -1    0    0  501    0  0.00000000000E+00  0.00000000000E+00  0.66697481015E+03  0.66697481017E+03  0.50400001928E-02 0. -1.
       -1   -1    0    0    0  501  0.00000000000E+00  0.00000000000E+00 -0.92393317590E+02  0.92393317728E+02  0.50400001928E-02 0.  1.
    10030    2    1    2    0    0  0.00000000000E+00  0.00000000000E+00  0.57458149256E+03  0.75936812789E+03  0.49648369769E+03 0.  0.
        1    1    3    3  502    0 -0.19455399947E+03 -0.15397647436E+03  0.29952689018E+03  0.38894263244E+03  0.50400001928E-02 0. -1.
       -1    1    3    3    0  502  0.19455399947E+03  0.15397647436E+03  0.27505460238E+03  0.37042549545E+03  0.50400001928E-02 0.  1.
</event>
<event>
 5   0  0.1683148E-01  0.5037246E+03  0.7818609E-02  0.1012811E+00
       -2   -1    0    0    0  501  0.00000000000E+00  0.00000000000E+00  0.29371845454E+03  0.29371845455E+03  0.25500000920E-02 0. -1.
        2   -1    0    0  501    0  0.00000000000E+00  0.00000000000E+00 -0.21597081466E+03  0.21597081468E+03  0.25500000920E-02 0.  1.
    10030    2    1    2    0    0  0.00000000000E+00  0.00000000000E+00  0.77747639874E+02  0.50968926923E+03  0.50372458314E+03 0.  0.
        2    1    3    3  502    0 -0.20763401385E+03 -0.14004822799E+03  0.11927214271E+02  0.25073421848E+03  0.25500000920E-02 0. -1.
       -2    1    3    3    0  502  0.20763401385E+03  0.14004822799E+03  0.65820425603E+02  0.25895505074E+03  0.25500000920E-02 0.  1.
</event>
<event>
 5   0  0.1827698E-01  0.5013069E+03  0.7818609E-02  0.1013438E+00
       -2   -1    0    0    0  501  0.00000000000E+00  0.00000000000E+00  0.83554802002E+02  0.83554802041E+02  0.25500000920E-02 0. -1.
        2   -1    0    0  501    0  0.00000000000E+00  0.00000000000E+00 -0.75192737549E+03  0.75192737550E+03  0.25500000920E-02 0.  1.
    10030    2    1    2    0    0  0.00000000000E+00  0.00000000000E+00 -0.66837257349E+03  0.83548217754E+03  0.50130686409E+03 0.  0.
        1    1    3    3  502    0  0.81700969686E+02 -0.84210643214E+02 -0.70333404996E+03  0.71305348098E+03  0.50400001928E-02 0.  1.
       -1    1    3    3    0  502 -0.81700969686E+02  0.84210643214E+02  0.34961476471E+02  0.12242869656E+03  0.50400001928E-02 0. -1.
</event>
<event>
 5   0  0.1068522E-01  0.5014731E+03  0.7818609E-02  0.1013395E+00
       -1   -1    0    0    0  501  0.00000000000E+00  0.00000000000E+00  0.12751343051E+03  0.12751343061E+03  0.50400001928E-02 0. -1.
        1   -1    0    0  501    0  0.00000000000E+00  0.00000000000E+00 -0.49303685436E+03  0.49303685438E+03  0.50400001928E-02 0.  1.
    10030    2    1    2    0    0  0.00000000000E+00  0.00000000000E+00 -0.36552342385E+03  0.62055028499E+03  0.50147311276E+03 0.  0.
        2    1    3    3  502    0 -0.23600489757E+03  0.11442253243E+01 -0.28753840033E+03  0.37199187168E+03  0.25500000920E-02 0.  1.
       -2    1    3    3    0  502  0.23600489757E+03 -0.11442253243E+01 -0.77985023518E+02  0.24855841331E+03  0.25500000920E-02 0. -1.
</event>
<event>
 5   0  0.1068522E-01  0.5083883E+03  0.7818609E-02  0.1011612E+00
        1   -1    0    0  501    0  0.00000000000E+00  0.00000000000E+00  0.23059126992E+03  0.23059126997E+03  0.50400001928E-02 0. -1.
       -1   -1    0    0    0  501  0.00000000000E+00  0.00000000000E+00 -0.28021297917E+03  0.28021297922E+03  0.50400001928E-02 0.  1.
    10030    2    1    2    0    0  0.00000000000E+00  0.00000000000E+00 -0.49621709252E+02  0.51080424919E+03  0.50838830333E+03 0.  0.
        2    1    3    3  502    0  0.20473442028E+03 -0.75373078894E+02  0.10625976010E+03  0.24266936455E+03  0.25500000920E-02 0. -1.
       -2    1    3    3    0  502 -0.20473442028E+03  0.75373078894E+02 -0.15588146935E+03  0.26813488464E+03  0.25500000920E-02 0.  1.
</event>
<event>
 5   0  0.1709372E-01  0.5009305E+03  0.7818609E-02  0.1013536E+00
        2   -1    0    0  501    0  0.00000000000E+00  0.00000000000E+00  0.37529732540E+03  0.37529732541E+03  0.25500000920E-02 0. -1.
       -2   -1    0    0    0  501  0.00000000000E+00  0.00000000000E+00 -0.16715504373E+03  0.16715504375E+03  0.25500000920E-02 0.  1.
    10030    2    1    2    0    0  0.00000000000E+00  0.00000000000E+00  0.20814228167E+03  0.54245236916E+03  0.50093049756E+03 0.  0.
        4    1    3    3  502    0 -0.83612506599E+02 -0.23593209744E+03  0.11352533568E+03  0.27485381679E+03  0.12699999809E+01 0. -1.
       -4    1    3    3    0  502  0.83612506599E+02  0.23593209744E+03  0.94616945987E+02  0.26759855237E+03  0.12699999809E+01 0.  1.
</event>
<event>
 5   0  0.1709372E-01  0.4853539E+03  0.7818609E-02  0.1017674E+00
        2   -1    0    0  501    0  0.00000000000E+00  0.00000000000E+00  0.44391866131E+03  0.44391866131E+03  0.25500000920E-02 0.  1.
       -2   -1    0    0    0  501  0.00000000000E+00  0.00000000000E+00 -0.13266415692E+03  0.13266415694E+03  0.25500000920E-02 0. -1.
    10030    2    1    2    0    0  0.00000000000E+00  0.00000000000E+00  0.31125450439E+03  0.57658281826E+03  0.48535387070E+03 0.  0.
        4    1    3    3  502    0 -0.16546550671E+03 -0.17689174564E+03  0.13796856055E+03  0.27875878495E+03  0.12699999809E+01 0.  1.
       -4    1    3    3    0  502  0.16546550671E+03  0.17689174564E+03  0.17328594383E+03  0.29782403331E+03  0.12699999809E+01 0. -1.
</event>
<event>
 5   0  0.1709372E-01  0.4632084E+03  0.7818609E-02  0.1023855E+00
        2   -1    0    0  501    0  0.00000000000E+00  0.00000000000E+00  0.10549509381E+04  0.10549509381E+04  0.25500000920E-02 0. -1.
       -2   -1    0    0    0  501  0.00000000000E+00  0.00000000000E+00 -0.50846449667E+02  0.50846449731E+02  0.25500000920E-02 0.  1.
    10030    2    1    2    0    0  0.00000000000E+00  0.00000000000E+00  0.10041044884E+04  0.11057973878E+04  0.46320841880E+03 0.  0.
        4    1    3    3  502    0 -0.21535399102E+03 -0.48737624680E+02  0.66892471978E+03  0.70442500746E+03  0.12699999809E+01 0. -1.
       -4    1    3    3    0  502  0.21535399102E+03  0.48737624680E+02  0.33517976865E+03  0.40137238036E+03  0.12699999809E+01 0.  1.
</event>
<event>
 5   0  0.1141970E-01  0.5044328E+03  0.7818609E-02  0.1012628E+00
       -1   -1    0    0    0  501  0.00000000000E+00  0.00000000000E+00  0.89133708389E+03  0.89133708390E+03  0.50400001928E-02 0.  1.
        1   -1    0    0  501    0  0.00000000000E+00  0.00000000000E+00 -0.71368176161E+02  0.71368176339E+02  0.50400001928E-02 0. -1.
    10030    2    1    2    0    0  0.00000000000E+00  0.00000000000E+00  0.81996890773E+03  0.96270526024E+03  0.50443275910E+03 0.  0.
        3    1    3    3  502    0 -0.14613598183E+03  0.15630491816E+03  0.66479576918E+03  0.69838411891E+03  0.10100000352E+00 0.  1.
       -3    1    3    3    0  502  0.14613598183E+03 -0.15630491816E+03  0.15517313855E+03  0.26432114133E+03  0.10100000352E+00 0. -1.
</event>
<event>
 5   0  0.7220250E-02  0.4914512E+03  0.7818609E-02  0.1016035E+00
       -3   -1    0    0    0  501  0.00000000000E+00  0.00000000000E+00  0.25475334382E+03  0.25475336384E+03  0.10100000352E+00 0. -1.
        3   -1    0    0  501    0  0.00000000000E+00  0.00000000000E+00 -0.23701772162E+03  0.23701774314E+03  0.10100000352E+00 0.  1.
    10030    2    1    2    0    0  0.00000000000E+00  0.00000000000E+00  0.17735622200E+02  0.49177110698E+03  0.49145118717E+03 0.  0.
        2    1    3    3  502    0  0.19660157982E+03  0.14307493725E+03 -0.26629899204E+02  0.24460533599E+03  0.25500000920E-02 0. -1.
       -2    1    3    3    0  502 -0.19660157982E+03 -0.14307493725E+03  0.44365521404E+02  0.24716577099E+03  0.25500000920E-02 0.  1.
</event>
<event>
 5   0  0.1141970E-01  0.4885465E+03  0.7818609E-02  0.1016812E+00
       -1   -1    0    0    0  501  0.00000000000E+00  0.00000000000E+00  0.16075346390E+03  0.16075346398E+03  0.50400001928E-02 0. -1.
        1   -1    0    0  501    0  0.00000000000E+00  0.00000000000E+00 -0.37118586105E+03  0.37118586108E+03  0.50400001928E-02 0.  1.
    10030    2    1    2    0    0  0.00000000000E+00  0.00000000000E+00 -0.21043239715E+03  0.53193932506E+03  0.48854646839E+03 0.  0.
        3    1    3    3  502    0  0.14707300783E+03  0.44695695832E+02  0.10149119408E+03  0.18419730599E+03  0.10100000352E+00 0. -1.
       -3    1    3    3    0  502 -0.14707300783E+03 -0.44695695832E+02 -0.31192359123E+03  0.34774201907E+03  0.10100000352E+00 0.  1.
</event>
<event>
 5   0  0.1683148E-01  0.4836147E+03  0.7818609E-02  0.1018146E+00
       -2   -1    0    0    0  501  0.00000000000E+00  0.00000000000E+00  0.65366192362E+02  0.65366192412E+02  0.25500000920E-02 0. -1.
        2   -1    0    0  501    0  0.00000000000E+00  0.00000000000E+00 -0.89451125950E+03  0.89451125950E+03  0.25500000920E-02 0.  1.
    10030    2    1    2    0    0  0.00000000000E+00  0.00000000000E+00 -0.82914506713E+03  0.95987745191E+03  0.48361470236E+03 0.  0.
        2    1    3    3  502    0  0.21087021676E+03 -0.11649751951E+03 -0.45586752701E+03  0.51560946710E+03  0.25500000920E-02 0.  1.
       -2    1    3    3    0  502 -0.21087021676E+03  0.11649751951E+03 -0.37327754012E+03  0.44426798482E+03  0.25500000920E-02 0. -1.
</event>
<event>
 5   0  0.7220250E-02  0.4775565E+03  0.7818609E-02  0.1019809E+00
       -4   -1    0    0    0  501  0.00000000000E+00  0.00000000000E+00  0.19886235111E+03  0.19886640639E+03  0.12699999809E+01 0.  1.
        4   -1    0    0  501    0  0.00000000000E+00  0.00000000000E+00 -0.28669772138E+03  0.28670053426E+03  0.12699999809E+01 0. -1.
    10030    2    1    2    0    0  0.00000000000E+00  0.00000000000E+00 -0.87835370272E+02  0.48556694065E+03  0.47755649046E+03 0.  0.
        3    1    3    3  502    0  0.16048404477E+03 -0.93906349790E+01 -0.22343435963E+03  0.27525667279E+03  0.10100000352E+00 0. -1.
       -3    1    3    3    0  502 -0.16048404477E+03  0.93906349790E+01  0.13559898936E+03  0.21031026786E+03  0.10100000352E+00 0.  1.
</event>
<event>
 5   0  0.1068522E-01  0.4968278E+03  0.7818609E-02  0.1014610E+00
       -1   -1    0    0    0  501  0.00000000000E+00  0.00000000000E+00  0.16333656519E+03  0.16333656527E+03  0.50400001928E-02 0.  1.
        1   -1    0    0  501    0  0.00000000000E+00  0.00000000000E+00 -0.37780560722E+03  0.37780560726E+03  0.50400001928E-02 0. -1.
    10030    2    1    2    0    0  0.00000000000E+00  0.00000000000E+00 -0.21446904203E+03  0.54114217252E+03  0.49682781816E+03 0.  0.
        2    1    3    3  502    0  0.98069475517E+01 -0.66227139554E+02 -0.36779404521E+03  0.37383775884E+03  0.25500000920E-02 0. -1.
       -2    1    3    3    0  502 -0.98069475517E+01  0.66227139554E+02  0.15332500318E+03  0.16730441369E+03  0.25500000920E-02 0.  1.
</event>
<event>
 5   0  0.1147245E-01  0.5016336E+03  0.7818609E-02  0.1013353E+00
        1   -1    0    0  501    0  0.00000000000E+00  0.00000000000E+00  0.31381634696E+03  0.31381634700E+03  0.50400001928E-02 0. -1.
       -1   -1    0    0    0  501  0.00000000000E+00  0.00000000000E+00 -0.20046459354E+03  0.20046459360E+03  0.50400001928E-02 0.  1.
    10030    2    1    2    0    0  0.00000000000E+00  0.00000000000E+00  0.11335175342E+03  0.51428094060E+03  0.50163359723E+03 0.  0.
        1    1    3    3  502    0 -0.13624015642E+03  0.20777464044E+03  0.91854032248E+02  0.26489402541E+03  0.50400001928E-02 0.  1.
       -1    1    3    3    0  502  0.13624015642E+03 -0.20777464044E+03  0.21497721173E+02  0.24938691520E+03  0.50400001928E-02 0. -1.
</event>
<event>
 5   0  0.1683148E-01  0.5173691E+03  0.7818609E-02  0.1009342E+00
        2   -1    0    0  501    0  0.00000000000E+00  0.00000000000E+00  0.17640238497E+04  0.17640238497E+04  0.25500000920E-02 0.  1.
       -2   -1    0    0    0  501  0.00000000000E+00  0.00000000000E+00 -0.37934689375E+02  0.37934689461E+02  0.25500000920E-02 0. -1.
    10030    2    1    2    0    0  0.00000000000E+00  0.00000000000E+00  0.17260891603E+04  0.18019585391E+04  0.51736910177E+03 0.  0.
        2    1    3    3  502    0  0.38966319274E+01 -0.63509043669E+02  0.17363436097E+04  0.17375090542E+04  0.25500000920E-02 0.  1.
       -2    1    3    3    0  502 -0.38966319274E+01  0.63509043669E+02 -0.10254449437E+02  0.64449484931E+02  0.25500000920E-02 0. -1.
</event>
<event>
 5   0  0.1709372E-01  0.5039732E+03  0.7818609E-02  0.1012747E+00
       -2   -1    0    0    0  501  0.00000000000E+00  0.00000000000E+00  0.50140003881E+02  0.50140003946E+02  0.25500000920E-02 0.  1.
        2   -1    0    0  501    0  0.00000000000E+00  0.00000000000E+00 -0.12663987330E+04  0.12663987330E+04  0.25500000920E-02 0. -1.
    10030    2    1    2    0    0  0.00000000000E+00  0.00000000000E+00 -0.12162587291E+04  0.13165387369E+04  0.50397316370E+03 0.  0.
        4    1    3    3  502    0 -0.21549089145E+03 -0.12251095567E+03 -0.72641770104E+03  0.76754774955E+03  0.12699999809E+01 0.  1.
       -4    1    3    3    0  502  0.21549089145E+03  0.12251095567E+03 -0.48984102807E+03  0.54899098739E+03  0.12699999809E+01 0. -1.
</event>
<event>
 5   0  0.1147245E-01  0.5078603E+03  0.7818609E-02  0.1011747E+00
        1   -1    0    0  501    0  0.00000000000E+00  0.00000000000E+00  0.13967920993E+04  0.13967920994E+04  0.50400001928E-02 0.  1.
       -1   -1    0    0    0  501  0.00000000000E+00  0.00000000000E+00 -0.46163293431E+02  0.46163293706E+02  0.50400001928E-02 0. -1.
    10030    2    1    2    0    0  0.00000000000E+00  0.00000000000E+00  0.13506288059E+04  0.14429553931E+04  0.50786031051E+03 0.  0.
        1    1    3    3  502    0  0.66235532670E+02 -0.83347789378E+02  0.13303215883E+04  0.13345746619E+04  0.50400001928E-02 0.  1.
       -1    1    3    3    0  502 -0.66235532670E+02  0.83347789378E+02  0.20307217624E+02  0.10838073120E+03  0.50400001928E-02 0. -1.
</event>
<event>
 5   0  0.1827698E-01  0.4954014E+03  0.7818609E-02  0.1014986E+00
       -2   -1    0    0    0  501  0.00000000000E+00  0.00000000000E+00  0.45200627880E+03  0.45200627880E+03  0.25500000920E-02 0. -1.
        2   -1    0    0  501    0  0.00000000000E+00  0.00000000000E+00 -0.13574065649E+03  0.13574065652E+03  0.25500000920E-02 0.  1.
    10030    2    1    2    0    0  0.00000000000E+00  0.00000000000E+00  0.31626562230E+03  0.58774693532E+03  0.49540136872E+03 0.  0.
        1    1    3    3  502    0  0.19648368532E+03 -0.12819768949E+03  0.25241393689E+03  0.34460598043E+03  0.50400001928E-02 0. -1.
       -1    1    3    3    0  502 -0.19648368532E+03  0.12819768949E+03  0.63851685414E+02  0.24314095489E+03  0.50400001928E-02 0.  1.
</event>
<event>
 5   0  0.1068522E-01  0.5047128E+03  0.7818609E-02  0.1012556E+00
        1   -1    0    0  501    0  0.00000000000E+00  0.00000000000E+00  0.86028233401E+03  0.86028233402E+03  0.50400001928E-02 0. -1.
       -1   -1    0    0    0  501  0.00000000000E+00  0.00000000000E+00 -0.74026572841E+02  0.74026573012E+02  0.50400001928E-02 0.  1.
    10030    2    1    2    0    0  0.00000000000E+00  0.00000000000E+00  0.78625576117E+03  0.93430890703E+03  0.50471280130E+03 0.  0.
        2    1    3    3  502    0  0.23101042932E+03  0.56990754136E+01  0.20538740061E+03  0.30916384370E+03  0.25500000920E-02 0.  1.
       -2    1    3    3    0  502 -0.23101042932E+03 -0.56990754136E+01  0.58086836055E+03  0.62514506333E+03  0.25500000920E-02 0. -1.
</event>
<event>
 5   0  0.1074281E-01  0.4954383E+03  0.7818609E-02  0.1014976E+00
        1   -1    0    0  501    0  0.00000000000E+00  0.00000000000E+00  0.30127291096E+03  0.30127291100E+03  0.50400001928E-02 0. -1.
       -1   -1    0    0    0  501  0.00000000000E+00  0.00000000000E+00 -0.20368500030E+03  0.20368500036E+03  0.50400001928E-02 0.  1.
    10030    2    1    2    0    0  0.00000000000E+00  0.00000000000E+00  0.97587910658E+02  0.50495791136E+03  0.49543828267E+03 0.  0.
        4    1    3    3  502    0 -0.19882263927E+03  0.70513993596E+02 -0.83548984705E+02  0.22690242600E+03  0.12699999809E+01 0.  1.
       -4    1    3    3    0  502  0.19882263927E+03 -0.70513993596E+02  0.18113689536E+03  0.27805548536E+03  0.12699999809E+01 0. -1.
</event>
<event>
 5   0  0.1147245E-01  0.5018251E+03  0.7818609E-02  0.1013304E+00
        1   -1    0    0  501    0  0.00000000000E+00  0.00000000000E+00  0.80014661528E+03  0.80014661529E+03  0.50400001928E-02 0. -1.
       -1   -1    0    0    0  501  0.00000000000E+00  0.00000000000E+00 -0.78681976389E+02  0.78681976551E+02  0.50400001928E-02 0.  1.
    10030    2    1    2    0    0  0.00000000000E+00  0.00000000000E+00  0.72146463889E+03  0.87882859184E+03  0.50182513755E+03 0.  0.
        1    1    3    3  502    0 -0.13561508672E+03 -0.20969137231E+03  0.31800742917E+03  0.40433976851E+03  0.50400001928E-02 0.  1.
       -1    1    3    3    0  502  0.13561508672E+03  0.20969137231E+03  0.40345720971E+03  0.47448882333E+03  0.50400001928E-02 0. -1.
</event>
<event>
 5   0  0.1147245E-01  0.5003954E+03  0.7818609E-02  0.1013676E+00
        1   -1    0    0  501    0  0.00000000000E+00  0.00000000000E+00  0.11618671276E+04  0.11618671276E+04  0.50400001928E-02 0. -1.
       -1   -1    0    0    0  501  0.00000000000E+00  0.00000000000E+00 -0.53877828258E+02  0.53877828494E+02  0.50400001928E-02 0.  1.
    10030    2    1    2    0    0  0.00000000000E+00  0.00000000000E+00  0.11079892993E+04  0.12157449561E+04  0.50039535453E+03 0.  0.
        1    1    3    3  502    0 -0.15856246140E+03  0.17026480676E+01  0.10241895046E+04  0.10363923459E+04  0.50400001928E-02 0. -1.
       -1    1    3    3    0  502  0.15856246140E+03 -0.17026480676E+01  0.83799794721E+02  0.17935261023E+03  0.50400001928E-02 0.  1.
</event>
<event>
 5   0  0.1147245E-01  0.4193771E+03  0.7818609E-02  0.1037269E+00
       -1   -1    0    0    0  501  0.00000000000E+00  0.00000000000E+00  0.37513505425E+03  0.37513505429E+03  0.50400001928E-02 0. -1.
        1   -1    0    0  501    0  0.00000000000E+00  0.00000000000E+00 -0.11720924370E+03  0.11720924381E+03  0.50400001928E-02 0.  1.
    10030    2    1    2    0    0  0.00000000000E+00  0.00000000000E+00  0.25792581055E+03  0.49234429810E+03  0.41937713829E+03 0.  0.
        1    1    3    3  502    0 -0.14357193363E+03 -0.72623807773E+02 -0.28903433125E+02  0.16347026046E+03  0.50400001928E-02 0.  1.
       -1    1    3    3    0  502  0.14357193363E+03  0.72623807773E+02  0.28682924368E+03  0.32887403764E+03  0.50400001928E-02 0. -1.
</event>
<event>
 5   0  0.7220250E-02  0.4962224E+03  0.7818609E-02  0.1014770E+00
        3   -1    0    0  501    0  0.00000000000E+00  0.00000000000E+00  0.57172733150E+03  0.57172734043E+03  0.10100000352E+00 0.  1.
       -3   -1    0    0    0  501  0.00000000000E+00  0.00000000000E+00 -0.10767223264E+03  0.10767228002E+03  0.10100000352E+00 0. -1.
    10030    2    1    2    0    0  0.00000000000E+00  0.00000000000E+00  0.46405509886E+03  0.67939962044E+03  0.49622243951E+03 0.  0.
        1    1    3    3  502    0 -0.38310307860E+02  0.23149382898E+03  0.34242928050E+03  0.41510828071E+03  0.50400001928E-02 0.  1.
       -1    1    3    3    0  502  0.38310307860E+02 -0.23149382898E+03  0.12162581836E+03  0.26429133974E+03  0.50400001928E-02 0. -1.
</event>
<event>
 5   0  0.1068522E-01  0.4988947E+03  0.7818609E-02  0.1014068E+00
        1   -1    0    0  501    0  0.00000000000E+00  0.00000000000E+00  0.20829092961E+03  0.20829092967E+03  0.50400001928E-02 0.  1.
       -1   -1    0    0    0  501  0.00000000000E+00  0.00000000000E+00 -0.29873589464E+03  0.29873589468E+03  0.50400001928E-02 0. -1.
    10030    2    1    2    0    0  0.00000000000E+00  0.00000000000E+00 -0.90444965023E+02  0.50702682435E+03  0.49889468720E+03 0.  0.
        2    1    3    3  502    0 -0.24091951170E+03  0.45256385168E+02  0.17216345421E+01  0.24513937984E+03  0.25500000920E-02 0.  1.
       -2    1    3    3    0  502  0.24091951170E+03 -0.45256385168E+02 -0.92166599565E+02  0.26188744452E+03  0.25500000920E-02 0. -1.
</event>
<event>
 5   0  0.1074281E-01  0.4725640E+03  0.7818609E-02  0.1021199E+00
       -1   -1    0    0    0  501  0.00000000000E+00  0.00000000000E+00  0.21860804784E+03  0.21860804790E+03  0.50400001928E-02 0.  1.
        1   -1    0    0  501    0  0.00000000000E+00  0.00000000000E+00 -0.25538484964E+03  0.25538484969E+03  0.50400001928E-02 0. -1.
    10030    2    1    2    0    0  0.00000000000E+00  0.00000000000E+00 -0.36776801793E+02  0.47399289759E+03  0.47256399970E+03 0.  0.
        4    1    3    3  502    0  0.79231700074E+02 -0.19127888086E+03 -0.13258474516E+03  0.24585686915E+03  0.12699999809E+01 0. -1.
       -4    1    3    3    0  502 -0.79231700074E+02  0.19127888086E+03  0.95807943367E+02  0.22813602844E+03  0.12699999809E+01 0.  1.
</event>
<event>
 5   0  0.1683148E-01  0.4978833E+03  0.7818609E-02  0.1014333E+00
        2   -1    0    0  501    0  0.00000000000E+00  0.00000000000E+00  0.85928096788E+03  0.85928096789E+03  0.25500000920E-02 0.  1.
       -2   -1    0    0    0  501  0.00000000000E+00  0.00000000000E+00 -0.72120692935E+02  0.72120692980E+02  0.25500000920E-02 0. -1.
    10030    2    1    2    0    0  0.00000000000E+00  0.00000000000E+00  0.78716027495E+03  0.93140166087E+03  0.49788327488E+03 0.  0.
        2    1    3    3  502    0 -0.20828302724E+03 -0.32918321143E+02  0.14606077458E+03  0.25651351852E+03  0.25500000920E-02 0. -1.
       -2    1    3    3    0  502  0.20828302724E+03  0.32918321143E+02  0.64109950037E+03  0.67488814235E+03  0.25500000920E-02 0.  1.
</event>
<event>
 5   0  0.7220250E-02  0.4931000E+03  0.7818609E-02  0.1015596E+00
       -4   -1    0    0    0  501  0.00000000000E+00  0.00000000000E+00  0.17869996525E+03  0.17870447806E+03  0.12699999809E+01 0. -1.
        4   -1    0    0  501    0  0.00000000000E+00  0.00000000000E+00 -0.34015187910E+03  0.34015424995E+03  0.12699999809E+01 0.  1.
    10030    2    1    2    0    0  0.00000000000E+00  0.00000000000E+00 -0.16145191386E+03  0.51885872801E+03  0.49310004983E+03 0.  0.
        1    1    3    3  502    0 -0.16474833793E+03  0.69763821534E+02  0.97776294652E+02  0.20388528507E+03  0.50400001928E-02 0. -1.
       -1    1    3    3    0  502  0.16474833793E+03 -0.69763821534E+02 -0.25922820851E+03  0.31497344294E+03  0.50400001928E-02 0.  1.
</event>
<event>
 5   0  0.1141970E-01  0.4950792E+03  0.7818609E-02  0.1015071E+00
        1   -1    0    0  501    0  0.00000000000E+00  0.00000000000E+00  0.29139268255E+03  0.29139268260E+03  0.50400001928E-02 0. -1.
       -1   -1    0    0    0  501  0.00000000000E+00  0.00000000000E+00 -0.21028615332E+03  0.21028615338E+03  0.50400001928E-02 0.  1.
    10030    2    1    2    0    0  0.00000000000E+00  0.00000000000E+00  0.81106529233E+02  0.50167883597E+03  0.49507917082E+03 0.  0.
        3    1    3    3  502    0  0.14734909636E+03 -0.16323301333E+03  0.15573049694E+03  0.26946014681E+03  0.10100000352E+00 0. -1.
       -3    1    3    3    0  502 -0.14734909636E+03  0.16323301333E+03 -0.74623967710E+02  0.23221868916E+03  0.10100000352E+00 0.  1.
</event>
<event>
 5   0  0.1709372E-01  0.5059931E+03  0.7818609E-02  0.1012226E+00
        2   -1    0    0  501    0  0.00000000000E+00  0.00000000000E+00  0.13725619527E+04  0.13725619527E+04  0.25500000920E-02 0.  1.
       -2   -1    0    0    0  501  0.00000000000E+00  0.00000000000E+00 -0.46633413570E+02  0.46633413640E+02  0.25500000920E-02 0. -1.
    10030    2    1    2    0    0  0.00000000000E+00  0.00000000000E+00  0.13259285391E+04  0.14191953663E+04  0.50599307996E+03 0.  0.
        4    1    3    3  502    0  0.16647748343E+02  0.11804964306E+03  0.37099142983E+02  0.12486322542E+03  0.12699999809E+01 0. -1.
       -4    1    3    3    0  502 -0.16647748343E+02 -0.11804964306E+03  0.12888293961E+04  0.12943321409E+04  0.12699999809E+01 0.  1.
</event>
<event>
 5   0  0.1827698E-01  0.4954884E+03  0.7818609E-02  0.1014963E+00
        2   -1    0    0  501    0  0.00000000000E+00  0.00000000000E+00  0.34374737717E+03  0.34374737718E+03  0.25500000920E-02 0.  1.
       -2   -1    0    0    0  501  0.00000000000E+00  0.00000000000E+00 -0.17855319304E+03  0.17855319305E+03  0.25500000920E-02 0. -1.
    10030    2    1    2    0    0  0.00000000000E+00  0.00000000000E+00  0.16519418413E+03  0.52230057023E+03  0.49548841277E+03 0.  0.
        1    1    3    3  502    0  0.20737821872E+03 -0.10356009758E+03  0.17477483677E+03  0.29030443160E+03  0.50400001928E-02 0. -1.
       -1    1    3    3    0  502 -0.20737821872E+03  0.10356009758E+03 -0.95806526383E+01  0.23199613863E+03  0.50400001928E-02 0.  1.
</event>
<event>
 5   0  0.1683148E-01  0.5031759E+03  0.7818609E-02  0.1012953E+00
       -2   -1    0    0    0  501  0.00000000000E+00  0.00000000000E+00  0.12017654052E+03  0.12017654055E+03  0.25500000920E-02 0.  1.
        2   -1    0    0  501    0  0.00000000000E+00  0.00000000000E+00 -0.52669598795E+03  0.52669598796E+03  0.25500000920E-02 0. -1.
    10030    2    1    2    0    0  0.00000000000E+00  0.00000000000E+00 -0.40651944743E+03  0.64687252851E+03  0.50317592052E+03 0.  0.
        2    1    3    3  502    0  0.12038563829E+03 -0.11475287812E+03  0.39424058292E+02  0.17092449012E+03  0.25500000920E-02 0.  1.
       -2    1    3    3    0  502 -0.12038563829E+03  0.11475287812E+03 -0.44594350573E+03  0.47594803839E+03  0.25500000920E-02 0. -1.
</event>
<event>
 5   0  0.1760649E-01  0.4958415E+03  0.7818609E-02  0.1014870E+00
        2   -1    0    0  501    0  0.00000000000E+00  0.00000000000E+00  0.21964332837E+03  0.21964332838E+03  0.25500000920E-02 0.  1.
       -2   -1    0    0    0  501  0.00000000000E+00  0.00000000000E+00 -0.27983870502E+03  0.27983870503E+03  0.25500000920E-02 0. -1.
    10030    2    1    2    0    0  0.00000000000E+00  0.00000000000E+00 -0.60195376655E+02  0.49948203342E+03  0.49584152542E+03 0.  0.
        5    1    3    3  502    0  0.36687461593E+02  0.24478006947E+03 -0.16606736190E+02  0.24811514652E+03  0.46999998093E+01 0.  1.
       -5    1    3    3    0  502 -0.36687461593E+02 -0.24478006947E+03 -0.43588640465E+02  0.25136688689E+03  0.46999998093E+01 0. -1.
</event>
<event>
 5   0  0.1068522E-01  0.4992282E+03  0.7818609E-02  0.1013981E+00
       -1   -1    0    0    0  501  0.00000000000E+00  0.00000000000E+00  0.81644399313E+02  0.81644399469E+02  0.50400001928E-02 0.  1.
        1   -1    0    0  501    0  0.00000000000E+00  0.00000000000E+00 -0.76315335433E+03  0.76315335435E+03  0.50400001928E-02 0. -1.
    10030    2    1    2    0    0  0.00000000000E+00  0.00000000000E+00 -0.68150895502E+03  0.84479775382E+03  0.49922819340E+03 0.  0.
        2    1    3    3  502    0  0.24087052106E+03 -0.64189577968E+02 -0.36270674996E+03  0.44010805072E+03  0.25500000920E-02 0. -1.
       -2    1    3    3    0  502 -0.24087052106E+03  0.64189577968E+02 -0.31880220506E+03  0.40468970309E+03  0.25500000920E-02 0.  1.
</event>
<event>
 5   0  0.1827698E-01  0.4387885E+03  0.7818609E-02  0.1031119E+00
       -2   -1    0    0    0  501  0.00000000000E+00  0.00000000000E+00  0.17376429070E+03  0.17376429072E+03  0.25500000920E-02 0. -1.
        2   -1    0    0  501    0  0.00000000000E+00  0.00000000000E+00 -0.27700649627E+03  0.27700649629E+03  0.25500000920E-02 0.  1.
    10030    2    1    2    0    0  0.00000000000E+00  0.00000000000E+00 -0.10324220558E+03  0.45077078700E+03  0.43878850190E+03 0.  0.
        1    1    3    3  502    0 -0.15096643049E+03 -0.51778387248E+02  0.10302870386E+03  0.18996520304E+03  0.50400001928E-02 0. -1.
       -1    1    3    3    0  502  0.15096643049E+03  0.51778387248E+02 -0.20627090944E+03  0.26080558396E+03  0.50400001928E-02 0.  1.
</event>
<event>
 5   0  0.1074281E-01  0.3664373E+03  0.7818609E-02  0.1056064E+00
       -1   -1    0    0    0  501  0.00000000000E+00  0.00000000000E+00  0.34908938785E+02  0.34908939149E+02  0.50400001928E-02 0. -1.
        1   -1    0    0  501    0  0.00000000000E+00  0.00000000000E+00 -0.96161838358E+03  0.96161838359E+03  0.50400001928E-02 0.  1.
    10030    2    1    2    0    0  0.00000000000E+00  0.00000000000E+00 -0.92670944480E+03  0.99652732274E+03  0.36643732056E+03 0.  0.
        4    1    3    3  502    0 -0.76960268207E+02  0.40856777159E+02 -0.90165308018E+03  0.90585431998E+03  0.12699999809E+01 0.  1.
       -4    1    3    3    0  502  0.76960268207E+02 -0.40856777159E+02 -0.25056364611E+02  0.90673002761E+02  0.12699999809E+01 0. -1.
</event>
<event>
 5   0  0.7220250E-02  0.4970369E+03  0.7818609E-02  0.1014555E+00
       -4   -1    0    0    0  501  0.00000000000E+00  0.00000000000E+00  0.27189239151E+03  0.27189535756E+03  0.12699999809E+01 0.  1.
        4   -1    0    0  501    0  0.00000000000E+00  0.00000000000E+00 -0.22714792749E+03  0.22715147780E+03  0.12699999809E+01 0. -1.
    10030    2    1    2    0    0  0.00000000000E+00  0.00000000000E+00  0.44744464017E+02  0.49904683535E+03  0.49703689683E+03 0.  0.
        4    1    3    3  502    0  0.95012003755E+02  0.15126940082E+03  0.19584269075E+03  0.26507675285E+03  0.12699999809E+01 0.  1.
       -4    1    3    3    0  502 -0.95012003755E+02 -0.15126940082E+03 -0.15109822673E+03  0.23397008250E+03  0.12699999809E+01 0. -1.
</event>
<event>
 5   0  0.7220250E-02  0.4970918E+03  0.7818609E-02  0.1014541E+00
       -3   -1    0    0    0  501  0.00000000000E+00  0.00000000000E+00  0.18927403451E+03  0.18927406146E+03  0.10100000352E+00 0. -1.
        3   -1    0    0  501    0  0.00000000000E+00  0.00000000000E+00 -0.32637884621E+03  0.32637886184E+03  0.10100000352E+00 0.  1.
    10030    2    1    2    0    0  0.00000000000E+00  0.00000000000E+00 -0.13710481170E+03  0.51565292330E+03  0.49709175000E+03 0.  0.
        5    1    3    3  502    0 -0.49142160297E+02  0.60038354414E+02 -0.31344673089E+03  0.32294039547E+03  0.46999998093E+01 0.  1.
       -5    1    3    3    0  502  0.49142160297E+02 -0.60038354414E+02  0.17634191920E+03  0.19271252783E+03  0.46999998093E+01 0. -1.
</event>
<event>
 5   0  0.1147245E-01  0.5011476E+03  0.7818609E-02  0.1013480E+00
        1   -1    0    0  501    0  0.00000000000E+00  0.00000000000E+00  0.23984192669E+03  0.23984192674E+03  0.50400001928E-02 0.  1.
       -1   -1    0    0    0  501  0.00000000000E+00  0.00000000000E+00 -0.26178592359E+03  0.26178592364E+03  0.50400001928E-02 0. -1.
    10030    2    1    2    0    0  0.00000000000E+00  0.00000000000E+00 -0.21943996897E+02  0.50162785038E+03  0.50114764419E+03 0.  0.
        1    1    3    3  502    0  0.95046116809E+02 -0.22991090122E+03 -0.40908071151E+02  0.25212349579E+03  0.50400001928E-02 0. -1.
       -1    1    3    3    0  502 -0.95046116809E+02  0.22991090122E+03  0.18964074253E+02  0.24950435459E+03  0.50400001928E-02 0.  1.
</event>
<event>
 5   0  0.1123271E-01  0.4970311E+03  0.7818609E-02  0.1014557E+00
        1   -1    0    0  501    0  0.00000000000E+00  0.00000000000E+00  0.26935125235E+03  0.26935125239E+03  0.50400001928E-02 0.  1.
       -1   -1    0    0    0  501  0.00000000000E+00  0.00000000000E+00 -0.22929162959E+03  0.22929162965E+03  0.50400001928E-02 0. -1.
    10030    2    1    2    0    0  0.00000000000E+00  0.00000000000E+00  0.40059622755E+02  0.49864288204E+03  0.49703113628E+03 0.  0.
        5    1    3    3  502    0 -0.17276860098E+03  0.17721376523E+03  0.42105473024E+02  0.25109494007E+03  0.46999998093E+01 0. -1.
       -5    1    3    3    0  502  0.17276860098E+03 -0.17721376523E+03 -0.20458502693E+01  0.24754794197E+03  0.46999998093E+01 0.  1.
</event>
<event>
 5   0  0.7220250E-02  0.5032515E+03  0.7818609E-02  0.1012934E+00
        4   -1    0    0  501    0  0.00000000000E+00  0.00000000000E+00  0.28372436184E+03  0.28372720420E+03  0.12699999809E+01 0.  1.
       -4   -1    0    0    0  501  0.00000000000E+00  0.00000000000E+00 -0.22315278202E+03  0.22315639588E+03  0.12699999809E+01 0. -1.
    10030    2    1    2    0    0  0.00000000000E+00  0.00000000000E+00  0.60571579821E+02  0.50688360008E+03  0.50325149552E+03 0.  0.
        4    1    3    3  502    0  0.61815109495E+01  0.13338171176E+03 -0.18452560852E+03  0.22777226612E+03  0.12699999809E+01 0. -1.
       -4    1    3    3    0  502 -0.61815109495E+01 -0.13338171176E+03  0.24509718835E+03  0.27911133396E+03  0.12699999809E+01 0.  1.
</event>
<event>
 5   0  0.1827698E-01  0.4983884E+03  0.7818609E-02  0.1014200E+00
        2   -1    0    0  501    0  0.00000000000E+00  0.00000000000E+00  0.16939767145E+03  0.16939767147E+03  0.25500000920E-02 0.  1.
       -2   -1    0    0    0  501  0.00000000000E+00  0.00000000000E+00 -0.36657970445E+03  0.36657970446E+03  0.25500000920E-02 0. -1.
    10030    2    1    2    0    0  0.00000000000E+00  0.00000000000E+00 -0.19718203301E+03  0.53597737593E+03  0.49838839610E+03 0.  0.
        1    1    3    3  502    0 -0.65049867934E+02  0.20863834736E+03 -0.22735580587E+03  0.31536028252E+03  0.50400001928E-02 0. -1.
       -1    1    3    3    0  502  0.65049867934E+02 -0.20863834736E+03  0.30173772862E+02  0.22061709340E+03  0.50400001928E-02 0.  1.
</event>
<event>
 5   0  0.1782124E-01  0.4472579E+03  0.7818609E-02  0.1028543E+00
       -2   -1    0    0    0  501  0.00000000000E+00  0.00000000000E+00  0.18585473978E+03  0.18585473980E+03  0.25500000920E-02 0.  1.
        2   -1    0    0  501    0  0.00000000000E+00  0.00000000000E+00 -0.26908063995E+03  0.26908063997E+03  0.25500000920E-02 0. -1.
    10030    2    1    2    0    0  0.00000000000E+00  0.00000000000E+00 -0.83225900170E+02  0.45493537977E+03  0.44725792257E+03 0.  0.
        3    1    3    3  502    0 -0.32644312681E+02  0.50332786141E+02 -0.26074277211E+03  0.26755531002E+03  0.10100000352E+00 0. -1.
       -3    1    3    3    0  502  0.32644312681E+02 -0.50332786141E+02  0.17751687194E+03  0.18738006974E+03  0.10100000352E+00 0.  1.
</event>
<event>
 5   0  0.1147245E-01  0.5039226E+03  0.7818609E-02  0.1012760E+00
       -1   -1    0    0    0  501  0.00000000000E+00  0.00000000000E+00  0.60594099912E+02  0.60594100121E+02  0.50400001928E-02 0.  1.
        1   -1    0    0  501    0  0.00000000000E+00  0.00000000000E+00 -0.10477008348E+04  0.10477008348E+04  0.50400001928E-02 0. -1.
    10030    2    1    2    0    0  0.00000000000E+00  0.00000000000E+00 -0.98710673491E+03  0.11082949350E+04  0.50392257018E+03 0.  0.
        1    1    3    3  502    0 -0.12530076368E+03 -0.93101681128E+02 -0.92853441771E+03  0.94156485136E+03  0.50400001928E-02 0. -1.
       -1    1    3    3    0  502  0.12530076368E+03  0.93101681128E+02 -0.58572317194E+02  0.16673008359E+03  0.50400001928E-02 0.  1.
</event>
<event>
 5   0  0.1068522E-01  0.5009583E+03  0.7818609E-02  0.1013529E+00
       -1   -1    0    0    0  501  0.00000000000E+00  0.00000000000E+00  0.46876276731E+02  0.46876277002E+02  0.50400001928E-02 0. -1.
        1   -1    0    0  501    0  0.00000000000E+00  0.00000000000E+00 -0.13384128794E+04  0.13384128794E+04  0.50400001928E-02 0.  1.
    10030    2    1    2    0    0  0.00000000000E+00  0.00000000000E+00 -0.12915366026E+04  0.13852891564E+04  0.50095833243E+03 0.  0.
        2    1    3    3  502    0  0.89076011667E+02 -0.78131617264E+02 -0.35520036371E+02  0.12369623463E+03  0.25500000920E-02 0. -1.
       -2    1    3    3    0  502 -0.89076011667E+02  0.78131617264E+02 -0.12560165663E+04  0.12615929217E+04  0.25500000920E-02 0.  1.
</event>
<event>
 5   0  0.1123271E-01  0.4446570E+03  0.7818609E-02  0.1029327E+00
       -1   -1    0    0    0  501  0.00000000000E+00  0.00000000000E+00  0.24997885997E+03  0.24997886002E+03  0.50400001928E-02 0. -1.
        1   -1    0    0  501    0  0.00000000000E+00  0.00000000000E+00 -0.19773655706E+03  0.19773655712E+03  0.50400001928E-02 0.  1.
    10030    2    1    2    0    0  0.00000000000E+00  0.00000000000E+00  0.52242302911E+02  0.44771541714E+03  0.44465698750E+03 0.  0.
        5    1    3    3  502    0 -0.16240812781E+03 -0.14210660655E+03  0.79752718949E+02  0.23011578343E+03  0.46999998093E+01 0. -1.
       -5    1    3    3    0  502  0.16240812781E+03  0.14210660655E+03 -0.27510416038E+02  0.21759963372E+03  0.46999998093E+01 0.  1.
</event>
<event>
 5   0  0.1074281E-01  0.5038470E+03  0.7818609E-02  0.1012780E+00
       -1   -1    0    0    0  501  0.00000000000E+00  0.00000000000E+00  0.14994759170E+03  0.14994759178E+03  0.50400001928E-02 0. -1.
        1   -1    0    0  501    0  0.00000000000E+00  0.00000000000E+00 -0.42325093532E+03  0.42325093535E+03  0.50400001928E-02 0.  1.
    10030    2    1    2    0    0  0.00000000000E+00  0.00000000000E+00 -0.27330334363E+03  0.57319852713E+03  0.50384703420E+03 0.  0.
        4    1    3    3  502    0 -0.13515593927E+02  0.21089804547E+03 -0.29265077855E+03  0.36098025977E+03  0.12699999809E+01 0.  1.
       -4    1    3    3    0  502  0.13515593927E+02 -0.21089804547E+03  0.19347434918E+02  0.21221826736E+03  0.12699999809E+01 0. -1.
</event>
<event>
 5   0  0.1068522E-01  0.4674703E+03  0.7818609E-02  0.1022637E+00
       -1   -1    0    0    0  501  0.00000000000E+00  0.00000000000E+00  0.32942354114E+02  0.32942354499E+02  0.50400001928E-02 0. -1.
        1   -1    0    0  501    0  0.00000000000E+00  0.00000000000E+00 -0.16584155214E+04  0.16584155214E+04  0.50400001928E-02 0.  1.
    10030    2    1    2    0    0  0.00000000000E+00  0.00000000000E+00 -0.16254731673E+04  0.16913578759E+04  0.46747026304E+03 0.  0.
        2    1    3    3  502    0  0.16860246482E+03  0.15780658033E+03 -0.68216329545E+03  0.72019196719E+03  0.25500000920E-02 0.  1.
       -2    1    3    3    0  502 -0.16860246482E+03 -0.15780658033E+03 -0.94330987183E+03  0.97116590871E+03  0.25500000920E-02 0. -1.
</event>
<event>
 5   0  0.1141970E-01  0.4833856E+03  0.7818609E-02  0.1018209E+00
        1   -1    0    0  501    0  0.00000000000E+00  0.00000000000E+00  0.88674960381E+03  0.88674960383E+03  0.50400001928E-02 0. -1.
       -1   -1    0    0    0  501  0.00000000000E+00  0.00000000000E+00 -0.65875874863E+02  0.65875875056E+02  0.50400001928E-02 0.  1.
    10030    2    1    2    0    0  0.00000000000E+00  0.00000000000E+00  0.82087372895E+03  0.95262547888E+03  0.48338558536E+03 0.  0.
        3    1    3    3  502    0 -0.41372334912E+02  0.21937496444E+03  0.59296524322E+03  0.63359674477E+03  0.10100000352E+00 0. -1.
       -3    1    3    3    0  502  0.41372334912E+02 -0.21937496444E+03  0.22790848573E+03  0.31902873411E+03  0.10100000352E+00 0.  1.
</event>
<event>
 5   0  0.1827698E-01  0.4974364E+03  0.7818609E-02  0.1014450E+00
        2   -1    0    0  501    0  0.00000000000E+00  0.00000000000E+00  0.42839994250E+03  0.42839994251E+03  0.25500000920E-02 0. -1.
       -2   -1    0    0    0  501  0.00000000000E+00  0.00000000000E+00 -0.14439951694E+03  0.14439951696E+03  0.25500000920E-02 0.  1.
    10030    2    1    2    0    0  0.00000000000E+00  0.00000000000E+00  0.28400042556E+03  0.57279945946E+03  0.49743640704E+03 0.  0.
        1    1    3    3  502    0  0.19882913413E+02  0.24099939502E+03  0.20899260912E+03  0.31961531462E+03  0.50400001928E-02 0. -1.
       -1    1    3    3    0  502 -0.19882913413E+02 -0.24099939502E+03  0.75007816442E+02  0.25318414484E+03  0.50400001928E-02 0.  1.
</event>
<event>
 5   0  0.1123271E-01  0.5002633E+03  0.7818609E-02  0.1013710E+00
       -1   -1    0    0    0  501  0.00000000000E+00  0.00000000000E+00  0.10547663069E+03  0.10547663081E+03  0.50400001928E-02 0. -1.
        1   -1    0    0  501    0  0.00000000000E+00  0.00000000000E+00 -0.59317262306E+03  0.59317262308E+03  0.50400001928E-02 0.  1.
    10030    2    1    2    0    0  0.00000000000E+00  0.00000000000E+00 -0.48769599237E+03  0.69864925389E+03  0.50026332964E+03 0.  0.
        5    1    3    3  502    0 -0.22645693964E+02  0.15973882824E+03 -0.51071375082E+03  0.53561174929E+03  0.46999998093E+01 0.  1.
       -5    1    3    3    0  502  0.22645693964E+02 -0.15973882824E+03  0.23017758449E+02  0.16303750460E+03  0.46999998093E+01 0. -1.
</event>
<event>
 5   0  0.1683148E-01  0.5044983E+03  0.7818609E-02  0.1012611E+00
        2   -1    0    0  501    0  0.00000000000E+00  0.00000000000E+00  0.13459833125E+03  0.13459833128E+03  0.25500000920E-02 0. -1.
       -2   -1    0    0    0  501  0.00000000000E+00  0.00000000000E+00 -0.47273715395E+03  0.47273715395E+03  0.25500000920E-02 0.  1.
    10030    2    1    2    0    0  0.00000000000E+00  0.00000000000E+00 -0.33813882269E+03  0.60733548523E+03  0.50449829357E+03 0.  0.
        2    1    3    3  502    0  0.10702424917E+03  0.82374388309E+02 -0.42554650223E+03  0.44646338632E+03  0.25500000920E-02 0.  1.
       -2    1    3    3    0  502 -0.10702424917E+03 -0.82374388309E+02  0.87407679539E+02  0.16087209891E+03  0.25500000920E-02 0. -1.
</event>
<event>
 5   0  0.1068522E-01  0.4980227E+03  0.7818609E-02  0.1014296E+00
        1   -1    0    0  501    0  0.00000000000E+00  0.00000000000E+00  0.48696313306E+03  0.48696313308E+03  0.50400001928E-02 0.  1.
       -1   -1    0    0    0  501  0.00000000000E+00  0.00000000000E+00 -0.12733335688E+03  0.12733335698E+03  0.50400001928E-02 0. -1.
    10030    2    1    2    0    0  0.00000000000E+00  0.00000000000E+00  0.35962977618E+03  0.61429649006E+03  0.49802269204E+03 0.  0.
        2    1    3    3  502    0  0.10094970191E+03  0.53943278981E+02  0.45259309281E+03  0.46684175834E+03  0.25500000920E-02 0.  1.
       -2    1    3    3    0  502 -0.10094970191E+03 -0.53943278981E+02 -0.92963316631E+02  0.14745473172E+03  0.25500000920E-02 0. -1.
</event>
<event>
 5   0  0.1782124E-01  0.5094399E+03  0.7818609E-02  0.1011344E+00
        2   -1    0    0  501    0  0.00000000000E+00  0.00000000000E+00  0.14206121794E+04  0.14206121794E+04  0.25500000920E-02 0. -1.
       -2   -1    0    0    0  501  0.00000000000E+00  0.00000000000E+00 -0.45672030342E+02  0.45672030414E+02  0.25500000920E-02 0.  1.
    10030    2    1    2    0    0  0.00000000000E+00  0.00000000000E+00  0.13749401490E+04  0.14662842098E+04  0.50943985951E+03 0.  0.
        3    1    3    3  502    0 -0.84945905722E+02 -0.23899740419E+03  0.75476563116E+03  0.79624539828E+03  0.10100000352E+00 0. -1.
       -3    1    3    3    0  502  0.84945905722E+02  0.23899740419E+03  0.62017451789E+03  0.67003881152E+03  0.10100000352E+00 0.  1.
</event>
<event>
 5   0  0.1074281E-01  0.5003129E+03  0.7818609E-02  0.1013697E+00
       -1   -1    0    0    0  501  0.00000000000E+00  0.00000000000E+00  0.55017336597E+03  0.55017336599E+03  0.50400001928E-02 0.  1.
        1   -1    0    0  501    0  0.00000000000E+00  0.00000000000E+00 -0.11374276535E+03  0.11374276547E+03  0.50400001928E-02 0. -1.
    10030    2    1    2    0    0  0.00000000000E+00  0.00000000000E+00  0.43643060061E+03  0.66391613146E+03  0.50031286258E+03 0.  0.
        4    1    3    3  502    0  0.52927205355E+02  0.18224296306E+03  0.43449154020E+03  0.47412898883E+03  0.12699999809E+01 0.  1.
       -4    1    3    3    0  502 -0.52927205355E+02 -0.18224296306E+03  0.19390604171E+01  0.18978714262E+03  0.12699999809E+01 0. -1.
</event>
<event>
 5   0  0.1782124E-01  0.4969510E+03  0.7818609E-02  0.1014578E+00
        2   -1    0    0  501    0  0.00000000000E+00  0.00000000000E+00  0.29116271882E+03  0.29116271883E+03  0.25500000920E-02 0.  1.
       -2   -1    0    0    0  501  0.00000000000E+00  0.00000000000E+00 -0.21204659636E+03  0.21204659637E+03  0.25500000920E-02 0. -1.
    10030    2    1    2    0    0  0.00000000000E+00  0.00000000000E+00  0.79116122460E+02  0.50320931520E+03  0.49695095741E+03 0.  0.
        3    1    3    3  502    0  0.21706774154E+02  0.13078465149E+03 -0.17324140863E+03  0.21814766782E+03  0.10100000352E+00 0. -1.
       -3    1    3    3    0  502 -0.21706774154E+02 -0.13078465149E+03  0.25235753109E+03  0.28506164738E+03  0.10100000352E+00 0.  1.
</event>
<event>
 5   0  0.1141970E-01  0.4944503E+03  0.7818609E-02  0.1015238E+00
        1   -1    0    0  501    0  0.00000000000E+00  0.00000000000E+00  0.88128276028E+03  0.88128276029E+03  0.50400001928E-02 0. -1.
       -1   -1    0    0    0  501  0.00000000000E+00  0.00000000000E+00 -0.69353771137E+02  0.69353771320E+02  0.50400001928E-02 0.  1.
    10030    2    1    2    0    0  0.00000000000E+00  0.00000000000E+00  0.81192898914E+03  0.95063653161E+03  0.49445033303E+03 0.  0.
        3    1    3    3  502    0 -0.24510154932E+03  0.26827580313E+02  0.44066668133E+03  0.50495705043E+03  0.10100000352E+00 0.  1.
       -3    1    3    3    0  502  0.24510154932E+03 -0.26827580313E+02  0.37126230781E+03  0.44567948118E+03  0.10100000352E+00 0. -1.
</event>
<event>
 5   0  0.1123271E-01  0.4896841E+03  0.7818609E-02  0.1016507E+00
        1   -1    0    0  501    0  0.00000000000E+00  0.00000000000E+00  0.14119885097E+03  0.14119885106E+03  0.50400001928E-02 0.  1.
       -1   -1    0    0    0  501  0.00000000000E+00  0.00000000000E+00 -0.42456174835E+03  0.42456174838E+03  0.50400001928E-02 0. -1.
    10030    2    1    2    0    0  0.00000000000E+00  0.00000000000E+00 -0.28336289738E+03  0.56576059944E+03  0.48968410661E+03 0.  0.
        5    1    3    3  502    0 -0.11652477305E+03  0.17745881952E+03 -0.28250197572E+03  0.35341068411E+03  0.46999998093E+01 0. -1.
       -5    1    3    3    0  502  0.11652477305E+03 -0.17745881952E+03 -0.86092166741E+00  0.21234991534E+03  0.46999998093E+01 0.  1.
</event>
<event>
 5   0  0.1147245E-01  0.5020956E+03  0.7818609E-02  0.1013233E+00
       -1   -1    0    0    0  501  0.00000000000E+00  0.00000000000E+00  0.86617042801E+02  0.86617042948E+02  0.50400001928E-02 0. -1.
        1   -1    0    0  501    0  0.00000000000E+00  0.00000000000E+00 -0.72762825268E+03  0.72762825269E+03  0.50400001928E-02 0.  1.
    10030    2    1    2    0    0  0.00000000000E+00  0.00000000000E+00 -0.64101120988E+03  0.81424529564E+03  0.50209563859E+03 0.  0.
        1    1    3    3  502    0 -0.18431216008E+03  0.15864868671E+03 -0.21943063858E+03  0.32755180250E+03  0.50400001928E-02 0. -1.
       -1    1    3    3    0  502  0.18431216008E+03 -0.15864868671E+03 -0.42158057130E+03  0.48669349314E+03  0.50400001928E-02 0.  1.
</event>
<event>
 5   0  0.1760649E-01  0.4997891E+03  0.7818609E-02  0.1013834E+00
        2   -1    0    0  501    0  0.00000000000E+00  0.00000000000E+00  0.34976794025E+03  0.34976794026E+03  0.25500000920E-02 0.  1.
       -2   -1    0    0    0  501  0.00000000000E+00  0.00000000000E+00 -0.17853921048E+03  0.17853921050E+03  0.25500000920E-02 0. -1.
    10030    2    1    2    0    0  0.00000000000E+00  0.00000000000E+00  0.17122872977E+03  0.52830715077E+03  0.49978912318E+03 0.  0.
        5    1    3    3  502    0 -0.17083975724E+03  0.18048325318E+03  0.58359948187E+02  0.25532019286E+03  0.46999998093E+01 0. -1.
       -5    1    3    3    0  502  0.17083975724E+03 -0.18048325318E+03  0.11286878158E+03  0.27298695791E+03  0.46999998093E+01 0.  1.
</event>
<event>
 5   0  0.1827698E-01  0.5008622E+03  0.7818609E-02  0.1013554E+00
       -2   -1    0    0    0  501  0.00000000000E+00  0.00000000000E+00  0.18985992991E+03  0.18985992993E+03  0.25500000920E-02 0.  1.
        2   -1    0    0  501    0  0.00000000000E+00  0.00000000000E+00 -0.33032636342E+03  0.33032636343E+03  0.25500000920E-02 0. -1.
    10030    2    1    2    0    0  0.00000000000E+00  0.00000000000E+00 -0.14046643350E+03  0.52018629335E+03  0.50086221743E+03 0.  0.
        1    1    3    3  502    0  0.21978764792E+03 -0.88155750379E+02  0.14382148991E+02  0.23724437346E+03  0.50400001928E-02 0.  1.
       -1    1    3    3    0  502 -0.21978764792E+03  0.88155750379E+02 -0.15484858250E+03  0.28294191989E+03  0.50400001928E-02 0. -1.
</event>
<event>
 5   0  0.1827698E-01  0.5017502E+03  0.7818609E-02  0.1013323E+00
       -2   -1    0    0    0  501  0.00000000000E+00  0.00000000000E+00  0.13291130895E+03  0.13291130897E+03  0.25500000920E-02 0.  1.
        2   -1    0    0  501    0  0.00000000000E+00  0.00000000000E+00 -0.47353613197E+03  0.47353613197E+03  0.25500000920E-02 0. -1.
    10030    2    1    2    0    0  0.00000000000E+00  0.00000000000E+00 -0.34062482302E+03  0.60644744095E+03  0.50175016549E+03 0.  0.
        1    1    3    3  502    0  0.14981284347E+03  0.68815576957E+02 -0.39887088488E+03  0.43159871934E+03  0.50400001928E-02 0. -1.
       -1    1    3    3    0  502 -0.14981284347E+03 -0.68815576957E+02  0.58246061866E+02  0.17484872161E+03  0.50400001928E-02 0.  1.
</event>
<event>
 5   0  0.1068522E-01  0.4939738E+03  0.7818609E-02  0.1015364E+00
       -1   -1    0    0    0  501  0.00000000000E+00  0.00000000000E+00  0.21203984548E+03  0.21203984554E+03  0.50400001928E-02 0. -1.
        1   -1    0    0  501    0  0.00000000000E+00  0.00000000000E+00 -0.28769368612E+03  0.28769368617E+03  0.50400001928E-02 0.  1.
    10030    2    1    2    0    0  0.00000000000E+00  0.00000000000E+00 -0.75653840649E+02  0.49973353170E+03  0.49397378382E+03 0.  0.
        2    1    3    3  502    0 -0.42331935727E+02 -0.20329882697E+03 -0.17310262105E+03  0.27034593256E+03  0.25500000920E-02 0.  1.
       -2    1    3    3    0  502  0.42331935727E+02  0.20329882697E+03  0.97448780405E+02  0.22938759914E+03  0.25500000920E-02 0. -1.
</event>
<event>
 5   0  0.1760649E-01  0.5039669E+03  0.7818609E-02  0.1012749E+00
       -2   -1    0    0    0  501  0.00000000000E+00  0.00000000000E+00  0.27205008918E+03  0.27205008919E+03  0.25500000920E-02 0.  1.
        2   -1    0    0  501    0  0.00000000000E+00  0.00000000000E+00 -0.23339690717E+03  0.23339690718E+03  0.25500000920E-02 0. -1.
    10030    2    1    2    0    0  0.00000000000E+00  0.00000000000E+00  0.38653182012E+02  0.50544699637E+03  0.50396686167E+03 0.  0.
        5    1    3    3  502    0 -0.20623355026E+03 -0.10832913090E+03 -0.76903533760E+02  0.24536446637E+03  0.46999998093E+01 0. -1.
       -5    1    3    3    0  502  0.20623355026E+03  0.10832913090E+03  0.11555671577E+03  0.26008253000E+03  0.46999998093E+01 0.  1.
</event>
<event>
 5   0  0.1683148E-01  0.5019845E+03  0.7818609E-02  0.1013262E+00
       -2   -1    0    0    0  501  0.00000000000E+00  0.00000000000E+00  0.43889210701E+02  0.43889210775E+02  0.25500000920E-02 0. -1.
        2   -1    0    0  501    0  0.00000000000E+00  0.00000000000E+00 -0.14353665121E+04  0.14353665121E+04  0.25500000920E-02 0.  1.
    10030    2    1    2    0    0  0.00000000000E+00  0.00000000000E+00 -0.13914773014E+04  0.14792557229E+04  0.50198447521E+03 0.  0.
        2    1    3    3  502    0 -0.14424483875E+03  0.19015819049E+03 -0.92457539429E+03  0.95488552751E+03  0.25500000920E-02 0.  1.
       -2    1    3    3    0  502  0.14424483875E+03 -0.19015819049E+03 -0.46690190708E+03  0.52437019534E+03  0.25500000920E-02 0. -1.
</event>
<event>
 5   0  0.1123271E-01  0.5084665E+03  0.7818609E-02  0.1011592E+00
        1   -1    0    0  501    0  0.00000000000E+00  0.00000000000E+00  0.36635360702E+03  0.36635360705E+03  0.50400001928E-02 0.  1.
       -1   -1    0    0    0  501  0.00000000000E+00  0.00000000000E+00 -0.17642665208E+03  0.17642665216E+03  0.50400001928E-02 0. -1.
    10030    2    1    2    0    0  0.00000000000E+00  0.00000000000E+00  0.18992695493E+03  0.54278025921E+03  0.50846648029E+03 0.  0.
        5    1    3    3  502    0  0.20528887516E+03 -0.85659738162E+02 -0.36347300220E+02  0.22544251870E+03  0.46999998093E+01 0. -1.
       -5    1    3    3    0  502 -0.20528887516E+03  0.85659738162E+02  0.22627425515E+03  0.31733774051E+03  0.46999998093E+01 0.  1.
</event>
<event>
 5   0  0.1074281E-01  0.4998551E+03  0.7818609E-02  0.1013817E+00
        1   -1    0    0  501    0  0.00000000000E+00  0.00000000000E+00  0.17372328781E+03  0.17372328789E+03  0.50400001928E-02 0. -1.
       -1   -1    0    0    0  501  0.00000000000E+00  0.00000000000E+00 -0.35955898199E+03  0.35955898202E+03  0.50400001928E-02 0.  1.
    10030    2    1    2    0    0  0.00000000000E+00  0.00000000000E+00 -0.18583569417E+03  0.53328226991E+03  0.49985505316E+03 0.  0.
        4    1    3    3  502    0 -0.35122083252E+02  0.15362713693E+02 -0.35640022070E+03  0.35845823176E+03  0.12699999809E+01 0.  1.
       -4    1    3    3    0  502  0.35122083252E+02 -0.15362713693E+02  0.17056452653E+03  0.17482403815E+03  0.12699999809E+01 0. -1.
</event>
<event>
 5   0  0.1141970E-01  0.4797938E+03  0.7818609E-02  0.1019192E+00
        1   -1    0    0  501    0  0.00000000000E+00  0.00000000000E+00  0.15716429747E+03  0.15716429755E+03  0.50400001928E-02 0.  1.
       -1   -1    0    0    0  501  0.00000000000E+00  0.00000000000E+00 -0.36618063610E+03  0.36618063614E+03  0.50400001928E-02 0. -1.
    10030    2    1    2    0    0  0.00000000000E+00  0.00000000000E+00 -0.20901633863E+03  0.52334493369E+03  0.47979379925E+03 0.  0.
        3    1    3    3  502    0  0.22318596643E+03 -0.82418918455E+02 -0.70965272741E+02  0.24827592285E+03  0.10100000352E+00 0. -1.
       -3    1    3    3    0  502 -0.22318596643E+03  0.82418918455E+02 -0.13805106589E+03  0.27506901084E+03  0.10100000352E+00 0.  1.
</event>
<event>
 5   0  0.1141970E-01  0.5043756E+03  0.7818609E-02  0.1012643E+00
        1   -1    0    0  501    0  0.00000000000E+00  0.00000000000E+00  0.34585552528E+03  0.34585552531E+03  0.50400001928E-02 0. -1.
       -1   -1    0    0    0  501  0.00000000000E+00  0.00000000000E+00 -0.18388805044E+03  0.18388805050E+03  0.50400001928E-02 0.  1.
    10030    2    1    2    0    0  0.00000000000E+00  0.00000000000E+00  0.16196747484E+03  0.52974357582E+03  0.50437564693E+03 0.  0.
        3    1    3    3  502    0  0.88586197533E+02 -0.13091797329E+03  0.28736526132E+03  0.32797230636E+03  0.10100000352E+00 0. -1.
       -3    1    3    3    0  502 -0.88586197533E+02  0.13091797329E+03 -0.12539778648E+03  0.20177126946E+03  0.10100000352E+00 0.  1.
</event>
<event>
 5   0  0.1683148E-01  0.5078094E+03  0.7818609E-02  0.1011760E+00
       -2   -1    0    0    0  501  0.00000000000E+00  0.00000000000E+00  0.63987097587E+02  0.63987097638E+02  0.25500000920E-02 0. -1.
        2   -1    0    0  501    0  0.00000000000E+00  0.00000000000E+00 -0.10075092939E+04  0.10075092939E+04  0.25500000920E-02 0.  1.
    10030    2    1    2    0    0  0.00000000000E+00  0.00000000000E+00 -0.94352219631E+03  0.10714963915E+04  0.50780939549E+03 0.  0.
        2    1    3    3  502    0 -0.15228149565E+03  0.18833389611E+03 -0.31095076670E+03  0.39414424981E+03  0.25500000920E-02 0.  1.
       -2    1    3    3    0  502  0.15228149565E+03 -0.18833389611E+03 -0.63257142961E+03  0.67735214173E+03  0.25500000920E-02 0. -1.
</event>
<event>
 5   0  0.1683148E-01  0.4943325E+03  0.7818609E-02  0.1015269E+00
       -2   -1    0    0    0  501  0.00000000000E+00  0.00000000000E+00  0.90720873591E+02  0.90720873626E+02  0.25500000920E-02 0.  1.
        2   -1    0    0  501    0  0.00000000000E+00  0.00000000000E+00 -0.67339687047E+03  0.67339687047E+03  0.25500000920E-02 0. -1.
    10030    2    1    2    0    0  0.00000000000E+00  0.00000000000E+00 -0.58267599688E+03  0.76411774410E+03  0.49433248883E+03 0.  0.
        2    1    3    3  502    0  0.13941693531E+03 -0.11488438271E+03 -0.30587360837E+02  0.18322415204E+03  0.25500000920E-02 0.  1.
       -2    1    3    3    0  502 -0.13941693531E+03  0.11488438271E+03 -0.55208863604E+03  0.58089359206E+03  0.25500000920E-02 0. -1.
</event>
<event>
 5   0  0.1074281E-01  0.4945976E+03  0.7818609E-02  0.1015199E+00
       -1   -1    0    0    0  501  0.00000000000E+00  0.00000000000E+00  0.69612911554E+02  0.69612911737E+02  0.50400001928E-02 0. -1.
        1   -1    0    0  501    0  0.00000000000E+00  0.00000000000E+00 -0.87852513965E+03  0.87852513966E+03  0.50400001928E-02 0.  1.
    10030    2    1    2    0    0  0.00000000000E+00  0.00000000000E+00 -0.80891222810E+03  0.94813805140E+03  0.49459758567E+03 0.  0.
        4    1    3    3  502    0  0.64315489971E+02 -0.10362392675E+03 -0.81685686562E+03  0.82591231511E+03  0.12699999809E+01 0.  1.
       -4    1    3    3    0  502 -0.64315489971E+02  0.10362392675E+03  0.79446375221E+01  0.12222573629E+03  0.12699999809E+01 0. -1.
</event>
<event>
 5   0  0.1147245E-01  0.4980257E+03  0.7818609E-02  0.1014296E+00
        1   -1    0    0  501    0  0.00000000000E+00  0.00000000000E+00  0.49762856795E+03  0.49762856797E+03  0.50400001928E-02 0.  1.
       -1   -1    0    0    0  501  0.00000000000E+00  0.00000000000E+00 -0.12460577919E+03  0.12460577930E+03  0.50400001928E-02 0. -1.
    10030    2    1    2    0    0  0.00000000000E+00  0.00000000000E+00  0.37302278875E+03  0.62223434727E+03  0.49802568407E+03 0.  0.
        1    1    3    3  502    0  0.10523547137E+03  0.14717534425E+03  0.40027350596E+03  0.43926525697E+03  0.50400001928E-02 0.  1.
       -1    1    3    3    0  502 -0.10523547137E+03 -0.14717534425E+03 -0.27250717201E+02  0.18296909029E+03  0.50400001928E-02 0. -1.
</event>
<event>
 5   0  0.7220250E-02  0.4974218E+03  0.7818609E-02  0.1014454E+00
       -3   -1    0    0    0  501  0.00000000000E+00  0.00000000000E+00  0.14742306795E+03  0.14742310255E+03  0.10100000352E+00 0.  1.
        3   -1    0    0  501    0  0.00000000000E+00  0.00000000000E+00 -0.41958902838E+03  0.41958904054E+03  0.10100000352E+00 0. -1.
    10030    2    1    2    0    0  0.00000000000E+00  0.00000000000E+00 -0.27216596043E+03  0.56701214309E+03  0.49742181334E+03 0.  0.
        5    1    3    3  502    0  0.10550876812E+03  0.50038322984E+02 -0.38634039746E+03  0.40362968997E+03  0.46999998093E+01 0. -1.
       -5    1    3    3    0  502 -0.10550876812E+03 -0.50038322984E+02  0.11417443703E+03  0.16338245312E+03  0.46999998093E+01 0.  1.
</event>
<event>
 5   0  0.1074281E-01  0.5392815E+03  0.7818609E-02  0.1004006E+00
        1   -1    0    0  501    0  0.00000000000E+00  0.00000000000E+00  0.38711766561E+03  0.38711766564E+03  0.50400001928E-02 0.  1.
       -1   -1    0    0    0  501  0.00000000000E+00  0.00000000000E+00 -0.18781401728E+03  0.18781401735E+03  0.50400001928E-02 0. -1.
    10030    2    1    2    0    0  0.00000000000E+00  0.00000000000E+00  0.19930364833E+03  0.57493168299E+03  0.53928146257E+03 0.  0.
        4    1    3    3  502    0  0.14667260818E+03 -0.68613026608E+01  0.34075368192E+03  0.37104530196E+03  0.12699999809E+01 0.  1.
       -4    1    3    3    0  502 -0.14667260818E+03  0.68613026608E+01 -0.14145003359E+03  0.20388638103E+03  0.12699999809E+01 0. -1.
</event>
<event>
 5   0  0.7220250E-02  0.4902729E+03  0.7818609E-02  0.1016349E+00
       -3   -1    0    0    0  501  0.00000000000E+00  0.00000000000E+00  0.19890264194E+03  0.19890266758E+03  0.10100000352E+00 0.  1.
        3   -1    0    0  501    0  0.00000000000E+00  0.00000000000E+00 -0.30211698227E+03  0.30211699916E+03  0.10100000352E+00 0. -1.
    10030    2    1    2    0    0  0.00000000000E+00  0.00000000000E+00 -0.10321434034E+03  0.50101966673E+03  0.49027288973E+03 0.  0.
        1    1    3    3  502    0 -0.56860482283E+02 -0.11111417532E+03  0.16399712619E+03  0.20609350263E+03  0.50400001928E-02 0.  1.
       -1    1    3    3    0  502  0.56860482283E+02  0.11111417532E+03 -0.26721146653E+03  0.29492616410E+03  0.50400001928E-02 0. -1.
</event>
<event>
 5   0  0.7220250E-02  0.4978796E+03  0.7818609E-02  0.1014334E+00
        3   -1    0    0  501    0  0.00000000000E+00  0.00000000000E+00  0.92266026631E+02  0.92266081911E+02  0.10100000352E+00 0.  1.
       -3   -1    0    0    0  501  0.00000000000E+00  0.00000000000E+00 -0.67165559741E+03  0.67165560500E+03  0.10100000352E+00 0. -1.
    10030    2    1    2    0    0  0.00000000000E+00  0.00000000000E+00 -0.57938957078E+03  0.76392168692E+03  0.49787957280E+03 0.  0.
        2    1    3    3  502    0 -0.17724234735E+03  0.14514480485E+03 -0.14023021443E+03  0.26860077645E+03  0.25500000920E-02 0.  1.
       -2    1    3    3    0  502  0.17724234735E+03 -0.14514480485E+03 -0.43915935635E+03  0.49532091046E+03  0.25500000920E-02 0. -1.
</event>
<event>
 5   0  0.1141970E-01  0.4995765E+03  0.7818609E-02  0.1013890E+00
        1   -1    0    0  501    0  0.00000000000E+00  0.00000000000E+00  0.38882124780E+03  0.38882124783E+03  0.50400001928E-02 0.  1.
       -1   -1    0    0    0  501  0.00000000000E+00  0.00000000000E+00 -0.16047005394E+03  0.16047005402E+03  0.50400001928E-02 0. -1.
    10030    2    1    2    0    0  0.00000000000E+00  0.00000000000E+00  0.22835119386E+03  0.54929130186E+03  0.49957648720E+03 0.  0.
        3    1    3    3  502    0 -0.97483051587E+00 -0.10530742553E+03  0.36321866068E+03  0.37817774899E+03  0.10100000352E+00 0.  1.
       -3    1    3    3    0  502  0.97483051587E+00  0.10530742553E+03 -0.13486746682E+03  0.17111355287E+03  0.10100000352E+00 0. -1.
</event>
<event>
 5   0  0.1709372E-01  0.4975742E+03  0.7818609E-02  0.1014414E+00
       -2   -1    0    0    0  501  0.00000000000E+00  0.00000000000E+00  0.87257287023E+03  0.87257287023E+03  0.25500000920E-02 0. -1.
        2   -1    0    0  501    0  0.00000000000E+00  0.00000000000E+00 -0.70933936303E+02  0.70933936349E+02  0.25500000920E-02 0.  1.
    10030    2    1    2    0    0  0.00000000000E+00  0.00000000000E+00  0.80163893392E+03  0.94350680658E+03  0.49757422931E+03 0.  0.
        4    1    3    3  502    0  0.22885630285E+03 -0.90561993225E+02  0.33201191458E+03  0.41329191414E+03  0.12699999809E+01 0. -1.
       -4    1    3    3    0  502 -0.22885630285E+03  0.90561993225E+02  0.46962701934E+03  0.53021489244E+03  0.12699999809E+01 0.  1.
</event>
<event>
 5   0  0.1782124E-01  0.5209403E+03  0.7818609E-02  0.1008453E+00
        2   -1    0    0  501    0  0.00000000000E+00  0.00000000000E+00  0.94078699606E+02  0.94078699640E+02  0.25500000920E-02 0.  1.
       -2   -1    0    0    0  501  0.00000000000E+00  0.00000000000E+00 -0.72114843343E+03  0.72114843344E+03  0.25500000920E-02 0. -1.
    10030    2    1    2    0    0  0.00000000000E+00  0.00000000000E+00 -0.62706973383E+03  0.81522713308E+03  0.52094033000E+03 0.  0.
        3    1    3    3  502    0 -0.21878042307E+03  0.74751886666E+02 -0.12579742458E+03  0.26320661145E+03  0.10100000352E+00 0.  1.
       -3    1    3    3    0  502  0.21878042307E+03 -0.74751886666E+02 -0.50127230925E+03  0.55202052163E+03  0.10100000352E+00 0. -1.
</event>
<event>
 5   0  0.1827698E-01  0.4978473E+03  0.7818609E-02  0.1014342E+00
       -2   -1    0    0    0  501  0.00000000000E+00  0.00000000000E+00  0.13842833866E+03  0.13842833868E+03  0.25500000920E-02 0.  1.
        2   -1    0    0  501    0  0.00000000000E+00  0.00000000000E+00 -0.44761779332E+03  0.44761779333E+03  0.25500000920E-02 0. -1.
    10030    2    1    2    0    0  0.00000000000E+00  0.00000000000E+00 -0.30918945466E+03  0.58604613201E+03  0.49784731593E+03 0.  0.
        1    1    3    3  502    0 -0.86559433814E+02  0.32949029791E+02  0.11738998756E+03  0.14952786814E+03  0.50400001928E-02 0.  1.
       -1    1    3    3    0  502  0.86559433814E+02 -0.32949029791E+02 -0.42657944222E+03  0.43651826387E+03  0.50400001928E-02 0. -1.
</event>
<event>
 5   0  0.7220250E-02  0.4970625E+03  0.7818609E-02  0.1014549E+00
        3   -1    0    0  501    0  0.00000000000E+00  0.00000000000E+00  0.37543940526E+03  0.37543941885E+03  0.10100000352E+00 0.  1.
       -3   -1    0    0    0  501  0.00000000000E+00  0.00000000000E+00 -0.16452125921E+03  0.16452129021E+03  0.10100000352E+00 0. -1.
    10030    2    1    2    0    0  0.00000000000E+00  0.00000000000E+00  0.21091814605E+03  0.53996070906E+03  0.49706247393E+03 0.  0.
        4    1    3    3  502    0  0.20854225272E+02 -0.17023701689E+03 -0.89926503637E+02  0.19365931319E+03  0.12699999809E+01 0. -1.
       -4    1    3    3    0  502 -0.20854225272E+02  0.17023701689E+03  0.30084464969E+03  0.34630139587E+03  0.12699999809E+01 0.  1.
</event>
<event>
 5   0  0.1782124E-01  0.4999783E+03  0.7818609E-02  0.1013785E+00
       -2   -1    0    0    0  501  0.00000000000E+00  0.00000000000E+00  0.12087344584E+03  0.12087344586E+03  0.25500000920E-02 0. -1.
        2   -1    0    0  501    0  0.00000000000E+00  0.00000000000E+00 -0.51702484969E+03  0.51702484970E+03  0.25500000920E-02 0.  1.
    10030    2    1    2    0    0  0.00000000000E+00  0.00000000000E+00 -0.39615140386E+03  0.63789829556E+03  0.49997830023E+03 0.  0.
        3    1    3    3  502    0 -0.55376258251E+01 -0.91848414044E+02  0.98481722474E+02  0.13477928745E+03  0.10100000352E+00 0. -1.
       -3    1    3    3    0  502  0.55376258251E+01  0.91848414044E+02 -0.49463312633E+03  0.50311900812E+03  0.10100000352E+00 0.  1.
</event>
<event>
 5   0  0.1760649E-01  0.5123149E+03  0.7818609E-02  0.1010614E+00
       -2   -1    0    0    0  501  0.00000000000E+00  0.00000000000E+00  0.14318302073E+03  0.14318302076E+03  0.25500000920E-02 0.  1.
        2   -1    0    0  501    0  0.00000000000E+00  0.00000000000E+00 -0.45827107871E+03  0.45827107871E+03  0.25500000920E-02 0. -1.
    10030    2    1    2    0    0  0.00000000000E+00  0.00000000000E+00 -0.31508805797E+03  0.60145409947E+03  0.51231489291E+03 0.  0.
        5    1    3    3  502    0  0.16063122496E+03 -0.20938182226E+02  0.75350114000E+02  0.17871913044E+03  0.46999998093E+01 0.  1.
       -5    1    3    3    0  502 -0.16063122496E+03  0.20938182226E+02 -0.39043817197E+03  0.42273496903E+03  0.46999998093E+01 0. -1.
</event>
<event>
 5   0  0.1760649E-01  0.4979610E+03  0.7818609E-02  0.1014312E+00
       -2   -1    0    0    0  501  0.00000000000E+00  0.00000000000E+00  0.12197797241E+03  0.12197797244E+03  0.25500000920E-02 0.  1.
        2   -1    0    0  501    0  0.00000000000E+00  0.00000000000E+00 -0.50821710944E+03  0.50821710945E+03  0.25500000920E-02 0. -1.
    10030    2    1    2    0    0  0.00000000000E+00  0.00000000000E+00 -0.38623913703E+03  0.63019508189E+03  0.49796101279E+03 0.  0.
        5    1    3    3  502    0 -0.62480933052E+02 -0.21615515542E+03 -0.58338177704E+02  0.23249161530E+03  0.46999998093E+01 0.  1.
       -5    1    3    3    0  502  0.62480933052E+02  0.21615515542E+03 -0.32790095933E+03  0.39770346659E+03  0.46999998093E+01 0. -1.
</event>
<event>
 5   0  0.1147245E-01  0.5078857E+03  0.7818609E-02  0.1011741E+00
        1   -1    0    0  501    0  0.00000000000E+00  0.00000000000E+00  0.98401596443E+02  0.98401596572E+02  0.50400001928E-02 0.  1.
       -1   -1    0    0    0  501  0.00000000000E+00  0.00000000000E+00 -0.65534480835E+03  0.65534480837E+03  0.50400001928E-02 0. -1.
    10030    2    1    2    0    0  0.00000000000E+00  0.00000000000E+00 -0.55694321190E+03  0.75374640494E+03  0.50788571714E+03 0.  0.
        1    1    3    3  502    0 -0.25136540037E+03 -0.31998628855E+02 -0.25370475473E+03  0.35857297632E+03  0.50400001928E-02 0.  1.
       -1    1    3    3    0  502  0.25136540037E+03  0.31998628855E+02 -0.30323845718E+03  0.39517342862E+03  0.50400001928E-02 0. -1.
</event>
<event>
 5   0  0.1709372E-01  0.5155889E+03  0.7818609E-02  0.1009788E+00
       -2   -1    0    0    0  501  0.00000000000E+00  0.00000000000E+00  0.16741182334E+03  0.16741182336E+03  0.25500000920E-02 0. -1.
        2   -1    0    0  501    0  0.00000000000E+00  0.00000000000E+00 -0.39697304579E+03  0.39697304580E+03  0.25500000920E-02 0.  1.
    10030    2    1    2    0    0  0.00000000000E+00  0.00000000000E+00 -0.22956122245E+03  0.56438486915E+03  0.51558891151E+03 0.  0.
        4    1    3    3  502    0 -0.88032314133E+02 -0.73766371429E+02  0.13785442816E+03  0.17943417218E+03  0.12699999809E+01 0. -1.
       -4    1    3    3    0  502  0.88032314133E+02  0.73766371429E+02 -0.36741565061E+03  0.38495069697E+03  0.12699999809E+01 0.  1.
</event>
<event>
 5   0  0.1141970E-01  0.5081662E+03  0.7818609E-02  0.1011669E+00
        1   -1    0    0  501    0  0.00000000000E+00  0.00000000000E+00  0.84001505869E+03  0.84001505871E+03  0.50400001928E-02 0.  1.
       -1   -1    0    0    0  501  0.00000000000E+00  0.00000000000E+00 -0.76853642252E+02  0.76853642417E+02  0.50400001928E-02 0. -1.
    10030    2    1    2    0    0  0.00000000000E+00  0.00000000000E+00  0.76316141644E+03  0.91686870112E+03  0.50816618105E+03 0.  0.
        3    1    3    3  502    0  0.12104138218E+02 -0.44561108064E+02 -0.69219551081E+02  0.83207926105E+02  0.10100000352E+00 0. -1.
       -3    1    3    3    0  502 -0.12104138218E+02  0.44561108064E+02  0.83238096752E+03  0.83366077502E+03  0.10100000352E+00 0.  1.
</event>
<event>
 5   0  0.7220250E-02  0.5020675E+03  0.7818609E-02  0.1013241E+00
        3   -1    0    0  501    0  0.00000000000E+00  0.00000000000E+00  0.39468372494E+03  0.39468373787E+03  0.10100000352E+00 0. -1.
       -3   -1    0    0    0  501  0.00000000000E+00  0.00000000000E+00 -0.15966689758E+03  0.15966692953E+03  0.10100000352E+00 0.  1.
    10030    2    1    2    0    0  0.00000000000E+00  0.00000000000E+00  0.23501682736E+03  0.55435066740E+03  0.50206747883E+03 0.  0.
        3    1    3    3  502    0 -0.18391287437E+03  0.16613501837E+02  0.30526985808E+03  0.35677675128E+03  0.10100000352E+00 0. -1.
       -3    1    3    3    0  502  0.18391287437E+03 -0.16613501837E+02 -0.70253030718E+02  0.19757391611E+03  0.10100000352E+00 0.  1.
</event>
<event>
 5   0  0.1068522E-01  0.5063287E+03  0.7818609E-02  0.1012140E+00
        1   -1    0    0  501    0  0.00000000000E+00  0.00000000000E+00  0.32636937739E+03  0.32636937743E+03  0.50400001928E-02 0.  1.
       -1   -1    0    0    0  501  0.00000000000E+00  0.00000000000E+00 -0.19637932122E+03  0.19637932129E+03  0.50400001928E-02 0. -1.
    10030    2    1    2    0    0  0.00000000000E+00  0.00000000000E+00  0.12999005617E+03  0.52274869872E+03  0.50632873443E+03 0.  0.
        2    1    3    3  502    0  0.13614517523E+03  0.98752575141E+02  0.26035244400E+03  0.30995318185E+03  0.25500000920E-02 0.  1.
       -2    1    3    3    0  502 -0.13614517523E+03 -0.98752575141E+02 -0.13036238783E+03  0.21279551687E+03  0.25500000920E-02 0. -1.
</event>
<event>
 5   0  0.1074281E-01  0.4522936E+03  0.7818609E-02  0.1027040E+00
        1   -1    0    0  501    0  0.00000000000E+00  0.00000000000E+00  0.27891501225E+03  0.27891501230E+03  0.50400001928E-02 0. -1.
       -1   -1    0    0    0  501  0.00000000000E+00  0.00000000000E+00 -0.18336187349E+03  0.18336187356E+03  0.50400001928E-02 0.  1.
    10030    2    1    2    0    0  0.00000000000E+00  0.00000000000E+00  0.95553138760E+02  0.46227688586E+03  0.45229361799E+03 0.  0.
        4    1    3    3  502    0 -0.15305496066E+03  0.13166130593E+03  0.15190888815E+03  0.25266270730E+03  0.12699999809E+01 0.  1.
       -4    1    3    3    0  502  0.15305496066E+03 -0.13166130593E+03 -0.56355749386E+02  0.20961417856E+03  0.12699999809E+01 0. -1.
</event>
<event>
 5   0  0.1709372E-01  0.4937319E+03  0.7818609E-02  0.1015428E+00
        2   -1    0    0  501    0  0.00000000000E+00  0.00000000000E+00  0.92082485980E+03  0.92082485980E+03  0.25500000920E-02 0. -1.
       -2   -1    0    0    0  501  0.00000000000E+00  0.00000000000E+00 -0.66182830188E+02  0.66182830238E+02  0.25500000920E-02 0.  1.
    10030    2    1    2    0    0  0.00000000000E+00  0.00000000000E+00  0.85464202961E+03  0.98700769004E+03  0.49373189225E+03 0.  0.
        4    1    3    3  502    0 -0.14106835147E+03  0.18909987788E+03  0.57261052584E+03  0.61930886543E+03  0.12699999809E+01 0. -1.
       -4    1    3    3    0  502  0.14106835147E+03 -0.18909987788E+03  0.28203150377E+03  0.36769882461E+03  0.12699999809E+01 0.  1.
</event>
<event>
 5   0  0.1123271E-01  0.5024963E+03  0.7818609E-02  0.1013129E+00
       -1   -1    0    0    0  501  0.00000000000E+00  0.00000000000E+00  0.23220299470E+03  0.23220299475E+03  0.50400001928E-02 0. -1.
        1   -1    0    0  501    0  0.00000000000E+00  0.00000000000E+00 -0.27185540924E+03  0.27185540929E+03  0.50400001928E-02 0.  1.
    10030    2    1    2    0    0  0.00000000000E+00  0.00000000000E+00 -0.39652414547E+02  0.50405840404E+03  0.50249632905E+03 0.  0.
        5    1    3    3  502    0  0.39968487013E+02  0.21007378333E+03  0.11239810608E+03  0.24162760323E+03  0.46999998093E+01 0. -1.
       -5    1    3    3    0  502 -0.39968487013E+02 -0.21007378333E+03 -0.15205052062E+03  0.26243080081E+03  0.46999998093E+01 0.  1.
</event>
<event>
 5   0  0.7220250E-02  0.5671955E+03  0.7818609E-02  0.9975904E-01
        3   -1    0    0  501    0  0.00000000000E+00  0.00000000000E+00  0.50338029040E+03  0.50338030053E+03  0.10100000352E+00 0. -1.
       -3   -1    0    0    0  501  0.00000000000E+00  0.00000000000E+00 -0.15977514529E+03  0.15977517721E+03  0.10100000352E+00 0.  1.
    10030    2    1    2    0    0  0.00000000000E+00  0.00000000000E+00  0.34360514511E+03  0.66315547774E+03  0.56719546182E+03 0.  0.
        5    1    3    3  502    0 -0.67383492066E+02 -0.69929574508E+02  0.48328605138E+03  0.49296873922E+03  0.46999998093E+01 0. -1.
       -5    1    3    3    0  502  0.67383492066E+02  0.69929574508E+02 -0.13968090627E+03  0.17018673852E+03  0.46999998093E+01 0.  1.
</event>
<event>
 5   0  0.1141970E-01  0.4849673E+03  0.7818609E-02  0.1017779E+00
        1   -1    0    0  501    0  0.00000000000E+00  0.00000000000E+00  0.12276150068E+04  0.12276150068E+04  0.50400001928E-02 0. -1.
       -1   -1    0    0    0  501  0.00000000000E+00  0.00000000000E+00 -0.47896379073E+02  0.47896379338E+02  0.50400001928E-02 0.  1.
    10030    2    1    2    0    0  0.00000000000E+00  0.00000000000E+00  0.11797186277E+04  0.12755113861E+04  0.48496727269E+03 0.  0.
        3    1    3    3  502    0  0.85958967500E+02 -0.18856938029E+02 -0.44134684634E+01  0.88113660180E+02  0.10100000352E+00 0.  1.
       -3    1    3    3    0  502 -0.85958967500E+02  0.18856938029E+02  0.11841320961E+04  0.11873977259E+04  0.10100000352E+00 0. -1.
</event>
<event>
 5   0  0.1123271E-01  0.4815187E+03  0.7818609E-02  0.1018719E+00
       -1   -1    0    0    0  501  0.00000000000E+00  0.00000000000E+00  0.18840355134E+03  0.18840355141E+03  0.50400001928E-02 0.  1.
        1   -1    0    0  501    0  0.00000000000E+00  0.00000000000E+00 -0.30766444255E+03  0.30766444259E+03  0.50400001928E-02 0. -1.
    10030    2    1    2    0    0  0.00000000000E+00  0.00000000000E+00 -0.11926089120E+03  0.49606799400E+03  0.48151873743E+03 0.  0.
        5    1    3    3  502    0  0.17624347027E+03  0.12857133214E+03  0.45181678086E+02  0.22283586402E+03  0.46999998093E+01 0.  1.
       -5    1    3    3    0  502 -0.17624347027E+03 -0.12857133214E+03 -0.16444256929E+03  0.27323212998E+03  0.46999998093E+01 0. -1.
</event>
<event>
 5   0  0.1760649E-01  0.5038472E+03  0.7818609E-02  0.1012780E+00
       -2   -1    0    0    0  501  0.00000000000E+00  0.00000000000E+00  0.16056286073E+03  0.16056286075E+03  0.25500000920E-02 0. -1.
        2   -1    0    0  501    0  0.00000000000E+00  0.00000000000E+00 -0.39526883931E+03  0.39526883932E+03  0.25500000920E-02 0.  1.
    10030    2    1    2    0    0  0.00000000000E+00  0.00000000000E+00 -0.23470597858E+03  0.55583170006E+03  0.50384718161E+03 0.  0.
        5    1    3    3  502    0  0.56636288544E+02  0.10776876143E+03 -0.36060656751E+03  0.38063231819E+03  0.46999998093E+01 0.  1.
       -5    1    3    3    0  502 -0.56636288544E+02 -0.10776876143E+03  0.12590058892E+03  0.17519938188E+03  0.46999998093E+01 0. -1.
</event>
<event>
 5   0  0.1827698E-01  0.4987526E+03  0.7818609E-02  0.1014105E+00
       -2   -1    0    0    0  501  0.00000000000E+00  0.00000000000E+00  0.17311226423E+03  0.17311226425E+03  0.25500000920E-02 0.  1.
        2   -1    0    0  501    0  0.00000000000E+00  0.00000000000E+00 -0.35923827558E+03  0.35923827559E+03  0.25500000920E-02 0. -1.
    10030    2    1    2    0    0  0.00000000000E+00  0.00000000000E+00 -0.18612601135E+03  0.53235053984E+03  0.49875264928E+03 0.  0.
        1    1    3    3  502    0 -0.66054170677E+02  0.11232555329E+03  0.13388266241E+03  0.18682813146E+03  0.50400001928E-02 0.  1.
       -1    1    3    3    0  502  0.66054170677E+02 -0.11232555329E+03 -0.32000867376E+03  0.34552240838E+03  0.50400001928E-02 0. -1.
</event>
<event>
 5   0  0.7220250E-02  0.4998527E+03  0.7818609E-02  0.1013817E+00
       -4   -1    0    0    0  501  0.00000000000E+00  0.00000000000E+00  0.22264421220E+03  0.22264783432E+03  0.12699999809E+01 0.  1.
        4   -1    0    0  501    0  0.00000000000E+00  0.00000000000E+00 -0.28054417215E+03  0.28054704673E+03  0.12699999809E+01 0. -1.
    10030    2    1    2    0    0  0.00000000000E+00  0.00000000000E+00 -0.57899959956E+02  0.50319488105E+03  0.49985266124E+03 0.  0.
        3    1    3    3  502    0  0.22037628933E+03  0.26895061135E+02 -0.14449595039E+03  0.26489270109E+03  0.10100000352E+00 0. -1.
       -3    1    3    3    0  502 -0.22037628933E+03 -0.26895061135E+02  0.86595990432E+02  0.23830217996E+03  0.10100000352E+00 0.  1.
</event>
<event>
 5   0  0.1760649E-01  0.5022480E+03  0.7818609E-02  0.1013194E+00
        2   -1    0    0  501    0  0.00000000000E+00  0.00000000000E+00  0.22602978426E+04  0.22602978426E+04  0.25500000920E-02 0. -1.
       -2   -1    0    0    0  501  0.00000000000E+00  0.00000000000E+00 -0.27900426913E+02  0.27900427030E+02  0.25500000920E-02 0.  1.
    10030    2    1    2    0    0  0.00000000000E+00  0.00000000000E+00  0.22323974157E+04  0.22881982697E+04  0.50224804587E+03 0.  0.
        5    1    3    3  502    0 -0.10602750221E+03 -0.23175446511E+02  0.84686815662E+02  0.13774207524E+03  0.46999998093E+01 0.  1.
       -5    1    3    3    0  502  0.10602750221E+03  0.23175446511E+02  0.21477106001E+04  0.21504561944E+04  0.46999998093E+01 0. -1.
</event>
<event>
 5   0  0.1827698E-01  0.4941074E+03  0.7818609E-02  0.1015329E+00
       -2   -1    0    0    0  501  0.00000000000E+00  0.00000000000E+00  0.16819487651E+03  0.16819487653E+03  0.25500000920E-02 0. -1.
        2   -1    0    0  501    0  0.00000000000E+00  0.00000000000E+00 -0.36288584393E+03  0.36288584393E+03  0.25500000920E-02 0.  1.
    10030    2    1    2    0    0  0.00000000000E+00  0.00000000000E+00 -0.19469096741E+03  0.53108072047E+03  0.49410743656E+03 0.  0.
        1    1    3    3  502    0 -0.40455802538E+02  0.24055657870E+03 -0.55284106204E+02  0.25012091464E+03  0.50400001928E-02 0. -1.
       -1    1    3    3    0  502  0.40455802538E+02 -0.24055657870E+03 -0.13940686121E+03  0.28095980583E+03  0.50400001928E-02 0.  1.
</event>
<event>
 5   0  0.1123271E-01  0.4913914E+03  0.7818609E-02  0.1016051E+00
       -1   -1    0    0    0  501  0.00000000000E+00  0.00000000000E+00  0.57449800942E+02  0.57449801163E+02  0.50400001928E-02 0. -1.
        1   -1    0    0  501    0  0.00000000000E+00  0.00000000000E+00 -0.10507675439E+04  0.10507675439E+04  0.50400001928E-02 0.  1.
    10030    2    1    2    0    0  0.00000000000E+00  0.00000000000E+00 -0.99331774298E+03  0.11082173451E+04  0.49139143812E+03 0.  0.
        5    1    3    3  502    0  0.21774134465E+02  0.24320900022E+03 -0.43616204846E+03  0.49988413981E+03  0.46999998093E+01 0.  1.
       -5    1    3    3    0  502 -0.21774134465E+02 -0.24320900022E+03 -0.55715569452E+03  0.60833320529E+03  0.46999998093E+01 0. -1.
</event>
<event>
 5   0  0.1827698E-01  0.4986815E+03  0.7818609E-02  0.1014124E+00
        2   -1    0    0  501    0  0.00000000000E+00  0.00000000000E+00  0.14390101643E+04  0.14390101643E+04  0.25500000920E-02 0. -1.
       -2   -1    0    0    0  501  0.00000000000E+00  0.00000000000E+00 -0.43203869035E+02  0.43203869110E+02  0.25500000920E-02 0.  1.
    10030    2    1    2    0    0  0.00000000000E+00  0.00000000000E+00  0.13958062953E+04  0.14822140334E+04  0.49868148847E+03 0.  0.
        1    1    3    3  502    0  0.13018196668E+03 -0.15680115805E+03  0.27092124004E+03  0.33901661603E+03  0.50400001928E-02 0.  1.
       -1    1    3    3    0  502 -0.13018196668E+03  0.15680115805E+03  0.11248850552E+04  0.11431974174E+04  0.50400001928E-02 0. -1.
</event>
<event>
 5   0  0.1782124E-01  0.4983113E+03  0.7818609E-02  0.1014221E+00
       -2   -1    0    0    0  501  0.00000000000E+00  0.00000000000E+00  0.89732204708E+02  0.89732204744E+02  0.25500000920E-02 0. -1.
        2   -1    0    0  501    0  0.00000000000E+00  0.00000000000E+00 -0.69182016722E+03  0.69182016723E+03  0.25500000920E-02 0.  1.
    10030    2    1    2    0    0  0.00000000000E+00  0.00000000000E+00 -0.60208796252E+03  0.78155237197E+03  0.49831134397E+03 0.  0.
        3    1    3    3  502    0 -0.33940588532E+02  0.24190381719E+03 -0.37802548322E+03  0.45008076663E+03  0.10100000352E+00 0. -1.
       -3    1    3    3    0  502  0.33940588532E+02 -0.24190381719E+03 -0.22406247929E+03  0.33147160535E+03  0.10100000352E+00 0.  1.
</event>
<event>
 5   0  0.1074281E-01  0.4866973E+03  0.7818609E-02  0.1017311E+00
       -1   -1    0    0    0  501  0.00000000000E+00  0.00000000000E+00  0.39265856368E+03  0.39265856371E+03  0.50400001928E-02 0. -1.
        1   -1    0    0  501    0  0.00000000000E+00  0.00000000000E+00 -0.15081441291E+03  0.15081441299E+03  0.50400001928E-02 0.  1.
    10030    2    1    2    0    0  0.00000000000E+00  0.00000000000E+00  0.24184415077E+03  0.54347297670E+03  0.48669732190E+03 0.  0.
        4    1    3    3  502    0 -0.15190097325E+03 -0.66377855758E+02  0.31985293350E+03  0.36026023563E+03  0.12699999809E+01 0. -1.
       -4    1    3    3    0  502  0.15190097325E+03  0.66377855758E+02 -0.78008782729E+02  0.18321274107E+03  0.12699999809E+01 0.  1.
</event>
<event>
 5   0  0.1068522E-01  0.4978473E+03  0.7818609E-02  0.1014342E+00
        1   -1    0    0  501    0  0.00000000000E+00  0.00000000000E+00  0.54807251592E+02  0.54807251824E+02  0.50400001928E-02 0.  1.
       -1   -1    0    0    0  501  0.00000000000E+00  0.00000000000E+00 -0.11305615984E+04  0.11305615984E+04  0.50400001928E-02 0. -1.
    10030    2    1    2    0    0  0.00000000000E+00  0.00000000000E+00 -0.10757543468E+04  0.11853688502E+04  0.49784726214E+03 0.  0.
        2    1    3    3  502    0  0.12762895114E+02  0.10485624461E+03 -0.12017765083E+01  0.10563696228E+03  0.25500000920E-02 0.  1.
       -2    1    3    3    0  502 -0.12762895114E+02 -0.10485624461E+03 -0.10745525703E+04  0.10797318879E+04  0.25500000920E-02 0. -1.
</event>
<event>
 5   0  0.1147245E-01  0.4933894E+03  0.7818609E-02  0.1015519E+00
       -1   -1    0    0    0  501  0.00000000000E+00  0.00000000000E+00  0.78545939836E+02  0.78545939997E+02  0.50400001928E-02 0. -1.
        1   -1    0    0  501    0  0.00000000000E+00  0.00000000000E+00 -0.77481122300E+03  0.77481122301E+03  0.50400001928E-02 0.  1.
    10030    2    1    2    0    0  0.00000000000E+00  0.00000000000E+00 -0.69626528316E+03  0.85335716301E+03  0.49338940314E+03 0.  0.
        1    1    3    3  502    0  0.14959903870E+03  0.95040079672E+02 -0.64492492223E+03  0.66883528949E+03  0.50400001928E-02 0.  1.
       -1    1    3    3    0  502 -0.14959903870E+03 -0.95040079672E+02 -0.51340360930E+02  0.18452187352E+03  0.50400001928E-02 0. -1.
</event>
<event>
 5   0  0.1760649E-01  0.5028782E+03  0.7818609E-02  0.1013030E+00
        2   -1    0    0  501    0  0.00000000000E+00  0.00000000000E+00  0.15887844998E+04  0.15887844998E+04  0.25500000920E-02 0.  1.
       -2   -1    0    0    0  501  0.00000000000E+00  0.00000000000E+00 -0.39792453058E+02  0.39792453140E+02  0.25500000920E-02 0. -1.
    10030    2    1    2    0    0  0.00000000000E+00  0.00000000000E+00  0.15489920468E+04  0.16285769530E+04  0.50287824649E+03 0.  0.
        5    1    3    3  502    0 -0.12144876614E+02 -0.21333058430E+03  0.12034259089E+04  0.12222575197E+04  0.46999998093E+01 0.  1.
       -5    1    3    3    0  502  0.12144876614E+02  0.21333058430E+03  0.34556613788E+03  0.40631943330E+03  0.46999998093E+01 0. -1.
</event>
<event>
 5   0  0.1147245E-01  0.5092651E+03  0.7818609E-02  0.1011388E+00
        1   -1    0    0  501    0  0.00000000000E+00  0.00000000000E+00  0.21165403252E+03  0.21165403258E+03  0.50400001928E-02 0.  1.
       -1   -1    0    0    0  501  0.00000000000E+00  0.00000000000E+00 -0.30633834763E+03  0.30633834767E+03  0.50400001928E-02 0. -1.
    10030    2    1    2    0    0  0.00000000000E+00  0.00000000000E+00 -0.94684315105E+02  0.51799238025E+03  0.50926514359E+03 0.  0.
        1    1    3    3  502    0 -0.81640927561E+02  0.23947793112E+03 -0.76518673821E+02  0.26432939302E+03  0.50400001928E-02 0. -1.
       -1    1    3    3    0  502  0.81640927561E+02 -0.23947793112E+03 -0.18165641284E+02  0.25366298724E+03  0.50400001928E-02 0.  1.
</event>
<event>
 5   0  0.1123271E-01  0.5018984E+03  0.7818609E-02  0.1013285E+00
        1   -1    0    0  501    0  0.00000000000E+00  0.00000000000E+00  0.41931855931E+03  0.41931855934E+03  0.50400001928E-02 0. -1.
       -1   -1    0    0    0  501  0.00000000000E+00  0.00000000000E+00 -0.15018536841E+03  0.15018536849E+03  0.50400001928E-02 0.  1.
    10030    2    1    2    0    0  0.00000000000E+00  0.00000000000E+00  0.26913319090E+03  0.56950392783E+03  0.50189844528E+03 0.  0.
        5    1    3    3  502    0  0.22343140175E+03 -0.11319651384E+03  0.11779835043E+03  0.27682771429E+03  0.46999998093E+01 0. -1.
       -5    1    3    3    0  502 -0.22343140175E+03  0.11319651384E+03  0.15133484047E+03  0.29267621354E+03  0.46999998093E+01 0.  1.
</event>
<event>
 5   0  0.1760649E-01  0.4967861E+03  0.7818609E-02  0.1014621E+00
        2   -1    0    0  501    0  0.00000000000E+00  0.00000000000E+00  0.11532477024E+04  0.11532477024E+04  0.25500000920E-02 0. -1.
       -2   -1    0    0    0  501  0.00000000000E+00  0.00000000000E+00 -0.53500316632E+02  0.53500316692E+02  0.25500000920E-02 0.  1.
    10030    2    1    2    0    0  0.00000000000E+00  0.00000000000E+00  0.10997473858E+04  0.12067480191E+04  0.49678614019E+03 0.  0.
        5    1    3    3  502    0  0.19389960708E+02  0.18584983742E+03  0.94724585338E+03  0.96551174482E+03  0.46999998093E+01 0. -1.
       -5    1    3    3    0  502 -0.19389960708E+02 -0.18584983742E+03  0.15250153239E+03  0.24123627427E+03  0.46999998093E+01 0.  1.
</event>
<event>
 5   0  0.1827698E-01  0.5001979E+03  0.7818609E-02  0.1013727E+00
       -2   -1    0    0    0  501  0.00000000000E+00  0.00000000000E+00  0.86273852697E+02  0.86273852735E+02  0.25500000920E-02 0.  1.
        2   -1    0    0  501    0  0.00000000000E+00  0.00000000000E+00 -0.72501094856E+03  0.72501094856E+03  0.25500000920E-02 0. -1.
    10030    2    1    2    0    0  0.00000000000E+00  0.00000000000E+00 -0.63873709586E+03  0.81128480130E+03  0.50019791202E+03 0.  0.
        1    1    3    3  502    0  0.50298042505E+02  0.58501938331E+02 -0.70522753820E+03  0.70943516302E+03  0.50400001928E-02 0. -1.
       -1    1    3    3    0  502 -0.50298042505E+02 -0.58501938331E+02  0.66490442342E+02  0.10184963827E+03  0.50400001928E-02 0.  1.
</event>
<event>
 5   0  0.1709372E-01  0.4800024E+03  0.7818609E-02  0.1019135E+00
       -2   -1    0    0    0  501  0.00000000000E+00  0.00000000000E+00  0.30231574254E+03  0.30231574255E+03  0.25500000920E-02 0. -1.
        2   -1    0    0  501    0  0.00000000000E+00  0.00000000000E+00 -0.19053121075E+03  0.19053121077E+03  0.25500000920E-02 0.  1.
    10030    2    1    2    0    0  0.00000000000E+00  0.00000000000E+00  0.11178453178E+03  0.49284695332E+03  0.48000243525E+03 0.  0.
        4    1    3    3  502    0  0.18949606679E+03 -0.10057631448E+03 -0.54572036391E+02  0.22136863920E+03  0.12699999809E+01 0.  1.
       -4    1    3    3    0  502 -0.18949606679E+03  0.10057631448E+03  0.16635656817E+03  0.27147831412E+03  0.12699999809E+01 0. -1.
</event>
<event>
 5   0  0.1760649E-01  0.5029629E+03  0.7818609E-02  0.1013008E+00
        2   -1    0    0  501    0  0.00000000000E+00  0.00000000000E+00  0.44194227745E+03  0.44194227746E+03  0.25500000920E-02 0. -1.
       -2   -1    0    0    0  501  0.00000000000E+00  0.00000000000E+00 -0.14310223879E+03  0.14310223881E+03  0.25500000920E-02 0.  1.
    10030    2    1    2    0    0  0.00000000000E+00  0.00000000000E+00  0.29884003866E+03  0.58504451627E+03  0.50296293830E+03 0.  0.
        5    1    3    3  502    0 -0.23181339435E+03 -0.58703477996E+02  0.59039675232E+02  0.24635608655E+03  0.46999998093E+01 0.  1.
       -5    1    3    3    0  502  0.23181339435E+03  0.58703477996E+02  0.23980036343E+03  0.33868842972E+03  0.46999998093E+01 0. -1.
</event>
<event>
 5   0  0.1074281E-01  0.5029396E+03  0.7818609E-02  0.1013014E+00
        1   -1    0    0  501    0  0.00000000000E+00  0.00000000000E+00  0.65159736722E+03  0.65159736724E+03  0.50400001928E-02 0. -1.
       -1   -1    0    0    0  501  0.00000000000E+00  0.00000000000E+00 -0.97049272166E+02  0.97049272297E+02  0.50400001928E-02 0.  1.
    10030    2    1    2    0    0  0.00000000000E+00  0.00000000000E+00  0.55454809505E+03  0.74864663954E+03  0.50293956015E+03 0.  0.
        4    1    3    3  502    0 -0.22098672369E+03  0.10517947716E+03  0.19127827258E+03  0.31062331677E+03  0.12699999809E+01 0. -1.
       -4    1    3    3    0  502  0.22098672369E+03 -0.10517947716E+03  0.36326982247E+03  0.43802332276E+03  0.12699999809E+01 0.  1.
</event>
<event>
 5   0  0.1827698E-01  0.5023657E+03  0.7818609E-02  0.1013163E+00
       -2   -1    0    0    0  501  0.00000000000E+00  0.00000000000E+00  0.10952421284E+03  0.10952421287E+03  0.25500000920E-02 0.  1.
        2   -1    0    0  501    0  0.00000000000E+00  0.00000000000E+00 -0.57606274670E+03  0.57606274670E+03  0.25500000920E-02 0. -1.
    10030    2    1    2    0    0  0.00000000000E+00  0.00000000000E+00 -0.46653853385E+03  0.68558695958E+03  0.50236567913E+03 0.  0.
        1    1    3    3  502    0 -0.51107681971E+02 -0.71875194832E+02  0.87699801673E+02  0.12437561669E+03  0.50400001928E-02 0.  1.
       -1    1    3    3    0  502  0.51107681971E+02  0.71875194832E+02 -0.55423833553E+03  0.56121134288E+03  0.50400001928E-02 0. -1.
</event>
<event>
 5   0  0.7220250E-02  0.4805354E+03  0.7818609E-02  0.1018988E+00
       -3   -1    0    0    0  501  0.00000000000E+00  0.00000000000E+00  0.78868364462E+03  0.78868365109E+03  0.10100000352E+00 0. -1.
        3   -1    0    0  501    0  0.00000000000E+00  0.00000000000E+00 -0.73196067472E+02  0.73196137155E+02  0.10100000352E+00 0.  1.
    10030    2    1    2    0    0  0.00000000000E+00  0.00000000000E+00  0.71548757715E+03  0.86187978824E+03  0.48053542672E+03 0.  0.
        5    1    3    3  502    0  0.55973965097E+02 -0.88222040929E+02 -0.30227033284E+02  0.10886678471E+03  0.46999998093E+01 0.  1.
       -5    1    3    3    0  502 -0.55973965097E+02  0.88222040929E+02  0.74571461043E+03  0.75301300353E+03  0.46999998093E+01 0. -1.
</event>
<event>
 5   0  0.1074281E-01  0.5066173E+03  0.7818609E-02  0.1012066E+00
       -1   -1    0    0    0  501  0.00000000000E+00  0.00000000000E+00  0.75935748367E+02  0.75935748534E+02  0.50400001928E-02 0.  1.
        1   -1    0    0  501    0  0.00000000000E+00  0.00000000000E+00 -0.84499435810E+03  0.84499435811E+03  0.50400001928E-02 0. -1.
    10030    2    1    2    0    0  0.00000000000E+00  0.00000000000E+00 -0.76905860973E+03  0.92093010665E+03  0.50661732711E+03 0.  0.
        4    1    3    3  502    0  0.13172333245E+02  0.43251127604E+02  0.68535777515E+02  0.82115382857E+02  0.12699999809E+01 0.  1.
       -4    1    3    3    0  502 -0.13172333245E+02 -0.43251127604E+02 -0.83759438725E+03  0.83881472379E+03  0.12699999809E+01 0. -1.
</event>
<event>
 5   0  0.1068522E-01  0.4186224E+03  0.7818609E-02  0.1037516E+00
       -1   -1    0    0    0  501  0.00000000000E+00  0.00000000000E+00  0.43582473347E+02  0.43582473638E+02  0.50400001928E-02 0.  1.
        1   -1    0    0  501    0  0.00000000000E+00  0.00000000000E+00 -0.10052477628E+04  0.10052477628E+04  0.50400001928E-02 0. -1.
    10030    2    1    2    0    0  0.00000000000E+00  0.00000000000E+00 -0.96166528948E+03  0.10488302365E+04  0.41862242649E+03 0.  0.
        2    1    3    3  502    0 -0.36058302907E+02 -0.63054340398E+01  0.35500611757E+02  0.50992677402E+02  0.25500000920E-02 0.  1.
       -2    1    3    3    0  502  0.36058302907E+02  0.63054340398E+01 -0.99716590124E+03  0.99783755908E+03  0.25500000920E-02 0. -1.
</event>
<event>
 5   0  0.7220250E-02  0.4931053E+03  0.7818609E-02  0.1015594E+00
       -4   -1    0    0    0  501  0.00000000000E+00  0.00000000000E+00  0.23131965106E+03  0.23132313733E+03  0.12699999809E+01 0.  1.
        4   -1    0    0  501    0  0.00000000000E+00  0.00000000000E+00 -0.26278174555E+03  0.26278481443E+03  0.12699999809E+01 0. -1.
    10030    2    1    2    0    0  0.00000000000E+00  0.00000000000E+00 -0.31462094492E+02  0.49410795176E+03  0.49310526726E+03 0.  0.
        2    1    3    3  502    0 -0.71213887017E+02 -0.11838704254E+03 -0.22035522850E+03  0.26008332564E+03  0.25500000920E-02 0. -1.
       -2    1    3    3    0  502  0.71213887017E+02  0.11838704254E+03  0.18889313400E+03  0.23402462611E+03  0.25500000920E-02 0.  1.
</event>
<event>
 5   0  0.1074281E-01  0.5129473E+03  0.7818609E-02  0.1010454E+00
       -1   -1    0    0    0  501  0.00000000000E+00  0.00000000000E+00  0.49017089443E+03  0.49017089446E+03  0.50400001928E-02 0.  1.
        1   -1    0    0  501    0  0.00000000000E+00  0.00000000000E+00 -0.13419552470E+03  0.13419552480E+03  0.50400001928E-02 0. -1.
    10030    2    1    2    0    0  0.00000000000E+00  0.00000000000E+00  0.35597536973E+03  0.62436641926E+03  0.51294732833E+03 0.  0.
        4    1    3    3  502    0  0.18897651205E+03  0.14818355134E+03  0.28758179695E+03  0.37466703862E+03  0.12699999809E+01 0.  1.
       -4    1    3    3    0  502 -0.18897651205E+03 -0.14818355134E+03  0.68393572784E+02  0.24969938064E+03  0.12699999809E+01 0. -1.
</event>
<event>
 5   0  0.1074281E-01  0.5000919E+03  0.7818609E-02  0.1013755E+00
        1   -1    0    0  501    0  0.00000000000E+00  0.00000000000E+00  0.86469919091E+03  0.86469919093E+03  0.50400001928E-02 0. -1.
       -1   -1    0    0    0  501  0.00000000000E+00  0.00000000000E+00 -0.72306049409E+02  0.72306049585E+02  0.50400001928E-02 0.  1.
    10030    2    1    2    0    0  0.00000000000E+00  0.00000000000E+00  0.79239314150E+03  0.93700524051E+03  0.50009192160E+03 0.  0.
        4    1    3    3  502    0 -0.14995372358E+02 -0.16878404318E+03  0.51684181702E+02  0.17716032841E+03  0.12699999809E+01 0.  1.
       -4    1    3    3    0  502  0.14995372358E+02  0.16878404318E+03  0.74070895980E+03  0.75984491211E+03  0.12699999809E+01 0. -1.
</event>
<event>
 5   0  0.1709372E-01  0.5041774E+03  0.7818609E-02  0.1012694E+00
        2   -1    0    0  501    0  0.00000000000E+00  0.00000000000E+00  0.22893159155E+03  0.22893159157E+03  0.25500000920E-02 0.  1.
       -2   -1    0    0    0  501  0.00000000000E+00  0.00000000000E+00 -0.27758821634E+03  0.27758821635E+03  0.25500000920E-02 0. -1.
    10030    2    1    2    0    0  0.00000000000E+00  0.00000000000E+00 -0.48656624787E+02  0.50651980792E+03  0.50417739803E+03 0.  0.
        4    1    3    3  502    0  0.16962028430E+03  0.15904088054E+03  0.73499949109E+02  0.24386245703E+03  0.12699999809E+01 0.  1.
       -4    1    3    3    0  502 -0.16962028430E+03 -0.15904088054E+03 -0.12215657390E+03  0.26265735089E+03  0.12699999809E+01 0. -1.
</event>
<event>
 5   0  0.1683148E-01  0.5964191E+03  0.7818609E-02  0.9912863E-01
       -2   -1    0    0    0  501  0.00000000000E+00  0.00000000000E+00  0.18680565813E+03  0.18680565815E+03  0.25500000920E-02 0.  1.
        2   -1    0    0  501    0  0.00000000000E+00  0.00000000000E+00 -0.47605052391E+03  0.47605052392E+03  0.25500000920E-02 0. -1.
    10030    2    1    2    0    0  0.00000000000E+00  0.00000000000E+00 -0.28924486578E+03  0.66285618207E+03  0.59641908565E+03 0.  0.
        2    1    3    3  502    0  0.22443196907E+02  0.16687606496E+03  0.12891946615E+03  0.21206495916E+03  0.25500000920E-02 0.  1.
       -2    1    3    3    0  502 -0.22443196907E+02 -0.16687606496E+03 -0.41816433193E+03  0.45079122291E+03  0.25500000920E-02 0. -1.
</event>
<event>
 5   0  0.1141970E-01  0.5002407E+03  0.7818609E-02  0.1013716E+00
        1   -1    0    0  501    0  0.00000000000E+00  0.00000000000E+00  0.34765367978E+03  0.34765367981E+03  0.50400001928E-02 0.  1.
       -1   -1    0    0    0  501  0.00000000000E+00  0.00000000000E+00 -0.17994976557E+03  0.17994976564E+03  0.50400001928E-02 0. -1.
    10030    2    1    2    0    0  0.00000000000E+00  0.00000000000E+00  0.16770391421E+03  0.52760344545E+03  0.50024073486E+03 0.  0.
        3    1    3    3  502    0  0.49512011161E+01 -0.22193167755E+03 -0.37699557408E+02  0.22516538527E+03  0.10100000352E+00 0. -1.
       -3    1    3    3    0  502 -0.49512011161E+01  0.22193167755E+03  0.20540347161E+03  0.30243806018E+03  0.10100000352E+00 0.  1.
</event>
<event>
 5   0  0.1683148E-01  0.5025614E+03  0.7818609E-02  0.1013113E+00
       -2   -1    0    0    0  501  0.00000000000E+00  0.00000000000E+00  0.27511120289E+02  0.27511120408E+02  0.25500000920E-02 0. -1.
        2   -1    0    0  501    0  0.00000000000E+00  0.00000000000E+00 -0.22951443952E+04  0.22951443952E+04  0.25500000920E-02 0.  1.
    10030    2    1    2    0    0  0.00000000000E+00  0.00000000000E+00 -0.22676332749E+04  0.23226555156E+04  0.50256141387E+03 0.  0.
        2    1    3    3  502    0 -0.24029063928E+03 -0.40816185904E+02 -0.14163207302E+04  0.14371395072E+04  0.25500000920E-02 0.  1.
       -2    1    3    3    0  502  0.24029063928E+03  0.40816185904E+02 -0.85131254472E+03  0.88551600842E+03  0.25500000920E-02 0. -1.
</event>
<event>
 5   0  0.1123271E-01  0.5007477E+03  0.7818609E-02  0.1013584E+00
        1   -1    0    0  501    0  0.00000000000E+00  0.00000000000E+00  0.11454175852E+04  0.11454175852E+04  0.50400001928E-02 0. -1.
       -1   -1    0    0    0  501  0.00000000000E+00  0.00000000000E+00 -0.54728572436E+02  0.54728572669E+02  0.50400001928E-02 0.  1.
    10030    2    1    2    0    0  0.00000000000E+00  0.00000000000E+00  0.10906890127E+04  0.12001461579E+04  0.50074771862E+03 0.  0.
        5    1    3    3  502    0  0.10261866220E+03 -0.15958541488E+03  0.15396209612E+03  0.24438598878E+03  0.46999998093E+01 0.  1.
       -5    1    3    3    0  502 -0.10261866220E+03  0.15958541488E+03  0.93672691661E+03  0.95576016907E+03  0.46999998093E+01 0. -1.
</event>
<event>
 5   0  0.1827698E-01  0.4997825E+03  0.7818609E-02  0.1013836E+00
        2   -1    0    0  501    0  0.00000000000E+00  0.00000000000E+00  0.89386490778E+03  0.89386490779E+03  0.25500000920E-02 0. -1.
       -2   -1    0    0    0  501  0.00000000000E+00  0.00000000000E+00 -0.69860248914E+02  0.69860248961E+02  0.25500000920E-02 0.  1.
    10030    2    1    2    0    0  0.00000000000E+00  0.00000000000E+00  0.82400465887E+03  0.96372515675E+03  0.49978245258E+03 0.  0.
        1    1    3    3  502    0  0.22773841206E+03 -0.87598441285E+02  0.30802919715E+03  0.39296343032E+03  0.50400001928E-02 0.  1.
       -1    1    3    3    0  502 -0.22773841206E+03  0.87598441285E+02  0.51597546171E+03  0.57076172643E+03  0.50400001928E-02 0. -1.
</event>
<event>
 5   0  0.1709372E-01  0.4987268E+03  0.7818609E-02  0.1014112E+00
        2   -1    0    0  501    0  0.00000000000E+00  0.00000000000E+00  0.21528531528E+03  0.21528531529E+03  0.25500000920E-02 0. -1.
       -2   -1    0    0    0  501  0.00000000000E+00  0.00000000000E+00 -0.28883576296E+03  0.28883576297E+03  0.25500000920E-02 0.  1.
    10030    2    1    2    0    0  0.00000000000E+00  0.00000000000E+00 -0.73550447681E+02  0.50412107826E+03  0.49872677208E+03 0.  0.
        4    1    3    3  502    0 -0.24437844714E+03 -0.53735050494E+01 -0.86611488706E+02  0.25933156934E+03  0.12699999809E+01 0.  1.
       -4    1    3    3    0  502  0.24437844714E+03  0.53735050494E+01  0.13061041025E+02  0.24478950892E+03  0.12699999809E+01 0. -1.
</event>
<event>
 5   0  0.1141970E-01  0.4776002E+03  0.7818609E-02  0.1019797E+00
       -1   -1    0    0    0  501  0.00000000000E+00  0.00000000000E+00  0.47473146702E+02  0.47473146969E+02  0.50400001928E-02 0. -1.
        1   -1    0    0  501    0  0.00000000000E+00  0.00000000000E+00 -0.12012158874E+04  0.12012158874E+04  0.50400001928E-02 0.  1.
    10030    2    1    2    0    0  0.00000000000E+00  0.00000000000E+00 -0.11537427407E+04  0.12486890344E+04  0.47760024379E+03 0.  0.
        3    1    3    3  502    0  0.56601588072E+02  0.19841394569E+03 -0.89119612924E+03  0.91476903347E+03  0.10100000352E+00 0.  1.
       -3    1    3    3    0  502 -0.56601588072E+02 -0.19841394569E+03 -0.26254661144E+03  0.33392000090E+03  0.10100000352E+00 0. -1.
</event>
<event>
 5   0  0.1709372E-01  0.5068953E+03  0.7818609E-02  0.1011995E+00
       -2   -1    0    0    0  501  0.00000000000E+00  0.00000000000E+00  0.37465986013E+03  0.37465986014E+03  0.25500000920E-02 0.  1.
        2   -1    0    0  501    0  0.00000000000E+00  0.00000000000E+00 -0.17145074544E+03  0.17145074546E+03  0.25500000920E-02 0. -1.
    10030    2    1    2    0    0  0.00000000000E+00  0.00000000000E+00  0.20320911469E+03  0.54611060560E+03  0.50689530403E+03 0.  0.
        4    1    3    3  502    0 -0.21114395892E+03 -0.13977817179E+02 -0.48674931507E+02  0.21713593120E+03  0.12699999809E+01 0. -1.
       -4    1    3    3    0  502  0.21114395892E+03  0.13977817179E+02  0.25188404620E+03  0.32897467439E+03  0.12699999809E+01 0.  1.
</event>
<event>
 5   0  0.1760649E-01  0.4997742E+03  0.7818609E-02  0.1013838E+00
        2   -1    0    0  501    0  0.00000000000E+00  0.00000000000E+00  0.21974304338E+04  0.21974304338E+04  0.25500000920E-02 0.  1.
       -2   -1    0    0    0  501  0.00000000000E+00  0.00000000000E+00 -0.28416631089E+02  0.28416631204E+02  0.25500000920E-02 0. -1.
    10030    2    1    2    0    0  0.00000000000E+00  0.00000000000E+00  0.21690138027E+04  0.22258470650E+04  0.49977422947E+03 0.  0.
        5    1    3    3  502    0 -0.24100828372E+02 -0.86456811178E+02  0.21229544230E+04  0.21248560427E+04  0.46999998093E+01 0.  1.
       -5    1    3    3    0  502  0.24100828372E+02  0.86456811178E+02  0.46059379725E+02  0.10099102230E+03  0.46999998093E+01 0. -1.
</event>
<event>
 5   0  0.1827698E-01  0.4993506E+03  0.7818609E-02  0.1013949E+00
        2   -1    0    0  501    0  0.00000000000E+00  0.00000000000E+00  0.40105793275E+03  0.40105793275E+03  0.25500000920E-02 0.  1.
       -2   -1    0    0    0  501  0.00000000000E+00  0.00000000000E+00 -0.15543327341E+03  0.15543327343E+03  0.25500000920E-02 0. -1.
    10030    2    1    2    0    0  0.00000000000E+00  0.00000000000E+00  0.24562465934E+03  0.55649120618E+03  0.49935056752E+03 0.  0.
        1    1    3    3  502    0  0.38807174062E+02  0.24519265233E+03  0.15255558032E+03  0.29137370957E+03  0.50400001928E-02 0. -1.
       -1    1    3    3    0  502 -0.38807174062E+02 -0.24519265233E+03  0.93069079015E+02  0.26511749661E+03  0.50400001928E-02 0.  1.
</event>
<event>
 5   0  0.1074281E-01  0.5067400E+03  0.7818609E-02  0.1012034E+00
        1   -1    0    0  501    0  0.00000000000E+00  0.00000000000E+00  0.24335788481E+03  0.24335788486E+03  0.50400001928E-02 0. -1.
       -1   -1    0    0    0  501  0.00000000000E+00  0.00000000000E+00 -0.26379405117E+03  0.26379405122E+03  0.50400001928E-02 0.  1.
    10030    2    1    2    0    0  0.00000000000E+00  0.00000000000E+00 -0.20436166362E+02  0.50715193608E+03  0.50674002148E+03 0.  0.
        4    1    3    3  502    0  0.96147334481E+02 -0.22573524059E+03  0.53031712021E+02  0.25102725779E+03  0.12699999809E+01 0. -1.
       -4    1    3    3    0  502 -0.96147334481E+02  0.22573524059E+03 -0.73467878383E+02  0.25612467829E+03  0.12699999809E+01 0.  1.
</event>
<event>
 5   0  0.1827698E-01  0.4988493E+03  0.7818609E-02  0.1014080E+00
        2   -1    0    0  501    0  0.00000000000E+00  0.00000000000E+00  0.72560386357E+03  0.72560386357E+03  0.25500000920E-02 0. -1.
       -2   -1    0    0    0  501  0.00000000000E+00  0.00000000000E+00 -0.85739144615E+02  0.85739144653E+02  0.25500000920E-02 0.  1.
    10030    2    1    2    0    0  0.00000000000E+00  0.00000000000E+00  0.63986471895E+03  0.81134300822E+03  0.49884929431E+03 0.  0.
        1    1    3    3  502    0  0.74174488447E+02 -0.11062273609E+03  0.66292543421E+03  0.67617259322E+03  0.50400001928E-02 0. -1.
       -1    1    3    3    0  502 -0.74174488447E+02  0.11062273609E+03 -0.23060715261E+02  0.13517041500E+03  0.50400001928E-02 0.  1.
</event>
<event>
 5   0  0.1068522E-01  0.4927932E+03  0.7818609E-02  0.1015677E+00
        1   -1    0    0  501    0  0.00000000000E+00  0.00000000000E+00  0.71717958251E+03  0.71717958253E+03  0.50400001928E-02 0.  1.
       -1   -1    0    0    0  501  0.00000000000E+00  0.00000000000E+00 -0.84652823265E+02  0.84652823415E+02  0.50400001928E-02 0. -1.
    10030    2    1    2    0    0  0.00000000000E+00  0.00000000000E+00  0.63252675925E+03  0.80183240594E+03  0.49279316763E+03 0.  0.
        2    1    3    3  502    0  0.95851432194E+01  0.12634059722E+03  0.66011091133E+03  0.67216087117E+03  0.25500000920E-02 0.  1.
       -2    1    3    3    0  502 -0.95851432194E+01 -0.12634059722E+03 -0.27584152080E+02  0.12967153477E+03  0.25500000920E-02 0. -1.
</event>
<event>
 5   0  0.1782124E-01  0.4741607E+03  0.7818609E-02  0.1020752E+00
       -2   -1    0    0    0  501  0.00000000000E+00  0.00000000000E+00  0.59845443171E+03  0.59845443171E+03  0.25500000920E-02 0.  1.
        2   -1    0    0  501    0  0.00000000000E+00  0.00000000000E+00 -0.93920437547E+02  0.93920437582E+02  0.25500000920E-02 0. -1.
    10030    2    1    2    0    0  0.00000000000E+00  0.00000000000E+00  0.50453399416E+03  0.69237486930E+03  0.47416074107E+03 0.  0.
        3    1    3    3  502    0 -0.28472662002E+02 -0.21129359502E+03  0.40367489800E+03  0.45651846540E+03  0.10100000352E+00 0.  1.
       -3    1    3    3    0  502  0.28472662002E+02  0.21129359502E+03  0.10085909616E+03  0.23585640389E+03  0.10100000352E+00 0. -1.
</event>
<event>
 5   0  0.7220250E-02  0.5014558E+03  0.7818609E-02  0.1013400E+00
       -3   -1    0    0    0  501  0.00000000000E+00  0.00000000000E+00  0.44172794041E+03  0.44172795196E+03  0.10100000352E+00 0. -1.
        3   -1    0    0  501    0  0.00000000000E+00  0.00000000000E+00 -0.14231491052E+03  0.14231494636E+03  0.10100000352E+00 0.  1.
    10030    2    1    2    0    0  0.00000000000E+00  0.00000000000E+00  0.29941302989E+03  0.58404289832E+03  0.50145582518E+03 0.  0.
        5    1    3    3  502    0  0.84233733683E+02  0.93521460487E+02 -0.10279543789E+03  0.16257483664E+03  0.46999998093E+01 0.  1.
       -5    1    3    3    0  502 -0.84233733683E+02 -0.93521460487E+02  0.40220846778E+03  0.42146806167E+03  0.46999998093E+01 0. -1.
</event>
<event>
 5   0  0.1074281E-01  0.4989676E+03  0.7818609E-02  0.1014049E+00
        1   -1    0    0  501    0  0.00000000000E+00  0.00000000000E+00  0.60101906571E+03  0.60101906573E+03  0.50400001928E-02 0. -1.
       -1   -1    0    0    0  501  0.00000000000E+00  0.00000000000E+00 -0.10356103163E+03  0.10356103175E+03  0.50400001928E-02 0.  1.
    10030    2    1    2    0    0  0.00000000000E+00  0.00000000000E+00  0.49745803408E+03  0.70458009748E+03  0.49896755215E+03 0.  0.
        4    1    3    3  502    0  0.20860738877E+03  0.91162567758E+02  0.10463577681E+03  0.25055521367E+03  0.12699999809E+01 0.  1.
       -4    1    3    3    0  502 -0.20860738877E+03 -0.91162567758E+02  0.39282225727E+03  0.45402488381E+03  0.12699999809E+01 0. -1.
</event>
<event>
 5   0  0.1074281E-01  0.5042841E+03  0.7818609E-02  0.1012667E+00
        1   -1    0    0  501    0  0.00000000000E+00  0.00000000000E+00  0.11309360935E+04  0.11309360936E+04  0.50400001928E-02 0.  1.
       -1   -1    0    0    0  501  0.00000000000E+00  0.00000000000E+00 -0.56215045619E+02  0.56215045844E+02  0.50400001928E-02 0. -1.
    10030    2    1    2    0    0  0.00000000000E+00  0.00000000000E+00  0.10747210479E+04  0.11871511394E+04  0.50428414304E+03 0.  0.
        4    1    3    3  502    0  0.24689530242E+03  0.38949442503E+02  0.61542622990E+03  0.66424800096E+03  0.12699999809E+01 0.  1.
       -4    1    3    3    0  502 -0.24689530242E+03 -0.38949442503E+02  0.45929481803E+03  0.52290313845E+03  0.12699999809E+01 0. -1.
</event>
<event>
 5   0  0.1827698E-01  0.5003525E+03  0.7818609E-02  0.1013687E+00
        2   -1    0    0  501    0  0.00000000000E+00  0.00000000000E+00  0.50236931340E+03  0.50236931341E+03  0.25500000920E-02 0. -1.
       -2   -1    0    0    0  501  0.00000000000E+00  0.00000000000E+00 -0.12458595456E+03  0.12458595459E+03  0.25500000920E-02 0.  1.
    10030    2    1    2    0    0  0.00000000000E+00  0.00000000000E+00  0.37778335884E+03  0.62695526800E+03  0.50035251758E+03 0.  0.
        1    1    3    3  502    0  0.45645400339E+02  0.24101871498E+03  0.12731923678E+03  0.27637603300E+03  0.50400001928E-02 0.  1.
       -1    1    3    3    0  502 -0.45645400339E+02 -0.24101871498E+03  0.25046412206E+03  0.35057923499E+03  0.50400001928E-02 0. -1.
</event>
<event>
 5   0  0.1709372E-01  0.4984883E+03  0.7818609E-02  0.1014174E+00
        2   -1    0    0  501    0  0.00000000000E+00  0.00000000000E+00  0.30675182797E+03  0.30675182798E+03  0.25500000920E-02 0. -1.
       -2   -1    0    0    0  501  0.00000000000E+00  0.00000000000E+00 -0.20251763005E+03  0.20251763007E+03  0.25500000920E-02 0.  1.
    10030    2    1    2    0    0  0.00000000000E+00  0.00000000000E+00  0.10423419792E+03  0.50926945805E+03  0.49848832773E+03 0.  0.
        4    1    3    3  502    0  0.78293318983E+02 -0.92059607709E+02  0.27481370769E+03  0.30021492635E+03  0.12699999809E+01 0. -1.
       -4    1    3    3    0  502 -0.78293318983E+02  0.92059607709E+02 -0.17057950977E+03  0.20905453170E+03  0.12699999809E+01 0.  1.
</event>
<event>
 5   0  0.1123271E-01  0.5141677E+03  0.7818609E-02  0.1010146E+00
       -1   -1    0    0    0  501  0.00000000000E+00  0.00000000000E+00  0.89232737017E+03  0.89232737019E+03  0.50400001928E-02 0. -1.
        1   -1    0    0  501    0  0.00000000000E+00  0.00000000000E+00 -0.74067117913E+02  0.74067118084E+02  0.50400001928E-02 0.  1.
    10030    2    1    2    0    0  0.00000000000E+00  0.00000000000E+00  0.81826025226E+03  0.96639448827E+03  0.51416774163E+03 0.  0.
        5    1    3    3  502    0  0.10190011003E+03 -0.17338705107E+03  0.10826811194E+03  0.22845300603E+03  0.46999998093E+01 0.  1.
       -5    1    3    3    0  502 -0.10190011003E+03  0.17338705107E+03  0.70999214032E+03  0.73794148224E+03  0.46999998093E+01 0. -1.
</event>
<event>
 5   0  0.1827698E-01  0.5079505E+03  0.7818609E-02  0.1011724E+00
       -2   -1    0    0    0  501  0.00000000000E+00  0.00000000000E+00  0.30771306929E+03  0.30771306930E+03  0.25500000920E-02 0.  1.
        2   -1    0    0  501    0  0.00000000000E+00  0.00000000000E+00 -0.20962196110E+03  0.20962196112E+03  0.25500000920E-02 0. -1.
    10030    2    1    2    0    0  0.00000000000E+00  0.00000000000E+00  0.98091108194E+02  0.51733503042E+03  0.50795045840E+03 0.  0.
        1    1    3    3  502    0  0.10713176744E+03  0.22983815826E+03  0.34619741728E+02  0.25593225887E+03  0.50400001928E-02 0. -1.
       -1    1    3    3    0  502 -0.10713176744E+03 -0.22983815826E+03  0.63471366466E+02  0.26140277155E+03  0.50400001928E-02 0.  1.
</event>
<event>
 5   0  0.1782124E-01  0.5084212E+03  0.7818609E-02  0.1011604E+00
       -2   -1    0    0    0  501  0.00000000000E+00  0.00000000000E+00  0.16806782396E+03  0.16806782398E+03  0.25500000920E-02 0.  1.
        2   -1    0    0  501    0  0.00000000000E+00  0.00000000000E+00 -0.38450565854E+03  0.38450565854E+03  0.25500000920E-02 0. -1.
    10030    2    1    2    0    0  0.00000000000E+00  0.00000000000E+00 -0.21643783457E+03  0.55257348252E+03  0.50842120073E+03 0.  0.
        3    1    3    3  502    0 -0.10022504229E+03  0.17792195520E+03 -0.27276598932E+03  0.34073828134E+03  0.10100000352E+00 0. -1.
       -3    1    3    3    0  502  0.10022504229E+03 -0.17792195520E+03  0.56328154743E+02  0.21183520118E+03  0.10100000352E+00 0.  1.
</event>
<event>
 5   0  0.1074281E-01  0.4935562E+03  0.7818609E-02  0.1015475E+00
       -1   -1    0    0    0  501  0.00000000000E+00  0.00000000000E+00  0.23611907703E+03  0.23611907708E+03  0.50400001928E-02 0. -1.
        1   -1    0    0  501    0  0.00000000000E+00  0.00000000000E+00 -0.25791830072E+03  0.25791830077E+03  0.50400001928E-02 0.  1.
    10030    2    1    2    0    0  0.00000000000E+00  0.00000000000E+00 -0.21799223698E+02  0.49403737785E+03  0.49355620203E+03 0.  0.
        4    1    3    3  502    0 -0.54129742747E+02 -0.78008105005E+02  0.21709980977E+03  0.23695829549E+03  0.12699999809E+01 0. -1.
       -4    1    3    3    0  502  0.54129742747E+02  0.78008105005E+02 -0.23889903347E+03  0.25707908237E+03  0.12699999809E+01 0.  1.
</event>
<event>
 5   0  0.1074281E-01  0.4975714E+03  0.7818609E-02  0.1014415E+00
        1   -1    0    0  501    0  0.00000000000E+00  0.00000000000E+00  0.24777387392E+03  0.24777387397E+03  0.50400001928E-02 0.  1.
       -1   -1    0    0    0  501  0.00000000000E+00  0.00000000000E+00 -0.24980160883E+03  0.24980160888E+03  0.50400001928E-02 0. -1.
    10030    2    1    2    0    0  0.00000000000E+00  0.00000000000E+00 -0.20277349172E+01  0.49757548285E+03  0.49757135109E+03 0.  0.
        4    1    3    3  502    0  0.69553881926E+02  0.15832074615E+03  0.17784370040E+03  0.24805885556E+03  0.12699999809E+01 0.  1.
       -4    1    3    3    0  502 -0.69553881926E+02 -0.15832074615E+03 -0.17987143531E+03  0.24951662729E+03  0.12699999809E+01 0. -1.
</event>
<event>
 5   0  0.1147245E-01  0.4970459E+03  0.7818609E-02  0.1014553E+00
        1   -1    0    0  501    0  0.00000000000E+00  0.00000000000E+00  0.33512904718E+03  0.33512904722E+03  0.50400001928E-02 0.  1.
       -1   -1    0    0    0  501  0.00000000000E+00  0.00000000000E+00 -0.18429812183E+03  0.18429812190E+03  0.50400001928E-02 0. -1.
    10030    2    1    2    0    0  0.00000000000E+00  0.00000000000E+00  0.15083092535E+03  0.51942716911E+03  0.49704588920E+03 0.  0.
        1    1    3    3  502    0 -0.19012545604E+03 -0.39057037383E+02 -0.86784667244E+02  0.21261401576E+03  0.50400001928E-02 0. -1.
       -1    1    3    3    0  502  0.19012545604E+03  0.39057037383E+02  0.23761559259E+03  0.30681315335E+03  0.50400001928E-02 0.  1.
</event>
<event>
 5   0  0.1141970E-01  0.5063158E+03  0.7818609E-02  0.1012143E+00
        1   -1    0    0  501    0  0.00000000000E+00  0.00000000000E+00  0.89985995959E+02  0.89985996100E+02  0.50400001928E-02 0.  1.
       -1   -1    0    0    0  501  0.00000000000E+00  0.00000000000E+00 -0.71221002484E+03  0.71221002486E+03  0.50400001928E-02 0. -1.
    10030    2    1    2    0    0  0.00000000000E+00  0.00000000000E+00 -0.62222402888E+03  0.80219602096E+03  0.50631582429E+03 0.  0.
        3    1    3    3  502    0 -0.19303184916E+02  0.21011819352E+03 -0.53273624548E+03  0.57300103459E+03  0.10100000352E+00 0.  1.
       -3    1    3    3    0  502  0.19303184916E+02 -0.21011819352E+03 -0.89487783404E+02  0.22919498637E+03  0.10100000352E+00 0. -1.
</event>
<event>
 5   0  0.7220250E-02  0.4994494E+03  0.7818609E-02  0.1013923E+00
       -3   -1    0    0    0  501  0.00000000000E+00  0.00000000000E+00  0.10385880160E+03  0.10385885071E+03  0.10100000352E+00 0. -1.
        3   -1    0    0  501    0  0.00000000000E+00  0.00000000000E+00 -0.60045379446E+03  0.60045380295E+03  0.10100000352E+00 0.  1.
    10030    2    1    2    0    0  0.00000000000E+00  0.00000000000E+00 -0.49659499286E+03  0.70431265366E+03  0.49944942404E+03 0.  0.
        3    1    3    3  502    0  0.79142477394E+02  0.20993124878E+03 -0.93641642642E+02  0.24311196676E+03  0.10100000352E+00 0. -1.
       -3    1    3    3    0  502 -0.79142477394E+02 -0.20993124878E+03 -0.40295335021E+03  0.46120068690E+03  0.10100000352E+00 0.  1.
</event>
<event>
 5   0  0.7220250E-02  0.4992995E+03  0.7818609E-02  0.1013962E+00
        3   -1    0    0  501    0  0.00000000000E+00  0.00000000000E+00  0.11345468788E+04  0.11345468833E+04  0.10100000352E+00 0.  1.
       -3   -1    0    0    0  501  0.00000000000E+00  0.00000000000E+00 -0.54933782197E+02  0.54933875045E+02  0.10100000352E+00 0. -1.
    10030    2    1    2    0    0  0.00000000000E+00  0.00000000000E+00  0.10796130966E+04  0.11894807583E+04  0.49929954547E+03 0.  0.
        2    1    3    3  502    0 -0.20033123726E+03 -0.14390278123E+03  0.44802173299E+03  0.51143336643E+03  0.25500000920E-02 0.  1.
       -2    1    3    3    0  502  0.20033123726E+03  0.14390278123E+03  0.63159136362E+03  0.67804739190E+03  0.25500000920E-02 0. -1.
</event>
<event>
 5   0  0.1141970E-01  0.4973109E+03  0.7818609E-02  0.1014483E+00
       -1   -1    0    0    0  501  0.00000000000E+00  0.00000000000E+00  0.69214785543E+03  0.69214785544E+03  0.50400001928E-02 0.  1.
        1   -1    0    0  501    0  0.00000000000E+00  0.00000000000E+00 -0.89329932192E+02  0.89329932334E+02  0.50400001928E-02 0. -1.
    10030    2    1    2    0    0  0.00000000000E+00  0.00000000000E+00  0.60281792323E+03  0.78147778778E+03  0.49731085271E+03 0.  0.
        3    1    3    3  502    0 -0.16863564424E+03  0.88641329884E+01  0.58821962690E+03  0.61197948743E+03  0.10100000352E+00 0.  1.
       -3    1    3    3    0  502  0.16863564424E+03 -0.88641329884E+01  0.14598296331E+02  0.16949830035E+03  0.10100000352E+00 0. -1.
</event>
<event>
 5   0  0.1709372E-01  0.4880658E+03  0.7818609E-02  0.1016942E+00
       -2   -1    0    0    0  501  0.00000000000E+00  0.00000000000E+00  0.84552515019E+02  0.84552515058E+02  0.25500000920E-02 0.  1.
        2   -1    0    0  501    0  0.00000000000E+00  0.00000000000E+00 -0.70432020502E+03  0.70432020503E+03  0.25500000920E-02 0. -1.
    10030    2    1    2    0    0  0.00000000000E+00  0.00000000000E+00 -0.61976769000E+03  0.78887272009E+03  0.48806575266E+03 0.  0.
        4    1    3    3  502    0  0.10492767095E+03 -0.10832063507E+01  0.46219452218E+02  0.11466839203E+03  0.12699999809E+01 0.  1.
       -4    1    3    3    0  502 -0.10492767095E+03  0.10832063507E+01 -0.66598714222E+03  0.67420432806E+03  0.12699999809E+01 0. -1.
</event>
<event>
 5   0  0.1827698E-01  0.4962877E+03  0.7818609E-02  0.1014752E+00
        2   -1    0    0  501    0  0.00000000000E+00  0.00000000000E+00  0.41147030768E+03  0.41147030769E+03  0.25500000920E-02 0. -1.
       -2   -1    0    0    0  501  0.00000000000E+00  0.00000000000E+00 -0.14964719883E+03  0.14964719885E+03  0.25500000920E-02 0.  1.
    10030    2    1    2    0    0  0.00000000000E+00  0.00000000000E+00  0.26182310885E+03  0.56111750654E+03  0.49628773491E+03 0.  0.
        1    1    3    3  502    0  0.57922391893E+02 -0.23016320480E+03  0.21279656154E+03  0.31876712653E+03  0.50400001928E-02 0. -1.
       -1    1    3    3    0  502 -0.57922391893E+02  0.23016320480E+03  0.49026547307E+02  0.24235038001E+03  0.50400001928E-02 0.  1.
</event>
<event>
 5   0  0.1068522E-01  0.4995289E+03  0.7818609E-02  0.1013902E+00
        1   -1    0    0  501    0  0.00000000000E+00  0.00000000000E+00  0.31876800948E+03  0.31876800952E+03  0.50400001928E-02 0. -1.
       -1   -1    0    0    0  501  0.00000000000E+00  0.00000000000E+00 -0.19569804979E+03  0.19569804986E+03  0.50400001928E-02 0.  1.
    10030    2    1    2    0    0  0.00000000000E+00  0.00000000000E+00  0.12306995969E+03  0.51446605938E+03  0.49952888933E+03 0.  0.
        2    1    3    3  502    0 -0.19587100979E+03 -0.27967515034E+02  0.21852213690E+03  0.29478731095E+03  0.25500000920E-02 0. -1.
       -2    1    3    3    0  502  0.19587100979E+03  0.27967515034E+02 -0.95452177208E+02  0.21967874843E+03  0.25500000920E-02 0.  1.
</event>
<event>
 5   0  0.1760649E-01  0.4950808E+03  0.7818609E-02  0.1015071E+00
       -2   -1    0    0    0  501  0.00000000000E+00  0.00000000000E+00  0.72724548650E+02  0.72724548695E+02  0.25500000920E-02 0.  1.
        2   -1    0    0  501    0  0.00000000000E+00  0.00000000000E+00 -0.84258011773E+03  0.84258011774E+03  0.25500000920E-02 0. -1.
    10030    2    1    2    0    0  0.00000000000E+00  0.00000000000E+00 -0.76985556908E+03  0.91530466643E+03  0.49508083698E+03 0.  0.
        5    1    3    3  502    0 -0.23541834346E+03 -0.74655972987E+02 -0.41467322447E+03  0.48267098921E+03  0.46999998093E+01 0. -1.
       -5    1    3    3    0  502  0.23541834346E+03  0.74655972987E+02 -0.35518234461E+03  0.43263367722E+03  0.46999998093E+01 0.  1.
</event>
<event>
 5   0  0.7220250E-02  0.4971458E+03  0.7818609E-02  0.1014527E+00
       -3   -1    0    0    0  501  0.00000000000E+00  0.00000000000E+00  0.20887833478E+03  0.20887835920E+03  0.10100000352E+00 0. -1.
        3   -1    0    0  501    0  0.00000000000E+00  0.00000000000E+00 -0.29581087568E+03  0.29581089292E+03  0.10100000352E+00 0.  1.
    10030    2    1    2    0    0  0.00000000000E+00  0.00000000000E+00 -0.86932540900E+02  0.50468925212E+03  0.49714582824E+03 0.  0.
        1    1    3    3  502    0  0.16297344786E+03  0.15547886196E+03 -0.15020186320E+03  0.27072979326E+03  0.50400001928E-02 0. -1.
       -1    1    3    3    0  502 -0.16297344786E+03 -0.15547886196E+03  0.63269322298E+02  0.23395945887E+03  0.50400001928E-02 0.  1.
</event>
<event>
 5   0  0.7220250E-02  0.4739990E+03  0.7818609E-02  0.1020798E+00
        3   -1    0    0  501    0  0.00000000000E+00  0.00000000000E+00  0.33570295057E+03  0.33570296577E+03  0.10100000352E+00 0. -1.
       -3   -1    0    0    0  501  0.00000000000E+00  0.00000000000E+00 -0.16731685748E+03  0.16731688797E+03  0.10100000352E+00 0.  1.
    10030    2    1    2    0    0  0.00000000000E+00  0.00000000000E+00  0.16838609309E+03  0.50301985374E+03  0.47399904737E+03 0.  0.
        1    1    3    3  502    0 -0.12470877641E+03  0.19616888688E+03  0.13321963078E+03  0.26792159515E+03  0.50400001928E-02 0. -1.
       -1    1    3    3    0  502  0.12470877641E+03 -0.19616888688E+03  0.35166462305E+02  0.23509825859E+03  0.50400001928E-02 0.  1.
</event>
<event>
 5   0  0.1068522E-01  0.4291397E+03  0.7818609E-02  0.1034132E+00
       -1   -1    0    0    0  501  0.00000000000E+00  0.00000000000E+00  0.55430523262E+02  0.55430523491E+02  0.50400001928E-02 0.  1.
        1   -1    0    0  501    0  0.00000000000E+00  0.00000000000E+00 -0.83059327794E+03  0.83059327796E+03  0.50400001928E-02 0. -1.
    10030    2    1    2    0    0  0.00000000000E+00  0.00000000000E+00 -0.77516275468E+03  0.88602380145E+03  0.42913969810E+03 0.  0.
        2    1    3    3  502    0 -0.14738916468E+03 -0.91083553622E+02 -0.12625459324E+03  0.21438283963E+03  0.25500000920E-02 0.  1.
       -2    1    3    3    0  502  0.14738916468E+03  0.91083553622E+02 -0.64890816144E+03  0.67164096182E+03  0.25500000920E-02 0. -1.
</event>
<event>
 5   0  0.1683148E-01  0.5029285E+03  0.7818609E-02  0.1013017E+00
       -2   -1    0    0    0  501  0.00000000000E+00  0.00000000000E+00  0.29328650028E+02  0.29328650139E+02  0.25500000920E-02 0.  1.
        2   -1    0    0  501    0  0.00000000000E+00  0.00000000000E+00 -0.21560580658E+04  0.21560580658E+04  0.25500000920E-02 0. -1.
    10030    2    1    2    0    0  0.00000000000E+00  0.00000000000E+00 -0.21267294158E+04  0.21853867159E+04  0.50292851410E+03 0.  0.
        2    1    3    3  502    0  0.62642414761E+02  0.44617624213E+02 -0.21036994819E+04  0.21051048227E+04  0.25500000920E-02 0. -1.
       -2    1    3    3    0  502 -0.62642414761E+02 -0.44617624213E+02 -0.23029933876E+02  0.80281893216E+02  0.25500000920E-02 0.  1.
</event>
<event>
 5   0  0.1782124E-01  0.5019921E+03  0.7818609E-02  0.1013260E+00
        2   -1    0    0  501    0  0.00000000000E+00  0.00000000000E+00  0.98034142344E+03  0.98034142345E+03  0.25500000920E-02 0.  1.
       -2   -1    0    0    0  501  0.00000000000E+00  0.00000000000E+00 -0.64262334008E+02  0.64262334059E+02  0.25500000920E-02 0. -1.
    10030    2    1    2    0    0  0.00000000000E+00  0.00000000000E+00  0.91607908943E+03  0.10446037575E+04  0.50199214346E+03 0.  0.
        3    1    3    3  502    0  0.98813381968E+02  0.37830676856E+02  0.93166535406E+03  0.93765430022E+03  0.10100000352E+00 0.  1.
       -3    1    3    3    0  502 -0.98813381968E+02 -0.37830676856E+02 -0.15586264624E+02  0.10694945728E+03  0.10100000352E+00 0. -1.
</event>
<event>
 5   0  0.1123271E-01  0.4444287E+03  0.7818609E-02  0.1029397E+00
       -1   -1    0    0    0  501  0.00000000000E+00  0.00000000000E+00  0.47066616595E+03  0.47066616598E+03  0.50400001928E-02 0. -1.
        1   -1    0    0  501    0  0.00000000000E+00  0.00000000000E+00 -0.10491344306E+03  0.10491344318E+03  0.50400001928E-02 0.  1.
    10030    2    1    2    0    0  0.00000000000E+00  0.00000000000E+00  0.36575272290E+03  0.57557960916E+03  0.44442865813E+03 0.  0.
        5    1    3    3  502    0  0.15538061944E+03  0.33546374627E+02 -0.18129777542E+02  0.16006022298E+03  0.46999998093E+01 0.  1.
       -5    1    3    3    0  502 -0.15538061944E+03 -0.33546374627E+02  0.38388250044E+03  0.41551938618E+03  0.46999998093E+01 0. -1.
</event>
<event>
 5   0  0.1827698E-01  0.4961922E+03  0.7818609E-02  0.1014778E+00
       -2   -1    0    0    0  501  0.00000000000E+00  0.00000000000E+00  0.13106964909E+03  0.13106964912E+03  0.25500000920E-02 0.  1.
        2   -1    0    0  501    0  0.00000000000E+00  0.00000000000E+00 -0.46961041103E+03  0.46961041104E+03  0.25500000920E-02 0. -1.
    10030    2    1    2    0    0  0.00000000000E+00  0.00000000000E+00 -0.33854076194E+03  0.60068006016E+03  0.49619218774E+03 0.  0.
        1    1    3    3  502    0 -0.15541143615E+02  0.22922172407E+03 -0.28262319753E+03  0.36422520196E+03  0.50400001928E-02 0. -1.
       -1    1    3    3    0  502  0.15541143615E+02 -0.22922172407E+03 -0.55917564412E+02  0.23645485820E+03  0.50400001928E-02 0.  1.
</event>
<event>
 5   0  0.1709372E-01  0.4759319E+03  0.7818609E-02  0.1020259E+00
        2   -1    0    0  501    0  0.00000000000E+00  0.00000000000E+00  0.21496318068E+03  0.21496318069E+03  0.25500000920E-02 0.  1.
       -2   -1    0    0    0  501  0.00000000000E+00  0.00000000000E+00 -0.26343020394E+03  0.26343020395E+03  0.25500000920E-02 0. -1.
    10030    2    1    2    0    0  0.00000000000E+00  0.00000000000E+00 -0.48467023264E+02  0.47839338465E+03  0.47593190493E+03 0.  0.
        4    1    3    3  502    0 -0.18503916041E+03  0.16550807276E+02  0.12523917381E+03  0.22405330541E+03  0.12699999809E+01 0.  1.
       -4    1    3    3    0  502  0.18503916041E+03 -0.16550807276E+02 -0.17370619707E+03  0.25434007924E+03  0.12699999809E+01 0. -1.
</event>
<event>
 5   0  0.1123271E-01  0.4924174E+03  0.7818609E-02  0.1015777E+00
       -1   -1    0    0    0  501  0.00000000000E+00  0.00000000000E+00  0.33634049252E+03  0.33634049255E+03  0.50400001928E-02 0. -1.
        1   -1    0    0  501    0  0.00000000000E+00  0.00000000000E+00 -0.18023026209E+03  0.18023026216E+03  0.50400001928E-02 0.  1.
    10030    2    1    2    0    0  0.00000000000E+00  0.00000000000E+00  0.15611023043E+03  0.51657075471E+03  0.49241744544E+03 0.  0.
        5    1    3    3  502    0  0.85137085626E+02  0.31475640031E+02  0.31809658334E+03  0.33082709320E+03  0.46999998093E+01 0. -1.
       -5    1    3    3    0  502 -0.85137085626E+02 -0.31475640031E+02 -0.16198635291E+03  0.18574366151E+03  0.46999998093E+01 0.  1.
</event>
<event>
 5   0  0.1068522E-01  0.4945058E+03  0.7818609E-02  0.1015223E+00
        1   -1    0    0  501    0  0.00000000000E+00  0.00000000000E+00  0.35670692350E+03  0.35670692354E+03  0.50400001928E-02 0.  1.
       -1   -1    0    0    0  501  0.00000000000E+00  0.00000000000E+00 -0.17138436085E+03  0.17138436092E+03  0.50400001928E-02 0. -1.
    10030    2    1    2    0    0  0.00000000000E+00  0.00000000000E+00  0.18532256265E+03  0.52809128446E+03  0.49450576588E+03 0.  0.
        2    1    3    3  502    0  0.14930588763E+03 -0.19051302425E+03  0.38770828053E+02  0.24513391769E+03  0.25500000920E-02 0.  1.
       -2    1    3    3    0  502 -0.14930588763E+03  0.19051302425E+03  0.14655173460E+03  0.28295736677E+03  0.25500000920E-02 0. -1.
</event>
<event>
 5   0  0.1123271E-01  0.4975410E+03  0.7818609E-02  0.1014423E+00
        1   -1    0    0  501    0  0.00000000000E+00  0.00000000000E+00  0.86669417201E+03  0.86669417202E+03  0.50400001928E-02 0. -1.
       -1   -1    0    0    0  501  0.00000000000E+00  0.00000000000E+00 -0.71405540312E+02  0.71405540490E+02  0.50400001928E-02 0.  1.
    10030    2    1    2    0    0  0.00000000000E+00  0.00000000000E+00  0.79528863169E+03  0.93809971251E+03  0.49754101631E+03 0.  0.
        5    1    3    3  502    0  0.15465807938E+03 -0.16530117102E+03  0.20333018069E+03  0.30431702390E+03  0.46999998093E+01 0.  1.
       -5    1    3    3    0  502 -0.15465807938E+03  0.16530117102E+03  0.59195845101E+03  0.63378268861E+03  0.46999998093E+01 0. -1.
</event>
<event>
 5   0  0.1782124E-01  0.4953089E+03  0.7818609E-02  0.1015011E+00
       -2   -1    0    0    0  501  0.00000000000E+00  0.00000000000E+00  0.55084144447E+02  0.55084144506E+02  0.25500000920E-02 0.  1.
        2   -1    0    0  501    0  0.00000000000E+00  0.00000000000E+00 -0.11134371733E+04  0.11134371733E+04  0.25500000920E-02 0. -1.
    10030    2    1    2    0    0  0.00000000000E+00  0.00000000000E+00 -0.10583530288E+04  0.11685213178E+04  0.49530893034E+03 0.  0.
        3    1    3    3  502    0 -0.18704103809E+03 -0.15537838246E+03 -0.63998080225E+03  0.68461830907E+03  0.10100000352E+00 0.  1.
       -3    1    3    3    0  502  0.18704103809E+03  0.15537838246E+03 -0.41837222656E+03  0.48390300869E+03  0.10100000352E+00 0. -1.
</event>
<event>
 5   0  0.1683148E-01  0.4965827E+03  0.7818609E-02  0.1014675E+00
        2   -1    0    0  501    0  0.00000000000E+00  0.00000000000E+00  0.56315726757E+03  0.56315726757E+03  0.25500000920E-02 0.  1.
       -2   -1    0    0    0  501  0.00000000000E+00  0.00000000000E+00 -0.10946959681E+03  0.10946959684E+03  0.25500000920E-02 0. -1.
    10030    2    1    2    0    0  0.00000000000E+00  0.00000000000E+00  0.45368767076E+03  0.67262686441E+03  0.49658271832E+03 0.  0.
        2    1    3    3  502    0  0.22537897836E+03 -0.47412895574E+02  0.10119561536E+03  0.25156354889E+03  0.25500000920E-02 0. -1.
       -2    1    3    3    0  502 -0.22537897836E+03  0.47412895574E+02  0.35249205540E+03  0.42106331552E+03  0.25500000920E-02 0.  1.
</event>
<event>
 5   0  0.1760649E-01  0.5553694E+03  0.7818609E-02  0.1000259E+00
       -2   -1    0    0    0  501  0.00000000000E+00  0.00000000000E+00  0.28960490916E+03  0.28960490918E+03  0.25500000920E-02 0. -1.
        2   -1    0    0  501    0  0.00000000000E+00  0.00000000000E+00 -0.26625510153E+03  0.26625510154E+03  0.25500000920E-02 0.  1.
    10030    2    1    2    0    0  0.00000000000E+00  0.00000000000E+00  0.23349807634E+02  0.55586001072E+03  0.55536937078E+03 0.  0.
        5    1    3    3  502    0 -0.17765589428E+03  0.50756103824E+02 -0.19574933633E+03  0.26921681137E+03  0.46999998093E+01 0.  1.
       -5    1    3    3    0  502  0.17765589428E+03 -0.50756103824E+02  0.21909914397E+03  0.28664319935E+03  0.46999998093E+01 0. -1.
</event>
<event>
 5   0  0.7220250E-02  0.4850038E+03  0.7818609E-02  0.1017769E+00
        3   -1    0    0  501    0  0.00000000000E+00  0.00000000000E+00  0.30319633512E+03  0.30319635194E+03  0.10100000352E+00 0.  1.
       -3   -1    0    0    0  501  0.00000000000E+00  0.00000000000E+00 -0.19395733172E+03  0.19395735801E+03  0.10100000352E+00 0. -1.
    10030    2    1    2    0    0  0.00000000000E+00  0.00000000000E+00  0.10923900340E+03  0.49715370995E+03  0.48500376437E+03 0.  0.
        3    1    3    3  502    0  0.38402130838E+01  0.21413767838E+03  0.17121186014E+03  0.27419555757E+03  0.10100000352E+00 0.  1.
       -3    1    3    3    0  502 -0.38402130838E+01 -0.21413767838E+03 -0.61972856737E+02  0.22295815238E+03  0.10100000352E+00 0. -1.
</event>
<event>
 5   0  0.1074281E-01  0.4962432E+03  0.7818609E-02  0.1014764E+00
       -1   -1    0    0    0  501  0.00000000000E+00  0.00000000000E+00  0.14239660424E+03  0.14239660433E+03  0.50400001928E-02 0.  1.
        1   -1    0    0  501    0  0.00000000000E+00  0.00000000000E+00 -0.43234407617E+03  0.43234407620E+03  0.50400001928E-02 0. -1.
    10030    2    1    2    0    0  0.00000000000E+00  0.00000000000E+00 -0.28994747193E+03  0.57474068054E+03  0.49624319984E+03 0.  0.
        4    1    3    3  502    0  0.16545078414E+03  0.18148093204E+03 -0.18597776268E+03  0.30805621529E+03  0.12699999809E+01 0.  1.
       -4    1    3    3    0  502 -0.16545078414E+03 -0.18148093204E+03 -0.10396970925E+03  0.26668446525E+03  0.12699999809E+01 0. -1.
</event>
<event>
 5   0  0.1147245E-01  0.4911969E+03  0.7818609E-02  0.1016103E+00
        1   -1    0    0  501    0  0.00000000000E+00  0.00000000000E+00  0.86487799241E+02  0.86487799388E+02  0.50400001928E-02 0.  1.
       -1   -1    0    0    0  501  0.00000000000E+00  0.00000000000E+00 -0.69742307962E+03  0.69742307964E+03  0.50400001928E-02 0. -1.
    10030    2    1    2    0    0  0.00000000000E+00  0.00000000000E+00 -0.61093528038E+03  0.78391087903E+03  0.49119685407E+03 0.  0.
        1    1    3    3  502    0 -0.21915602617E+03  0.96292450984E+01 -0.12921779435E+03  0.25459639544E+03  0.50400001928E-02 0.  1.
       -1    1    3    3    0  502  0.21915602617E+03 -0.96292450984E+01 -0.48171748603E+03  0.52931448359E+03  0.50400001928E-02 0. -1.
</event>
<event>
 5   0  0.1683148E-01  0.5062108E+03  0.7818609E-02  0.1012170E+00
        2   -1    0    0  501    0  0.00000000000E+00  0.00000000000E+00  0.85407758461E+03  0.85407758462E+03  0.25500000920E-02 0. -1.
       -2   -1    0    0    0  501  0.00000000000E+00  0.00000000000E+00 -0.75007624885E+02  0.75007624929E+02  0.25500000920E-02 0.  1.
    10030    2    1    2    0    0  0.00000000000E+00  0.00000000000E+00  0.77906995973E+03  0.92908520954E+03  0.50621075102E+03 0.  0.
        2    1    3    3  502    0  0.16946978130E+03 -0.88718257175E+02  0.85331246253E+02  0.20945729284E+03  0.25500000920E-02 0.  1.
       -2    1    3    3    0  502 -0.16946978130E+03  0.88718257175E+02  0.69373871347E+03  0.71962791671E+03  0.25500000920E-02 0. -1.
</event>
<event>
 5   0  0.1123271E-01  0.4243284E+03  0.7818609E-02  0.1035667E+00
        1   -1    0    0  501    0  0.00000000000E+00  0.00000000000E+00  0.18854379380E+03  0.18854379386E+03  0.50400001928E-02 0.  1.
       -1   -1    0    0    0  501  0.00000000000E+00  0.00000000000E+00 -0.23874375729E+03  0.23874375735E+03  0.50400001928E-02 0. -1.
    10030    2    1    2    0    0  0.00000000000E+00  0.00000000000E+00 -0.50199963500E+02  0.42728755121E+03  0.42432842832E+03 0.  0.
        5    1    3    3  502    0 -0.63940543440E+02  0.35546388820E+02 -0.22558544091E+03  0.23719784991E+03  0.46999998093E+01 0. -1.
       -5    1    3    3    0  502  0.63940543440E+02 -0.35546388820E+02  0.17538547741E+03  0.19008970130E+03  0.46999998093E+01 0.  1.
</event>
<event>
 5   0  0.1074281E-01  0.5249067E+03  0.7818609E-02  0.1007475E+00
        1   -1    0    0  501    0  0.00000000000E+00  0.00000000000E+00  0.24911463669E+04  0.24911463669E+04  0.50400001928E-02 0. -1.
       -1   -1    0    0    0  501  0.00000000000E+00  0.00000000000E+00 -0.27650631599E+02  0.27650632058E+02  0.50400001928E-02 0.  1.
    10030    2    1    2    0    0  0.00000000000E+00  0.00000000000E+00  0.24634957353E+04  0.25187969989E+04  0.52490673851E+03 0.  0.
        4    1    3    3  502    0 -0.50719551214E+02 -0.13125128897E+03  0.16866586323E+03  0.21965691441E+03  0.12699999809E+01 0.  1.
       -4    1    3    3    0  502  0.50719551214E+02  0.13125128897E+03  0.22948298721E+04  0.22991400845E+04  0.12699999809E+01 0. -1.
</event>
<event>
 5   0  0.1709372E-01  0.5151630E+03  0.7818609E-02  0.1009895E+00
        2   -1    0    0  501    0  0.00000000000E+00  0.00000000000E+00  0.24217246002E+03  0.24217246003E+03  0.25500000920E-02 0. -1.
       -2   -1    0    0    0  501  0.00000000000E+00  0.00000000000E+00 -0.27397095410E+03  0.27397095411E+03  0.25500000920E-02 0.  1.
    10030    2    1    2    0    0  0.00000000000E+00  0.00000000000E+00 -0.31798494076E+02  0.51614341414E+03  0.51516296425E+03 0.  0.
        4    1    3    3  502    0  0.20551304238E+03  0.12580290847E+03 -0.10709238825E+03  0.26368992186E+03  0.12699999809E+01 0.  1.
       -4    1    3    3    0  502 -0.20551304238E+03 -0.12580290847E+03  0.75293894177E+02  0.25245349229E+03  0.12699999809E+01 0. -1.
</event>
<event>
 5   0  0.1123271E-01  0.5009932E+03  0.7818609E-02  0.1013520E+00
        1   -1    0    0  501    0  0.00000000000E+00  0.00000000000E+00  0.22599004338E+03  0.22599004344E+03  0.50400001928E-02 0.  1.
       -1   -1    0    0    0  501  0.00000000000E+00  0.00000000000E+00 -0.27766067458E+03  0.27766067462E+03  0.50400001928E-02 0. -1.
    10030    2    1    2    0    0  0.00000000000E+00  0.00000000000E+00 -0.51670631194E+02  0.50365071806E+03  0.50099320522E+03 0.  0.
        5    1    3    3  502    0 -0.25484756701E+00 -0.24802428555E+03 -0.60809897081E+02  0.25541347801E+03  0.46999998093E+01 0. -1.
       -5    1    3    3    0  502  0.25484756701E+00  0.24802428555E+03  0.91392658863E+01  0.24823724005E+03  0.46999998093E+01 0.  1.
</event>
<event>
 5   0  0.1782124E-01  0.4925678E+03  0.7818609E-02  0.1015737E+00
        2   -1    0    0  501    0  0.00000000000E+00  0.00000000000E+00  0.15225952708E+03  0.15225952710E+03  0.25500000920E-02 0.  1.
       -2   -1    0    0    0  501  0.00000000000E+00  0.00000000000E+00 -0.39837088982E+03  0.39837088983E+03  0.25500000920E-02 0. -1.
    10030    2    1    2    0    0  0.00000000000E+00  0.00000000000E+00 -0.24611136274E+03  0.55063041693E+03  0.49256781582E+03 0.  0.
        3    1    3    3  502    0 -0.54258712891E+02  0.22937006924E+02 -0.39037949933E+03  0.39479903484E+03  0.10100000352E+00 0. -1.
       -3    1    3    3    0  502  0.54258712891E+02 -0.22937006924E+02  0.14426813659E+03  0.15583138210E+03  0.10100000352E+00 0.  1.
</event>
<event>
 5   0  0.1827698E-01  0.4916280E+03  0.7818609E-02  0.1015988E+00
        2   -1    0    0  501    0  0.00000000000E+00  0.00000000000E+00  0.23229396786E+03  0.23229396788E+03  0.25500000920E-02 0.  1.
       -2   -1    0    0    0  501  0.00000000000E+00  0.00000000000E+00 -0.26012093114E+03  0.26012093115E+03  0.25500000920E-02 0. -1.
    10030    2    1    2    0    0  0.00000000000E+00  0.00000000000E+00 -0.27826963275E+02  0.49241489903E+03  0.49162800256E+03 0.  0.
        1    1    3    3  502    0  0.81217096634E+02  0.13788019054E+03  0.17297928316E+03  0.23564591266E+03  0.50400001928E-02 0.  1.
       -1    1    3    3    0  502 -0.81217096634E+02 -0.13788019054E+03 -0.20080624643E+03  0.25676898637E+03  0.50400001928E-02 0. -1.
</event>
<event>
 5   0  0.1147245E-01  0.4960171E+03  0.7818609E-02  0.1014824E+00
       -1   -1    0    0    0  501  0.00000000000E+00  0.00000000000E+00  0.61819307549E+02  0.61819307754E+02  0.50400001928E-02 0.  1.
        1   -1    0    0  501    0  0.00000000000E+00  0.00000000000E+00 -0.99496806679E+03  0.99496806680E+03  0.50400001928E-02 0. -1.
    10030    2    1    2    0    0  0.00000000000E+00  0.00000000000E+00 -0.93314875924E+03  0.10567873746E+04  0.49601708453E+03 0.  0.
        1    1    3    3  502    0 -0.70037699893E+02  0.74373157489E+02 -0.94805706568E+03  0.95354540834E+03  0.50400001928E-02 0. -1.
       -1    1    3    3    0  502  0.70037699893E+02 -0.74373157489E+02  0.14908306440E+02  0.10324196621E+03  0.50400001928E-02 0.  1.
</event>
<event>
 5   0  0.7220250E-02  0.4984408E+03  0.7818609E-02  0.1014187E+00
        3   -1    0    0  501    0  0.00000000000E+00  0.00000000000E+00  0.48710821904E+03  0.48710822951E+03  0.10100000352E+00 0.  1.
       -3   -1    0    0    0  501  0.00000000000E+00  0.00000000000E+00 -0.12750922227E+03  0.12750926227E+03  0.10100000352E+00 0. -1.
    10030    2    1    2    0    0  0.00000000000E+00  0.00000000000E+00  0.35959899677E+03  0.61461749179E+03  0.49844079160E+03 0.  0.
        2    1    3    3  502    0 -0.10882890713E+03  0.14187072187E+02 -0.96106997814E+02  0.14588200396E+03  0.25500000920E-02 0. -1.
       -2    1    3    3    0  502  0.10882890713E+03 -0.14187072187E+02  0.45570599458E+03  0.46873548783E+03  0.25500000920E-02 0.  1.
</event>
<event>
 5   0  0.1068522E-01  0.5029768E+03  0.7818609E-02  0.1013005E+00
        1   -1    0    0  501    0  0.00000000000E+00  0.00000000000E+00  0.54032887754E+03  0.54032887756E+03  0.50400001928E-02 0. -1.
       -1   -1    0    0    0  501  0.00000000000E+00  0.00000000000E+00 -0.11705170459E+03  0.11705170470E+03  0.50400001928E-02 0.  1.
    10030    2    1    2    0    0  0.00000000000E+00  0.00000000000E+00  0.42327717294E+03  0.65738058226E+03  0.50297680345E+03 0.  0.
        2    1    3    3  502    0  0.12344107992E+03 -0.54165552170E+02 -0.65844082109E+02  0.15002349953E+03  0.25500000920E-02 0.  1.
       -2    1    3    3    0  502 -0.12344107992E+03  0.54165552170E+02  0.48912125505E+03  0.50735708274E+03  0.25500000920E-02 0. -1.
</event>
<event>
 5   0  0.1074281E-01  0.5033619E+03  0.7818609E-02  0.1012905E+00
        1   -1    0    0  501    0  0.00000000000E+00  0.00000000000E+00  0.38596396158E+03  0.38596396161E+03  0.50400001928E-02 0.  1.
       -1   -1    0    0    0  501  0.00000000000E+00  0.00000000000E+00 -0.16411713835E+03  0.16411713842E+03  0.50400001928E-02 0. -1.
    10030    2    1    2    0    0  0.00000000000E+00  0.00000000000E+00  0.22184682323E+03  0.55008110003E+03  0.50336190126E+03 0.  0.
        4    1    3    3  502    0 -0.14749358884E+03  0.90282437235E+02  0.31075135020E+03  0.35563083637E+03  0.12699999809E+01 0.  1.
       -4    1    3    3    0  502  0.14749358884E+03 -0.90282437235E+02 -0.88904526971E+02  0.19445026366E+03  0.12699999809E+01 0. -1.
</event>
<event>
 5   0  0.1068522E-01  0.5110827E+03  0.7818609E-02  0.1010926E+00
        1   -1    0    0  501    0  0.00000000000E+00  0.00000000000E+00  0.41904826989E+03  0.41904826992E+03  0.50400001928E-02 0. -1.
       -1   -1    0    0    0  501  0.00000000000E+00  0.00000000000E+00 -0.15583258505E+03  0.15583258513E+03  0.50400001928E-02 0.  1.
    10030    2    1    2    0    0  0.00000000000E+00  0.00000000000E+00  0.26321568484E+03  0.57488085505E+03  0.51108267508E+03 0.  0.
        2    1    3    3  502    0  0.49110291786E+02 -0.18363621796E+02  0.41293291429E+03  0.41624828537E+03  0.25500000920E-02 0. -1.
       -2    1    3    3    0  502 -0.49110291786E+02  0.18363621796E+02 -0.14971722945E+03  0.15863256969E+03  0.25500000920E-02 0.  1.
</event>
<event>
 5   0  0.1147245E-01  0.4919104E+03  0.7818609E-02  0.1015912E+00
       -1   -1    0    0    0  501  0.00000000000E+00  0.00000000000E+00  0.78976863615E+02  0.78976863775E+02  0.50400001928E-02 0.  1.
        1   -1    0    0  501    0  0.00000000000E+00  0.00000000000E+00 -0.76597055674E+03  0.76597055676E+03  0.50400001928E-02 0. -1.
    10030    2    1    2    0    0  0.00000000000E+00  0.00000000000E+00 -0.68699369313E+03  0.84494742054E+03  0.49191036691E+03 0.  0.
        1    1    3    3  502    0 -0.24160543399E+02  0.31608848430E+02 -0.76040681483E+03  0.76144689587E+03  0.50400001928E-02 0. -1.
       -1    1    3    3    0  502  0.24160543399E+02 -0.31608848430E+02  0.73413121703E+02  0.83500524669E+02  0.50400001928E-02 0.  1.
</event>
<event>
 5   0  0.1760649E-01  0.4956191E+03  0.7818609E-02  0.1014929E+00
        2   -1    0    0  501    0  0.00000000000E+00  0.00000000000E+00  0.14609259374E+04  0.14609259374E+04  0.25500000920E-02 0.  1.
       -2   -1    0    0    0  501  0.00000000000E+00  0.00000000000E+00 -0.42034692394E+02  0.42034692471E+02  0.25500000920E-02 0. -1.
    10030    2    1    2    0    0  0.00000000000E+00  0.00000000000E+00  0.14188912450E+04  0.15029606299E+04  0.49561909749E+03 0.  0.
        5    1    3    3  502    0 -0.13453908905E+03  0.19299372751E+03  0.47376549174E+03  0.52898315333E+03  0.46999998093E+01 0. -1.
       -5    1    3    3    0  502  0.13453908905E+03 -0.19299372751E+03  0.94512575329E+03  0.97397747658E+03  0.46999998093E+01 0.  1.
</event>
<event>
 5   0  0.1683148E-01  0.4723579E+03  0.7818609E-02  0.1021257E+00
       -2   -1    0    0    0  501  0.00000000000E+00  0.00000000000E+00  0.11475722522E+03  0.11475722525E+03  0.25500000920E-02 0. -1.
        2   -1    0    0  501    0  0.00000000000E+00  0.00000000000E+00 -0.48607401598E+03  0.48607401599E+03  0.25500000920E-02 0.  1.
    10030    2    1    2    0    0  0.00000000000E+00  0.00000000000E+00 -0.37131679076E+03  0.60083124123E+03  0.47235793773E+03 0.  0.
        2    1    3    3  502    0  0.10286814837E+02 -0.23541016764E+03 -0.20603950556E+03  0.31301125131E+03  0.25500000920E-02 0. -1.
       -2    1    3    3    0  502 -0.10286814837E+02  0.23541016764E+03 -0.16527728521E+03  0.28781998993E+03  0.25500000920E-02 0.  1.
</event>
<event>
 5   0  0.1068522E-01  0.4992772E+03  0.7818609E-02  0.1013968E+00
       -1   -1    0    0    0  501  0.00000000000E+00  0.00000000000E+00  0.53977316506E+03  0.53977316509E+03  0.50400001928E-02 0.  1.
        1   -1    0    0  501    0  0.00000000000E+00  0.00000000000E+00 -0.11545485874E+03  0.11545485885E+03  0.50400001928E-02 0. -1.
    10030    2    1    2    0    0  0.00000000000E+00  0.00000000000E+00  0.42431830632E+03  0.65522802394E+03  0.49927721585E+03 0.  0.
        2    1    3    3  502    0 -0.97480996194E+02  0.77812079547E+02 -0.71631472334E+02  0.14383439150E+03  0.25500000920E-02 0. -1.
       -2    1    3    3    0  502  0.97480996194E+02 -0.77812079547E+02  0.49594977866E+03  0.51139363244E+03  0.25500000920E-02 0.  1.
</event>
<event>
 5   0  0.1074281E-01  0.4865318E+03  0.7818609E-02  0.1017355E+00
        1   -1    0    0  501    0  0.00000000000E+00  0.00000000000E+00  0.52605155767E+02  0.52605156008E+02  0.50400001928E-02 0.  1.
       -1   -1    0    0    0  501  0.00000000000E+00  0.00000000000E+00 -0.11249525904E+04  0.11249525904E+04  0.50400001928E-02 0. -1.
    10030    2    1    2    0    0  0.00000000000E+00  0.00000000000E+00 -0.10723474346E+04  0.11775577464E+04  0.48653183409E+03 0.  0.
        4    1    3    3  502    0 -0.11853036720E+03  0.21115718755E+03 -0.47993664983E+03  0.53756637409E+03  0.12699999809E+01 0. -1.
       -4    1    3    3    0  502  0.11853036720E+03 -0.21115718755E+03 -0.59241078477E+03  0.63999137229E+03  0.12699999809E+01 0.  1.
</event>
<event>
 5   0  0.1147245E-01  0.4904806E+03  0.7818609E-02  0.1016294E+00
        1   -1    0    0  501    0  0.00000000000E+00  0.00000000000E+00  0.76000511572E+03  0.76000511573E+03  0.50400001928E-02 0. -1.
       -1   -1    0    0    0  501  0.00000000000E+00  0.00000000000E+00 -0.79134738009E+02  0.79134738170E+02  0.50400001928E-02 0.  1.
    10030    2    1    2    0    0  0.00000000000E+00  0.00000000000E+00  0.68087037771E+03  0.83913985390E+03  0.49048060427E+03 0.  0.
        1    1    3    3  502    0  0.14752411201E+03 -0.19209367422E+03  0.40624103621E+03  0.47296418768E+03  0.50400001928E-02 0.  1.
       -1    1    3    3    0  502 -0.14752411201E+03  0.19209367422E+03  0.27462934150E+03  0.36617566623E+03  0.50400001928E-02 0. -1.
</event>
<event>
 5   0  0.1147245E-01  0.4961617E+03  0.7818609E-02  0.1014786E+00
        1   -1    0    0  501    0  0.00000000000E+00  0.00000000000E+00  0.82901181738E+03  0.82901181740E+03  0.50400001928E-02 0. -1.
       -1   -1    0    0    0  501  0.00000000000E+00  0.00000000000E+00 -0.74237921359E+02  0.74237921530E+02  0.50400001928E-02 0.  1.
    10030    2    1    2    0    0  0.00000000000E+00  0.00000000000E+00  0.75477389602E+03  0.90324973893E+03  0.49616172440E+03 0.  0.
        1    1    3    3  502    0 -0.44419256603E+02  0.79604205190E+02  0.79741665834E+03  0.80261025838E+03  0.50400001928E-02 0. -1.
       -1    1    3    3    0  502  0.44419256603E+02 -0.79604205190E+02 -0.42642762315E+02  0.10063948054E+03  0.50400001928E-02 0.  1.
</event>
<event>
 5   0  0.7220250E-02  0.4941357E+03  0.7818609E-02  0.1015321E+00
       -3   -1    0    0    0  501  0.00000000000E+00  0.00000000000E+00  0.13501318581E+03  0.13501322358E+03  0.10100000352E+00 0. -1.
        3   -1    0    0  501    0  0.00000000000E+00  0.00000000000E+00 -0.45212261071E+03  0.45212262199E+03  0.10100000352E+00 0.  1.
    10030    2    1    2    0    0  0.00000000000E+00  0.00000000000E+00 -0.31710942490E+03  0.58713584557E+03  0.49413572406E+03 0.  0.
        3    1    3    3  502    0 -0.17906712640E+03 -0.11202564144E+02 -0.36038214333E+03  0.40257400889E+03  0.10100000352E+00 0.  1.
       -3    1    3    3    0  502  0.17906712640E+03  0.11202564144E+02  0.43272718427E+02  0.18456183669E+03  0.10100000352E+00 0. -1.
</event>
<event>
 5   0  0.1068522E-01  0.5225309E+03  0.7818609E-02  0.1008060E+00
        1   -1    0    0  501    0  0.00000000000E+00  0.00000000000E+00  0.31228499326E+02  0.31228499733E+02  0.50400001928E-02 0. -1.
       -1   -1    0    0    0  501  0.00000000000E+00  0.00000000000E+00 -0.21858122094E+04  0.21858122095E+04  0.50400001928E-02 0.  1.
    10030    2    1    2    0    0  0.00000000000E+00  0.00000000000E+00 -0.21545837101E+04  0.22170407092E+04  0.52253090078E+03 0.  0.
        2    1    3    3  502    0 -0.21703596481E+03 -0.34723454532E+02 -0.16765660800E+04  0.16909122239E+04  0.25500000920E-02 0.  1.
       -2    1    3    3    0  502  0.21703596481E+03  0.34723454532E+02 -0.47801763010E+03  0.52612848527E+03  0.25500000920E-02 0. -1.
</event>
<event>
 5   0  0.1074281E-01  0.5007667E+03  0.7818609E-02  0.1013579E+00
       -1   -1    0    0    0  501  0.00000000000E+00  0.00000000000E+00  0.13163454108E+03  0.13163454118E+03  0.50400001928E-02 0. -1.
        1   -1    0    0  501    0  0.00000000000E+00  0.00000000000E+00 -0.47625665937E+03  0.47625665940E+03  0.50400001928E-02 0.  1.
    10030    2    1    2    0    0  0.00000000000E+00  0.00000000000E+00 -0.34462211829E+03  0.60789120058E+03  0.50076671946E+03 0.  0.
        4    1    3    3  502    0 -0.58669355701E+02  0.18350913972E+03  0.21812001656E+02  0.19389449187E+03  0.12699999809E+01 0. -1.
       -4    1    3    3    0  502  0.58669355701E+02 -0.18350913972E+03 -0.36643411995E+03  0.41399670871E+03  0.12699999809E+01 0.  1.
</event>
<event>
 5   0  0.1141970E-01  0.4996644E+03  0.7818609E-02  0.1013867E+00
       -1   -1    0    0    0  501  0.00000000000E+00  0.00000000000E+00  0.23870663040E+03  0.23870663045E+03  0.50400001928E-02 0. -1.
        1   -1    0    0  501    0  0.00000000000E+00  0.00000000000E+00 -0.26147631524E+03  0.26147631529E+03  0.50400001928E-02 0.  1.
    10030    2    1    2    0    0  0.00000000000E+00  0.00000000000E+00 -0.22769684836E+02  0.50018294574E+03  0.49966440804E+03 0.  0.
        3    1    3    3  502    0 -0.13791481812E+02 -0.14317465235E+03  0.19309886094E+03  0.24078281987E+03  0.10100000352E+00 0. -1.
       -3    1    3    3    0  502  0.13791481812E+02  0.14317465235E+03 -0.21586854577E+03  0.25940012587E+03  0.10100000352E+00 0.  1.
</event>
<event>
 5   0  0.1683148E-01  0.4981738E+03  0.7818609E-02  0.1014257E+00
        2   -1    0    0  501    0  0.00000000000E+00  0.00000000000E+00  0.45286773211E+03  0.45286773211E+03  0.25500000920E-02 0.  1.
       -2   -1    0    0    0  501  0.00000000000E+00  0.00000000000E+00 -0.13700310993E+03  0.13700310995E+03  0.25500000920E-02 0. -1.
    10030    2    1    2    0    0  0.00000000000E+00  0.00000000000E+00  0.31586462218E+03  0.58987084206E+03  0.49817381583E+03 0.  0.
        2    1    3    3  502    0 -0.35375024599E+02  0.24654632186E+03  0.15462401619E+03  0.29316389201E+03  0.25500000920E-02 0. -1.
       -2    1    3    3    0  502  0.35375024599E+02 -0.24654632186E+03  0.16124060599E+03  0.29670695006E+03  0.25500000920E-02 0.  1.
</event>
<event>
 5   0  0.1123271E-01  0.4975192E+03  0.7818609E-02  0.1014428E+00
       -1   -1    0    0    0  501  0.00000000000E+00  0.00000000000E+00  0.27949930805E+03  0.27949930809E+03  0.50400001928E-02 0.  1.
        1   -1    0    0  501    0  0.00000000000E+00  0.00000000000E+00 -0.22140066749E+03  0.22140066755E+03  0.50400001928E-02 0. -1.
    10030    2    1    2    0    0  0.00000000000E+00  0.00000000000E+00  0.58098640553E+02  0.50089997564E+03  0.49751917909E+03 0.  0.
        5    1    3    3  502    0  0.26114794405E+02  0.20469907379E+03 -0.11073053093E+03  0.23423713151E+03  0.46999998093E+01 0. -1.
       -5    1    3    3    0  502 -0.26114794405E+02 -0.20469907379E+03  0.16882917148E+03  0.26666284413E+03  0.46999998093E+01 0.  1.
</event>
<event>
 5   0  0.1827698E-01  0.4977845E+03  0.7818609E-02  0.1014359E+00
        2   -1    0    0  501    0  0.00000000000E+00  0.00000000000E+00  0.33781530013E+03  0.33781530014E+03  0.25500000920E-02 0.  1.
       -2   -1    0    0    0  501  0.00000000000E+00  0.00000000000E+00 -0.18337641246E+03  0.18337641248E+03  0.25500000920E-02 0. -1.
    10030    2    1    2    0    0  0.00000000000E+00  0.00000000000E+00  0.15443888767E+03  0.52119171261E+03  0.49778452293E+03 0.  0.
        1    1    3    3  502    0 -0.87325420323E+02 -0.18043584585E+03 -0.77245809621E+02  0.21482490226E+03  0.50400001928E-02 0. -1.
       -1    1    3    3    0  502  0.87325420323E+02  0.18043584585E+03  0.23168469729E+03  0.30636681035E+03  0.50400001928E-02 0.  1.
</event>
<event>
 5   0  0.1141970E-01  0.5036354E+03  0.7818609E-02  0.1012834E+00
        1   -1    0    0  501    0  0.00000000000E+00  0.00000000000E+00  0.72986070435E+02  0.72986070609E+02  0.50400001928E-02 0.  1.
       -1   -1    0    0    0  501  0.00000000000E+00  0.00000000000E+00 -0.86882555976E+03  0.86882555977E+03  0.50400001928E-02 0. -1.
    10030    2    1    2    0    0  0.00000000000E+00  0.00000000000E+00 -0.79583948932E+03  0.94181163038E+03  0.50363543795E+03 0.  0.
        3    1    3    3  502    0 -0.18089199836E+03  0.45380592538E+01 -0.70426657102E+02  0.19417114432E+03  0.10100000352E+00 0.  1.
       -3    1    3    3    0  502  0.18089199836E+03 -0.45380592538E+01 -0.72541283222E+03  0.74764048606E+03  0.10100000352E+00 0. -1.
</event>
<event>
 5   0  0.1827698E-01  0.4784925E+03  0.7818609E-02  0.1019550E+00
       -2   -1    0    0    0  501  0.00000000000E+00  0.00000000000E+00  0.29627606978E+03  0.29627606979E+03  0.25500000920E-02 0. -1.
        2   -1    0    0  501    0  0.00000000000E+00  0.00000000000E+00 -0.19319406146E+03  0.19319406148E+03  0.25500000920E-02 0.  1.
    10030    2    1    2    0    0  0.00000000000E+00  0.00000000000E+00  0.10308200832E+03  0.48947013127E+03  0.47849253805E+03 0.  0.
        1    1    3    3  502    0  0.25664759468E+02  0.85509975518E+02  0.27859759636E+03  0.29255299779E+03  0.50400001928E-02 0. -1.
       -1    1    3    3    0  502 -0.25664759468E+02 -0.85509975518E+02 -0.17551558804E+03  0.19691713349E+03  0.50400001928E-02 0.  1.
</event>
<event>
 5   0  0.1147245E-01  0.4416663E+03  0.7818609E-02  0.1030237E+00
       -1   -1    0    0    0  501  0.00000000000E+00  0.00000000000E+00  0.27427061739E+03  0.27427061744E+03  0.50400001928E-02 0. -1.
        1   -1    0    0  501    0  0.00000000000E+00  0.00000000000E+00 -0.17780716319E+03  0.17780716326E+03  0.50400001928E-02 0.  1.
    10030    2    1    2    0    0  0.00000000000E+00  0.00000000000E+00  0.96463454201E+02  0.45207778070E+03  0.44166630142E+03 0.  0.
        1    1    3    3  502    0 -0.11254776564E+03  0.12461711653E+03  0.19503815479E+03  0.25736415277E+03  0.50400001928E-02 0. -1.
       -1    1    3    3    0  502  0.11254776564E+03 -0.12461711653E+03 -0.98574700585E+02  0.19471362793E+03  0.50400001928E-02 0.  1.
</event>
<event>
 5   0  0.1760649E-01  0.5004514E+03  0.7818609E-02  0.1013661E+00
       -2   -1    0    0    0  501  0.00000000000E+00  0.00000000000E+00  0.31732925386E+03  0.31732925387E+03  0.25500000920E-02 0.  1.
        2   -1    0    0  501    0  0.00000000000E+00  0.00000000000E+00 -0.19731211269E+03  0.19731211270E+03  0.25500000920E-02 0. -1.
    10030    2    1    2    0    0  0.00000000000E+00  0.00000000000E+00  0.12001714117E+03  0.51464136657E+03  0.50045141823E+03 0.  0.
        5    1    3    3  502    0 -0.18962419948E+03 -0.12597309967E+03  0.16670129105E+03  0.28220200089E+03  0.46999998093E+01 0.  1.
       -5    1    3    3    0  502  0.18962419948E+03  0.12597309967E+03 -0.46684149883E+02  0.23243936568E+03  0.46999998093E+01 0. -1.
</event>
<event>
 5   0  0.7220250E-02  0.5031725E+03  0.7818609E-02  0.1012954E+00
       -4   -1    0    0    0  501  0.00000000000E+00  0.00000000000E+00  0.13247813718E+03  0.13248422446E+03  0.12699999809E+01 0. -1.
        4   -1    0    0  501    0  0.00000000000E+00  0.00000000000E+00 -0.47776392472E+03  0.47776561269E+03  0.12699999809E+01 0.  1.
    10030    2    1    2    0    0  0.00000000000E+00  0.00000000000E+00 -0.34528578754E+03  0.61024983714E+03  0.50317252374E+03 0.  0.
        5    1    3    3  502    0  0.23889635919E+02 -0.17814985243E+03  0.40774400766E+02  0.18437116472E+03  0.46999998093E+01 0. -1.
       -5    1    3    3    0  502 -0.23889635919E+02  0.17814985243E+03 -0.38606018831E+03  0.42587867242E+03  0.46999998093E+01 0.  1.
</event>
<event>
 5   0  0.1782124E-01  0.4992359E+03  0.7818609E-02  0.1013979E+00
       -2   -1    0    0    0  501  0.00000000000E+00  0.00000000000E+00  0.71681157824E+02  0.71681157869E+02  0.25500000920E-02 0. -1.
        2   -1    0    0  501    0  0.00000000000E+00  0.00000000000E+00 -0.86925383922E+03  0.86925383922E+03  0.25500000920E-02 0.  1.
    10030    2    1    2    0    0  0.00000000000E+00  0.00000000000E+00 -0.79757268140E+03  0.94093499709E+03  0.49923590280E+03 0.  0.
        3    1    3    3  502    0 -0.11127404351E+03 -0.10220858311E+03 -0.24291613717E+02  0.15303136907E+03  0.10100000352E+00 0. -1.
       -3    1    3    3    0  502  0.11127404351E+03  0.10220858311E+03 -0.77328106768E+03  0.78790362802E+03  0.10100000352E+00 0.  1.
</event>
<event>
 5   0  0.1683148E-01  0.4986796E+03  0.7818609E-02  0.1014124E+00
       -2   -1    0    0    0  501  0.00000000000E+00  0.00000000000E+00  0.28132467514E+03  0.28132467515E+03  0.25500000920E-02 0. -1.
        2   -1    0    0  501    0  0.00000000000E+00  0.00000000000E+00 -0.22099138004E+03  0.22099138006E+03  0.25500000920E-02 0.  1.
    10030    2    1    2    0    0  0.00000000000E+00  0.00000000000E+00  0.60333295101E+02  0.50231605521E+03  0.49867956929E+03 0.  0.
        2    1    3    3  502    0  0.88832472482E+02 -0.51452452719E+02  0.25904987568E+03  0.27864924395E+03  0.25500000920E-02 0. -1.
       -2    1    3    3    0  502 -0.88832472482E+02  0.51452452719E+02 -0.19871658057E+03  0.22366681126E+03  0.25500000920E-02 0.  1.
</event>
<event>
 5   0  0.7220250E-02  0.4595282E+03  0.7818609E-02  0.1024918E+00
       -4   -1    0    0    0  501  0.00000000000E+00  0.00000000000E+00  0.35795382008E+03  0.35795607302E+03  0.12699999809E+01 0. -1.
        4   -1    0    0  501    0  0.00000000000E+00  0.00000000000E+00 -0.14747598304E+03  0.14748145129E+03  0.12699999809E+01 0.  1.
    10030    2    1    2    0    0  0.00000000000E+00  0.00000000000E+00  0.21047783704E+03  0.50543752431E+03  0.45952820489E+03 0.  0.
        4    1    3    3  502    0 -0.50076253144E+02  0.59491096706E+02  0.34304015162E+03  0.35174561865E+03  0.12699999809E+01 0. -1.
       -4    1    3    3    0  502  0.50076253144E+02 -0.59491096706E+02 -0.13256231458E+03  0.15369190565E+03  0.12699999809E+01 0.  1.
</event>
<event>
 5   0  0.1760649E-01  0.5295187E+03  0.7818609E-02  0.1006349E+00
       -2   -1    0    0    0  501  0.00000000000E+00  0.00000000000E+00  0.15968739714E+03  0.15968739716E+03  0.25500000920E-02 0. -1.
        2   -1    0    0  501    0  0.00000000000E+00  0.00000000000E+00 -0.43896713933E+03  0.43896713934E+03  0.25500000920E-02 0.  1.
    10030    2    1    2    0    0  0.00000000000E+00  0.00000000000E+00 -0.27927974219E+03  0.59865453650E+03  0.52951872457E+03 0.  0.
        5    1    3    3  502    0  0.49940934856E+02  0.79190614260E+02 -0.41957748073E+03  0.42992162389E+03  0.46999998093E+01 0.  1.
       -5    1    3    3    0  502 -0.49940934856E+02 -0.79190614260E+02  0.14029773853E+03  0.16873291261E+03  0.46999998093E+01 0. -1.
</event>
<event>
 5   0  0.1760649E-01  0.5030855E+03  0.7818609E-02  0.1012977E+00
        2   -1    0    0  501    0  0.00000000000E+00  0.00000000000E+00  0.29685461232E+03  0.29685461233E+03  0.25500000920E-02 0.  1.
       -2   -1    0    0    0  501  0.00000000000E+00  0.00000000000E+00 -0.21314731802E+03  0.21314731804E+03  0.25500000920E-02 0. -1.
    10030    2    1    2    0    0  0.00000000000E+00  0.00000000000E+00  0.83707294301E+02  0.51000193037E+03  0.50308553732E+03 0.  0.
        5    1    3    3  502    0  0.24476138872E+03 -0.57813331067E+02  0.42943514117E+02  0.25517984650E+03  0.46999998093E+01 0.  1.
       -5    1    3    3    0  502 -0.24476138872E+03  0.57813331067E+02  0.40763780183E+02  0.25482208387E+03  0.46999998093E+01 0. -1.
</event>
<event>
 5   0  0.1782124E-01  0.5046493E+03  0.7818609E-02  0.1012572E+00
       -2   -1    0    0    0  501  0.00000000000E+00  0.00000000000E+00  0.35287826309E+03  0.35287826310E+03  0.25500000920E-02 0.  1.
        2   -1    0    0  501    0  0.00000000000E+00  0.00000000000E+00 -0.18042409191E+03  0.18042409193E+03  0.25500000920E-02 0. -1.
    10030    2    1    2    0    0  0.00000000000E+00  0.00000000000E+00  0.17245417118E+03  0.53330235503E+03  0.50464934432E+03 0.  0.
        3    1    3    3  502    0  0.85647328449E+02  0.23663834982E+03  0.66897678769E+02  0.26040062040E+03  0.10100000352E+00 0.  1.
       -3    1    3    3    0  502 -0.85647328449E+02 -0.23663834982E+03  0.10555649241E+03  0.27290173464E+03  0.10100000352E+00 0. -1.
</event>
<event>
 5   0  0.1827698E-01  0.4869969E+03  0.7818609E-02  0.1017230E+00
       -2   -1    0    0    0  501  0.00000000000E+00  0.00000000000E+00  0.43124785936E+03  0.43124785936E+03  0.25500000920E-02 0.  1.
        2   -1    0    0  501    0  0.00000000000E+00  0.00000000000E+00 -0.13748821841E+03  0.13748821844E+03  0.25500000920E-02 0. -1.
    10030    2    1    2    0    0  0.00000000000E+00  0.00000000000E+00  0.29375964094E+03  0.56873607780E+03  0.48699691944E+03 0.  0.
        1    1    3    3  502    0  0.24077094474E+03  0.25646603658E+02  0.11680692066E+03  0.26883499186E+03  0.50400001928E-02 0.  1.
       -1    1    3    3    0  502 -0.24077094474E+03 -0.25646603658E+02  0.17695272028E+03  0.29990108594E+03  0.50400001928E-02 0. -1.
</event>
<event>
 5   0  0.1123271E-01  0.5049125E+03  0.7818609E-02  0.1012505E+00
       -1   -1    0    0    0  501  0.00000000000E+00  0.00000000000E+00  0.85928772119E+02  0.85928772267E+02  0.50400001928E-02 0. -1.
        1   -1    0    0  501    0  0.00000000000E+00  0.00000000000E+00 -0.74170906445E+03  0.74170906446E+03  0.50400001928E-02 0.  1.
    10030    2    1    2    0    0  0.00000000000E+00  0.00000000000E+00 -0.65578029233E+03  0.82763783673E+03  0.50491246467E+03 0.  0.
        5    1    3    3  502    0 -0.58899046162E+02  0.21417049483E+03 -0.13136755934E+03  0.25810390183E+03  0.46999998093E+01 0. -1.
       -5    1    3    3    0  502  0.58899046162E+02 -0.21417049483E+03 -0.52441273298E+03  0.56953393490E+03  0.46999998093E+01 0.  1.
</event>
<event>
 5   0  0.1147245E-01  0.4993420E+03  0.7818609E-02  0.1013951E+00
       -1   -1    0    0    0  501  0.00000000000E+00  0.00000000000E+00  0.33296788118E+03  0.33296788122E+03  0.50400001928E-02 0.  1.
        1   -1    0    0  501    0  0.00000000000E+00  0.00000000000E+00 -0.18721209079E+03  0.18721209086E+03  0.50400001928E-02 0. -1.
    10030    2    1    2    0    0  0.00000000000E+00  0.00000000000E+00  0.14575579039E+03  0.52017997208E+03  0.49934201998E+03 0.  0.
        1    1    3    3  502    0 -0.10356627833E+03  0.20976029893E+03  0.16375514002E+03  0.28555402802E+03  0.50400001928E-02 0. -1.
       -1    1    3    3    0  502  0.10356627833E+03 -0.20976029893E+03 -0.17999349623E+02  0.23462594406E+03  0.50400001928E-02 0.  1.
</event>
<event>
 5   0  0.7220250E-02  0.5178327E+03  0.7818609E-02  0.1009226E+00
       -3   -1    0    0    0  501  0.00000000000E+00  0.00000000000E+00  0.48240028365E+03  0.48240029422E+03  0.10100000352E+00 0.  1.
        3   -1    0    0  501    0  0.00000000000E+00  0.00000000000E+00 -0.13896690049E+03  0.13896693719E+03  0.10100000352E+00 0. -1.
    10030    2    1    2    0    0  0.00000000000E+00  0.00000000000E+00  0.34343338316E+03  0.62136723142E+03  0.51783274096E+03 0.  0.
        2    1    3    3  502    0  0.13213639746E+03  0.15808353476E+03  0.35987086971E+03  0.41467755469E+03  0.25500000920E-02 0.  1.
       -2    1    3    3    0  502 -0.13213639746E+03 -0.15808353476E+03 -0.16437486545E+02  0.20668967673E+03  0.25500000920E-02 0. -1.
</event>
<event>
 5   0  0.1683148E-01  0.5309390E+03  0.7818609E-02  0.1006005E+00
       -2   -1    0    0    0  501  0.00000000000E+00  0.00000000000E+00  0.10204045468E+03  0.10204045471E+03  0.25500000920E-02 0. -1.
        2   -1    0    0  501    0  0.00000000000E+00  0.00000000000E+00 -0.69064820894E+03  0.69064820894E+03  0.25500000920E-02 0.  1.
    10030    2    1    2    0    0  0.00000000000E+00  0.00000000000E+00 -0.58860775426E+03  0.79268866366E+03  0.53093900697E+03 0.  0.
        2    1    3    3  502    0  0.43585506547E+01 -0.14492954992E+03  0.37700107213E+02  0.14981611894E+03  0.25500000920E-02 0. -1.
       -2    1    3    3    0  502 -0.43585506547E+01  0.14492954992E+03 -0.62630786147E+03  0.64287254472E+03  0.25500000920E-02 0.  1.
</event>
<event>
 5   0  0.7220250E-02  0.5139861E+03  0.7818609E-02  0.1010191E+00
        4   -1    0    0  501    0  0.00000000000E+00  0.00000000000E+00  0.56779465850E+02  0.56793667272E+02  0.12699999809E+01 0. -1.
       -4   -1    0    0    0  501  0.00000000000E+00  0.00000000000E+00 -0.11630322208E+04  0.11630329142E+04  0.12699999809E+01 0.  1.
    10030    2    1    2    0    0  0.00000000000E+00  0.00000000000E+00 -0.11062527550E+04  0.12198265815E+04  0.51398611950E+03 0.  0.
        3    1    3    3  502    0 -0.46551962827E+02  0.24813867554E+03 -0.43917159307E+03  0.50656844148E+03  0.10100000352E+00 0. -1.
       -3    1    3    3    0  502  0.46551962827E+02 -0.24813867554E+03 -0.66708116190E+03  0.71325814002E+03  0.10100000352E+00 0.  1.
</event>
<event>
 5   0  0.1827698E-01  0.5035020E+03  0.7818609E-02  0.1012869E+00
        2   -1    0    0  501    0  0.00000000000E+00  0.00000000000E+00  0.20385536014E+04  0.20385536014E+04  0.25500000920E-02 0.  1.
       -2   -1    0    0    0  501  0.00000000000E+00  0.00000000000E+00 -0.31089970467E+02  0.31089970571E+02  0.25500000920E-02 0. -1.
    10030    2    1    2    0    0  0.00000000000E+00  0.00000000000E+00  0.20074636309E+04  0.20696435720E+04  0.50350202133E+03 0.  0.
        1    1    3    3  502    0 -0.14977758052E+02  0.19289704751E+03  0.34163590816E+03  0.39261775042E+03  0.50400001928E-02 0. -1.
       -1    1    3    3    0  502  0.14977758052E+02 -0.19289704751E+03  0.16658277228E+04  0.16770258215E+04  0.50400001928E-02 0.  1.
</event>
<event>
 5   0  0.1760649E-01  0.4963358E+03  0.7818609E-02  0.1014740E+00
       -2   -1    0    0    0  501  0.00000000000E+00  0.00000000000E+00  0.19293368967E+03  0.19293368969E+03  0.25500000920E-02 0.  1.
        2   -1    0    0  501    0  0.00000000000E+00  0.00000000000E+00 -0.31921487880E+03  0.31921487881E+03  0.25500000920E-02 0. -1.
    10030    2    1    2    0    0  0.00000000000E+00  0.00000000000E+00 -0.12628118913E+03  0.51214856850E+03  0.49633579107E+03 0.  0.
        5    1    3    3  502    0 -0.16101755872E+03  0.18450358629E+03 -0.10437607256E+03  0.26624177376E+03  0.46999998093E+01 0. -1.
       -5    1    3    3    0  502  0.16101755872E+03 -0.18450358629E+03 -0.21905116567E+02  0.24590679475E+03  0.46999998093E+01 0.  1.
</event>
<event>
 5   0  0.7220250E-02  0.4984072E+03  0.7818609E-02  0.1014195E+00
       -3   -1    0    0    0  501  0.00000000000E+00  0.00000000000E+00  0.47947762277E+03  0.47947763341E+03  0.10100000352E+00 0.  1.
        3   -1    0    0  501    0  0.00000000000E+00  0.00000000000E+00 -0.12952100299E+03  0.12952104237E+03  0.10100000352E+00 0. -1.
    10030    2    1    2    0    0  0.00000000000E+00  0.00000000000E+00  0.34995661979E+03  0.60899867578E+03  0.49840721440E+03 0.  0.
        2    1    3    3  502    0 -0.22963798816E+03 -0.71883511200E+02  0.95775786043E+02  0.25898618880E+03  0.25500000920E-02 0.  1.
       -2    1    3    3    0  502  0.22963798816E+03  0.71883511200E+02  0.25418083374E+03  0.35001248698E+03  0.25500000920E-02 0. -1.
</event>
<event>
 5   0  0.1141970E-01  0.4984178E+03  0.7818609E-02  0.1014193E+00
        1   -1    0    0  501    0  0.00000000000E+00  0.00000000000E+00  0.89287464872E+02  0.89287465015E+02  0.50400001928E-02 0.  1.
       -1   -1    0    0    0  501  0.00000000000E+00  0.00000000000E+00 -0.69556308320E+03  0.69556308321E+03  0.50400001928E-02 0. -1.
    10030    2    1    2    0    0  0.00000000000E+00  0.00000000000E+00 -0.60627561832E+03  0.78485054823E+03  0.49841775418E+03 0.  0.
        3    1    3    3  502    0  0.24322615530E+03  0.17907920717E+02 -0.38382248061E+03  0.45475197973E+03  0.10100000352E+00 0.  1.
       -3    1    3    3    0  502 -0.24322615530E+03 -0.17907920717E+02 -0.22245313771E+03  0.33009856850E+03  0.10100000352E+00 0. -1.
</event>
<event>
 5   0  0.1123271E-01  0.6064033E+03  0.7818609E-02  0.9892210E-01
        1   -1    0    0  501    0  0.00000000000E+00  0.00000000000E+00  0.39569256307E+03  0.39569256310E+03  0.50400001928E-02 0. -1.
       -1   -1    0    0    0  501  0.00000000000E+00  0.00000000000E+00 -0.23232997875E+03  0.23232997881E+03  0.50400001928E-02 0.  1.
    10030    2    1    2    0    0  0.00000000000E+00  0.00000000000E+00  0.16336258431E+03  0.62802254191E+03  0.60640331397E+03 0.  0.
        5    1    3    3  502    0  0.15847170018E+03 -0.25227312925E+03  0.23517277328E+02  0.29888152139E+03  0.46999998093E+01 0. -1.
       -5    1    3    3    0  502 -0.15847170018E+03  0.25227312925E+03  0.13984530699E+03  0.32914102051E+03  0.46999998093E+01 0.  1.
</event>
<event>
 5   0  0.1827698E-01  0.4981612E+03  0.7818609E-02  0.1014260E+00
        2   -1    0    0  501    0  0.00000000000E+00  0.00000000000E+00  0.65258204058E+03  0.65258204058E+03  0.25500000920E-02 0.  1.
       -2   -1    0    0    0  501  0.00000000000E+00  0.00000000000E+00 -0.95070275412E+02  0.95070275446E+02  0.25500000920E-02 0. -1.
    10030    2    1    2    0    0  0.00000000000E+00  0.00000000000E+00  0.55751176517E+03  0.74765231603E+03  0.49816123631E+03 0.  0.
        1    1    3    3  502    0 -0.15205054588E+03  0.15771369481E+03  0.10087071935E+03  0.24118018177E+03  0.50400001928E-02 0. -1.
       -1    1    3    3    0  502  0.15205054588E+03 -0.15771369481E+03  0.45664104582E+03  0.50647213426E+03  0.50400001928E-02 0.  1.
</event>
<event>
 5   0  0.1709372E-01  0.4988376E+03  0.7818609E-02  0.1014083E+00
       -2   -1    0    0    0  501  0.00000000000E+00  0.00000000000E+00  0.30617269958E+03  0.30617269959E+03  0.25500000920E-02 0. -1.
        2   -1    0    0  501    0  0.00000000000E+00  0.00000000000E+00 -0.20318512441E+03  0.20318512442E+03  0.25500000920E-02 0.  1.
    10030    2    1    2    0    0  0.00000000000E+00  0.00000000000E+00  0.10298757517E+03  0.50935782402E+03  0.49883760107E+03 0.  0.
        4    1    3    3  502    0 -0.94612036526E+02 -0.19329203123E+03 -0.77239957553E+02  0.22865010548E+03  0.12699999809E+01 0.  1.
       -4    1    3    3    0  502  0.94612036526E+02  0.19329203123E+03  0.18022753273E+03  0.28070771854E+03  0.12699999809E+01 0. -1.
</event>
<event>
 5   0  0.7220250E-02  0.5290712E+03  0.7818609E-02  0.1006458E+00
       -4   -1    0    0    0  501  0.00000000000E+00  0.00000000000E+00  0.17824829753E+03  0.17825282178E+03  0.12699999809E+01 0.  1.
        4   -1    0    0  501    0  0.00000000000E+00  0.00000000000E+00 -0.39258280503E+03  0.39258485924E+03  0.12699999809E+01 0. -1.
    10030    2    1    2    0    0  0.00000000000E+00  0.00000000000E+00 -0.21433450749E+03  0.57083768102E+03  0.52907123997E+03 0.  0.
        2    1    3    3  502    0  0.21384661274E+03 -0.15560359114E+03 -0.10067179487E+03  0.28297996686E+03  0.25500000920E-02 0.  1.
       -2    1    3    3    0  502 -0.21384661274E+03  0.15560359114E+03 -0.11366271262E+03  0.28785771416E+03  0.25500000920E-02 0. -1.
</event>
<event>
 5   0  0.1068522E-01  0.5298628E+03  0.7818609E-02  0.1006265E+00
        1   -1    0    0  501    0  0.00000000000E+00  0.00000000000E+00  0.87569600521E+03  0.87569600523E+03  0.50400001928E-02 0. -1.
       -1   -1    0    0    0  501  0.00000000000E+00  0.00000000000E+00 -0.80151837355E+02  0.80151837513E+02  0.50400001928E-02 0.  1.
    10030    2    1    2    0    0  0.00000000000E+00  0.00000000000E+00  0.79554416786E+03  0.95584784274E+03  0.52986278928E+03 0.  0.
        2    1    3    3  502    0  0.13379498980E+03  0.32072216002E+02 -0.10650791229E+02  0.13799697712E+03  0.25500000920E-02 0.  1.
       -2    1    3    3    0  502 -0.13379498980E+03 -0.32072216002E+02  0.80619495909E+03  0.81785086562E+03  0.25500000920E-02 0. -1.
</event>
<event>
 5   0  0.1782124E-01  0.5023674E+03  0.7818609E-02  0.1013163E+00
        2   -1    0    0  501    0  0.00000000000E+00  0.00000000000E+00  0.62102179049E+03  0.62102179049E+03  0.25500000920E-02 0.  1.
       -2   -1    0    0    0  501  0.00000000000E+00  0.00000000000E+00 -0.10159588149E+03  0.10159588152E+03  0.25500000920E-02 0. -1.
    10030    2    1    2    0    0  0.00000000000E+00  0.00000000000E+00  0.51942590900E+03  0.72261767202E+03  0.50236742029E+03 0.  0.
        3    1    3    3  502    0  0.23025596585E+03  0.56982825116E+02  0.14085003487E+03  0.27586879978E+03  0.10100000352E+00 0.  1.
       -3    1    3    3    0  502 -0.23025596585E+03 -0.56982825116E+02  0.37857587413E+03  0.44674887223E+03  0.10100000352E+00 0. -1.
</event>
<event>
 5   0  0.1074281E-01  0.5499816E+03  0.7818609E-02  0.1001498E+00
        1   -1    0    0  501    0  0.00000000000E+00  0.00000000000E+00  0.19734468824E+03  0.19734468830E+03  0.50400001928E-02 0.  1.
       -1   -1    0    0    0  501  0.00000000000E+00  0.00000000000E+00 -0.38318715909E+03  0.38318715912E+03  0.50400001928E-02 0. -1.
    10030    2    1    2    0    0  0.00000000000E+00  0.00000000000E+00 -0.18584247085E+03  0.58053184742E+03  0.54998163778E+03 0.  0.
        4    1    3    3  502    0  0.25948011400E+03 -0.78677402047E+02 -0.14127262977E+03  0.30574438994E+03  0.12699999809E+01 0. -1.
       -4    1    3    3    0  502 -0.25948011400E+03  0.78677402047E+02 -0.44569841079E+02  0.27478745748E+03  0.12699999809E+01 0.  1.
</event>
<event>
 5   0  0.1782124E-01  0.5007234E+03  0.7818609E-02  0.1013590E+00
        2   -1    0    0  501    0  0.00000000000E+00  0.00000000000E+00  0.10629611396E+04  0.10629611396E+04  0.25500000920E-02 0. -1.
       -2   -1    0    0    0  501  0.00000000000E+00  0.00000000000E+00 -0.58968264220E+02  0.58968264275E+02  0.25500000920E-02 0.  1.
    10030    2    1    2    0    0  0.00000000000E+00  0.00000000000E+00  0.10039928754E+04  0.11219294039E+04  0.50072337020E+03 0.  0.
        3    1    3    3  502    0  0.23358922468E+03 -0.83600771102E+02  0.57724743762E+03  0.62830536306E+03  0.10100000352E+00 0.  1.
       -3    1    3    3    0  502 -0.23358922468E+03  0.83600771102E+02  0.42674543775E+03  0.49362404080E+03  0.10100000352E+00 0. -1.
</event>
<event>
 5   0  0.1068522E-01  0.4892856E+03  0.7818609E-02  0.1016614E+00
        1   -1    0    0  501    0  0.00000000000E+00  0.00000000000E+00  0.40908753452E+03  0.40908753455E+03  0.50400001928E-02 0. -1.
       -1   -1    0    0    0  501  0.00000000000E+00  0.00000000000E+00 -0.14630143164E+03  0.14630143173E+03  0.50400001928E-02 0.  1.
    10030    2    1    2    0    0  0.00000000000E+00  0.00000000000E+00  0.26278610288E+03  0.55538896628E+03  0.48928556897E+03 0.  0.
        2    1    3    3  502    0 -0.13905479889E+03 -0.44364631785E+02 -0.91461977762E+02  0.17224909588E+03  0.25500000920E-02 0.  1.
       -2    1    3    3    0  502  0.13905479889E+03  0.44364631785E+02  0.35424808064E+03  0.38313987040E+03  0.25500000920E-02 0. -1.
</event>
<event>
 5   0  0.1827698E-01  0.4980603E+03  0.7818609E-02  0.1014286E+00
       -2   -1    0    0    0  501  0.00000000000E+00  0.00000000000E+00  0.54305418729E+03  0.54305418729E+03  0.25500000920E-02 0.  1.
        2   -1    0    0  501    0  0.00000000000E+00  0.00000000000E+00 -0.11419856486E+03  0.11419856489E+03  0.25500000920E-02 0. -1.
    10030    2    1    2    0    0  0.00000000000E+00  0.00000000000E+00  0.42885562242E+03  0.65725275219E+03  0.49806027283E+03 0.  0.
        1    1    3    3  502    0  0.21437721601E+03 -0.33846338431E+02  0.37557797103E+03  0.43377641444E+03  0.50400001928E-02 0.  1.
       -1    1    3    3    0  502 -0.21437721601E+03  0.33846338431E+02  0.53277651389E+02  0.22347633775E+03  0.50400001928E-02 0. -1.
</event>
<event>
 5   0  0.1683148E-01  0.5067762E+03  0.7818609E-02  0.1012025E+00
       -2   -1    0    0    0  501  0.00000000000E+00  0.00000000000E+00  0.10020613781E+03  0.10020613784E+03  0.25500000920E-02 0. -1.
        2   -1    0    0  501    0  0.00000000000E+00  0.00000000000E+00 -0.64073451644E+03  0.64073451644E+03  0.25500000920E-02 0.  1.
    10030    2    1    2    0    0  0.00000000000E+00  0.00000000000E+00 -0.54052837863E+03  0.74094065428E+03  0.50677620806E+03 0.  0.
        2    1    3    3  502    0  0.20853736117E+03 -0.66603338144E+02 -0.83704838236E+02  0.23437221594E+03  0.25500000920E-02 0. -1.
       -2    1    3    3    0  502 -0.20853736117E+03  0.66603338144E+02 -0.45682354039E+03  0.50656843834E+03  0.25500000920E-02 0.  1.
</event>
<event>
 5   0  0.7220250E-02  0.4878063E+03  0.7818609E-02  0.1017012E+00
        3   -1    0    0  501    0  0.00000000000E+00  0.00000000000E+00  0.37228756866E+03  0.37228758236E+03  0.10100000352E+00 0.  1.
       -3   -1    0    0    0  501  0.00000000000E+00  0.00000000000E+00 -0.15979245812E+03  0.15979249004E+03  0.10100000352E+00 0. -1.
    10030    2    1    2    0    0  0.00000000000E+00  0.00000000000E+00  0.21249511054E+03  0.53208007240E+03  0.48780634625E+03 0.  0.
        5    1    3    3  502    0 -0.23215685817E+03  0.24019900376E+02  0.18332125716E+03  0.29682071312E+03  0.46999998093E+01 0.  1.
       -5    1    3    3    0  502  0.23215685817E+03 -0.24019900376E+02  0.29173853384E+02  0.23525935928E+03  0.46999998093E+01 0. -1.
</event>
<event>
 5   0  0.1123271E-01  0.4887178E+03  0.7818609E-02  0.1016766E+00
        1   -1    0    0  501    0  0.00000000000E+00  0.00000000000E+00  0.76924357203E+03  0.76924357204E+03  0.50400001928E-02 0.  1.
       -1   -1    0    0    0  501  0.00000000000E+00  0.00000000000E+00 -0.77623360323E+02  0.77623360487E+02  0.50400001928E-02 0. -1.
    10030    2    1    2    0    0  0.00000000000E+00  0.00000000000E+00  0.69162021170E+03  0.84686693253E+03  0.48871779605E+03 0.  0.
        5    1    3    3  502    0 -0.14135684582E+03 -0.19842254544E+03  0.37756954209E+03  0.44937079735E+03  0.46999998093E+01 0. -1.
       -5    1    3    3    0  502  0.14135684582E+03  0.19842254544E+03  0.31405066961E+03  0.39749613518E+03  0.46999998093E+01 0.  1.
</event>
<event>
 5   0  0.1074281E-01  0.5207877E+03  0.7818609E-02  0.1008491E+00
        1   -1    0    0  501    0  0.00000000000E+00  0.00000000000E+00  0.86765142848E+02  0.86765142995E+02  0.50400001928E-02 0.  1.
       -1   -1    0    0    0  501  0.00000000000E+00  0.00000000000E+00 -0.78147691921E+03  0.78147691923E+03  0.50400001928E-02 0. -1.
    10030    2    1    2    0    0  0.00000000000E+00  0.00000000000E+00 -0.69471177636E+03  0.86824206222E+03  0.52078769801E+03 0.  0.
        4    1    3    3  502    0  0.25460767079E+01  0.22505994196E+03 -0.56565269181E+03  0.60878817386E+03  0.12699999809E+01 0. -1.
       -4    1    3    3    0  502 -0.25460767079E+01 -0.22505994196E+03 -0.12905908455E+03  0.25945388836E+03  0.12699999809E+01 0.  1.
</event>
<event>
 5   0  0.1123271E-01  0.4879619E+03  0.7818609E-02  0.1016970E+00
       -1   -1    0    0    0  501  0.00000000000E+00  0.00000000000E+00  0.37840201005E+03  0.37840201009E+03  0.50400001928E-02 0. -1.
        1   -1    0    0  501    0  0.00000000000E+00  0.00000000000E+00 -0.15731073909E+03  0.15731073917E+03  0.50400001928E-02 0.  1.
    10030    2    1    2    0    0  0.00000000000E+00  0.00000000000E+00  0.22109127097E+03  0.53571274925E+03  0.48796188336E+03 0.  0.
        5    1    3    3  502    0  0.10916218545E+03  0.20639523805E+03  0.32998997961E+02  0.23585249816E+03  0.46999998093E+01 0. -1.
       -5    1    3    3    0  502 -0.10916218545E+03 -0.20639523805E+03  0.18809227301E+03  0.29986025109E+03  0.46999998093E+01 0.  1.
</event>
<event>
 5   0  0.1709372E-01  0.5097026E+03  0.7818609E-02  0.1011277E+00
        2   -1    0    0  501    0  0.00000000000E+00  0.00000000000E+00  0.26149747955E+04  0.26149747955E+04  0.25500000920E-02 0. -1.
       -2   -1    0    0    0  501  0.00000000000E+00  0.00000000000E+00 -0.24837405245E+02  0.24837405376E+02  0.25500000920E-02 0.  1.
    10030    2    1    2    0    0  0.00000000000E+00  0.00000000000E+00  0.25901373903E+04  0.26398122009E+04  0.50970261477E+03 0.  0.
        4    1    3    3  502    0 -0.15856438792E+03 -0.52375184543E+01  0.23280079904E+04  0.23334080040E+04  0.12699999809E+01 0. -1.
       -4    1    3    3    0  502  0.15856438792E+03  0.52375184543E+01  0.26212939987E+03  0.30640419692E+03  0.12699999809E+01 0.  1.
</event>
<event>
 5   0  0.1760649E-01  0.4988212E+03  0.7818609E-02  0.1014087E+00
       -2   -1    0    0    0  501  0.00000000000E+00  0.00000000000E+00  0.51541069004E+02  0.51541069067E+02  0.25500000920E-02 0. -1.
        2   -1    0    0  501    0  0.00000000000E+00  0.00000000000E+00 -0.12069142091E+04  0.12069142091E+04  0.25500000920E-02 0.  1.
    10030    2    1    2    0    0  0.00000000000E+00  0.00000000000E+00 -0.11553731401E+04  0.12584552782E+04  0.49882120475E+03 0.  0.
        5    1    3    3  502    0  0.10298662237E+03 -0.44298266190E+02 -0.11396386466E+04  0.11451492984E+04  0.46999998093E+01 0.  1.
       -5    1    3    3    0  502 -0.10298662237E+03  0.44298266190E+02 -0.15734493512E+02  0.11330597980E+03  0.46999998093E+01 0. -1.
</event>
<event>
 5   0  0.1074281E-01  0.5015598E+03  0.7818609E-02  0.1013373E+00
       -1   -1    0    0    0  501  0.00000000000E+00  0.00000000000E+00  0.22815360788E+03  0.22815360794E+03  0.50400001928E-02 0. -1.
        1   -1    0    0  501    0  0.00000000000E+00  0.00000000000E+00 -0.27565004605E+03  0.27565004610E+03  0.50400001928E-02 0.  1.
    10030    2    1    2    0    0  0.00000000000E+00  0.00000000000E+00 -0.47496438166E+02  0.50380365403E+03  0.50155977727E+03 0.  0.
        4    1    3    3  502    0 -0.21038723261E+03  0.14086438860E+02 -0.16010428558E+03  0.26475688956E+03  0.12699999809E+01 0.  1.
       -4    1    3    3    0  502  0.21038723261E+03 -0.14086438860E+02  0.11260784742E+03  0.23904676448E+03  0.12699999809E+01 0. -1.
</event>
<event>
 5   0  0.1709372E-01  0.5094315E+03  0.7818609E-02  0.1011346E+00
        2   -1    0    0  501    0  0.00000000000E+00  0.00000000000E+00  0.19955301398E+04  0.19955301398E+04  0.25500000920E-02 0. -1.
       -2   -1    0    0    0  501  0.00000000000E+00  0.00000000000E+00 -0.32512719539E+02  0.32512719639E+02  0.25500000920E-02 0.  1.
    10030    2    1    2    0    0  0.00000000000E+00  0.00000000000E+00  0.19630174203E+04  0.20280428595E+04  0.50943149440E+03 0.  0.
        4    1    3    3  502    0 -0.83020802234E+02  0.54885149194E+02  0.19149106240E+04  0.19174955395E+04  0.12699999809E+01 0. -1.
       -4    1    3    3    0  502  0.83020802234E+02 -0.54885149194E+02  0.48106796315E+02  0.11054731999E+03  0.12699999809E+01 0.  1.
</event>
<event>
 5   0  0.1123271E-01  0.4982503E+03  0.7818609E-02  0.1014237E+00
       -1   -1    0    0    0  501  0.00000000000E+00  0.00000000000E+00  0.40650261816E+03  0.40650261819E+03  0.50400001928E-02 0.  1.
        1   -1    0    0  501    0  0.00000000000E+00  0.00000000000E+00 -0.15267637115E+03  0.15267637123E+03  0.50400001928E-02 0. -1.
    10030    2    1    2    0    0  0.00000000000E+00  0.00000000000E+00  0.25382624701E+03  0.55917898942E+03  0.49825031715E+03 0.  0.
        5    1    3    3  502    0 -0.13332827243E+03  0.11536312648E+03  0.32437211330E+03  0.36922139302E+03  0.46999998093E+01 0.  1.
       -5    1    3    3    0  502  0.13332827243E+03 -0.11536312648E+03 -0.70545866292E+02  0.18995759640E+03  0.46999998093E+01 0. -1.
</event>
<event>
 5   0  0.1141970E-01  0.4983672E+03  0.7818609E-02  0.1014206E+00
        1   -1    0    0  501    0  0.00000000000E+00  0.00000000000E+00  0.52070371411E+03  0.52070371414E+03  0.50400001928E-02 0.  1.
       -1   -1    0    0    0  501  0.00000000000E+00  0.00000000000E+00 -0.11924721698E+03  0.11924721709E+03  0.50400001928E-02 0. -1.
    10030    2    1    2    0    0  0.00000000000E+00  0.00000000000E+00  0.40145649713E+03  0.63995093123E+03  0.49836720928E+03 0.  0.
        3    1    3    3  502    0 -0.20106676177E+03 -0.86975353859E+02  0.48250914598E+02  0.22432279382E+03  0.10100000352E+00 0. -1.
       -3    1    3    3    0  502  0.20106676177E+03  0.86975353859E+02  0.35320558253E+03  0.41562813740E+03  0.10100000352E+00 0.  1.
</event>
<event>
 5   0  0.1068522E-01  0.4985029E+03  0.7818609E-02  0.1014170E+00
        1   -1    0    0  501    0  0.00000000000E+00  0.00000000000E+00  0.28551615032E+03  0.28551615036E+03  0.50400001928E-02 0.  1.
       -1   -1    0    0    0  501  0.00000000000E+00  0.00000000000E+00 -0.21759285128E+03  0.21759285134E+03  0.50400001928E-02 0. -1.
    10030    2    1    2    0    0  0.00000000000E+00  0.00000000000E+00  0.67923299040E+02  0.50310900170E+03  0.49850285159E+03 0.  0.
        2    1    3    3  502    0  0.20807982248E+03 -0.12637856686E+03  0.87911341748E+02  0.25883809360E+03  0.25500000920E-02 0. -1.
       -2    1    3    3    0  502 -0.20807982248E+03  0.12637856686E+03 -0.19988042707E+02  0.24427090810E+03  0.25500000920E-02 0.  1.
</event>
<event>
 5   0  0.1068522E-01  0.4933761E+03  0.7818609E-02  0.1015522E+00
        1   -1    0    0  501    0  0.00000000000E+00  0.00000000000E+00  0.55679128023E+02  0.55679128251E+02  0.50400001928E-02 0.  1.
       -1   -1    0    0    0  501  0.00000000000E+00  0.00000000000E+00 -0.10929589025E+04  0.10929589025E+04  0.50400001928E-02 0. -1.
    10030    2    1    2    0    0  0.00000000000E+00  0.00000000000E+00 -0.10372797745E+04  0.11486380308E+04  0.49337611939E+03 0.  0.
        2    1    3    3  502    0 -0.14913433671E+03 -0.19389298480E+03 -0.44430547421E+03  0.50719118127E+03  0.25500000920E-02 0.  1.
       -2    1    3    3    0  502  0.14913433671E+03  0.19389298480E+03 -0.59297430029E+03  0.64144684951E+03  0.25500000920E-02 0. -1.
</event>
<event>
 5   0  0.1147245E-01  0.5002566E+03  0.7818609E-02  0.1013712E+00
        1   -1    0    0  501    0  0.00000000000E+00  0.00000000000E+00  0.14553288349E+03  0.14553288358E+03  0.50400001928E-02 0.  1.
       -1   -1    0    0    0  501  0.00000000000E+00  0.00000000000E+00 -0.42989714907E+03  0.42989714910E+03  0.50400001928E-02 0. -1.
    10030    2    1    2    0    0  0.00000000000E+00  0.00000000000E+00 -0.28436426558E+03  0.57543003268E+03  0.50025662111E+03 0.  0.
        1    1    3    3  502    0  0.11118953198E+03 -0.21906502051E+03 -0.19627632764E+03  0.31444712123E+03  0.50400001928E-02 0. -1.
       -1    1    3    3    0  502 -0.11118953198E+03  0.21906502051E+03 -0.88087937938E+02  0.26098291145E+03  0.50400001928E-02 0.  1.
</event>
<event>
 5   0  0.1123271E-01  0.4972853E+03  0.7818609E-02  0.1014490E+00
        1   -1    0    0  501    0  0.00000000000E+00  0.00000000000E+00  0.54404268378E+03  0.54404268380E+03  0.50400001928E-02 0.  1.
       -1   -1    0    0    0  501  0.00000000000E+00  0.00000000000E+00 -0.11363660310E+03  0.11363660322E+03  0.50400001928E-02 0. -1.
    10030    2    1    2    0    0  0.00000000000E+00  0.00000000000E+00  0.43040608068E+03  0.65767928702E+03  0.49728528059E+03 0.  0.
        5    1    3    3  502    0 -0.14613454791E+03  0.16717756752E+03  0.67353877039E+02  0.23208248518E+03  0.46999998093E+01 0.  1.
       -5    1    3    3    0  502  0.14613454791E+03 -0.16717756752E+03  0.36305220364E+03  0.42559680184E+03  0.46999998093E+01 0. -1.
</event>
<event>
 5   0  0.1068522E-01  0.4970385E+03  0.7818609E-02  0.1014555E+00
        1   -1    0    0  501    0  0.00000000000E+00  0.00000000000E+00  0.13150503336E+03  0.13150503346E+03  0.50400001928E-02 0. -1.
       -1   -1    0    0    0  501  0.00000000000E+00  0.00000000000E+00 -0.46965355584E+03  0.46965355587E+03  0.50400001928E-02 0.  1.
    10030    2    1    2    0    0  0.00000000000E+00  0.00000000000E+00 -0.33814852248E+03  0.60115858932E+03  0.49703845552E+03 0.  0.
        2    1    3    3  502    0 -0.14862552608E+03 -0.11941554122E+03  0.23731539535E+02  0.19212705292E+03  0.25500000920E-02 0. -1.
       -2    1    3    3    0  502  0.14862552608E+03  0.11941554122E+03 -0.36188006201E+03  0.40903153641E+03  0.25500000920E-02 0.  1.
</event>
<event>
 5   0  0.1709372E-01  0.5063657E+03  0.7818609E-02  0.1012131E+00
       -2   -1    0    0    0  501  0.00000000000E+00  0.00000000000E+00  0.61512688237E+02  0.61512688290E+02  0.25500000920E-02 0. -1.
        2   -1    0    0  501    0  0.00000000000E+00  0.00000000000E+00 -0.10420868355E+04  0.10420868355E+04  0.25500000920E-02 0.  1.
    10030    2    1    2    0    0  0.00000000000E+00  0.00000000000E+00 -0.98057414721E+03  0.11035995237E+04  0.50636572813E+03 0.  0.
        4    1    3    3  502    0 -0.16197932414E+03 -0.83420430518E+02 -0.10715165663E+03  0.21137492778E+03  0.12699999809E+01 0. -1.
       -4    1    3    3    0  502  0.16197932414E+03  0.83420430518E+02 -0.87342249059E+03  0.89222459596E+03  0.12699999809E+01 0.  1.
</event>
<event>
 5   0  0.1709372E-01  0.5006209E+03  0.7818609E-02  0.1013617E+00
       -2   -1    0    0    0  501  0.00000000000E+00  0.00000000000E+00  0.84760463522E+03  0.84760463523E+03  0.25500000920E-02 0.  1.
        2   -1    0    0  501    0  0.00000000000E+00  0.00000000000E+00 -0.73920458929E+02  0.73920458973E+02  0.25500000920E-02 0. -1.
    10030    2    1    2    0    0  0.00000000000E+00  0.00000000000E+00  0.77368417629E+03  0.92152509420E+03  0.50062090906E+03 0.  0.
        4    1    3    3  502    0  0.20661695796E+03  0.88072552549E+01  0.12726445647E+03  0.24282913713E+03  0.12699999809E+01 0. -1.
       -4    1    3    3    0  502 -0.20661695796E+03 -0.88072552549E+01  0.64641971982E+03  0.67869595707E+03  0.12699999809E+01 0.  1.
</event>
<event>
 5   0  0.1709372E-01  0.4568108E+03  0.7818609E-02  0.1025710E+00
       -2   -1    0    0    0  501  0.00000000000E+00  0.00000000000E+00  0.10157999038E+03  0.10157999041E+03  0.25500000920E-02 0.  1.
        2   -1    0    0  501    0  0.00000000000E+00  0.00000000000E+00 -0.51357589643E+03  0.51357589643E+03  0.25500000920E-02 0. -1.
    10030    2    1    2    0    0  0.00000000000E+00  0.00000000000E+00 -0.41199590605E+03  0.61515588684E+03  0.45681083450E+03 0.  0.
        4    1    3    3  502    0 -0.15507125292E+03  0.16639736486E+03 -0.23399510701E+03  0.32632882116E+03  0.12699999809E+01 0. -1.
       -4    1    3    3    0  502  0.15507125292E+03 -0.16639736486E+03 -0.17800079904E+03  0.28882706568E+03  0.12699999809E+01 0.  1.
</event>
<event>
 5   0  0.1074281E-01  0.4979039E+03  0.7818609E-02  0.1014327E+00
       -1   -1    0    0    0  501  0.00000000000E+00  0.00000000000E+00  0.62650549510E+02  0.62650549713E+02  0.50400001928E-02 0.  1.
        1   -1    0    0  501    0  0.00000000000E+00  0.00000000000E+00 -0.98925026040E+03  0.98925026042E+03  0.50400001928E-02 0. -1.
    10030    2    1    2    0    0  0.00000000000E+00  0.00000000000E+00 -0.92659971089E+03  0.10519008101E+04  0.49790389647E+03 0.  0.
        4    1    3    3  502    0 -0.18848067562E+03 -0.11452102837E+03 -0.21933191833E+03  0.31104362125E+03  0.12699999809E+01 0.  1.
       -4    1    3    3    0  502  0.18848067562E+03  0.11452102837E+03 -0.70726779256E+03  0.74085718888E+03  0.12699999809E+01 0. -1.
</event>
<event>
 5   0  0.1074281E-01  0.5005875E+03  0.7818609E-02  0.1013626E+00
       -1   -1    0    0    0  501  0.00000000000E+00  0.00000000000E+00  0.58229836955E+03  0.58229836958E+03  0.50400001928E-02 0.  1.
        1   -1    0    0  501    0  0.00000000000E+00  0.00000000000E+00 -0.10758566596E+03  0.10758566607E+03  0.50400001928E-02 0. -1.
    10030    2    1    2    0    0  0.00000000000E+00  0.00000000000E+00  0.47471270360E+03  0.68988403565E+03  0.50058748655E+03 0.  0.
        4    1    3    3  502    0 -0.19534731430E+03 -0.16569986648E+02  0.22921505601E+02  0.19738831267E+03  0.12699999809E+01 0. -1.
       -4    1    3    3    0  502  0.19534731430E+03  0.16569986648E+02  0.45179119800E+03  0.49249572298E+03  0.12699999809E+01 0.  1.
</event>
<event>
 5   0  0.1760649E-01  0.4996386E+03  0.7818609E-02  0.1013873E+00
       -2   -1    0    0    0  501  0.00000000000E+00  0.00000000000E+00  0.89938722322E+02  0.89938722358E+02  0.25500000920E-02 0.  1.
        2   -1    0    0  501    0  0.00000000000E+00  0.00000000000E+00 -0.69391340910E+03  0.69391340910E+03  0.25500000920E-02 0. -1.
    10030    2    1    2    0    0  0.00000000000E+00  0.00000000000E+00 -0.60397468678E+03  0.78385213146E+03  0.49963861113E+03 0.  0.
        5    1    3    3  502    0 -0.82315915376E+02 -0.17183565289E+03 -0.48610535102E+02  0.19669386277E+03  0.46999998093E+01 0.  1.
       -5    1    3    3    0  502  0.82315915376E+02  0.17183565289E+03 -0.55536415167E+03  0.58715826869E+03  0.46999998093E+01 0. -1.
</event>
<event>
 5   0  0.1123271E-01  0.4293501E+03  0.7818609E-02  0.1034065E+00
       -1   -1    0    0    0  501  0.00000000000E+00  0.00000000000E+00  0.23019570858E+02  0.23019571410E+02  0.50400001928E-02 0.  1.
        1   -1    0    0  501    0  0.00000000000E+00  0.00000000000E+00 -0.20020087109E+04  0.20020087110E+04  0.50400001928E-02 0. -1.
    10030    2    1    2    0    0  0.00000000000E+00  0.00000000000E+00 -0.19789891401E+04  0.20250282824E+04  0.42935012261E+03 0.  0.
        5    1    3    3  502    0 -0.12306579667E+03  0.27606979698E+01 -0.18187195524E+04  0.18228866426E+04  0.46999998093E+01 0. -1.
       -5    1    3    3    0  502  0.12306579667E+03 -0.27606979698E+01 -0.16026958774E+03  0.20214163974E+03  0.46999998093E+01 0.  1.
</event>
<event>
 5   0  0.1123271E-01  0.5030924E+03  0.7818609E-02  0.1012975E+00
        1   -1    0    0  501    0  0.00000000000E+00  0.00000000000E+00  0.31654774053E+03  0.31654774057E+03  0.50400001928E-02 0. -1.
       -1   -1    0    0    0  501  0.00000000000E+00  0.00000000000E+00 -0.19989243172E+03  0.19989243179E+03  0.50400001928E-02 0.  1.
    10030    2    1    2    0    0  0.00000000000E+00  0.00000000000E+00  0.11665530880E+03  0.51644017236E+03  0.50309242744E+03 0.  0.
        5    1    3    3  502    0 -0.24893304295E+03  0.33366328399E+02  0.71807535924E+02  0.26126496887E+03  0.46999998093E+01 0. -1.
       -5    1    3    3    0  502  0.24893304295E+03 -0.33366328399E+02  0.44847772879E+02  0.25517520349E+03  0.46999998093E+01 0.  1.
</event>
<event>
 5   0  0.1683148E-01  0.5002304E+03  0.7818609E-02  0.1013719E+00
        2   -1    0    0  501    0  0.00000000000E+00  0.00000000000E+00  0.59424786220E+03  0.59424786220E+03  0.25500000920E-02 0.  1.
       -2   -1    0    0    0  501  0.00000000000E+00  0.00000000000E+00 -0.10527192709E+03  0.10527192712E+03  0.25500000920E-02 0. -1.
    10030    2    1    2    0    0  0.00000000000E+00  0.00000000000E+00  0.48897593511E+03  0.69951978932E+03  0.50023041744E+03 0.  0.
        2    1    3    3  502    0 -0.74367569021E+02 -0.56271665552E+02 -0.80049938452E+02  0.12290251551E+03  0.25500000920E-02 0. -1.
       -2    1    3    3    0  502  0.74367569021E+02  0.56271665552E+02  0.56902587356E+03  0.57661727381E+03  0.25500000920E-02 0.  1.
</event>
<event>
 5   0  0.1141970E-01  0.4957049E+03  0.7818609E-02  0.1014906E+00
        1   -1    0    0  501    0  0.00000000000E+00  0.00000000000E+00  0.53865210283E+03  0.53865210286E+03  0.50400001928E-02 0. -1.
       -1   -1    0    0    0  501  0.00000000000E+00  0.00000000000E+00 -0.11404546192E+03  0.11404546203E+03  0.50400001928E-02 0.  1.
    10030    2    1    2    0    0  0.00000000000E+00  0.00000000000E+00  0.42460664092E+03  0.65269756488E+03  0.49570486350E+03 0.  0.
        3    1    3    3  502    0  0.13681675272E+03 -0.46167425786E+02  0.47754871066E+03  0.49890183030E+03  0.10100000352E+00 0. -1.
       -3    1    3    3    0  502 -0.13681675272E+03  0.46167425786E+02 -0.52942069738E+02  0.15379573458E+03  0.10100000352E+00 0.  1.
</event>
<event>
 5   0  0.1782124E-01  0.3850329E+03  0.7818609E-02  0.1049089E+00
       -2   -1    0    0    0  501  0.00000000000E+00  0.00000000000E+00  0.27129057523E+02  0.27129057643E+02  0.25500000920E-02 0. -1.
        2   -1    0    0  501    0  0.00000000000E+00  0.00000000000E+00 -0.13661581874E+04  0.13661581874E+04  0.25500000920E-02 0.  1.
    10030    2    1    2    0    0  0.00000000000E+00  0.00000000000E+00 -0.13390291299E+04  0.13932872450E+04  0.38503290320E+03 0.  0.
        3    1    3    3  502    0  0.10284736864E+03  0.46320713821E+02 -0.12340583233E+04  0.12392026248E+04  0.10100000352E+00 0.  1.
       -3    1    3    3    0  502 -0.10284736864E+03 -0.46320713821E+02 -0.10497080657E+03  0.15408462026E+03  0.10100000352E+00 0. -1.
</event>
<event>
 5   0  0.1123271E-01  0.5049138E+03  0.7818609E-02  0.1012504E+00
        1   -1    0    0  501    0  0.00000000000E+00  0.00000000000E+00  0.26546974069E+03  0.26546974074E+03  0.50400001928E-02 0. -1.
       -1   -1    0    0    0  501  0.00000000000E+00  0.00000000000E+00 -0.24008190008E+03  0.24008190013E+03  0.50400001928E-02 0.  1.
    10030    2    1    2    0    0  0.00000000000E+00  0.00000000000E+00  0.25387840610E+02  0.50555164087E+03  0.50491377396E+03 0.  0.
        5    1    3    3  502    0  0.23361073211E+03 -0.64825186572E+02 -0.57652298169E+02  0.24924316731E+03  0.46999998093E+01 0. -1.
       -5    1    3    3    0  502 -0.23361073211E+03  0.64825186572E+02  0.83040138779E+02  0.25630847355E+03  0.46999998093E+01 0.  1.
</event>
<event>
 5   0  0.1709372E-01  0.4940829E+03  0.7818609E-02  0.1015335E+00
       -2   -1    0    0    0  501  0.00000000000E+00  0.00000000000E+00  0.37729523357E+02  0.37729523443E+02  0.25500000920E-02 0.  1.
        2   -1    0    0  501    0  0.00000000000E+00  0.00000000000E+00 -0.16175521211E+04  0.16175521211E+04  0.25500000920E-02 0. -1.
    10030    2    1    2    0    0  0.00000000000E+00  0.00000000000E+00 -0.15798225977E+04  0.16552816445E+04  0.49408287000E+03 0.  0.
        4    1    3    3  502    0 -0.15073788890E+03  0.13637474231E+03 -0.31959284976E+03  0.37876270145E+03  0.12699999809E+01 0.  1.
       -4    1    3    3    0  502  0.15073788890E+03 -0.13637474231E+03 -0.12602297480E+04  0.12765189431E+04  0.12699999809E+01 0. -1.
</event>
<event>
 5   0  0.1709372E-01  0.5007976E+03  0.7818609E-02  0.1013571E+00
        2   -1    0    0  501    0  0.00000000000E+00  0.00000000000E+00  0.17174755670E+04  0.17174755670E+04  0.25500000920E-02 0. -1.
       -2   -1    0    0    0  501  0.00000000000E+00  0.00000000000E+00 -0.36506819189E+02  0.36506819278E+02  0.25500000920E-02 0.  1.
    10030    2    1    2    0    0  0.00000000000E+00  0.00000000000E+00  0.16809687478E+04  0.17539823863E+04  0.50079764403E+03 0.  0.
        4    1    3    3  502    0 -0.75738067798E+02 -0.19505485069E+03  0.13221766177E+04  0.13386318654E+04  0.12699999809E+01 0. -1.
       -4    1    3    3    0  502  0.75738067798E+02  0.19505485069E+03  0.35879213010E+03  0.41535052090E+03  0.12699999809E+01 0.  1.
</event>
<event>
 5   0  0.1068522E-01  0.4979982E+03  0.7818609E-02  0.1014303E+00
       -1   -1    0    0    0  501  0.00000000000E+00  0.00000000000E+00  0.22508318017E+03  0.22508318023E+03  0.50400001928E-02 0. -1.
        1   -1    0    0  501    0  0.00000000000E+00  0.00000000000E+00 -0.27545611990E+03  0.27545611995E+03  0.50400001928E-02 0.  1.
    10030    2    1    2    0    0  0.00000000000E+00  0.00000000000E+00 -0.50372939726E+02  0.50053930018E+03  0.49799815056E+03 0.  0.
        2    1    3    3  502    0 -0.16526448426E+03 -0.43160060288E+02  0.15691584165E+03  0.23194335931E+03  0.25500000920E-02 0. -1.
       -2    1    3    3    0  502  0.16526448426E+03  0.43160060288E+02 -0.20728878137E+03  0.26859594087E+03  0.25500000920E-02 0.  1.
</event>
<event>
 5   0  0.1827698E-01  0.4727365E+03  0.7818609E-02  0.1021151E+00
       -2   -1    0    0    0  501  0.00000000000E+00  0.00000000000E+00  0.10197918813E+03  0.10197918816E+03  0.25500000920E-02 0.  1.
        2   -1    0    0  501    0  0.00000000000E+00  0.00000000000E+00 -0.54785629795E+03  0.54785629795E+03  0.25500000920E-02 0. -1.
    10030    2    1    2    0    0  0.00000000000E+00  0.00000000000E+00 -0.44587710982E+03  0.64983548611E+03  0.47273646141E+03 0.  0.
        1    1    3    3  502    0 -0.42435606546E+02 -0.19854874046E+03 -0.38930545638E+03  0.43906847010E+03  0.50400001928E-02 0. -1.
       -1    1    3    3    0  502  0.42435606546E+02  0.19854874046E+03 -0.56571653443E+02  0.21076701602E+03  0.50400001928E-02 0.  1.
</event>
<event>
 5   0  0.1147245E-01  0.5041885E+03  0.7818609E-02  0.1012691E+00
       -1   -1    0    0    0  501  0.00000000000E+00  0.00000000000E+00  0.84691953625E+02  0.84691953775E+02  0.50400001928E-02 0.  1.
        1   -1    0    0  501    0  0.00000000000E+00  0.00000000000E+00 -0.75038420789E+03  0.75038420791E+03  0.50400001928E-02 0. -1.
    10030    2    1    2    0    0  0.00000000000E+00  0.00000000000E+00 -0.66569225427E+03  0.83507616168E+03  0.50418847510E+03 0.  0.
        1    1    3    3  502    0 -0.19952587098E+03  0.14684987178E+03 -0.41010836131E+03  0.47912871556E+03  0.50400001928E-02 0. -1.
       -1    1    3    3    0  502  0.19952587098E+03 -0.14684987178E+03 -0.25558389296E+03  0.35594744612E+03  0.50400001928E-02 0.  1.
</event>
<event>
 5   0  0.1123271E-01  0.5171530E+03  0.7818609E-02  0.1009396E+00
       -1   -1    0    0    0  501  0.00000000000E+00  0.00000000000E+00  0.64485354502E+02  0.64485354699E+02  0.50400001928E-02 0.  1.
        1   -1    0    0  501    0  0.00000000000E+00  0.00000000000E+00 -0.10368527210E+04  0.10368527211E+04  0.50400001928E-02 0. -1.
    10030    2    1    2    0    0  0.00000000000E+00  0.00000000000E+00 -0.97236736655E+03  0.11013380758E+04  0.51715303498E+03 0.  0.
        5    1    3    3  502    0 -0.16643934339E+03 -0.22965977836E+02 -0.67724797387E+02  0.18121321516E+03  0.46999998093E+01 0.  1.
       -5    1    3    3    0  502  0.16643934339E+03  0.22965977836E+02 -0.90464256916E+03  0.92012486060E+03  0.46999998093E+01 0. -1.
</event>
<event>
 5   0  0.1709372E-01  0.4954344E+03  0.7818609E-02  0.1014978E+00
        2   -1    0    0  501    0  0.00000000000E+00  0.00000000000E+00  0.48216865818E+03  0.48216865819E+03  0.25500000920E-02 0. -1.
       -2   -1    0    0    0  501  0.00000000000E+00  0.00000000000E+00 -0.12726629908E+03  0.12726629910E+03  0.25500000920E-02 0.  1.
    10030    2    1    2    0    0  0.00000000000E+00  0.00000000000E+00  0.35490235910E+03  0.60943495729E+03  0.49543443832E+03 0.  0.
        4    1    3    3  502    0 -0.17647616232E+03 -0.93448246554E+01  0.39097595580E+03  0.42906290043E+03  0.12699999809E+01 0. -1.
       -4    1    3    3    0  502  0.17647616232E+03  0.93448246554E+01 -0.36073596697E+02  0.18037205685E+03  0.12699999809E+01 0.  1.
</event>
<event>
 5   0  0.1123271E-01  0.5110511E+03  0.7818609E-02  0.1010934E+00
       -1   -1    0    0    0  501  0.00000000000E+00  0.00000000000E+00  0.72943558834E+02  0.72943559008E+02  0.50400001928E-02 0. -1.
        1   -1    0    0  501    0  0.00000000000E+00  0.00000000000E+00 -0.89512076888E+03  0.89512076890E+03  0.50400001928E-02 0.  1.
    10030    2    1    2    0    0  0.00000000000E+00  0.00000000000E+00 -0.82217721005E+03  0.96806432791E+03  0.51105105248E+03 0.  0.
        5    1    3    3  502    0 -0.18832876269E+03  0.13708089255E+03 -0.60987156641E+03  0.65285856927E+03  0.46999998093E+01 0.  1.
       -5    1    3    3    0  502  0.18832876269E+03 -0.13708089255E+03 -0.21230564364E+03  0.31520575864E+03  0.46999998093E+01 0. -1.
</event>
<event>
 5   0  0.1141970E-01  0.4990906E+03  0.7818609E-02  0.1014017E+00
        1   -1    0    0  501    0  0.00000000000E+00  0.00000000000E+00  0.50360225809E+03  0.50360225812E+03  0.50400001928E-02 0. -1.
       -1   -1    0    0    0  501  0.00000000000E+00  0.00000000000E+00 -0.12365483950E+03  0.12365483960E+03  0.50400001928E-02 0.  1.
    10030    2    1    2    0    0  0.00000000000E+00  0.00000000000E+00  0.37994741860E+03  0.62725709771E+03  0.49909059872E+03 0.  0.
        3    1    3    3  502    0 -0.74914459760E+02  0.21668240413E+02  0.48789406888E+03  0.49408736229E+03  0.10100000352E+00 0. -1.
       -3    1    3    3    0  502  0.74914459760E+02 -0.21668240413E+02 -0.10794665029E+03  0.13316973542E+03  0.10100000352E+00 0.  1.
</event>
<event>
 5   0  0.1074281E-01  0.4970707E+03  0.7818609E-02  0.1014546E+00
       -1   -1    0    0    0  501  0.00000000000E+00  0.00000000000E+00  0.22911602975E+03  0.22911602981E+03  0.50400001928E-02 0.  1.
        1   -1    0    0  501    0  0.00000000000E+00  0.00000000000E+00 -0.26960055814E+03  0.26960055818E+03  0.50400001928E-02 0. -1.
    10030    2    1    2    0    0  0.00000000000E+00  0.00000000000E+00 -0.40484528388E+02  0.49871658799E+03  0.49707065705E+03 0.  0.
        4    1    3    3  502    0  0.10230288040E+03  0.81631860185E+02  0.19173572050E+03  0.23215046705E+03  0.12699999809E+01 0.  1.
       -4    1    3    3    0  502 -0.10230288040E+03 -0.81631860185E+02 -0.23222024889E+03  0.26656612094E+03  0.12699999809E+01 0. -1.
</event>
<event>
 5   0  0.1760649E-01  0.4991512E+03  0.7818609E-02  0.1014001E+00
       -2   -1    0    0    0  501  0.00000000000E+00  0.00000000000E+00  0.63894291723E+02  0.63894291774E+02  0.25500000920E-02 0.  1.
        2   -1    0    0  501    0  0.00000000000E+00  0.00000000000E+00 -0.97485981806E+03  0.97485981806E+03  0.25500000920E-02 0. -1.
    10030    2    1    2    0    0  0.00000000000E+00  0.00000000000E+00 -0.91096552633E+03  0.10387541098E+04  0.49915119005E+03 0.  0.
        5    1    3    3  502    0  0.72717799306E+02 -0.18676434587E+03 -0.14613415182E+03  0.24808482330E+03  0.46999998093E+01 0.  1.
       -5    1    3    3    0  502 -0.72717799306E+02  0.18676434587E+03 -0.76483137452E+03  0.79066928654E+03  0.46999998093E+01 0. -1.
</event>
<event>
 5   0  0.1827698E-01  0.5061425E+03  0.7818609E-02  0.1012188E+00
        2   -1    0    0  501    0  0.00000000000E+00  0.00000000000E+00  0.23145489771E+04  0.23145489771E+04  0.25500000920E-02 0. -1.
       -2   -1    0    0    0  501  0.00000000000E+00  0.00000000000E+00 -0.27670644639E+02  0.27670644756E+02  0.25500000920E-02 0.  1.
    10030    2    1    2    0    0  0.00000000000E+00  0.00000000000E+00  0.22868783325E+04  0.23422196219E+04  0.50614251900E+03 0.  0.
        1    1    3    3  502    0 -0.78459602554E+02  0.25624523876E+02  0.22505122483E+04  0.22520252897E+04  0.50400001928E-02 0. -1.
       -1    1    3    3    0  502  0.78459602554E+02 -0.25624523876E+02  0.36366084136E+02  0.90194332181E+02  0.50400001928E-02 0.  1.
</event>
<event>
 5   0  0.1068522E-01  0.4997259E+03  0.7818609E-02  0.1013850E+00
       -1   -1    0    0    0  501  0.00000000000E+00  0.00000000000E+00  0.21116908090E+03  0.21116908096E+03  0.50400001928E-02 0. -1.
        1   -1    0    0  501    0  0.00000000000E+00  0.00000000000E+00 -0.29564692373E+03  0.29564692377E+03  0.50400001928E-02 0.  1.
    10030    2    1    2    0    0  0.00000000000E+00  0.00000000000E+00 -0.84477842826E+02  0.50681600473E+03  0.49972588159E+03 0.  0.
        2    1    3    3  502    0  0.10878898867E+03 -0.87760778688E+02  0.16780941040E+03  0.21839642066E+03  0.25500000920E-02 0. -1.
       -2    1    3    3    0  502 -0.10878898867E+03  0.87760778688E+02 -0.25228725322E+03  0.28841958408E+03  0.25500000920E-02 0.  1.
</event>
<event>
 5   0  0.1123271E-01  0.4981408E+03  0.7818609E-02  0.1014265E+00
       -1   -1    0    0    0  501  0.00000000000E+00  0.00000000000E+00  0.11574707387E+03  0.11574707398E+03  0.50400001928E-02 0. -1.
        1   -1    0    0  501    0  0.00000000000E+00  0.00000000000E+00 -0.53596222898E+03  0.53596222900E+03  0.50400001928E-02 0.  1.
    10030    2    1    2    0    0  0.00000000000E+00  0.00000000000E+00 -0.42021515510E+03  0.65170930298E+03  0.49814078232E+03 0.  0.
        5    1    3    3  502    0 -0.24209057223E+03  0.74814996519E+01 -0.13438348773E+03  0.27702857212E+03  0.46999998093E+01 0. -1.
       -5    1    3    3    0  502  0.24209057223E+03 -0.74814996519E+01 -0.28583166738E+03  0.37468073086E+03  0.46999998093E+01 0.  1.
</event>
<event>
 5   0  0.1782124E-01  0.4946798E+03  0.7818609E-02  0.1015177E+00
        2   -1    0    0  501    0  0.00000000000E+00  0.00000000000E+00  0.83489942980E+03  0.83489942980E+03  0.25500000920E-02 0. -1.
       -2   -1    0    0    0  501  0.00000000000E+00  0.00000000000E+00 -0.73274733712E+02  0.73274733757E+02  0.25500000920E-02 0.  1.
    10030    2    1    2    0    0  0.00000000000E+00  0.00000000000E+00  0.76162469608E+03  0.90817416356E+03  0.49467982945E+03 0.  0.
        3    1    3    3  502    0 -0.57143824425E+02 -0.14124787868E+03  0.73850640305E+03  0.75406107010E+03  0.10100000352E+00 0.  1.
       -3    1    3    3    0  502  0.57143824425E+02  0.14124787868E+03  0.23118293039E+02  0.15411309346E+03  0.10100000352E+00 0. -1.
</event>
<event>
 5   0  0.1827698E-01  0.4983220E+03  0.7818609E-02  0.1014218E+00
       -2   -1    0    0    0  501  0.00000000000E+00  0.00000000000E+00  0.70365958080E+02  0.70365958126E+02  0.25500000920E-02 0.  1.
        2   -1    0    0  501    0  0.00000000000E+00  0.00000000000E+00 -0.88226201252E+03  0.88226201252E+03  0.25500000920E-02 0. -1.
    10030    2    1    2    0    0  0.00000000000E+00  0.00000000000E+00 -0.81189605444E+03  0.95262797065E+03  0.49832203167E+03 0.  0.
        1    1    3    3  502    0  0.13373689506E+03 -0.87206784494E+02 -0.77162548783E+03  0.78796984324E+03  0.50400001928E-02 0. -1.
       -1    1    3    3    0  502 -0.13373689506E+03  0.87206784494E+02 -0.40270566611E+02  0.16465812741E+03  0.50400001928E-02 0.  1.
</event>
<event>
 5   0  0.7220250E-02  0.4999429E+03  0.7818609E-02  0.1013794E+00
        3   -1    0    0  501    0  0.00000000000E+00  0.00000000000E+00  0.99738877619E+02  0.99738928757E+02  0.10100000352E+00 0.  1.
       -3   -1    0    0    0  501  0.00000000000E+00  0.00000000000E+00 -0.62649289674E+03  0.62649290488E+03  0.10100000352E+00 0. -1.
    10030    2    1    2    0    0  0.00000000000E+00  0.00000000000E+00 -0.52675401912E+03  0.72623183364E+03  0.49994287627E+03 0.  0.
        2    1    3    3  502    0  0.19567502786E+03  0.14811612436E+03 -0.33241310153E+03  0.41318951209E+03  0.25500000920E-02 0. -1.
       -2    1    3    3    0  502 -0.19567502786E+03 -0.14811612436E+03 -0.19434091759E+03  0.31304232155E+03  0.25500000920E-02 0.  1.
</event>
<event>
 5   0  0.1123271E-01  0.5272155E+03  0.7818609E-02  0.1006910E+00
       -1   -1    0    0    0  501  0.00000000000E+00  0.00000000000E+00  0.22395625432E+03  0.22395625437E+03  0.50400001928E-02 0. -1.
        1   -1    0    0  501    0  0.00000000000E+00  0.00000000000E+00 -0.31027949578E+03  0.31027949582E+03  0.50400001928E-02 0.  1.
    10030    2    1    2    0    0  0.00000000000E+00  0.00000000000E+00 -0.86323241468E+02  0.53423575020E+03  0.52721545384E+03 0.  0.
        5    1    3    3  502    0  0.39562211733E+02  0.13928833885E+03  0.17999926378E+03  0.23105894248E+03  0.46999998093E+01 0. -1.
       -5    1    3    3    0  502 -0.39562211733E+02 -0.13928833885E+03 -0.26632250525E+03  0.30317680772E+03  0.46999998093E+01 0.  1.
</event>
<event>
 5   0  0.1068522E-01  0.5361909E+03  0.7818609E-02  0.1004742E+00
       -1   -1    0    0    0  501  0.00000000000E+00  0.00000000000E+00  0.35283117205E+03  0.35283117209E+03  0.50400001928E-02 0. -1.
        1   -1    0    0  501    0  0.00000000000E+00  0.00000000000E+00 -0.20370980313E+03  0.20370980320E+03  0.50400001928E-02 0.  1.
    10030    2    1    2    0    0  0.00000000000E+00  0.00000000000E+00  0.14912136892E+03  0.55654097528E+03  0.53619089371E+03 0.  0.
        2    1    3    3  502    0  0.26750709939E+03 -0.13499789272E+02  0.62596003498E+02  0.27506463276E+03  0.25500000920E-02 0. -1.
       -2    1    3    3    0  502 -0.26750709939E+03  0.13499789272E+02  0.86525365417E+02  0.28147634252E+03  0.25500000920E-02 0.  1.
</event>
<event>
 5   0  0.1123271E-01  0.4996970E+03  0.7818609E-02  0.1013858E+00
       -1   -1    0    0    0  501  0.00000000000E+00  0.00000000000E+00  0.25702233630E+03  0.25702233635E+03  0.50400001928E-02 0.  1.
        1   -1    0    0  501    0  0.00000000000E+00  0.00000000000E+00 -0.24287488100E+03  0.24287488106E+03  0.50400001928E-02 0. -1.
    10030    2    1    2    0    0  0.00000000000E+00  0.00000000000E+00  0.14147455294E+02  0.49989721741E+03  0.49969698566E+03 0.  0.
        5    1    3    3  502    0  0.15884566223E+03 -0.94867309316E+02 -0.16083401263E+03  0.24519669738E+03  0.46999998093E+01 0. -1.
       -5    1    3    3    0  502 -0.15884566223E+03  0.94867309316E+02  0.17498146793E+03  0.25470052003E+03  0.46999998093E+01 0.  1.
</event>
<event>
 5   0  0.1068522E-01  0.4987620E+03  0.7818609E-02  0.1014103E+00
        1   -1    0    0  501    0  0.00000000000E+00  0.00000000000E+00  0.65833716704E+03  0.65833716706E+03  0.50400001928E-02 0.  1.
       -1   -1    0    0    0  501  0.00000000000E+00  0.00000000000E+00 -0.94466619720E+02  0.94466619855E+02  0.50400001928E-02 0. -1.
    10030    2    1    2    0    0  0.00000000000E+00  0.00000000000E+00  0.56387054732E+03  0.75280378692E+03  0.49876201485E+03 0.  0.
        2    1    3    3  502    0  0.16290510377E+03 -0.57781470850E+02  0.10613553435E+02  0.17317453257E+03  0.25500000920E-02 0. -1.
       -2    1    3    3    0  502 -0.16290510377E+03  0.57781470850E+02  0.55325699389E+03  0.57962925435E+03  0.25500000920E-02 0.  1.
</event>
<event>
 5   0  0.1123271E-01  0.4985417E+03  0.7818609E-02  0.1014160E+00
       -1   -1    0    0    0  501  0.00000000000E+00  0.00000000000E+00  0.62095370928E+03  0.62095370930E+03  0.50400001928E-02 0. -1.
        1   -1    0    0  501    0  0.00000000000E+00  0.00000000000E+00 -0.10006536194E+03  0.10006536207E+03  0.50400001928E-02 0.  1.
    10030    2    1    2    0    0  0.00000000000E+00  0.00000000000E+00  0.52088834734E+03  0.72101907137E+03  0.49854170426E+03 0.  0.
        5    1    3    3  502    0  0.11469323018E+03 -0.20291457895E+03  0.13283711825E+03  0.26832192118E+03  0.46999998093E+01 0.  1.
       -5    1    3    3    0  502 -0.11469323018E+03  0.20291457895E+03  0.38805122909E+03  0.45269715019E+03  0.46999998093E+01 0. -1.
</event>
<event>
 5   0  0.7220250E-02  0.5150649E+03  0.7818609E-02  0.1009920E+00
        4   -1    0    0  501    0  0.00000000000E+00  0.00000000000E+00  0.27988920338E+03  0.27989208468E+03  0.12699999809E+01 0. -1.
       -4   -1    0    0    0  501  0.00000000000E+00  0.00000000000E+00 -0.23695565721E+03  0.23695906057E+03  0.12699999809E+01 0.  1.
    10030    2    1    2    0    0  0.00000000000E+00  0.00000000000E+00  0.42933546163E+02  0.51685114525E+03  0.51506486675E+03 0.  0.
        4    1    3    3  502    0  0.22487849311E+02 -0.12133694846E+03  0.24828825578E+03  0.27726707213E+03  0.12699999809E+01 0. -1.
       -4    1    3    3    0  502 -0.22487849311E+02  0.12133694846E+03 -0.20535470962E+03  0.23958407312E+03  0.12699999809E+01 0.  1.
</event>
<event>
 5   0  0.1782124E-01  0.4979056E+03  0.7818609E-02  0.1014327E+00
        2   -1    0    0  501    0  0.00000000000E+00  0.00000000000E+00  0.90410085616E+03  0.90410085616E+03  0.25500000920E-02 0.  1.
       -2   -1    0    0    0  501  0.00000000000E+00  0.00000000000E+00 -0.68551538905E+02  0.68551538952E+02  0.25500000920E-02 0. -1.
    10030    2    1    2    0    0  0.00000000000E+00  0.00000000000E+00  0.83554931726E+03  0.97265239512E+03  0.49790563379E+03 0.  0.
        3    1    3    3  502    0 -0.86144840138E+02 -0.76558576742E+01 -0.38262992473E+02  0.94570674276E+02  0.10100000352E+00 0. -1.
       -3    1    3    3    0  502  0.86144840138E+02  0.76558576742E+01  0.87381230973E+03  0.87808172084E+03  0.10100000352E+00 0.  1.
</event>
<event>
 5   0  0.1683148E-01  0.4979575E+03  0.7818609E-02  0.1014313E+00
        2   -1    0    0  501    0  0.00000000000E+00  0.00000000000E+00  0.26597150134E+03  0.26597150135E+03  0.25500000920E-02 0. -1.
       -2   -1    0    0    0  501  0.00000000000E+00  0.00000000000E+00 -0.23307162778E+03  0.23307162779E+03  0.25500000920E-02 0.  1.
    10030    2    1    2    0    0  0.00000000000E+00  0.00000000000E+00  0.32899873563E+02  0.49904312915E+03  0.49795747114E+03 0.  0.
        2    1    3    3  502    0  0.41604321378E+02 -0.67238468755E+02 -0.22015477371E+03  0.23392318318E+03  0.25500000920E-02 0.  1.
       -2    1    3    3    0  502 -0.41604321378E+02  0.67238468755E+02  0.25305464727E+03  0.26511994596E+03  0.25500000920E-02 0. -1.
</event>
<event>
 5   0  0.1827698E-01  0.4994074E+03  0.7818609E-02  0.1013934E+00
        2   -1    0    0  501    0  0.00000000000E+00  0.00000000000E+00  0.56139790169E+03  0.56139790170E+03  0.25500000920E-02 0. -1.
       -2   -1    0    0    0  501  0.00000000000E+00  0.00000000000E+00 -0.11106547722E+03  0.11106547725E+03  0.25500000920E-02 0.  1.
    10030    2    1    2    0    0  0.00000000000E+00  0.00000000000E+00  0.45033242447E+03  0.67246337895E+03  0.49940735226E+03 0.  0.
        1    1    3    3  502    0  0.12270595598E+03 -0.33032812144E+02  0.51460286679E+03  0.53006040113E+03  0.50400001928E-02 0. -1.
       -1    1    3    3    0  502 -0.12270595598E+03  0.33032812144E+02 -0.64270442318E+02  0.14240297782E+03  0.50400001928E-02 0.  1.
</event>
<event>
 5   0  0.1068522E-01  0.5002602E+03  0.7818609E-02  0.1013711E+00
       -1   -1    0    0    0  501  0.00000000000E+00  0.00000000000E+00  0.21928288441E+03  0.21928288447E+03  0.50400001928E-02 0.  1.
        1   -1    0    0  501    0  0.00000000000E+00  0.00000000000E+00 -0.28531671221E+03  0.28531671225E+03  0.50400001928E-02 0. -1.
    10030    2    1    2    0    0  0.00000000000E+00  0.00000000000E+00 -0.66033827795E+02  0.50459959672E+03  0.50026021888E+03 0.  0.
        2    1    3    3  502    0  0.19565225011E+03  0.12810578417E+03  0.56489366447E+02  0.24058666513E+03  0.25500000920E-02 0.  1.
       -2    1    3    3    0  502 -0.19565225011E+03 -0.12810578417E+03 -0.12252319424E+03  0.26401293159E+03  0.25500000920E-02 0. -1.
</event>
<event>
 5   0  0.1709372E-01  0.5019440E+03  0.7818609E-02  0.1013273E+00
        2   -1    0    0  501    0  0.00000000000E+00  0.00000000000E+00  0.29463502419E+03  0.29463502420E+03  0.25500000920E-02 0. -1.
       -2   -1    0    0    0  501  0.00000000000E+00  0.00000000000E+00 -0.21377958262E+03  0.21377958263E+03  0.25500000920E-02 0.  1.
    10030    2    1    2    0    0  0.00000000000E+00  0.00000000000E+00  0.80855441576E+02  0.50841460683E+03  0.50194403075E+03 0.  0.
        4    1    3    3  502    0 -0.12429122408E+03  0.77987129377E+02 -0.16580206416E+03  0.22140966129E+03  0.12699999809E+01 0.  1.
       -4    1    3    3    0  502  0.12429122408E+03 -0.77987129377E+02  0.24665750574E+03  0.28700494555E+03  0.12699999809E+01 0. -1.
</event>
<event>
 5   0  0.1074281E-01  0.4979076E+03  0.7818609E-02  0.1014326E+00
       -1   -1    0    0    0  501  0.00000000000E+00  0.00000000000E+00  0.79177538289E+02  0.79177538449E+02  0.50400001928E-02 0.  1.
        1   -1    0    0  501    0  0.00000000000E+00  0.00000000000E+00 -0.78277258538E+03  0.78277258540E+03  0.50400001928E-02 0. -1.
    10030    2    1    2    0    0  0.00000000000E+00  0.00000000000E+00 -0.70359504709E+03  0.86195012385E+03  0.49790764777E+03 0.  0.
        4    1    3    3  502    0  0.79247774347E+02 -0.88282509827E+02 -0.73068643496E+03  0.74025555750E+03  0.12699999809E+01 0. -1.
       -4    1    3    3    0  502 -0.79247774347E+02  0.88282509827E+02  0.27091387869E+02  0.12169456634E+03  0.12699999809E+01 0.  1.
</event>
<event>
 5   0  0.1068522E-01  0.4963605E+03  0.7818609E-02  0.1014733E+00
        1   -1    0    0  501    0  0.00000000000E+00  0.00000000000E+00  0.31890131972E+03  0.31890131976E+03  0.50400001928E-02 0.  1.
       -1   -1    0    0    0  501  0.00000000000E+00  0.00000000000E+00 -0.19314262098E+03  0.19314262105E+03  0.50400001928E-02 0. -1.
    10030    2    1    2    0    0  0.00000000000E+00  0.00000000000E+00  0.12575869874E+03  0.51204394081E+03  0.49636050106E+03 0.  0.
        2    1    3    3  502    0  0.23151609352E+03 -0.83731929376E+02  0.95217882524E+02  0.26396435879E+03  0.25500000920E-02 0. -1.
       -2    1    3    3    0  502 -0.23151609352E+03  0.83731929376E+02  0.30540816213E+02  0.24807958202E+03  0.25500000920E-02 0.  1.
</event>
<event>
 5   0  0.1782124E-01  0.5016885E+03  0.7818609E-02  0.1013339E+00
       -2   -1    0    0    0  501  0.00000000000E+00  0.00000000000E+00  0.61881587818E+02  0.61881587871E+02  0.25500000920E-02 0. -1.
        2   -1    0    0  501    0  0.00000000000E+00  0.00000000000E+00 -0.10168264340E+04  0.10168264340E+04  0.25500000920E-02 0.  1.
    10030    2    1    2    0    0  0.00000000000E+00  0.00000000000E+00 -0.95494484618E+03  0.10787080219E+04  0.50168848622E+03 0.  0.
        3    1    3    3  502    0 -0.20318395834E+03  0.49458175468E+02 -0.77535226594E+03  0.80305726978E+03  0.10100000352E+00 0.  1.
       -3    1    3    3    0  502  0.20318395834E+03 -0.49458175468E+02 -0.17959258023E+03  0.27565075208E+03  0.10100000352E+00 0. -1.
</event>
<event>
 5   0  0.1141970E-01  0.5045913E+03  0.7818609E-02  0.1012587E+00
       -1   -1    0    0    0  501  0.00000000000E+00  0.00000000000E+00  0.62248210280E+02  0.62248210485E+02  0.50400001928E-02 0.  1.
        1   -1    0    0  501    0  0.00000000000E+00  0.00000000000E+00 -0.10225691268E+04  0.10225691269E+04  0.50400001928E-02 0. -1.
    10030    2    1    2    0    0  0.00000000000E+00  0.00000000000E+00 -0.96032091656E+03  0.10848173373E+04  0.50459131246E+03 0.  0.
        3    1    3    3  502    0  0.22268932594E+03 -0.53995549080E+02 -0.25317580929E+03  0.34147336034E+03  0.10100000352E+00 0.  1.
       -3    1    3    3    0  502 -0.22268932594E+03  0.53995549080E+02 -0.70714510727E+03  0.74334397700E+03  0.10100000352E+00 0. -1.
</event>
<event>
 5   0  0.1782124E-01  0.4972592E+03  0.7818609E-02  0.1014497E+00
        2   -1    0    0  501    0  0.00000000000E+00  0.00000000000E+00  0.15783440752E+04  0.15783440752E+04  0.25500000920E-02 0. -1.
       -2   -1    0    0    0  501  0.00000000000E+00  0.00000000000E+00 -0.39165533165E+02  0.39165533248E+02  0.25500000920E-02 0.  1.
    10030    2    1    2    0    0  0.00000000000E+00  0.00000000000E+00  0.15391785420E+04  0.16175096084E+04  0.49725923739E+03 0.  0.
        3    1    3    3  502    0 -0.62605672903E+02 -0.12141527980E+03  0.93845158862E+02  0.16573492236E+03  0.10100000352E+00 0.  1.
       -3    1    3    3    0  502  0.62605672903E+02  0.12141527980E+03  0.14453333832E+04  0.14517746861E+04  0.10100000352E+00 0. -1.
</event>
<event>
 5   0  0.7220250E-02  0.4702982E+03  0.7818609E-02  0.1021836E+00
       -3   -1    0    0    0  501  0.00000000000E+00  0.00000000000E+00  0.49737613285E+03  0.49737614311E+03  0.10100000352E+00 0. -1.
        3   -1    0    0  501    0  0.00000000000E+00  0.00000000000E+00 -0.11117355288E+03  0.11117359876E+03  0.10100000352E+00 0.  1.
    10030    2    1    2    0    0  0.00000000000E+00  0.00000000000E+00  0.38620257997E+03  0.60854974187E+03  0.47029815601E+03 0.  0.
        4    1    3    3  502    0  0.47946245807E+02 -0.22366018935E+03  0.26362840086E+03  0.34903333569E+03  0.12699999809E+01 0. -1.
       -4    1    3    3    0  502 -0.47946245807E+02  0.22366018935E+03  0.12257417911E+03  0.25951640617E+03  0.12699999809E+01 0.  1.
</event>
<event>
 5   0  0.1074281E-01  0.5048435E+03  0.7818609E-02  0.1012522E+00
        1   -1    0    0  501    0  0.00000000000E+00  0.00000000000E+00  0.15943062744E+03  0.15943062752E+03  0.50400001928E-02 0.  1.
       -1   -1    0    0    0  501  0.00000000000E+00  0.00000000000E+00 -0.39965176786E+03  0.39965176789E+03  0.50400001928E-02 0. -1.
    10030    2    1    2    0    0  0.00000000000E+00  0.00000000000E+00 -0.24022114042E+03  0.55908239541E+03  0.50484346935E+03 0.  0.
        4    1    3    3  502    0 -0.19948953671E+03 -0.14419519690E+03 -0.58185233838E+02  0.25293371543E+03  0.12699999809E+01 0.  1.
       -4    1    3    3    0  502  0.19948953671E+03  0.14419519690E+03 -0.18203590659E+03  0.30614867998E+03  0.12699999809E+01 0. -1.
</event>
<event>
 5   0  0.1123271E-01  0.5006421E+03  0.7818609E-02  0.1013611E+00
        1   -1    0    0  501    0  0.00000000000E+00  0.00000000000E+00  0.62157878217E+03  0.62157878219E+03  0.50400001928E-02 0.  1.
       -1   -1    0    0    0  501  0.00000000000E+00  0.00000000000E+00 -0.10080884608E+03  0.10080884620E+03  0.50400001928E-02 0. -1.
    10030    2    1    2    0    0  0.00000000000E+00  0.00000000000E+00  0.52076993609E+03  0.72238762839E+03  0.50064214696E+03 0.  0.
        5    1    3    3  502    0  0.59446681778E+02 -0.17404094778E+03  0.15451794808E+02  0.18462125403E+03  0.46999998093E+01 0. -1.
       -5    1    3    3    0  502 -0.59446681778E+02  0.17404094778E+03  0.50531814128E+03  0.53776637436E+03  0.46999998093E+01 0.  1.
</event>
<event>
 5   0  0.1760649E-01  0.5038275E+03  0.7818609E-02  0.1012785E+00
        2   -1    0    0  501    0  0.00000000000E+00  0.00000000000E+00  0.11121887930E+04  0.11121887930E+04  0.25500000920E-02 0. -1.
       -2   -1    0    0    0  501  0.00000000000E+00  0.00000000000E+00 -0.57059137131E+02  0.57059137188E+02  0.25500000920E-02 0.  1.
    10030    2    1    2    0    0  0.00000000000E+00  0.00000000000E+00  0.10551296559E+04  0.11692479302E+04  0.50382748195E+03 0.  0.
        5    1    3    3  502    0 -0.24259139078E+03  0.67681750154E+02  0.52140692416E+03  0.57906707103E+03  0.46999998093E+01 0. -1.
       -5    1    3    3    0  502  0.24259139078E+03 -0.67681750154E+02  0.53372273173E+03  0.59018085918E+03  0.46999998093E+01 0.  1.
</event>
<event>
 5   0  0.1147245E-01  0.4831310E+03  0.7818609E-02  0.1018278E+00
       -1   -1    0    0    0  501  0.00000000000E+00  0.00000000000E+00  0.42404392622E+02  0.42404392921E+02  0.50400001928E-02 0. -1.
        1   -1    0    0  501    0  0.00000000000E+00  0.00000000000E+00 -0.13761283080E+04  0.13761283080E+04  0.50400001928E-02 0.  1.
    10030    2    1    2    0    0  0.00000000000E+00  0.00000000000E+00 -0.13337239153E+04  0.14185327009E+04  0.48313097722E+03 0.  0.
        1    1    3    3  502    0 -0.12718069877E+03 -0.67306126809E+02 -0.12365672708E+04  0.12449111053E+04  0.50400001928E-02 0.  1.
       -1    1    3    3    0  502  0.12718069877E+03  0.67306126809E+02 -0.97156644489E+02  0.17362159555E+03  0.50400001928E-02 0. -1.
</event>
<event>
 5   0  0.1760649E-01  0.4901034E+03  0.7818609E-02  0.1016395E+00
       -2   -1    0    0    0  501  0.00000000000E+00  0.00000000000E+00  0.18845727047E+03  0.18845727049E+03  0.25500000920E-02 0. -1.
        2   -1    0    0  501    0  0.00000000000E+00  0.00000000000E+00 -0.31864170625E+03  0.31864170626E+03  0.25500000920E-02 0.  1.
    10030    2    1    2    0    0  0.00000000000E+00  0.00000000000E+00 -0.13018443578E+03  0.50709897674E+03  0.49010344305E+03 0.  0.
        5    1    3    3  502    0  0.22220069805E+03  0.97523951063E+02 -0.10009101369E+03  0.26253451633E+03  0.46999998093E+01 0.  1.
       -5    1    3    3    0  502 -0.22220069805E+03 -0.97523951063E+02 -0.30093422090E+02  0.24456446041E+03  0.46999998093E+01 0. -1.
</event>
<event>
 5   0  0.1068522E-01  0.5126094E+03  0.7818609E-02  0.1010539E+00
       -1   -1    0    0    0  501  0.00000000000E+00  0.00000000000E+00  0.37891860010E+03  0.37891860013E+03  0.50400001928E-02 0. -1.
        1   -1    0    0  501    0  0.00000000000E+00  0.00000000000E+00 -0.17336732397E+03  0.17336732404E+03  0.50400001928E-02 0.  1.
    10030    2    1    2    0    0  0.00000000000E+00  0.00000000000E+00  0.20555127613E+03  0.55228592417E+03  0.51260941751E+03 0.  0.
        2    1    3    3  502    0  0.23910882406E+03  0.11098096793E+02  0.40542657471E+01  0.23940057346E+03  0.25500000920E-02 0.  1.
       -2    1    3    3    0  502 -0.23910882406E+03 -0.11098096793E+02  0.20149701038E+03  0.31288535072E+03  0.25500000920E-02 0. -1.
</event>
<event>
 5   0  0.1147245E-01  0.4927161E+03  0.7818609E-02  0.1015698E+00
        1   -1    0    0  501    0  0.00000000000E+00  0.00000000000E+00  0.66342838103E+03  0.66342838105E+03  0.50400001928E-02 0.  1.
       -1   -1    0    0    0  501  0.00000000000E+00  0.00000000000E+00 -0.91482804810E+02  0.91482804949E+02  0.50400001928E-02 0. -1.
    10030    2    1    2    0    0  0.00000000000E+00  0.00000000000E+00  0.57194557622E+03  0.75491118600E+03  0.49271610141E+03 0.  0.
        1    1    3    3  502    0 -0.18723530531E+03  0.70634182464E+02  0.65823387492E+02  0.21066315685E+03  0.50400001928E-02 0. -1.
       -1    1    3    3    0  502  0.18723530531E+03 -0.70634182464E+02  0.50612218873E+03  0.54424802915E+03  0.50400001928E-02 0.  1.
</event>
<event>
 5   0  0.7220250E-02  0.5166153E+03  0.7818609E-02  0.1009531E+00
       -3   -1    0    0    0  501  0.00000000000E+00  0.00000000000E+00  0.71384342205E+02  0.71384413656E+02  0.10100000352E+00 0. -1.
        3   -1    0    0  501    0  0.00000000000E+00  0.00000000000E+00 -0.93469803463E+03  0.93469804009E+03  0.10100000352E+00 0.  1.
    10030    2    1    2    0    0  0.00000000000E+00  0.00000000000E+00 -0.86331369243E+03  0.10060824537E+04  0.51661530388E+03 0.  0.
        4    1    3    3  502    0  0.11826703071E+03 -0.11375636451E+03 -0.43172895518E+02  0.16968533474E+03  0.12699999809E+01 0. -1.
       -4    1    3    3    0  502 -0.11826703071E+03  0.11375636451E+03 -0.82014079691E+03  0.83639711900E+03  0.12699999809E+01 0.  1.
</event>
<event>
 5   0  0.1141970E-01  0.4975955E+03  0.7818609E-02  0.1014408E+00
       -1   -1    0    0    0  501  0.00000000000E+00  0.00000000000E+00  0.21940991623E+03  0.21940991629E+03  0.50400001928E-02 0. -1.
        1   -1    0    0  501    0  0.00000000000E+00  0.00000000000E+00 -0.28212177784E+03  0.28212177789E+03  0.50400001928E-02 0.  1.
    10030    2    1    2    0    0  0.00000000000E+00  0.00000000000E+00 -0.62711861612E+02  0.50153169417E+03  0.49759548096E+03 0.  0.
        3    1    3    3  502    0 -0.73522648512E+02 -0.36529032290E+02 -0.26807622056E+03  0.28036551192E+03  0.10100000352E+00 0.  1.
       -3    1    3    3    0  502  0.73522648512E+02  0.36529032290E+02  0.20536435895E+03  0.22116618225E+03  0.10100000352E+00 0. -1.
</event>
<event>
 5   0  0.1683148E-01  0.4946910E+03  0.7818609E-02  0.1015174E+00
       -2   -1    0    0    0  501  0.00000000000E+00  0.00000000000E+00  0.29718714780E+03  0.29718714781E+03  0.25500000920E-02 0.  1.
        2   -1    0    0  501    0  0.00000000000E+00  0.00000000000E+00 -0.20586287846E+03  0.20586287847E+03  0.25500000920E-02 0. -1.
    10030    2    1    2    0    0  0.00000000000E+00  0.00000000000E+00  0.91324269339E+02  0.50305002628E+03  0.49469102152E+03 0.  0.
        2    1    3    3  502    0  0.70732529439E+02  0.16001108971E+03  0.22346850954E+03  0.28380418305E+03  0.25500000920E-02 0.  1.
       -2    1    3    3    0  502 -0.70732529439E+02 -0.16001108971E+03 -0.13214424020E+03  0.21924584324E+03  0.25500000920E-02 0. -1.
</event>
<event>
 5   0  0.1827698E-01  0.5051276E+03  0.7818609E-02  0.1012449E+00
        2   -1    0    0  501    0  0.00000000000E+00  0.00000000000E+00  0.16470754188E+04  0.16470754188E+04  0.25500000920E-02 0.  1.
       -2   -1    0    0    0  501  0.00000000000E+00  0.00000000000E+00 -0.38728323903E+02  0.38728323987E+02  0.25500000920E-02 0. -1.
    10030    2    1    2    0    0  0.00000000000E+00  0.00000000000E+00  0.16083470949E+04  0.16858037428E+04  0.50512758937E+03 0.  0.
        1    1    3    3  502    0 -0.35294105462E+02  0.26732409004E+02  0.16340226660E+04  0.16346223932E+04  0.50400001928E-02 0.  1.
       -1    1    3    3    0  502  0.35294105462E+02 -0.26732409004E+02 -0.25675571036E+02  0.51181349581E+02  0.50400001928E-02 0. -1.
</event>
<event>
 5   0  0.1074281E-01  0.5003882E+03  0.7818609E-02  0.1013678E+00
       -1   -1    0    0    0  501  0.00000000000E+00  0.00000000000E+00  0.21281486603E+02  0.21281487200E+02  0.50400001928E-02 0.  1.
        1   -1    0    0  501    0  0.00000000000E+00  0.00000000000E+00 -0.29413865189E+04  0.29413865189E+04  0.50400001928E-02 0. -1.
    10030    2    1    2    0    0  0.00000000000E+00  0.00000000000E+00 -0.29201050323E+04  0.29626680061E+04  0.50038816408E+03 0.  0.
        4    1    3    3  502    0 -0.18545223308E+02 -0.11887898625E+03 -0.27588329334E+04  0.27614555774E+04  0.12699999809E+01 0. -1.
       -4    1    3    3    0  502  0.18545223308E+02  0.11887898625E+03 -0.16127209889E+03  0.20121242870E+03  0.12699999809E+01 0.  1.
</event>
<event>
 5   0  0.1147245E-01  0.5007941E+03  0.7818609E-02  0.1013572E+00
        1   -1    0    0  501    0  0.00000000000E+00  0.00000000000E+00  0.12196868634E+04  0.12196868634E+04  0.50400001928E-02 0.  1.
       -1   -1    0    0    0  501  0.00000000000E+00  0.00000000000E+00 -0.51405559500E+02  0.51405559747E+02  0.50400001928E-02 0. -1.
    10030    2    1    2    0    0  0.00000000000E+00  0.00000000000E+00  0.11682813039E+04  0.12710924232E+04  0.50079411255E+03 0.  0.
        1    1    3    3  502    0  0.22574904590E+03  0.91580355829E+02  0.73102701734E+03  0.77055181098E+03  0.50400001928E-02 0. -1.
       -1    1    3    3    0  502 -0.22574904590E+03 -0.91580355829E+02  0.43725428658E+03  0.50054061220E+03  0.50400001928E-02 0.  1.
</event>
<event>
 5   0  0.1147245E-01  0.5017397E+03  0.7818609E-02  0.1013326E+00
       -1   -1    0    0    0  501  0.00000000000E+00  0.00000000000E+00  0.17325536578E+03  0.17325536585E+03  0.50400001928E-02 0.  1.
        1   -1    0    0  501    0  0.00000000000E+00  0.00000000000E+00 -0.36325392842E+03  0.36325392846E+03  0.50400001928E-02 0. -1.
    10030    2    1    2    0    0  0.00000000000E+00  0.00000000000E+00 -0.18999856264E+03  0.53650929431E+03  0.50173974237E+03 0.  0.
        1    1    3    3  502    0 -0.71542026221E+02 -0.18852150050E+03  0.64598859101E+02  0.21173481124E+03  0.50400001928E-02 0.  1.
       -1    1    3    3    0  502  0.71542026221E+02  0.18852150050E+03 -0.25459742174E+03  0.32477448307E+03  0.50400001928E-02 0. -1.
</event>
<event>
 5   0  0.1068522E-01  0.4974022E+03  0.7818609E-02  0.1014459E+00
        1   -1    0    0  501    0  0.00000000000E+00  0.00000000000E+00  0.30220928794E+03  0.30220928798E+03  0.50400001928E-02 0. -1.
       -1   -1    0    0    0  501  0.00000000000E+00  0.00000000000E+00 -0.20466693401E+03  0.20466693408E+03  0.50400001928E-02 0.  1.
    10030    2    1    2    0    0  0.00000000000E+00  0.00000000000E+00  0.97542353922E+02  0.50687622205E+03  0.49740224534E+03 0.  0.
        2    1    3    3  502    0  0.22942363814E+03 -0.91903064074E+01  0.14615592440E+03  0.27217865771E+03  0.25500000920E-02 0. -1.
       -2    1    3    3    0  502 -0.22942363814E+03  0.91903064074E+01 -0.48613570481E+02  0.23469756434E+03  0.25500000920E-02 0.  1.
</event>
<event>
 5   0  0.1827698E-01  0.4750264E+03  0.7818609E-02  0.1020511E+00
       -2   -1    0    0    0  501  0.00000000000E+00  0.00000000000E+00  0.46308853026E+02  0.46308853097E+02  0.25500000920E-02 0. -1.
        2   -1    0    0  501    0  0.00000000000E+00  0.00000000000E+00 -0.12181801105E+04  0.12181801105E+04  0.25500000920E-02 0.  1.
    10030    2    1    2    0    0  0.00000000000E+00  0.00000000000E+00 -0.11718712575E+04  0.12644889636E+04  0.47502641503E+03 0.  0.
        1    1    3    3  502    0 -0.17067477915E+03  0.16517051404E+03 -0.58902252438E+03  0.63510527725E+03  0.50400001928E-02 0. -1.
       -1    1    3    3    0  502  0.17067477915E+03 -0.16517051404E+03 -0.58284873311E+03  0.62938368636E+03  0.50400001928E-02 0.  1.
</event>
<event>
 5   0  0.1782124E-01  0.4903611E+03  0.7818609E-02  0.1016326E+00
       -2   -1    0    0    0  501  0.00000000000E+00  0.00000000000E+00  0.42266907360E+02  0.42266907437E+02  0.25500000920E-02 0.  1.
        2   -1    0    0  501    0  0.00000000000E+00  0.00000000000E+00 -0.14222359014E+04  0.14222359014E+04  0.25500000920E-02 0. -1.
    10030    2    1    2    0    0  0.00000000000E+00  0.00000000000E+00 -0.13799689940E+04  0.14645028088E+04  0.49036114505E+03 0.  0.
        3    1    3    3  502    0 -0.98993185174E+02 -0.14999320847E+03 -0.11880891926E+04  0.12016045743E+04  0.10100000352E+00 0. -1.
       -3    1    3    3    0  502  0.98993185174E+02  0.14999320847E+03 -0.19187980143E+03  0.26289823449E+03  0.10100000352E+00 0.  1.
</event>
<event>
 5   0  0.1141970E-01  0.5020161E+03  0.7818609E-02  0.1013254E+00
        1   -1    0    0  501    0  0.00000000000E+00  0.00000000000E+00  0.20311473642E+03  0.20311473648E+03  0.50400001928E-02 0.  1.
       -1   -1    0    0    0  501  0.00000000000E+00  0.00000000000E+00 -0.31019437230E+03  0.31019437235E+03  0.50400001928E-02 0. -1.
    10030    2    1    2    0    0  0.00000000000E+00  0.00000000000E+00 -0.10707963588E+03  0.51330910883E+03  0.50201612802E+03 0.  0.
        3    1    3    3  502    0  0.24542743445E+03  0.46922666177E+02 -0.29156450614E+02  0.25156802458E+03  0.10100000352E+00 0. -1.
       -3    1    3    3    0  502 -0.24542743445E+03 -0.46922666177E+02 -0.77923185267E+02  0.26174108425E+03  0.10100000352E+00 0.  1.
</event>
<event>
 5   0  0.1709372E-01  0.4177197E+03  0.7818609E-02  0.1037811E+00
        2   -1    0    0  501    0  0.00000000000E+00  0.00000000000E+00  0.40188522557E+03  0.40188522558E+03  0.25500000920E-02 0.  1.
       -2   -1    0    0    0  501  0.00000000000E+00  0.00000000000E+00 -0.10854450086E+03  0.10854450089E+03  0.25500000920E-02 0. -1.
    10030    2    1    2    0    0  0.00000000000E+00  0.00000000000E+00  0.29334072471E+03  0.51042972647E+03  0.41771967262E+03 0.  0.
        4    1    3    3  502    0 -0.27781155225E+02  0.66398904122E+02  0.38624669519E+03  0.39289786141E+03  0.12699999809E+01 0.  1.
       -4    1    3    3    0  502  0.27781155225E+02 -0.66398904122E+02 -0.92905970481E+02  0.11753186506E+03  0.12699999809E+01 0. -1.
</event>
<event>
 5   0  0.1141970E-01  0.4990564E+03  0.7818609E-02  0.1014026E+00
        1   -1    0    0  501    0  0.00000000000E+00  0.00000000000E+00  0.65496746399E+03  0.65496746401E+03  0.50400001928E-02 0. -1.
       -1   -1    0    0    0  501  0.00000000000E+00  0.00000000000E+00 -0.95064757404E+02  0.95064757537E+02  0.50400001928E-02 0.  1.
    10030    2    1    2    0    0  0.00000000000E+00  0.00000000000E+00  0.55990270658E+03  0.75003222154E+03  0.49905640214E+03 0.  0.
        3    1    3    3  502    0  0.42748004852E+02  0.10065266901E+03 -0.57134103522E+02  0.12338017541E+03  0.10100000352E+00 0.  1.
       -3    1    3    3    0  502 -0.42748004852E+02 -0.10065266901E+03  0.61703681011E+03  0.62665204613E+03  0.10100000352E+00 0. -1.
</event>
<event>
 5   0  0.1141970E-01  0.5160616E+03  0.7818609E-02  0.1009670E+00
       -1   -1    0    0    0  501  0.00000000000E+00  0.00000000000E+00  0.26573462291E+02  0.26573462769E+02  0.50400001928E-02 0.  1.
        1   -1    0    0  501    0  0.00000000000E+00  0.00000000000E+00 -0.25055032149E+04  0.25055032149E+04  0.50400001928E-02 0. -1.
    10030    2    1    2    0    0  0.00000000000E+00  0.00000000000E+00 -0.24789297526E+04  0.25320766777E+04  0.51606160800E+03 0.  0.
        3    1    3    3  502    0  0.11159753252E+03 -0.19190865294E+03 -0.18847624133E+04  0.18977914282E+04  0.10100000352E+00 0. -1.
       -3    1    3    3    0  502 -0.11159753252E+03  0.19190865294E+03 -0.59416733934E+03  0.63428524946E+03  0.10100000352E+00 0.  1.
</event>
<event>
 5   0  0.1782124E-01  0.4990067E+03  0.7818609E-02  0.1014039E+00
       -2   -1    0    0    0  501  0.00000000000E+00  0.00000000000E+00  0.33029145881E+02  0.33029145979E+02  0.25500000920E-02 0.  1.
        2   -1    0    0  501    0  0.00000000000E+00  0.00000000000E+00 -0.18847569304E+04  0.18847569304E+04  0.25500000920E-02 0. -1.
    10030    2    1    2    0    0  0.00000000000E+00  0.00000000000E+00 -0.18517277845E+04  0.19177860764E+04  0.49900666007E+03 0.  0.
        3    1    3    3  502    0  0.21088851987E+03 -0.32178022517E+02 -0.42858035280E+03  0.47873846926E+03  0.10100000352E+00 0.  1.
       -3    1    3    3    0  502 -0.21088851987E+03  0.32178022517E+02 -0.14231474317E+04  0.14390476071E+04  0.10100000352E+00 0. -1.
</event>
<event>
 5   0  0.1074281E-01  0.5051935E+03  0.7818609E-02  0.1012432E+00
       -1   -1    0    0    0  501  0.00000000000E+00  0.00000000000E+00  0.90251275095E+02  0.90251275236E+02  0.50400001928E-02 0. -1.
        1   -1    0    0  501    0  0.00000000000E+00  0.00000000000E+00 -0.70697179416E+03  0.70697179417E+03  0.50400001928E-02 0.  1.
    10030    2    1    2    0    0  0.00000000000E+00  0.00000000000E+00 -0.61672051906E+03  0.79722306941E+03  0.50519345183E+03 0.  0.
        4    1    3    3  502    0 -0.59634676601E+02  0.17498046633E+03 -0.36728281164E+02  0.18848086850E+03  0.12699999809E+01 0. -1.
       -4    1    3    3    0  502  0.59634676601E+02 -0.17498046633E+03 -0.57999223790E+03  0.60874220091E+03  0.12699999809E+01 0.  1.
</event>
<event>
 5   0  0.1141970E-01  0.5008565E+03  0.7818609E-02  0.1013556E+00
        1   -1    0    0  501    0  0.00000000000E+00  0.00000000000E+00  0.17189796821E+03  0.17189796829E+03  0.50400001928E-02 0.  1.
       -1   -1    0    0    0  501  0.00000000000E+00  0.00000000000E+00 -0.36483456666E+03  0.36483456669E+03  0.50400001928E-02 0. -1.
    10030    2    1    2    0    0  0.00000000000E+00  0.00000000000E+00 -0.19293659844E+03  0.53673253498E+03  0.50085654941E+03 0.  0.
        3    1    3    3  502    0  0.11963544406E+03  0.12556281546E+03 -0.29006176777E+03  0.33795635728E+03  0.10100000352E+00 0. -1.
       -3    1    3    3    0  502 -0.11963544406E+03 -0.12556281546E+03  0.97125169324E+02  0.19877617770E+03  0.10100000352E+00 0.  1.
</event>
<event>
 5   0  0.1683148E-01  0.5088723E+03  0.7818609E-02  0.1011489E+00
       -2   -1    0    0    0  501  0.00000000000E+00  0.00000000000E+00  0.20720157607E+03  0.20720157609E+03  0.25500000920E-02 0.  1.
        2   -1    0    0  501    0  0.00000000000E+00  0.00000000000E+00 -0.31243846471E+03  0.31243846472E+03  0.25500000920E-02 0. -1.
    10030    2    1    2    0    0  0.00000000000E+00  0.00000000000E+00 -0.10523688864E+03  0.51964004081E+03  0.50887225241E+03 0.  0.
        2    1    3    3  502    0 -0.17521732158E+03  0.17395957656E+03  0.10120175120E+02  0.24711426913E+03  0.25500000920E-02 0. -1.
       -2    1    3    3    0  502  0.17521732158E+03 -0.17395957656E+03 -0.11535706376E+03  0.27252577167E+03  0.25500000920E-02 0.  1.
</event>
<event>
 5   0  0.1074281E-01  0.4992767E+03  0.7818609E-02  0.1013968E+00
        1   -1    0    0  501    0  0.00000000000E+00  0.00000000000E+00  0.44092916185E+03  0.44092916188E+03  0.50400001928E-02 0. -1.
       -1   -1    0    0    0  501  0.00000000000E+00  0.00000000000E+00 -0.14133632633E+03  0.14133632642E+03  0.50400001928E-02 0.  1.
    10030    2    1    2    0    0  0.00000000000E+00  0.00000000000E+00  0.29959283552E+03  0.58226548830E+03  0.49927670862E+03 0.  0.
        4    1    3    3  502    0  0.16792678086E+03 -0.16636988849E+02  0.36433458075E+03  0.40151898182E+03  0.12699999809E+01 0. -1.
       -4    1    3    3    0  502 -0.16792678086E+03  0.16636988849E+02 -0.64741745239E+02  0.18074650648E+03  0.12699999809E+01 0.  1.
</event>
<event>
 5   0  0.1827698E-01  0.4961294E+03  0.7818609E-02  0.1014794E+00
        2   -1    0    0  501    0  0.00000000000E+00  0.00000000000E+00  0.44246881153E+03  0.44246881154E+03  0.25500000920E-02 0. -1.
       -2   -1    0    0    0  501  0.00000000000E+00  0.00000000000E+00 -0.13907442166E+03  0.13907442168E+03  0.25500000920E-02 0.  1.
    10030    2    1    2    0    0  0.00000000000E+00  0.00000000000E+00  0.30339438987E+03  0.58154323323E+03  0.49612939472E+03 0.  0.
        1    1    3    3  502    0  0.15549211032E+03  0.19215015742E+03  0.12720452017E+03  0.27799364983E+03  0.50400001928E-02 0. -1.
       -1    1    3    3    0  502 -0.15549211032E+03 -0.19215015742E+03  0.17618986970E+03  0.30354958340E+03  0.50400001928E-02 0.  1.
</event>
<event>
 5   0  0.7220250E-02  0.4937696E+03  0.7818609E-02  0.1015418E+00
       -4   -1    0    0    0  501  0.00000000000E+00  0.00000000000E+00  0.12923414181E+04  0.12923420421E+04  0.12699999809E+01 0. -1.
        4   -1    0    0  501    0  0.00000000000E+00  0.00000000000E+00 -0.47154904096E+02  0.47172003140E+02  0.12699999809E+01 0.  1.
    10030    2    1    2    0    0  0.00000000000E+00  0.00000000000E+00  0.12451865140E+04  0.13395140452E+04  0.49376960496E+03 0.  0.
        4    1    3    3  502    0 -0.14711153302E+03  0.19469724541E+03  0.72415874546E+03  0.76417034884E+03  0.12699999809E+01 0. -1.
       -4    1    3    3    0  502  0.14711153302E+03 -0.19469724541E+03  0.52102776850E+03  0.57534369638E+03  0.12699999809E+01 0.  1.
</event>
<event>
 5   0  0.1074281E-01  0.4841895E+03  0.7818609E-02  0.1017990E+00
       -1   -1    0    0    0  501  0.00000000000E+00  0.00000000000E+00  0.56309998653E+02  0.56309998879E+02  0.50400001928E-02 0.  1.
        1   -1    0    0  501    0  0.00000000000E+00  0.00000000000E+00 -0.10408429183E+04  0.10408429183E+04  0.50400001928E-02 0. -1.
    10030    2    1    2    0    0  0.00000000000E+00  0.00000000000E+00 -0.98453291960E+03  0.10971529171E+04  0.48418948132E+03 0.  0.
        4    1    3    3  502    0  0.14653338607E+03  0.14530390482E+03 -0.20543708433E+03  0.29118939972E+03  0.12699999809E+01 0.  1.
       -4    1    3    3    0  502 -0.14653338607E+03 -0.14530390482E+03 -0.77909583527E+03  0.80596351743E+03  0.12699999809E+01 0. -1.
</event>
<event>
 5   0  0.1782124E-01  0.4989389E+03  0.7818609E-02  0.1014056E+00
        2   -1    0    0  501    0  0.00000000000E+00  0.00000000000E+00  0.18647753708E+03  0.18647753710E+03  0.25500000920E-02 0.  1.
       -2   -1    0    0    0  501  0.00000000000E+00  0.00000000000E+00 -0.33373997409E+03  0.33373997410E+03  0.25500000920E-02 0. -1.
    10030    2    1    2    0    0  0.00000000000E+00  0.00000000000E+00 -0.14726243701E+03  0.52021751120E+03  0.49893890769E+03 0.  0.
        3    1    3    3  502    0  0.62477251793E+02  0.58743020063E+02  0.17062633617E+03  0.19096467263E+03  0.10100000352E+00 0.  1.
       -3    1    3    3    0  502 -0.62477251793E+02 -0.58743020063E+02 -0.31788877317E+03  0.32925283857E+03  0.10100000352E+00 0. -1.
</event>
<event>
 5   0  0.1141970E-01  0.5006594E+03  0.7818609E-02  0.1013607E+00
       -1   -1    0    0    0  501  0.00000000000E+00  0.00000000000E+00  0.31099457213E+03  0.31099457217E+03  0.50400001928E-02 0.  1.
        1   -1    0    0  501    0  0.00000000000E+00  0.00000000000E+00 -0.20149857878E+03  0.20149857884E+03  0.50400001928E-02 0. -1.
    10030    2    1    2    0    0  0.00000000000E+00  0.00000000000E+00  0.10949599335E+03  0.51249315101E+03  0.50065942243E+03 0.  0.
        3    1    3    3  502    0 -0.16142400217E+03 -0.73782643721E+02 -0.12595604233E+03  0.21763851174E+03  0.10100000352E+00 0. -1.
       -3    1    3    3    0  502  0.16142400217E+03  0.73782643721E+02  0.23545203568E+03  0.29485463927E+03  0.10100000352E+00 0.  1.
</event>
<event>
 5   0  0.1683148E-01  0.4942920E+03  0.7818609E-02  0.1015280E+00
       -2   -1    0    0    0  501  0.00000000000E+00  0.00000000000E+00  0.41281660577E+02  0.41281660656E+02  0.25500000920E-02 0. -1.
        2   -1    0    0  501    0  0.00000000000E+00  0.00000000000E+00 -0.14796195351E+04  0.14796195351E+04  0.25500000920E-02 0.  1.
    10030    2    1    2    0    0  0.00000000000E+00  0.00000000000E+00 -0.14383378746E+04  0.15209011958E+04  0.49429202500E+03 0.  0.
        2    1    3    3  502    0 -0.18278935989E+03 -0.60756397013E+02 -0.24271313234E+03  0.30985957220E+03  0.25500000920E-02 0. -1.
       -2    1    3    3    0  502  0.18278935989E+03  0.60756397013E+02 -0.11956247422E+04  0.12110416236E+04  0.25500000920E-02 0.  1.
</event>
<event>
 5   0  0.1782124E-01  0.5090272E+03  0.7818609E-02  0.1011449E+00
        2   -1    0    0  501    0  0.00000000000E+00  0.00000000000E+00  0.16883089915E+04  0.16883089915E+04  0.25500000920E-02 0. -1.
       -2   -1    0    0    0  501  0.00000000000E+00  0.00000000000E+00 -0.38368080183E+02  0.38368080268E+02  0.25500000920E-02 0.  1.
    10030    2    1    2    0    0  0.00000000000E+00  0.00000000000E+00  0.16499409113E+04  0.17266770717E+04  0.50902720883E+03 0.  0.
        3    1    3    3  502    0 -0.13485369260E+03 -0.17057965729E+03  0.37631030217E+03  0.43461752335E+03  0.10100000352E+00 0. -1.
       -3    1    3    3    0  502  0.13485369260E+03  0.17057965729E+03  0.12736306091E+04  0.12920595484E+04  0.10100000352E+00 0.  1.
</event>
<event>
 5   0  0.1683148E-01  0.5225024E+03  0.7818609E-02  0.1008067E+00
       -2   -1    0    0    0  501  0.00000000000E+00  0.00000000000E+00  0.71137611921E+02  0.71137611967E+02  0.25500000920E-02 0.  1.
        2   -1    0    0  501    0  0.00000000000E+00  0.00000000000E+00 -0.95943901312E+03  0.95943901312E+03  0.25500000920E-02 0. -1.
    10030    2    1    2    0    0  0.00000000000E+00  0.00000000000E+00 -0.88830140119E+03  0.10305766251E+04  0.52250244096E+03 0.  0.
        2    1    3    3  502    0 -0.81931711982E+02  0.44757587603E+01 -0.93336357408E+03  0.93696339271E+03  0.25500000920E-02 0. -1.
       -2    1    3    3    0  502  0.81931711982E+02 -0.44757587603E+01  0.45062172887E+02  0.93613232379E+02  0.25500000920E-02 0.  1.
</event>
<event>
 5   0  0.1683148E-01  0.4551734E+03  0.7818609E-02  0.1026190E+00
        2   -1    0    0  501    0  0.00000000000E+00  0.00000000000E+00  0.20441592862E+03  0.20441592863E+03  0.25500000920E-02 0.  1.
       -2   -1    0    0    0  501  0.00000000000E+00  0.00000000000E+00 -0.25338388788E+03  0.25338388789E+03  0.25500000920E-02 0. -1.
    10030    2    1    2    0    0  0.00000000000E+00  0.00000000000E+00 -0.48967959261E+02  0.45779981652E+03  0.45517338562E+03 0.  0.
        2    1    3    3  502    0 -0.70907405455E+02 -0.18748237838E+03 -0.13289369024E+03  0.24049581132E+03  0.25500000920E-02 0.  1.
       -2    1    3    3    0  502  0.70907405455E+02  0.18748237838E+03  0.83925730975E+02  0.21730400520E+03  0.25500000920E-02 0. -1.
</event>
<event>
 5   0  0.1123271E-01  0.5001583E+03  0.7818609E-02  0.1013738E+00
       -1   -1    0    0    0  501  0.00000000000E+00  0.00000000000E+00  0.39537232699E+02  0.39537233020E+02  0.50400001928E-02 0.  1.
        1   -1    0    0  501    0  0.00000000000E+00  0.00000000000E+00 -0.15817895687E+04  0.15817895687E+04  0.50400001928E-02 0. -1.
    10030    2    1    2    0    0  0.00000000000E+00  0.00000000000E+00 -0.15422523360E+04  0.16213268017E+04  0.50015830504E+03 0.  0.
        5    1    3    3  502    0 -0.15894194210E+03  0.13396878345E+03 -0.32069956084E+03  0.38220475431E+03  0.46999998093E+01 0. -1.
       -5    1    3    3    0  502  0.15894194210E+03 -0.13396878345E+03 -0.12215527751E+04  0.12391220474E+04  0.46999998093E+01 0.  1.
</event>
<event>
 5   0  0.1074281E-01  0.4961778E+03  0.7818609E-02  0.1014781E+00
       -1   -1    0    0    0  501  0.00000000000E+00  0.00000000000E+00  0.57383205287E+03  0.57383205290E+03  0.50400001928E-02 0. -1.
        1   -1    0    0  501    0  0.00000000000E+00  0.00000000000E+00 -0.10725804556E+03  0.10725804568E+03  0.50400001928E-02 0.  1.
    10030    2    1    2    0    0  0.00000000000E+00  0.00000000000E+00  0.46657400731E+03  0.68109009857E+03  0.49617780893E+03 0.  0.
        4    1    3    3  502    0 -0.46211161279E+02 -0.65890866843E+02  0.55541053891E+03  0.56121257772E+03  0.12699999809E+01 0. -1.
       -4    1    3    3    0  502  0.46211161279E+02  0.65890866843E+02 -0.88836531596E+02  0.11987752085E+03  0.12699999809E+01 0.  1.
</event>
<event>
 5   0  0.1683148E-01  0.5030305E+03  0.7818609E-02  0.1012991E+00
        2   -1    0    0  501    0  0.00000000000E+00  0.00000000000E+00  0.58579591378E+03  0.58579591379E+03  0.25500000920E-02 0.  1.
       -2   -1    0    0    0  501  0.00000000000E+00  0.00000000000E+00 -0.10798967700E+03  0.10798967703E+03  0.25500000920E-02 0. -1.
    10030    2    1    2    0    0  0.00000000000E+00  0.00000000000E+00  0.47780623678E+03  0.69378559082E+03  0.50303046242E+03 0.  0.
        2    1    3    3  502    0 -0.36354659082E+01  0.24403502574E+03  0.15508151058E+03  0.28916532525E+03  0.25500000920E-02 0. -1.
       -2    1    3    3    0  502  0.36354659082E+01 -0.24403502574E+03  0.32272472620E+03  0.40462026557E+03  0.25500000920E-02 0.  1.
</event>
<event>
 5   0  0.1683148E-01  0.5032999E+03  0.7818609E-02  0.1012921E+00
        2   -1    0    0  501    0  0.00000000000E+00  0.00000000000E+00  0.44397884830E+03  0.44397884831E+03  0.25500000920E-02 0.  1.
       -2   -1    0    0    0  501  0.00000000000E+00  0.00000000000E+00 -0.14263672961E+03  0.14263672963E+03  0.25500000920E-02 0. -1.
    10030    2    1    2    0    0  0.00000000000E+00  0.00000000000E+00  0.30134211869E+03  0.58661557794E+03  0.50329987462E+03 0.  0.
        2    1    3    3  502    0 -0.67329221475E+02 -0.24225810752E+03  0.13870078674E+03  0.28715870694E+03  0.25500000920E-02 0. -1.
       -2    1    3    3    0  502  0.67329221475E+02  0.24225810752E+03  0.16264133195E+03  0.29945687100E+03  0.25500000920E-02 0.  1.
</event>
<event>
 5   0  0.1123271E-01  0.5097450E+03  0.7818609E-02  0.1011266E+00
       -1   -1    0    0    0  501  0.00000000000E+00  0.00000000000E+00  0.32124652750E+03  0.32124652754E+03  0.50400001928E-02 0. -1.
        1   -1    0    0  501    0  0.00000000000E+00  0.00000000000E+00 -0.20221225670E+03  0.20221225676E+03  0.50400001928E-02 0.  1.
    10030    2    1    2    0    0  0.00000000000E+00  0.00000000000E+00  0.11903427080E+03  0.52345878430E+03  0.50974497667E+03 0.  0.
        5    1    3    3  502    0 -0.22106041788E+03  0.11109030686E+03  0.12222663553E+03  0.27598950172E+03  0.46999998093E+01 0.  1.
       -5    1    3    3    0  502  0.22106041788E+03 -0.11109030686E+03 -0.31923647339E+01  0.24746928258E+03  0.46999998093E+01 0. -1.
</event>
<event>
 5   0  0.1782124E-01  0.4959934E+03  0.7818609E-02  0.1014830E+00
        2   -1    0    0  501    0  0.00000000000E+00  0.00000000000E+00  0.13621653807E+04  0.13621653807E+04  0.25500000920E-02 0.  1.
       -2   -1    0    0    0  501  0.00000000000E+00  0.00000000000E+00 -0.45150440427E+02  0.45150440499E+02  0.25500000920E-02 0. -1.
    10030    2    1    2    0    0  0.00000000000E+00  0.00000000000E+00  0.13170149402E+04  0.14073158212E+04  0.49599341497E+03 0.  0.
        3    1    3    3  502    0 -0.44906282983E+02  0.83933415635E+02  0.13082645099E+04  0.13117230770E+04  0.10100000352E+00 0.  1.
       -3    1    3    3    0  502  0.44906282983E+02 -0.83933415635E+02  0.87504303076E+01  0.95592744197E+02  0.10100000352E+00 0. -1.
</event>
<event>
 5   0  0.7220250E-02  0.4998591E+03  0.7818609E-02  0.1013816E+00
       -4   -1    0    0    0  501  0.00000000000E+00  0.00000000000E+00  0.15866119203E+03  0.15866627479E+03  0.12699999809E+01 0.  1.
        4   -1    0    0  501    0  0.00000000000E+00  0.00000000000E+00 -0.39368682422E+03  0.39368887267E+03  0.12699999809E+01 0. -1.
    10030    2    1    2    0    0  0.00000000000E+00  0.00000000000E+00 -0.23502563219E+03  0.55235514745E+03  0.49985914129E+03 0.  0.
        2    1    3    3  502    0  0.22001950726E+03 -0.11005530233E+03 -0.16623458468E+03  0.29690855545E+03  0.25500000920E-02 0.  1.
       -2    1    3    3    0  502 -0.22001950726E+03  0.11005530233E+03 -0.68791047507E+02  0.25544659201E+03  0.25500000920E-02 0. -1.
</event>
<event>
 5   0  0.1074281E-01  0.3797929E+03  0.7818609E-02  0.1051010E+00
        1   -1    0    0  501    0  0.00000000000E+00  0.00000000000E+00  0.55582020033E+03  0.55582020035E+03  0.50400001928E-02 0. -1.
       -1   -1    0    0    0  501  0.00000000000E+00  0.00000000000E+00 -0.64878290358E+02  0.64878290554E+02  0.50400001928E-02 0.  1.
    10030    2    1    2    0    0  0.00000000000E+00  0.00000000000E+00  0.49094190997E+03  0.62069849090E+03  0.37979291416E+03 0.  0.
        4    1    3    3  502    0 -0.12298118404E+03 -0.93309474964E+02  0.42619333328E+03  0.45329173827E+03  0.12699999809E+01 0. -1.
       -4    1    3    3    0  502  0.12298118404E+03  0.93309474964E+02  0.64748576686E+02  0.16740675264E+03  0.12699999809E+01 0.  1.
</event>
<event>
 5   0  0.1683148E-01  0.5032075E+03  0.7818609E-02  0.1012945E+00
       -2   -1    0    0    0  501  0.00000000000E+00  0.00000000000E+00  0.61280231584E+02  0.61280231637E+02  0.25500000920E-02 0. -1.
        2   -1    0    0  501    0  0.00000000000E+00  0.00000000000E+00 -0.10330319681E+04  0.10330319681E+04  0.25500000920E-02 0.  1.
    10030    2    1    2    0    0  0.00000000000E+00  0.00000000000E+00 -0.97175173650E+03  0.10943121997E+04  0.50320746524E+03 0.  0.
        2    1    3    3  502    0  0.94900848121E+02 -0.17164214552E+03 -0.82860091370E+03  0.85149672417E+03  0.25500000920E-02 0.  1.
       -2    1    3    3    0  502 -0.94900848121E+02  0.17164214552E+03 -0.14315082281E+03  0.24281547555E+03  0.25500000920E-02 0. -1.
</event>
<event>
 5   0  0.1760649E-01  0.5651877E+03  0.7818609E-02  0.9980384E-01
        2   -1    0    0  501    0  0.00000000000E+00  0.00000000000E+00  0.10423618194E+04  0.10423618194E+04  0.25500000920E-02 0. -1.
       -2   -1    0    0    0  501  0.00000000000E+00  0.00000000000E+00 -0.76613795318E+02  0.76613795361E+02  0.25500000920E-02 0.  1.
    10030    2    1    2    0    0  0.00000000000E+00  0.00000000000E+00  0.96574802404E+03  0.11189756147E+04  0.56518773908E+03 0.  0.
        5    1    3    3  502    0 -0.17921521501E+03 -0.10580329801E+03  0.86124833659E+03  0.88604921897E+03  0.46999998093E+01 0. -1.
       -5    1    3    3    0  502  0.17921521501E+03  0.10580329801E+03  0.10449968745E+03  0.23292639575E+03  0.46999998093E+01 0.  1.
</event>
<event>
 5   0  0.7220250E-02  0.4931902E+03  0.7818609E-02  0.1015572E+00
       -4   -1    0    0    0  501  0.00000000000E+00  0.00000000000E+00  0.31751947442E+03  0.31752201425E+03  0.12699999809E+01 0. -1.
        4   -1    0    0  501    0  0.00000000000E+00  0.00000000000E+00 -0.19150773155E+03  0.19151194256E+03  0.12699999809E+01 0.  1.
    10030    2    1    2    0    0  0.00000000000E+00  0.00000000000E+00  0.12601174287E+03  0.50903395682E+03  0.49319023698E+03 0.  0.
        2    1    3    3  502    0  0.10804206958E+03 -0.13238695465E+03 -0.12049700162E+03  0.20909070272E+03  0.25500000920E-02 0.  1.
       -2    1    3    3    0  502 -0.10804206958E+03  0.13238695465E+03  0.24650874449E+03  0.29994325409E+03  0.25500000920E-02 0. -1.
</event>
<event>
 5   0  0.1123271E-01  0.4955140E+03  0.7818609E-02  0.1014957E+00
        1   -1    0    0  501    0  0.00000000000E+00  0.00000000000E+00  0.48074469305E+03  0.48074469307E+03  0.50400001928E-02 0. -1.
       -1   -1    0    0    0  501  0.00000000000E+00  0.00000000000E+00 -0.12768425770E+03  0.12768425780E+03  0.50400001928E-02 0.  1.
    10030    2    1    2    0    0  0.00000000000E+00  0.00000000000E+00  0.35306043535E+03  0.60842895087E+03  0.49551399299E+03 0.  0.
        5    1    3    3  502    0 -0.91012890334E+02  0.21835796875E+03  0.26674256566E+03  0.35656308706E+03  0.46999998093E+01 0. -1.
       -5    1    3    3    0  502  0.91012890334E+02 -0.21835796875E+03  0.86317869695E+02  0.25186586381E+03  0.46999998093E+01 0.  1.
</event>
<event>
 5   0  0.1709372E-01  0.5078895E+03  0.7818609E-02  0.1011740E+00
       -2   -1    0    0    0  501  0.00000000000E+00  0.00000000000E+00  0.14283769371E+03  0.14283769373E+03  0.25500000920E-02 0. -1.
        2   -1    0    0  501    0  0.00000000000E+00  0.00000000000E+00 -0.45147703381E+03  0.45147703381E+03  0.25500000920E-02 0.  1.
    10030    2    1    2    0    0  0.00000000000E+00  0.00000000000E+00 -0.30863934010E+03  0.59431472755E+03  0.50788950878E+03 0.  0.
        4    1    3    3  502    0  0.19527239039E+03 -0.63456324742E+02 -0.32917352599E+03  0.38796241404E+03  0.12699999809E+01 0.  1.
       -4    1    3    3    0  502 -0.19527239039E+03  0.63456324742E+02  0.20534185890E+02  0.20635231351E+03  0.12699999809E+01 0. -1.
</event>
<event>
 5   0  0.1141970E-01  0.5107760E+03  0.7818609E-02  0.1011004E+00
        1   -1    0    0  501    0  0.00000000000E+00  0.00000000000E+00  0.14591016511E+04  0.14591016511E+04  0.50400001928E-02 0. -1.
       -1   -1    0    0    0  501  0.00000000000E+00  0.00000000000E+00 -0.44700811797E+02  0.44700812081E+02  0.50400001928E-02 0.  1.
    10030    2    1    2    0    0  0.00000000000E+00  0.00000000000E+00  0.14144008393E+04  0.15038024632E+04  0.51077599207E+03 0.  0.
        3    1    3    3  502    0  0.20998722893E+03 -0.33090569422E+02  0.29048688522E+03  0.35996147403E+03  0.10100000352E+00 0.  1.
       -3    1    3    3    0  502 -0.20998722893E+03  0.33090569422E+02  0.11239139541E+04  0.11438409892E+04  0.10100000352E+00 0. -1.
</event>
<event>
 5   0  0.1068522E-01  0.4966087E+03  0.7818609E-02  0.1014668E+00
        1   -1    0    0  501    0  0.00000000000E+00  0.00000000000E+00  0.40765102737E+03  0.40765102740E+03  0.50400001928E-02 0.  1.
       -1   -1    0    0    0  501  0.00000000000E+00  0.00000000000E+00 -0.15124467975E+03  0.15124467983E+03  0.50400001928E-02 0. -1.
    10030    2    1    2    0    0  0.00000000000E+00  0.00000000000E+00  0.25640634762E+03  0.55889570724E+03  0.49660869552E+03 0.  0.
        2    1    3    3  502    0 -0.22700142396E+03  0.59878057814E+01  0.24124842602E+03  0.33130998077E+03  0.25500000920E-02 0.  1.
       -2    1    3    3    0  502  0.22700142396E+03 -0.59878057814E+01  0.15157921602E+02  0.22758572646E+03  0.25500000920E-02 0. -1.
</event>
<event>
 5   0  0.1683148E-01  0.4881777E+03  0.7818609E-02  0.1016912E+00
        2   -1    0    0  501    0  0.00000000000E+00  0.00000000000E+00  0.38880377138E+03  0.38880377139E+03  0.25500000920E-02 0.  1.
       -2   -1    0    0    0  501  0.00000000000E+00  0.00000000000E+00 -0.15323759747E+03  0.15323759750E+03  0.25500000920E-02 0. -1.
    10030    2    1    2    0    0  0.00000000000E+00  0.00000000000E+00  0.23556617391E+03  0.54204136889E+03  0.48817765546E+03 0.  0.
        2    1    3    3  502    0 -0.10944070130E+03 -0.13491246816E+03 -0.72602242397E+02  0.18828097826E+03  0.25500000920E-02 0. -1.
       -2    1    3    3    0  502  0.10944070130E+03  0.13491246816E+03  0.30816841630E+03  0.35376039063E+03  0.25500000920E-02 0.  1.
</event>
<event>
 5   0  0.1782124E-01  0.4976680E+03  0.7818609E-02  0.1014389E+00
        2   -1    0    0  501    0  0.00000000000E+00  0.00000000000E+00  0.52165831880E+03  0.52165831880E+03  0.25500000920E-02 0. -1.
       -2   -1    0    0    0  501  0.00000000000E+00  0.00000000000E+00 -0.11869522446E+03  0.11869522449E+03  0.25500000920E-02 0.  1.
    10030    2    1    2    0    0  0.00000000000E+00  0.00000000000E+00  0.40296309434E+03  0.64035354329E+03  0.49766796663E+03 0.  0.
        3    1    3    3  502    0 -0.56264469641E+02  0.16790483837E+03 -0.23455598445E+02  0.17862782704E+03  0.10100000352E+00 0.  1.
       -3    1    3    3    0  502  0.56264469641E+02 -0.16790483837E+03  0.42641869278E+03  0.46172571625E+03  0.10100000352E+00 0. -1.
</event>
<event>
 5   0  0.1074281E-01  0.5039101E+03  0.7818609E-02  0.1012763E+00
       -1   -1    0    0    0  501  0.00000000000E+00  0.00000000000E+00  0.96070307539E+02  0.96070307671E+02  0.50400001928E-02 0. -1.
        1   -1    0    0  501    0  0.00000000000E+00  0.00000000000E+00 -0.66078022140E+03  0.66078022141E+03  0.50400001928E-02 0.  1.
    10030    2    1    2    0    0  0.00000000000E+00  0.00000000000E+00 -0.56470991386E+03  0.75685052909E+03  0.50391014732E+03 0.  0.
        4    1    3    3  502    0  0.21263716722E+03  0.50202414094E+02 -0.93891586272E+02  0.23780683367E+03  0.12699999809E+01 0. -1.
       -4    1    3    3    0  502 -0.21263716722E+03 -0.50202414094E+02 -0.47081832758E+03  0.51904369542E+03  0.12699999809E+01 0.  1.
</event>
<event>
 5   0  0.1782124E-01  0.4964684E+03  0.7818609E-02  0.1014705E+00
        2   -1    0    0  501    0  0.00000000000E+00  0.00000000000E+00  0.21763649804E+03  0.21763649805E+03  0.25500000920E-02 0. -1.
       -2   -1    0    0    0  501  0.00000000000E+00  0.00000000000E+00 -0.28313360891E+03  0.28313360892E+03  0.25500000920E-02 0.  1.
    10030    2    1    2    0    0  0.00000000000E+00  0.00000000000E+00 -0.65497110876E+02  0.50077010697E+03  0.49646835600E+03 0.  0.
        3    1    3    3  502    0 -0.22870276905E+02 -0.24625279949E+03 -0.54304409370E+02  0.25320440340E+03  0.10100000352E+00 0. -1.
       -3    1    3    3    0  502  0.22870276905E+02  0.24625279949E+03 -0.11192701506E+02  0.24756570358E+03  0.10100000352E+00 0.  1.
</event>
<event>
 5   0  0.7220250E-02  0.4971472E+03  0.7818609E-02  0.1014526E+00
       -3   -1    0    0    0  501  0.00000000000E+00  0.00000000000E+00  0.67627943587E+03  0.67627944341E+03  0.10100000352E+00 0.  1.
        3   -1    0    0  501    0  0.00000000000E+00  0.00000000000E+00 -0.91365800621E+02  0.91365856446E+02  0.10100000352E+00 0. -1.
    10030    2    1    2    0    0  0.00000000000E+00  0.00000000000E+00  0.58491363525E+03  0.76764529985E+03  0.49714720727E+03 0.  0.
        4    1    3    3  502    0  0.24817715934E+02 -0.47171803912E+02 -0.82432635926E+02  0.98172554587E+02  0.12699999809E+01 0. -1.
       -4    1    3    3    0  502 -0.24817715934E+02  0.47171803912E+02  0.66734627117E+03  0.66947274527E+03  0.12699999809E+01 0.  1.
</event>
<event>
 5   0  0.1147245E-01  0.4993817E+03  0.7818609E-02  0.1013940E+00
        1   -1    0    0  501    0  0.00000000000E+00  0.00000000000E+00  0.12557643162E+03  0.12557643172E+03  0.50400001928E-02 0.  1.
       -1   -1    0    0    0  501  0.00000000000E+00  0.00000000000E+00 -0.49647474453E+03  0.49647474455E+03  0.50400001928E-02 0. -1.
    10030    2    1    2    0    0  0.00000000000E+00  0.00000000000E+00 -0.37089831291E+03  0.62205117628E+03  0.49938172512E+03 0.  0.
        1    1    3    3  502    0  0.19047907201E+03  0.13853636396E+03 -0.82196531862E+02  0.24946116109E+03  0.50400001928E-02 0.  1.
       -1    1    3    3    0  502 -0.19047907201E+03 -0.13853636396E+03 -0.28870178105E+03  0.37259001519E+03  0.50400001928E-02 0. -1.
</event>
<event>
 5   0  0.1683148E-01  0.5321983E+03  0.7818609E-02  0.1005700E+00
        2   -1    0    0  501    0  0.00000000000E+00  0.00000000000E+00  0.60503966037E+03  0.60503966037E+03  0.25500000920E-02 0. -1.
       -2   -1    0    0    0  501  0.00000000000E+00  0.00000000000E+00 -0.11703157991E+03  0.11703157994E+03  0.25500000920E-02 0.  1.
    10030    2    1    2    0    0  0.00000000000E+00  0.00000000000E+00  0.48800808046E+03  0.72207124031E+03  0.53219826145E+03 0.  0.
        2    1    3    3  502    0  0.93420789268E+02 -0.14503066014E+03  0.51888805279E+03  0.54681454587E+03  0.25500000920E-02 0. -1.
       -2    1    3    3    0  502 -0.93420789268E+02  0.14503066014E+03 -0.30879972327E+02  0.17525669444E+03  0.25500000920E-02 0.  1.
</event>
<event>
 5   0  0.1782124E-01  0.4990795E+03  0.7818609E-02  0.1014019E+00
       -2   -1    0    0    0  501  0.00000000000E+00  0.00000000000E+00  0.16555966108E+03  0.16555966110E+03  0.25500000920E-02 0.  1.
        2   -1    0    0  501    0  0.00000000000E+00  0.00000000000E+00 -0.37611874913E+03  0.37611874914E+03  0.25500000920E-02 0. -1.
    10030    2    1    2    0    0  0.00000000000E+00  0.00000000000E+00 -0.21055908805E+03  0.54167841024E+03  0.49907952328E+03 0.  0.
        3    1    3    3  502    0 -0.52112219720E+02  0.10632140447E+03 -0.34368771959E+03  0.36351228768E+03  0.10100000352E+00 0. -1.
       -3    1    3    3    0  502  0.52112219720E+02 -0.10632140447E+03  0.13312863154E+03  0.17816612256E+03  0.10100000352E+00 0.  1.
</event>
<event>
 5   0  0.1827698E-01  0.5034369E+03  0.7818609E-02  0.1012886E+00
       -2   -1    0    0    0  501  0.00000000000E+00  0.00000000000E+00  0.13398027223E+03  0.13398027226E+03  0.25500000920E-02 0. -1.
        2   -1    0    0  501    0  0.00000000000E+00  0.00000000000E+00 -0.47292173997E+03  0.47292173997E+03  0.25500000920E-02 0.  1.
    10030    2    1    2    0    0  0.00000000000E+00  0.00000000000E+00 -0.33894146773E+03  0.60690201223E+03  0.50343692147E+03 0.  0.
        1    1    3    3  502    0 -0.23641722034E+03  0.21546274979E+02 -0.27036642186E+03  0.35979903576E+03  0.50400001928E-02 0.  1.
       -1    1    3    3    0  502  0.23641722034E+03 -0.21546274979E+02 -0.68575045872E+02  0.24710297647E+03  0.50400001928E-02 0. -1.
</event>
<event>
 5   0  0.1074281E-01  0.4940657E+03  0.7818609E-02  0.1015340E+00
       -1   -1    0    0    0  501  0.00000000000E+00  0.00000000000E+00  0.16032224637E+03  0.16032224645E+03  0.50400001928E-02 0.  1.
        1   -1    0    0  501    0  0.00000000000E+00  0.00000000000E+00 -0.38064098290E+03  0.38064098293E+03  0.50400001928E-02 0. -1.
    10030    2    1    2    0    0  0.00000000000E+00  0.00000000000E+00 -0.22031873653E+03  0.54096322939E+03  0.49406565342E+03 0.  0.
        4    1    3    3  502    0  0.95279393679E+02  0.11431166371E+03 -0.32605140994E+03  0.35840822276E+03  0.12699999809E+01 0. -1.
       -4    1    3    3    0  502 -0.95279393679E+02 -0.11431166371E+03  0.10573267341E+03  0.18255500663E+03  0.12699999809E+01 0.  1.
</event>
<event>
 5   0  0.1782124E-01  0.4927515E+03  0.7818609E-02  0.1015688E+00
       -2   -1    0    0    0  501  0.00000000000E+00  0.00000000000E+00  0.45937618902E+02  0.45937618973E+02  0.25500000920E-02 0.  1.
        2   -1    0    0  501    0  0.00000000000E+00  0.00000000000E+00 -0.13213792748E+04  0.13213792748E+04  0.25500000920E-02 0. -1.
    10030    2    1    2    0    0  0.00000000000E+00  0.00000000000E+00 -0.12754416559E+04  0.13673168938E+04  0.49275153009E+03 0.  0.
        3    1    3    3  502    0  0.91996383798E+02 -0.17250813962E+03 -0.10537520919E+04  0.10717349832E+04  0.10100000352E+00 0. -1.
       -3    1    3    3    0  502 -0.91996383798E+02  0.17250813962E+03 -0.22168956403E+03  0.29558191059E+03  0.10100000352E+00 0.  1.
</event>
<event>
 5   0  0.1074281E-01  0.4972672E+03  0.7818609E-02  0.1014495E+00
       -1   -1    0    0    0  501  0.00000000000E+00  0.00000000000E+00  0.52304399227E+02  0.52304399470E+02  0.50400001928E-02 0. -1.
        1   -1    0    0  501    0  0.00000000000E+00  0.00000000000E+00 -0.11819017100E+04  0.11819017100E+04  0.50400001928E-02 0.  1.
    10030    2    1    2    0    0  0.00000000000E+00  0.00000000000E+00 -0.11295973108E+04  0.12342061095E+04  0.49726716780E+03 0.  0.
        4    1    3    3  502    0  0.20720532077E+02  0.22593176529E+02  0.47587598452E+02  0.56621413808E+02  0.12699999809E+01 0. -1.
       -4    1    3    3    0  502 -0.20720532077E+02 -0.22593176529E+02 -0.11771849092E+04  0.11775846957E+04  0.12699999809E+01 0.  1.
</event>
<event>
 5   0  0.1760649E-01  0.5037585E+03  0.7818609E-02  0.1012803E+00
        2   -1    0    0  501    0  0.00000000000E+00  0.00000000000E+00  0.32477351590E+03  0.32477351591E+03  0.25500000920E-02 0. -1.
       -2   -1    0    0    0  501  0.00000000000E+00  0.00000000000E+00 -0.19534581133E+03  0.19534581135E+03  0.25500000920E-02 0.  1.
    10030    2    1    2    0    0  0.00000000000E+00  0.00000000000E+00  0.12942770457E+03  0.52011932726E+03  0.50375845787E+03 0.  0.
        5    1    3    3  502    0 -0.19641963665E+03 -0.15290490002E+03  0.25256536721E+02  0.25024101334E+03  0.46999998093E+01 0.  1.
       -5    1    3    3    0  502  0.19641963665E+03  0.15290490002E+03  0.10417116785E+03  0.26987831392E+03  0.46999998093E+01 0. -1.
</event>
<event>
 5   0  0.1068522E-01  0.5033023E+03  0.7818609E-02  0.1012921E+00
       -1   -1    0    0    0  501  0.00000000000E+00  0.00000000000E+00  0.38541504179E+02  0.38541504509E+02  0.50400001928E-02 0. -1.
        1   -1    0    0  501    0  0.00000000000E+00  0.00000000000E+00 -0.16431195946E+04  0.16431195946E+04  0.50400001928E-02 0.  1.
    10030    2    1    2    0    0  0.00000000000E+00  0.00000000000E+00 -0.16045780905E+04  0.16816610992E+04  0.50330229885E+03 0.  0.
        2    1    3    3  502    0 -0.35013402652E+02 -0.85248451446E+01  0.29875805796E+02  0.46809989622E+02  0.25500000920E-02 0. -1.
       -2    1    3    3    0  502  0.35013402652E+02  0.85248451446E+01 -0.16344538963E+04  0.16348511095E+04  0.25500000920E-02 0.  1.
</event>
<event>
 5   0  0.1141970E-01  0.5048953E+03  0.7818609E-02  0.1012509E+00
       -1   -1    0    0    0  501  0.00000000000E+00  0.00000000000E+00  0.11153304480E+03  0.11153304491E+03  0.50400001928E-02 0. -1.
        1   -1    0    0  501    0  0.00000000000E+00  0.00000000000E+00 -0.57139843719E+03  0.57139843721E+03  0.50400001928E-02 0.  1.
    10030    2    1    2    0    0  0.00000000000E+00  0.00000000000E+00 -0.45986539239E+03  0.68293148212E+03  0.50489526652E+03 0.  0.
        3    1    3    3  502    0 -0.18691888578E+03 -0.16689865399E+03 -0.27131417919E+03  0.36933077938E+03  0.10100000352E+00 0.  1.
       -3    1    3    3    0  502  0.18691888578E+03  0.16689865399E+03 -0.18855121319E+03  0.31360070274E+03  0.10100000352E+00 0. -1.
</event>
<event>
 5   0  0.1827698E-01  0.4998267E+03  0.7818609E-02  0.1013824E+00
       -2   -1    0    0    0  501  0.00000000000E+00  0.00000000000E+00  0.52445619224E+02  0.52445619286E+02  0.25500000920E-02 0. -1.
        2   -1    0    0  501    0  0.00000000000E+00  0.00000000000E+00 -0.11908845032E+04  0.11908845032E+04  0.25500000920E-02 0.  1.
    10030    2    1    2    0    0  0.00000000000E+00  0.00000000000E+00 -0.11384388840E+04  0.12433301225E+04  0.49982667089E+03 0.  0.
        1    1    3    3  502    0 -0.16607220671E+03  0.12605455137E+01 -0.10337612566E+04  0.10470166677E+04  0.50400001928E-02 0.  1.
       -1    1    3    3    0  502  0.16607220671E+03 -0.12605455137E+01 -0.10467762734E+03  0.19631345473E+03  0.50400001928E-02 0. -1.
</event>
<event>
 5   0  0.1709372E-01  0.4918526E+03  0.7818609E-02  0.1015928E+00
       -2   -1    0    0    0  501  0.00000000000E+00  0.00000000000E+00  0.66297506373E+02  0.66297506422E+02  0.25500000920E-02 0.  1.
        2   -1    0    0  501    0  0.00000000000E+00  0.00000000000E+00 -0.91224754906E+03  0.91224754907E+03  0.25500000920E-02 0. -1.
    10030    2    1    2    0    0  0.00000000000E+00  0.00000000000E+00 -0.84595004269E+03  0.97854505549E+03  0.49185257028E+03 0.  0.
        4    1    3    3  502    0 -0.21574419411E+02  0.14883917703E+03 -0.81008441694E+03  0.82392774662E+03  0.12699999809E+01 0. -1.
       -4    1    3    3    0  502  0.21574419411E+02 -0.14883917703E+03 -0.35865625755E+02  0.15461730887E+03  0.12699999809E+01 0.  1.
</event>
<event>
 5   0  0.1782124E-01  0.5005661E+03  0.7818609E-02  0.1013631E+00
        2   -1    0    0  501    0  0.00000000000E+00  0.00000000000E+00  0.74752448466E+03  0.74752448466E+03  0.25500000920E-02 0. -1.
       -2   -1    0    0    0  501  0.00000000000E+00  0.00000000000E+00 -0.83798722386E+02  0.83798722425E+02  0.25500000920E-02 0.  1.
    10030    2    1    2    0    0  0.00000000000E+00  0.00000000000E+00  0.66372576227E+03  0.83132320709E+03  0.50056606671E+03 0.  0.
        3    1    3    3  502    0 -0.11740583799E+03  0.29754413863E+02 -0.31887119475E+02  0.12524477845E+03  0.10100000352E+00 0.  1.
       -3    1    3    3    0  502  0.11740583799E+03 -0.29754413863E+02  0.69561288175E+03  0.70607842864E+03  0.10100000352E+00 0. -1.
</event>
<event>
 5   0  0.1068522E-01  0.5024978E+03  0.7818609E-02  0.1013129E+00
       -1   -1    0    0    0  501  0.00000000000E+00  0.00000000000E+00  0.52526504989E+02  0.52526505231E+02  0.50400001928E-02 0.  1.
        1   -1    0    0  501    0  0.00000000000E+00  0.00000000000E+00 -0.12017936852E+04  0.12017936852E+04  0.50400001928E-02 0. -1.
    10030    2    1    2    0    0  0.00000000000E+00  0.00000000000E+00 -0.11492671802E+04  0.12543201905E+04  0.50249784939E+03 0.  0.
        2    1    3    3  502    0 -0.10715838508E+03  0.89051436551E+02 -0.52743277545E+02  0.14897963343E+03  0.25500000920E-02 0.  1.
       -2    1    3    3    0  502  0.10715838508E+03 -0.89051436551E+02 -0.10965239027E+04  0.11053405570E+04  0.25500000920E-02 0. -1.
</event>
<event>
 5   0  0.1068522E-01  0.4669379E+03  0.7818609E-02  0.1022788E+00
       -1   -1    0    0    0  501  0.00000000000E+00  0.00000000000E+00  0.88052337228E+02  0.88052337372E+02  0.50400001928E-02 0.  1.
        1   -1    0    0  501    0  0.00000000000E+00  0.00000000000E+00 -0.61903820653E+03  0.61903820655E+03  0.50400001928E-02 0. -1.
    10030    2    1    2    0    0  0.00000000000E+00  0.00000000000E+00 -0.53098586931E+03  0.70709054393E+03  0.46693794439E+03 0.  0.
        2    1    3    3  502    0 -0.21437129384E+03  0.57622257155E+02 -0.15595470914E+03  0.27128812626E+03  0.25500000920E-02 0.  1.
       -2    1    3    3    0  502  0.21437129384E+03 -0.57622257155E+02 -0.37503116016E+03  0.43580241766E+03  0.25500000920E-02 0. -1.
</event>
<event>
 5   0  0.1760649E-01  0.5011809E+03  0.7818609E-02  0.1013471E+00
        2   -1    0    0  501    0  0.00000000000E+00  0.00000000000E+00  0.30441091273E+03  0.30441091274E+03  0.25500000920E-02 0. -1.
       -2   -1    0    0    0  501  0.00000000000E+00  0.00000000000E+00 -0.20628552774E+03  0.20628552776E+03  0.25500000920E-02 0.  1.
    10030    2    1    2    0    0  0.00000000000E+00  0.00000000000E+00  0.98125384993E+02  0.51069644050E+03  0.50118086871E+03 0.  0.
        5    1    3    3  502    0  0.10188681823E+03 -0.16377342768E+03 -0.11388215935E+03  0.22403994188E+03  0.46999998093E+01 0.  1.
       -5    1    3    3    0  502 -0.10188681823E+03  0.16377342768E+03  0.21200754435E+03  0.28665649862E+03  0.46999998093E+01 0. -1.
</event>
<event>
 5   0  0.1074281E-01  0.4954693E+03  0.7818609E-02  0.1014968E+00
       -1   -1    0    0    0  501  0.00000000000E+00  0.00000000000E+00  0.27426386853E+02  0.27426387316E+02  0.50400001928E-02 0. -1.
        1   -1    0    0  501    0  0.00000000000E+00  0.00000000000E+00 -0.22377157653E+04  0.22377157653E+04  0.50400001928E-02 0.  1.
    10030    2    1    2    0    0  0.00000000000E+00  0.00000000000E+00 -0.22102893784E+04  0.22651421526E+04  0.49546930793E+03 0.  0.
        4    1    3    3  502    0 -0.19642492797E+03 -0.14531449892E+03 -0.91821875482E+03  0.95017174791E+03  0.12699999809E+01 0. -1.
       -4    1    3    3    0  502  0.19642492797E+03  0.14531449892E+03 -0.12920706236E+04  0.13149704047E+04  0.12699999809E+01 0.  1.
</event>
<event>
 5   0  0.1782124E-01  0.5220826E+03  0.7818609E-02  0.1008171E+00
        2   -1    0    0  501    0  0.00000000000E+00  0.00000000000E+00  0.41619513144E+03  0.41619513144E+03  0.25500000920E-02 0.  1.
       -2   -1    0    0    0  501  0.00000000000E+00  0.00000000000E+00 -0.16372743293E+03  0.16372743295E+03  0.25500000920E-02 0. -1.
    10030    2    1    2    0    0  0.00000000000E+00  0.00000000000E+00  0.25246769850E+03  0.57992256440E+03  0.52208260066E+03 0.  0.
        3    1    3    3  502    0  0.40581529347E+02 -0.16449863129E+03 -0.94351472924E+02  0.19393006694E+03  0.10100000352E+00 0. -1.
       -3    1    3    3    0  502 -0.40581529347E+02  0.16449863129E+03  0.34681917143E+03  0.38599249745E+03  0.10100000352E+00 0.  1.
</event>
<event>
 5   0  0.7220250E-02  0.4462927E+03  0.7818609E-02  0.1028833E+00
       -4   -1    0    0    0  501  0.00000000000E+00  0.00000000000E+00  0.27591698482E+03  0.27591990761E+03  0.12699999809E+01 0. -1.
        4   -1    0    0  501    0  0.00000000000E+00  0.00000000000E+00 -0.18046229305E+03  0.18046676179E+03  0.12699999809E+01 0.  1.
    10030    2    1    2    0    0  0.00000000000E+00  0.00000000000E+00  0.95454691776E+02  0.45638666940E+03  0.44629272213E+03 0.  0.
        4    1    3    3  502    0 -0.26307804978E+02 -0.71905343803E+02  0.26206317153E+03  0.27302233946E+03  0.12699999809E+01 0. -1.
       -4    1    3    3    0  502  0.26307804978E+02  0.71905343803E+02 -0.16660847975E+03  0.18336432994E+03  0.12699999809E+01 0.  1.
</event>
<event>
 5   0  0.1074281E-01  0.4771302E+03  0.7818609E-02  0.1019927E+00
        1   -1    0    0  501    0  0.00000000000E+00  0.00000000000E+00  0.60010226707E+03  0.60010226709E+03  0.50400001928E-02 0.  1.
       -1   -1    0    0    0  501  0.00000000000E+00  0.00000000000E+00 -0.94839327894E+02  0.94839328027E+02  0.50400001928E-02 0. -1.
    10030    2    1    2    0    0  0.00000000000E+00  0.00000000000E+00  0.50526293918E+03  0.69494159512E+03  0.47713015302E+03 0.  0.
        4    1    3    3  502    0 -0.11383182980E+03 -0.14876523836E+03  0.46779451702E+03  0.50390684127E+03  0.12699999809E+01 0.  1.
       -4    1    3    3    0  502  0.11383182980E+03  0.14876523836E+03  0.37468422157E+02  0.19103475385E+03  0.12699999809E+01 0. -1.
</event>
<event>
 5   0  0.1123271E-01  0.5012140E+03  0.7818609E-02  0.1013463E+00
       -1   -1    0    0    0  501  0.00000000000E+00  0.00000000000E+00  0.86653329730E+02  0.86653329877E+02  0.50400001928E-02 0.  1.
        1   -1    0    0  501    0  0.00000000000E+00  0.00000000000E+00 -0.72477164387E+03  0.72477164389E+03  0.50400001928E-02 0. -1.
    10030    2    1    2    0    0  0.00000000000E+00  0.00000000000E+00 -0.63811831414E+03  0.81142497377E+03  0.50121403134E+03 0.  0.
        5    1    3    3  502    0 -0.12742022271E+03 -0.12455712468E+03 -0.60424358336E+03  0.62998633993E+03  0.46999998093E+01 0. -1.
       -5    1    3    3    0  502  0.12742022271E+03  0.12455712468E+03 -0.33874730778E+02  0.18143863384E+03  0.46999998093E+01 0.  1.
</event>
<event>
 5   0  0.1709372E-01  0.4984308E+03  0.7818609E-02  0.1014189E+00
        2   -1    0    0  501    0  0.00000000000E+00  0.00000000000E+00  0.29069573023E+03  0.29069573024E+03  0.25500000920E-02 0.  1.
       -2   -1    0    0    0  501  0.00000000000E+00  0.00000000000E+00 -0.21365401097E+03  0.21365401098E+03  0.25500000920E-02 0. -1.
    10030    2    1    2    0    0  0.00000000000E+00  0.00000000000E+00  0.77041719265E+02  0.50434974122E+03  0.49843077249E+03 0.  0.
        4    1    3    3  502    0  0.94800492270E+02  0.21886984217E+03  0.11159727021E+03  0.26333762504E+03  0.12699999809E+01 0.  1.
       -4    1    3    3    0  502 -0.94800492270E+02 -0.21886984217E+03 -0.34555550947E+02  0.24101211618E+03  0.12699999809E+01 0. -1.
</event>
<event>
 5   0  0.1123271E-01  0.4931116E+03  0.7818609E-02  0.1015593E+00
        1   -1    0    0  501    0  0.00000000000E+00  0.00000000000E+00  0.86250401116E+02  0.86250401263E+02  0.50400001928E-02 0. -1.
       -1   -1    0    0    0  501  0.00000000000E+00  0.00000000000E+00 -0.70480545773E+03  0.70480545775E+03  0.50400001928E-02 0.  1.
    10030    2    1    2    0    0  0.00000000000E+00  0.00000000000E+00 -0.61855505661E+03  0.79105585901E+03  0.49311156346E+03 0.  0.
        5    1    3    3  502    0 -0.27352991159E+02  0.10641867840E+03 -0.66327658810E+03  0.67233253942E+03  0.46999998093E+01 0.  1.
       -5    1    3    3    0  502  0.27352991159E+02 -0.10641867840E+03  0.44721531492E+02  0.11872331959E+03  0.46999998093E+01 0. -1.
</event>
<event>
 5   0  0.1683148E-01  0.5020141E+03  0.7818609E-02  0.1013255E+00
        2   -1    0    0  501    0  0.00000000000E+00  0.00000000000E+00  0.75567120075E+03  0.75567120076E+03  0.25500000920E-02 0.  1.
       -2   -1    0    0    0  501  0.00000000000E+00  0.00000000000E+00 -0.83375607389E+02  0.83375607428E+02  0.25500000920E-02 0. -1.
    10030    2    1    2    0    0  0.00000000000E+00  0.00000000000E+00  0.67229559336E+03  0.83904680818E+03  0.50201412477E+03 0.  0.
        2    1    3    3  502    0 -0.67542677892E+01 -0.84740089144E+02 -0.58583796467E+02  0.10324032185E+03  0.25500000920E-02 0. -1.
       -2    1    3    3    0  502  0.67542677892E+01  0.84740089144E+02  0.73087938983E+03  0.73580648633E+03  0.25500000920E-02 0.  1.
</event>
<event>
 5   0  0.1068522E-01  0.5165191E+03  0.7818609E-02  0.1009555E+00
        1   -1    0    0  501    0  0.00000000000E+00  0.00000000000E+00  0.66569958271E+03  0.66569958273E+03  0.50400001928E-02 0. -1.
       -1   -1    0    0    0  501  0.00000000000E+00  0.00000000000E+00 -0.10019234542E+03  0.10019234555E+03  0.50400001928E-02 0.  1.
    10030    2    1    2    0    0  0.00000000000E+00  0.00000000000E+00  0.56550723729E+03  0.76589192828E+03  0.51651912877E+03 0.  0.
        2    1    3    3  502    0 -0.10284287199E+03  0.12224637406E+03 -0.18137474403E+02  0.16077873079E+03  0.25500000920E-02 0.  1.
       -2    1    3    3    0  502  0.10284287199E+03 -0.12224637406E+03  0.58364471169E+03  0.60511319750E+03  0.25500000920E-02 0. -1.
</event>
<event>
 5   0  0.1074281E-01  0.4914208E+03  0.7818609E-02  0.1016043E+00
       -1   -1    0    0    0  501  0.00000000000E+00  0.00000000000E+00  0.52775779201E+02  0.52775779441E+02  0.50400001928E-02 0. -1.
        1   -1    0    0  501    0  0.00000000000E+00  0.00000000000E+00 -0.11439640604E+04  0.11439640604E+04  0.50400001928E-02 0.  1.
    10030    2    1    2    0    0  0.00000000000E+00  0.00000000000E+00 -0.10911882812E+04  0.11967398398E+04  0.49142077618E+03 0.  0.
        4    1    3    3  502    0 -0.18379045907E+03  0.52759306070E+02 -0.16982473656E+03  0.25574309623E+03  0.12699999809E+01 0. -1.
       -4    1    3    3    0  502  0.18379045907E+03 -0.52759306070E+02 -0.92136354462E+03  0.94099674360E+03  0.12699999809E+01 0.  1.
</event>
<event>
 5   0  0.1683148E-01  0.4890766E+03  0.7818609E-02  0.1016670E+00
        2   -1    0    0  501    0  0.00000000000E+00  0.00000000000E+00  0.24702900438E+03  0.24702900439E+03  0.25500000920E-02 0.  1.
       -2   -1    0    0    0  501  0.00000000000E+00  0.00000000000E+00 -0.24207270039E+03  0.24207270040E+03  0.25500000920E-02 0. -1.
    10030    2    1    2    0    0  0.00000000000E+00  0.00000000000E+00  0.49563039961E+01  0.48910170479E+03  0.48907659184E+03 0.  0.
        2    1    3    3  502    0 -0.14735384983E+03  0.73575414009E+01 -0.19254900885E+03  0.24257454790E+03  0.25500000920E-02 0. -1.
       -2    1    3    3    0  502  0.14735384983E+03 -0.73575414009E+01  0.19750531284E+03  0.24652715689E+03  0.25500000920E-02 0.  1.
</event>
<event>
 5   0  0.1709372E-01  0.5030189E+03  0.7818609E-02  0.1012994E+00
        2   -1    0    0  501    0  0.00000000000E+00  0.00000000000E+00  0.10729543436E+04  0.10729543436E+04  0.25500000920E-02 0. -1.
       -2   -1    0    0    0  501  0.00000000000E+00  0.00000000000E+00 -0.58955910364E+02  0.58955910419E+02  0.25500000920E-02 0.  1.
    10030    2    1    2    0    0  0.00000000000E+00  0.00000000000E+00  0.10139984332E+04  0.11319102540E+04  0.50301888688E+03 0.  0.
        4    1    3    3  502    0  0.61920950103E+02 -0.18813983049E+03  0.85578250739E+03  0.87840543756E+03  0.12699999809E+01 0. -1.
       -4    1    3    3    0  502 -0.61920950103E+02  0.18813983049E+03  0.15821592583E+03  0.25350481645E+03  0.12699999809E+01 0.  1.
</event>
<event>
 5   0  0.7220250E-02  0.5002081E+03  0.7818609E-02  0.1013725E+00
       -3   -1    0    0    0  501  0.00000000000E+00  0.00000000000E+00  0.16787441671E+03  0.16787444709E+03  0.10100000352E+00 0. -1.
        3   -1    0    0  501    0  0.00000000000E+00  0.00000000000E+00 -0.37261193962E+03  0.37261195331E+03  0.10100000352E+00 0.  1.
    10030    2    1    2    0    0  0.00000000000E+00  0.00000000000E+00 -0.20473752291E+03  0.54048640040E+03  0.50020805245E+03 0.  0.
        3    1    3    3  502    0 -0.22422775602E+03 -0.26611507063E+02  0.13835240075E+02  0.22622485042E+03  0.10100000352E+00 0. -1.
       -3    1    3    3    0  502  0.22422775602E+03  0.26611507063E+02 -0.21857276298E+03  0.31426154998E+03  0.10100000352E+00 0.  1.
</event>
<event>
 5   0  0.7220250E-02  0.4999322E+03  0.7818609E-02  0.1013797E+00
       -4   -1    0    0    0  501  0.00000000000E+00  0.00000000000E+00  0.52967573780E+03  0.52967726033E+03  0.12699999809E+01 0. -1.
        4   -1    0    0  501    0  0.00000000000E+00  0.00000000000E+00 -0.11795958960E+03  0.11796642606E+03  0.12699999809E+01 0.  1.
    10030    2    1    2    0    0  0.00000000000E+00  0.00000000000E+00  0.41171614820E+03  0.64764368639E+03  0.49993215323E+03 0.  0.
        5    1    3    3  502    0  0.24453697018E+03  0.63217971042E+01  0.27220115139E+03  0.36599706518E+03  0.46999998093E+01 0.  1.
       -5    1    3    3    0  502 -0.24453697018E+03 -0.63217971042E+01  0.13951499681E+03  0.28164662121E+03  0.46999998093E+01 0. -1.
</event>
<event>
 5   0  0.1147245E-01  0.5018995E+03  0.7818609E-02  0.1013284E+00
        1   -1    0    0  501    0  0.00000000000E+00  0.00000000000E+00  0.20084816730E+03  0.20084816736E+03  0.50400001928E-02 0. -1.
       -1   -1    0    0    0  501  0.00000000000E+00  0.00000000000E+00 -0.31354916412E+03  0.31354916416E+03  0.50400001928E-02 0.  1.
    10030    2    1    2    0    0  0.00000000000E+00  0.00000000000E+00 -0.11270099682E+03  0.51439733152E+03  0.50189949192E+03 0.  0.
        1    1    3    3  502    0  0.10802969222E+03  0.98277445587E+02 -0.26550793629E+03  0.30302365414E+03  0.50400001928E-02 0.  1.
       -1    1    3    3    0  502 -0.10802969222E+03 -0.98277445587E+02  0.15280693947E+03  0.21137367738E+03  0.50400001928E-02 0. -1.
</event>
<event>
 5   0  0.1074281E-01  0.4985501E+03  0.7818609E-02  0.1014158E+00
        1   -1    0    0  501    0  0.00000000000E+00  0.00000000000E+00  0.11513155305E+03  0.11513155316E+03  0.50400001928E-02 0.  1.
       -1   -1    0    0    0  501  0.00000000000E+00  0.00000000000E+00 -0.53971341026E+03  0.53971341028E+03  0.50400001928E-02 0. -1.
    10030    2    1    2    0    0  0.00000000000E+00  0.00000000000E+00 -0.42458185721E+03  0.65484496344E+03  0.49855007038E+03 0.  0.
        4    1    3    3  502    0  0.14552088739E+03 -0.17729565208E+03 -0.34049241277E+03  0.41054448354E+03  0.12699999809E+01 0. -1.
       -4    1    3    3    0  502 -0.14552088739E+03  0.17729565208E+03 -0.84089444442E+02  0.24430047990E+03  0.12699999809E+01 0.  1.
</event>
<event>
 5   0  0.1709372E-01  0.5098211E+03  0.7818609E-02  0.1011247E+00
        2   -1    0    0  501    0  0.00000000000E+00  0.00000000000E+00  0.25567577855E+03  0.25567577856E+03  0.25500000920E-02 0. -1.
       -2   -1    0    0    0  501  0.00000000000E+00  0.00000000000E+00 -0.25414759645E+03  0.25414759647E+03  0.25500000920E-02 0.  1.
    10030    2    1    2    0    0  0.00000000000E+00  0.00000000000E+00  0.15281820953E+01  0.50982337503E+03  0.50982108468E+03 0.  0.
        4    1    3    3  502    0  0.16602373029E+03  0.10676890967E+02  0.19389677034E+03  0.25549059762E+03  0.12699999809E+01 0. -1.
       -4    1    3    3    0  502 -0.16602373029E+03 -0.10676890967E+02 -0.19236858825E+03  0.25433277741E+03  0.12699999809E+01 0.  1.
</event>
<event>
 5   0  0.1141970E-01  0.5005478E+03  0.7818609E-02  0.1013636E+00
        1   -1    0    0  501    0  0.00000000000E+00  0.00000000000E+00  0.33628390788E+03  0.33628390791E+03  0.50400001928E-02 0. -1.
       -1   -1    0    0    0  501  0.00000000000E+00  0.00000000000E+00 -0.18626234039E+03  0.18626234046E+03  0.50400001928E-02 0.  1.
    10030    2    1    2    0    0  0.00000000000E+00  0.00000000000E+00  0.15002156748E+03  0.52254624837E+03  0.50054781088E+03 0.  0.
        3    1    3    3  502    0 -0.22250956868E+03 -0.11456668275E+03  0.76046659591E+02  0.26157052125E+03  0.10100000352E+00 0.  1.
       -3    1    3    3    0  502  0.22250956868E+03  0.11456668275E+03  0.73974907891E+02  0.26097572713E+03  0.10100000352E+00 0. -1.
</event>
<event>
 5   0  0.1147245E-01  0.5032669E+03  0.7818609E-02  0.1012930E+00
        1   -1    0    0  501    0  0.00000000000E+00  0.00000000000E+00  0.44905108371E+03  0.44905108373E+03  0.50400001928E-02 0. -1.
       -1   -1    0    0    0  501  0.00000000000E+00  0.00000000000E+00 -0.14100712568E+03  0.14100712577E+03  0.50400001928E-02 0.  1.
    10030    2    1    2    0    0  0.00000000000E+00  0.00000000000E+00  0.30804395803E+03  0.59005820950E+03  0.50326693765E+03 0.  0.
        1    1    3    3  502    0  0.42406339392E+02  0.24487126531E+03  0.20031792584E+03  0.31919822310E+03  0.50400001928E-02 0. -1.
       -1    1    3    3    0  502 -0.42406339392E+02 -0.24487126531E+03  0.10772603219E+03  0.27085998640E+03  0.50400001928E-02 0.  1.
</event>
<event>
 5   0  0.1147245E-01  0.4950666E+03  0.7818609E-02  0.1015075E+00
        1   -1    0    0  501    0  0.00000000000E+00  0.00000000000E+00  0.89574191471E+03  0.89574191473E+03  0.50400001928E-02 0. -1.
       -1   -1    0    0    0  501  0.00000000000E+00  0.00000000000E+00 -0.68404438868E+02  0.68404439053E+02  0.50400001928E-02 0.  1.
    10030    2    1    2    0    0  0.00000000000E+00  0.00000000000E+00  0.82733747584E+03  0.96414635378E+03  0.49506655368E+03 0.  0.
        1    1    3    3  502    0 -0.19395840014E+02  0.24521563207E+03  0.46756296461E+03  0.52832000787E+03  0.50400001928E-02 0.  1.
       -1    1    3    3    0  502  0.19395840014E+02 -0.24521563207E+03  0.35977451124E+03  0.43582634591E+03  0.50400001928E-02 0. -1.
</event>
<event>
 5   0  0.1709372E-01  0.5015533E+03  0.7818609E-02  0.1013374E+00
       -2   -1    0    0    0  501  0.00000000000E+00  0.00000000000E+00  0.85949576993E+02  0.85949577031E+02  0.25500000920E-02 0.  1.
        2   -1    0    0  501    0  0.00000000000E+00  0.00000000000E+00 -0.73169549361E+03  0.73169549362E+03  0.25500000920E-02 0. -1.
    10030    2    1    2    0    0  0.00000000000E+00  0.00000000000E+00 -0.64574591662E+03  0.81764507065E+03  0.50155326011E+03 0.  0.
        4    1    3    3  502    0  0.16400499303E+03 -0.96656507316E+02 -0.56755448367E+02  0.19865274215E+03  0.12699999809E+01 0.  1.
       -4    1    3    3    0  502 -0.16400499303E+03  0.96656507316E+02 -0.58899046825E+03  0.61899232850E+03  0.12699999809E+01 0. -1.
</event>
<event>
 5   0  0.1782124E-01  0.5100693E+03  0.7818609E-02  0.1011184E+00
        2   -1    0    0  501    0  0.00000000000E+00  0.00000000000E+00  0.57690944713E+03  0.57690944714E+03  0.25500000920E-02 0.  1.
       -2   -1    0    0    0  501  0.00000000000E+00  0.00000000000E+00 -0.11274327934E+03  0.11274327937E+03  0.25500000920E-02 0. -1.
    10030    2    1    2    0    0  0.00000000000E+00  0.00000000000E+00  0.46416616780E+03  0.68965272651E+03  0.51006926182E+03 0.  0.
        3    1    3    3  502    0 -0.20830613352E+03  0.21211979338E+01  0.43101168774E+03  0.47871393327E+03  0.10100000352E+00 0.  1.
       -3    1    3    3    0  502  0.20830613352E+03 -0.21211979338E+01  0.33154480058E+02  0.21093879323E+03  0.10100000352E+00 0. -1.
</event>
<event>
 5   0  0.7220250E-02  0.5025692E+03  0.7818609E-02  0.1013110E+00
       -3   -1    0    0    0  501  0.00000000000E+00  0.00000000000E+00  0.32081934735E+02  0.32082093718E+02  0.10100000352E+00 0. -1.
        3   -1    0    0  501    0  0.00000000000E+00  0.00000000000E+00 -0.19682037963E+04  0.19682037989E+04  0.10100000352E+00 0.  1.
    10030    2    1    2    0    0  0.00000000000E+00  0.00000000000E+00 -0.19361218616E+04  0.20002858926E+04  0.50256918861E+03 0.  0.
        4    1    3    3  502    0  0.22439760179E+02 -0.16034442966E+03 -0.17329118350E+04  0.17404593991E+04  0.12699999809E+01 0.  1.
       -4    1    3    3    0  502 -0.22439760179E+02  0.16034442966E+03 -0.20321002657E+03  0.25982649356E+03  0.12699999809E+01 0. -1.
</event>
<event>
 5   0  0.1760649E-01  0.5018225E+03  0.7818609E-02  0.1013304E+00
        2   -1    0    0  501    0  0.00000000000E+00  0.00000000000E+00  0.93128732161E+03  0.93128732162E+03  0.25500000920E-02 0.  1.
       -2   -1    0    0    0  501  0.00000000000E+00  0.00000000000E+00 -0.67601528846E+02  0.67601528894E+02  0.25500000920E-02 0. -1.
    10030    2    1    2    0    0  0.00000000000E+00  0.00000000000E+00  0.86368579277E+03  0.99888885051E+03  0.50182246567E+03 0.  0.
        5    1    3    3  502    0 -0.14320114038E+03 -0.17144175129E+03  0.65910717586E+03  0.69594769915E+03  0.46999998093E+01 0.  1.
       -5    1    3    3    0  502  0.14320114038E+03  0.17144175129E+03  0.20457861691E+03  0.30294115136E+03  0.46999998093E+01 0. -1.
</event>
<event>
 5   0  0.1782124E-01  0.4973016E+03  0.7818609E-02  0.1014486E+00
       -2   -1    0    0    0  501  0.00000000000E+00  0.00000000000E+00  0.27712946240E+03  0.27712946242E+03  0.25500000920E-02 0. -1.
        2   -1    0    0  501    0  0.00000000000E+00  0.00000000000E+00 -0.22309867202E+03  0.22309867203E+03  0.25500000920E-02 0.  1.
    10030    2    1    2    0    0  0.00000000000E+00  0.00000000000E+00  0.54030790389E+02  0.50022813445E+03  0.49730157871E+03 0.  0.
        3    1    3    3  502    0  0.50853421188E+02 -0.22084260946E+03 -0.75908189174E+02  0.23899705434E+03  0.10100000352E+00 0.  1.
       -3    1    3    3    0  502 -0.50853421188E+02  0.22084260946E+03  0.12993897956E+03  0.26123108010E+03  0.10100000352E+00 0. -1.
</event>
<event>
 5   0  0.1141970E-01  0.4948799E+03  0.7818609E-02  0.1015124E+00
        1   -1    0    0  501    0  0.00000000000E+00  0.00000000000E+00  0.29253035874E+03  0.29253035879E+03  0.50400001928E-02 0. -1.
       -1   -1    0    0    0  501  0.00000000000E+00  0.00000000000E+00 -0.20929973979E+03  0.20929973985E+03  0.50400001928E-02 0.  1.
    10030    2    1    2    0    0  0.00000000000E+00  0.00000000000E+00  0.83230618951E+02  0.50183009864E+03  0.49487989651E+03 0.  0.
        3    1    3    3  502    0 -0.91689254440E+02  0.18619837188E+03 -0.94997805412E+02  0.22825719332E+03  0.10100000352E+00 0.  1.
       -3    1    3    3    0  502  0.91689254440E+02 -0.18619837188E+03  0.17822842436E+03  0.27357290531E+03  0.10100000352E+00 0. -1.
</event>
<event>
 5   0  0.1760649E-01  0.4008144E+03  0.7818609E-02  0.1043498E+00
       -2   -1    0    0    0  501  0.00000000000E+00  0.00000000000E+00  0.26947329330E+02  0.26947329451E+02  0.25500000920E-02 0. -1.
        2   -1    0    0  501    0  0.00000000000E+00  0.00000000000E+00 -0.14904275546E+04  0.14904275546E+04  0.25500000920E-02 0.  1.
    10030    2    1    2    0    0  0.00000000000E+00  0.00000000000E+00 -0.14634802252E+04  0.15173748840E+04  0.40081438222E+03 0.  0.
        5    1    3    3  502    0 -0.28808400434E+01  0.16251317014E+03 -0.28827420189E+03  0.33097271063E+03  0.46999998093E+01 0. -1.
       -5    1    3    3    0  502  0.28808400434E+01 -0.16251317014E+03 -0.11752060234E+04  0.11864021734E+04  0.46999998093E+01 0.  1.
</event>
<event>
 5   0  0.1683148E-01  0.4863442E+03  0.7818609E-02  0.1017406E+00
        2   -1    0    0  501    0  0.00000000000E+00  0.00000000000E+00  0.17342240930E+04  0.17342240930E+04  0.25500000920E-02 0. -1.
       -2   -1    0    0    0  501  0.00000000000E+00  0.00000000000E+00 -0.34097476972E+02  0.34097477067E+02  0.25500000920E-02 0.  1.
    10030    2    1    2    0    0  0.00000000000E+00  0.00000000000E+00  0.17001266161E+04  0.17683215701E+04  0.48634418332E+03 0.  0.
        2    1    3    3  502    0 -0.20574135653E+03  0.11997780630E+03  0.10285022396E+04  0.10557182563E+04  0.25500000920E-02 0.  1.
       -2    1    3    3    0  502  0.20574135653E+03 -0.11997780630E+03  0.67162437645E+03  0.71260331380E+03  0.25500000920E-02 0. -1.
</event>
<event>
 5   0  0.1760649E-01  0.5017555E+03  0.7818609E-02  0.1013322E+00
       -2   -1    0    0    0  501  0.00000000000E+00  0.00000000000E+00  0.42462102607E+03  0.42462102608E+03  0.25500000920E-02 0. -1.
        2   -1    0    0  501    0  0.00000000000E+00  0.00000000000E+00 -0.14822546944E+03  0.14822546946E+03  0.25500000920E-02 0.  1.
    10030    2    1    2    0    0  0.00000000000E+00  0.00000000000E+00  0.27639555663E+03  0.57284649554E+03  0.50175552187E+03 0.  0.
        5    1    3    3  502    0 -0.94716500252E+02  0.20456078800E+03  0.26378945231E+03  0.34702059961E+03  0.46999998093E+01 0. -1.
       -5    1    3    3    0  502  0.94716500252E+02 -0.20456078800E+03  0.12606104316E+02  0.22582589593E+03  0.46999998093E+01 0.  1.
</event>
<event>
 5   0  0.1074281E-01  0.4789814E+03  0.7818609E-02  0.1019415E+00
        1   -1    0    0  501    0  0.00000000000E+00  0.00000000000E+00  0.68225516580E+03  0.68225516582E+03  0.50400001928E-02 0.  1.
       -1   -1    0    0    0  501  0.00000000000E+00  0.00000000000E+00 -0.84067950284E+02  0.84067950435E+02  0.50400001928E-02 0. -1.
    10030    2    1    2    0    0  0.00000000000E+00  0.00000000000E+00  0.59818721552E+03  0.76632311625E+03  0.47898139181E+03 0.  0.
        4    1    3    3  502    0  0.66367292928E+01  0.23708353229E+03  0.35219330614E+03  0.42461086332E+03  0.12699999809E+01 0.  1.
       -4    1    3    3    0  502 -0.66367292928E+01 -0.23708353229E+03  0.24599390938E+03  0.34171225294E+03  0.12699999809E+01 0. -1.
</event>
<event>
 5   0  0.7220250E-02  0.5007141E+03  0.7818609E-02  0.1013593E+00
       -3   -1    0    0    0  501  0.00000000000E+00  0.00000000000E+00  0.22728716901E+03  0.22728719145E+03  0.10100000352E+00 0.  1.
        3   -1    0    0  501    0  0.00000000000E+00  0.00000000000E+00 -0.27576845505E+03  0.27576847355E+03  0.10100000352E+00 0. -1.
    10030    2    1    2    0    0  0.00000000000E+00  0.00000000000E+00 -0.48481286049E+02  0.50305566500E+03  0.50071405711E+03 0.  0.
        1    1    3    3  502    0  0.11935587108E+03  0.75491923008E+02  0.18344761903E+03  0.23151216675E+03  0.50400001928E-02 0.  1.
       -1    1    3    3    0  502 -0.11935587108E+03 -0.75491923008E+02 -0.23192890508E+03  0.27154349824E+03  0.50400001928E-02 0. -1.
</event>
<event>
 5   0  0.1683148E-01  0.4934078E+03  0.7818609E-02  0.1015514E+00
       -2   -1    0    0    0  501  0.00000000000E+00  0.00000000000E+00  0.43835068708E+02  0.43835068782E+02  0.25500000920E-02 0. -1.
        2   -1    0    0  501    0  0.00000000000E+00  0.00000000000E+00 -0.13884500640E+04  0.13884500640E+04  0.25500000920E-02 0.  1.
    10030    2    1    2    0    0  0.00000000000E+00  0.00000000000E+00 -0.13446149953E+04  0.14322851328E+04  0.49340775839E+03 0.  0.
        2    1    3    3  502    0 -0.22207698787E+03 -0.64234282977E+02 -0.42228235820E+03  0.48142145954E+03  0.25500000920E-02 0. -1.
       -2    1    3    3    0  502  0.22207698787E+03  0.64234282977E+02 -0.92233263714E+03  0.95086367329E+03  0.25500000920E-02 0.  1.
</event>
<event>
 5   0  0.1123271E-01  0.5182714E+03  0.7818609E-02  0.1009117E+00
       -1   -1    0    0    0  501  0.00000000000E+00  0.00000000000E+00  0.93436843470E+02  0.93436843606E+02  0.50400001928E-02 0.  1.
        1   -1    0    0  501    0  0.00000000000E+00  0.00000000000E+00 -0.71868125677E+03  0.71868125678E+03  0.50400001928E-02 0. -1.
    10030    2    1    2    0    0  0.00000000000E+00  0.00000000000E+00 -0.62524441330E+03  0.81211810039E+03  0.51827138897E+03 0.  0.
        5    1    3    3  502    0  0.23829794115E+03 -0.33431154198E+01 -0.15334378286E+03  0.28343163359E+03  0.46999998093E+01 0. -1.
       -5    1    3    3    0  502 -0.23829794115E+03  0.33431154198E+01 -0.47190063044E+03  0.52868646680E+03  0.46999998093E+01 0.  1.
</event>
<event>
 5   0  0.1141970E-01  0.4812953E+03  0.7818609E-02  0.1018780E+00
       -1   -1    0    0    0  501  0.00000000000E+00  0.00000000000E+00  0.25570146851E+03  0.25570146856E+03  0.50400001928E-02 0. -1.
        1   -1    0    0  501    0  0.00000000000E+00  0.00000000000E+00 -0.22648004366E+03  0.22648004371E+03  0.50400001928E-02 0.  1.
    10030    2    1    2    0    0  0.00000000000E+00  0.00000000000E+00  0.29221424850E+02  0.48218151227E+03  0.48129525149E+03 0.  0.
        3    1    3    3  502    0 -0.38196971562E+02  0.20784225550E+03 -0.10072668055E+03  0.23410101705E+03  0.10100000352E+00 0.  1.
       -3    1    3    3    0  502  0.38196971562E+02 -0.20784225550E+03  0.12994810540E+03  0.24808049522E+03  0.10100000352E+00 0. -1.
</event>
<event>
 5   0  0.1709372E-01  0.4524064E+03  0.7818609E-02  0.1027007E+00
        2   -1    0    0  501    0  0.00000000000E+00  0.00000000000E+00  0.12243763854E+04  0.12243763854E+04  0.25500000920E-02 0. -1.
       -2   -1    0    0    0  501  0.00000000000E+00  0.00000000000E+00 -0.41790977942E+02  0.41790978020E+02  0.25500000920E-02 0.  1.
    10030    2    1    2    0    0  0.00000000000E+00  0.00000000000E+00  0.11825854074E+04  0.12661673634E+04  0.45240639503E+03 0.  0.
        4    1    3    3  502    0  0.11915144090E+03 -0.19218999513E+03  0.57540790215E+03  0.61824746409E+03  0.12699999809E+01 0.  1.
       -4    1    3    3    0  502 -0.11915144090E+03  0.19218999513E+03  0.60717750529E+03  0.64791989932E+03  0.12699999809E+01 0. -1.
</event>
<event>
 5   0  0.1141970E-01  0.4980369E+03  0.7818609E-02  0.1014293E+00
       -1   -1    0    0    0  501  0.00000000000E+00  0.00000000000E+00  0.12606162700E+03  0.12606162710E+03  0.50400001928E-02 0.  1.
        1   -1    0    0  501    0  0.00000000000E+00  0.00000000000E+00 -0.49190369788E+03  0.49190369790E+03  0.50400001928E-02 0. -1.
    10030    2    1    2    0    0  0.00000000000E+00  0.00000000000E+00 -0.36584207087E+03  0.61796532501E+03  0.49803686821E+03 0.  0.
        3    1    3    3  502    0  0.44456500484E+01 -0.30214127770E+02 -0.48957125908E+03  0.49052286923E+03  0.10100000352E+00 0. -1.
       -3    1    3    3    0  502 -0.44456500484E+01  0.30214127770E+02  0.12372918820E+03  0.12744245578E+03  0.10100000352E+00 0.  1.
</event>
<event>
 5   0  0.1074281E-01  0.4537810E+03  0.7818609E-02  0.1026600E+00
        1   -1    0    0  501    0  0.00000000000E+00  0.00000000000E+00  0.21216957862E+03  0.21216957868E+03  0.50400001928E-02 0. -1.
       -1   -1    0    0    0  501  0.00000000000E+00  0.00000000000E+00 -0.24263280123E+03  0.24263280128E+03  0.50400001928E-02 0.  1.
    10030    2    1    2    0    0  0.00000000000E+00  0.00000000000E+00 -0.30463222604E+02  0.45480237997E+03  0.45378100102E+03 0.  0.
        4    1    3    3  502    0 -0.97108221487E+02  0.13063059055E+01 -0.22074429212E+03  0.24116668203E+03  0.12699999809E+01 0.  1.
       -4    1    3    3    0  502  0.97108221487E+02 -0.13063059055E+01  0.19028106952E+03  0.21363569794E+03  0.12699999809E+01 0. -1.
</event>
<event>
 5   0  0.1141970E-01  0.4589571E+03  0.7818609E-02  0.1025084E+00
        1   -1    0    0  501    0  0.00000000000E+00  0.00000000000E+00  0.57239990660E+03  0.57239990663E+03  0.50400001928E-02 0. -1.
       -1   -1    0    0    0  501  0.00000000000E+00  0.00000000000E+00 -0.91999328445E+02  0.91999328583E+02  0.50400001928E-02 0.  1.
    10030    2    1    2    0    0  0.00000000000E+00  0.00000000000E+00  0.48040057816E+03  0.66439923521E+03  0.45895710938E+03 0.  0.
        3    1    3    3  502    0  0.11458728392E+03  0.13396353798E+03  0.45287810949E+03  0.48597846392E+03  0.10100000352E+00 0. -1.
       -3    1    3    3    0  502 -0.11458728392E+03 -0.13396353798E+03  0.27522468670E+02  0.17842077129E+03  0.10100000352E+00 0.  1.
</event>
<event>
 5   0  0.1782124E-01  0.4990282E+03  0.7818609E-02  0.1014033E+00
        2   -1    0    0  501    0  0.00000000000E+00  0.00000000000E+00  0.19631017714E+03  0.19631017715E+03  0.25500000920E-02 0.  1.
       -2   -1    0    0    0  501  0.00000000000E+00  0.00000000000E+00 -0.31713732404E+03  0.31713732405E+03  0.25500000920E-02 0. -1.
    10030    2    1    2    0    0  0.00000000000E+00  0.00000000000E+00 -0.12082714691E+03  0.51344750121E+03  0.49902819266E+03 0.  0.
        3    1    3    3  502    0 -0.13349670013E+03  0.13515202056E+03  0.10603170004E+03  0.21755497976E+03  0.10100000352E+00 0.  1.
       -3    1    3    3    0  502  0.13349670013E+03 -0.13515202056E+03 -0.22685884695E+03  0.29589252144E+03  0.10100000352E+00 0. -1.
</event>
<event>
 5   0  0.1074281E-01  0.4997393E+03  0.7818609E-02  0.1013847E+00
       -1   -1    0    0    0  501  0.00000000000E+00  0.00000000000E+00  0.14395381840E+03  0.14395381849E+03  0.50400001928E-02 0.  1.
        1   -1    0    0  501    0  0.00000000000E+00  0.00000000000E+00 -0.43371442543E+03  0.43371442546E+03  0.50400001928E-02 0. -1.
    10030    2    1    2    0    0  0.00000000000E+00  0.00000000000E+00 -0.28976060702E+03  0.57766824395E+03  0.49973932273E+03 0.  0.
        4    1    3    3  502    0 -0.20823650823E+03 -0.74257227280E+02 -0.10290781239E+02  0.22132350133E+03  0.12699999809E+01 0. -1.
       -4    1    3    3    0  502  0.20823650823E+03  0.74257227280E+02 -0.27946982579E+03  0.35634474262E+03  0.12699999809E+01 0.  1.
</event>
<event>
 5   0  0.1123271E-01  0.4772776E+03  0.7818609E-02  0.1019886E+00
       -1   -1    0    0    0  501  0.00000000000E+00  0.00000000000E+00  0.17496417422E+03  0.17496417429E+03  0.50400001928E-02 0. -1.
        1   -1    0    0  501    0  0.00000000000E+00  0.00000000000E+00 -0.32548654096E+03  0.32548654099E+03  0.50400001928E-02 0.  1.
    10030    2    1    2    0    0  0.00000000000E+00  0.00000000000E+00 -0.15052236674E+03  0.50045071528E+03  0.47727762941E+03 0.  0.
        5    1    3    3  502    0 -0.99642915271E+02  0.21670472998E+03 -0.68905248177E+02  0.24831366009E+03  0.46999998093E+01 0.  1.
       -5    1    3    3    0  502  0.99642915271E+02 -0.21670472998E+03 -0.81617118563E+02  0.25213705519E+03  0.46999998093E+01 0. -1.
</event>
<event>
 5   0  0.1760649E-01  0.5025788E+03  0.7818609E-02  0.1013108E+00
       -2   -1    0    0    0  501  0.00000000000E+00  0.00000000000E+00  0.54877035382E+02  0.54877035441E+02  0.25500000920E-02 0. -1.
        2   -1    0    0  501    0  0.00000000000E+00  0.00000000000E+00 -0.11506882104E+04  0.11506882104E+04  0.25500000920E-02 0.  1.
    10030    2    1    2    0    0  0.00000000000E+00  0.00000000000E+00 -0.10958111750E+04  0.12055652458E+04  0.50257878058E+03 0.  0.
        5    1    3    3  502    0  0.13823368894E+03  0.11468259195E+03 -0.12649058847E+03  0.21973303945E+03  0.46999998093E+01 0. -1.
       -5    1    3    3    0  502 -0.13823368894E+03 -0.11468259195E+03 -0.96932058652E+03  0.98583220637E+03  0.46999998093E+01 0.  1.
</event>
<event>
 5   0  0.1123271E-01  0.5027725E+03  0.7818609E-02  0.1013058E+00
       -1   -1    0    0    0  501  0.00000000000E+00  0.00000000000E+00  0.55322014356E+02  0.55322014586E+02  0.50400001928E-02 0. -1.
        1   -1    0    0  501    0  0.00000000000E+00  0.00000000000E+00 -0.11423125996E+04  0.11423125996E+04  0.50400001928E-02 0.  1.
    10030    2    1    2    0    0  0.00000000000E+00  0.00000000000E+00 -0.10869905852E+04  0.11976346142E+04  0.50277245023E+03 0.  0.
        5    1    3    3  502    0  0.22427363862E+03 -0.11319013316E+03 -0.56229290113E+03  0.61587828983E+03  0.46999998093E+01 0.  1.
       -5    1    3    3    0  502 -0.22427363862E+03  0.11319013316E+03 -0.52469768409E+03  0.58175632434E+03  0.46999998093E+01 0. -1.
</event>
<event>
 5   0  0.1709372E-01  0.5004133E+03  0.7818609E-02  0.1013671E+00
        2   -1    0    0  501    0  0.00000000000E+00  0.00000000000E+00  0.12240652803E+04  0.12240652803E+04  0.25500000920E-02 0. -1.
       -2   -1    0    0    0  501  0.00000000000E+00  0.00000000000E+00 -0.51143811807E+02  0.51143811871E+02  0.25500000920E-02 0.  1.
    10030    2    1    2    0    0  0.00000000000E+00  0.00000000000E+00  0.11729214685E+04  0.12752090922E+04  0.50041328671E+03 0.  0.
        4    1    3    3  502    0  0.55025515609E+02  0.13769781538E+03  0.72906314475E+02  0.16524357573E+03  0.12699999809E+01 0.  1.
       -4    1    3    3    0  502 -0.55025515609E+02 -0.13769781538E+03  0.11000151541E+04  0.11099655165E+04  0.12699999809E+01 0. -1.
</event>
<event>
 5   0  0.1068522E-01  0.5027199E+03  0.7818609E-02  0.1013071E+00
        1   -1    0    0  501    0  0.00000000000E+00  0.00000000000E+00  0.53782068543E+03  0.53782068545E+03  0.50400001928E-02 0.  1.
       -1   -1    0    0    0  501  0.00000000000E+00  0.00000000000E+00 -0.11747751108E+03  0.11747751119E+03  0.50400001928E-02 0. -1.
    10030    2    1    2    0    0  0.00000000000E+00  0.00000000000E+00  0.42034317435E+03  0.65529819664E+03  0.50271994420E+03 0.  0.
        2    1    3    3  502    0  0.67246975823E+02  0.64830188863E+02  0.51435716768E+03  0.52276993515E+03  0.25500000920E-02 0.  1.
       -2    1    3    3    0  502 -0.67246975823E+02 -0.64830188863E+02 -0.94013993330E+02  0.13252826149E+03  0.25500000920E-02 0. -1.
</event>
<event>
 5   0  0.7220250E-02  0.5046969E+03  0.7818609E-02  0.1012560E+00
        4   -1    0    0  501    0  0.00000000000E+00  0.00000000000E+00  0.12317701568E+03  0.12318356259E+03  0.12699999809E+01 0. -1.
       -4   -1    0    0    0  501  0.00000000000E+00  0.00000000000E+00 -0.51695647345E+03  0.51695803344E+03  0.12699999809E+01 0.  1.
    10030    2    1    2    0    0  0.00000000000E+00  0.00000000000E+00 -0.39377945776E+03  0.64014159603E+03  0.50469694036E+03 0.  0.
        5    1    3    3  502    0  0.14561128700E+03  0.15246718871E+03 -0.37268012841E+03  0.42820726131E+03  0.46999998093E+01 0.  1.
       -5    1    3    3    0  502 -0.14561128700E+03 -0.15246718871E+03 -0.21099329355E+02  0.21193433471E+03  0.46999998093E+01 0. -1.
</event>
<event>
 5   0  0.1147245E-01  0.4973098E+03  0.7818609E-02  0.1014483E+00
        1   -1    0    0  501    0  0.00000000000E+00  0.00000000000E+00  0.32431598250E+03  0.32431598254E+03  0.50400001928E-02 0.  1.
       -1   -1    0    0    0  501  0.00000000000E+00  0.00000000000E+00 -0.19064511049E+03  0.19064511056E+03  0.50400001928E-02 0. -1.
    10030    2    1    2    0    0  0.00000000000E+00  0.00000000000E+00  0.13367087201E+03  0.51496109310E+03  0.49730978814E+03 0.  0.
        1    1    3    3  502    0  0.10750171671E+03  0.16053390627E+03 -0.95249915236E+02  0.21540728989E+03  0.50400001928E-02 0. -1.
       -1    1    3    3    0  502 -0.10750171671E+03 -0.16053390627E+03  0.22892078725E+03  0.29955380321E+03  0.50400001928E-02 0.  1.
</event>
<event>
 5   0  0.1782124E-01  0.5468829E+03  0.7818609E-02  0.1002218E+00
        2   -1    0    0  501    0  0.00000000000E+00  0.00000000000E+00  0.41997645600E+03  0.41997645601E+03  0.25500000920E-02 0.  1.
       -2   -1    0    0    0  501  0.00000000000E+00  0.00000000000E+00 -0.17803430750E+03  0.17803430752E+03  0.25500000920E-02 0. -1.
    10030    2    1    2    0    0  0.00000000000E+00  0.00000000000E+00  0.24194214850E+03  0.59801076353E+03  0.54688286687E+03 0.  0.
        3    1    3    3  502    0  0.21995112285E+03 -0.19232883225E+02  0.29736491217E+03  0.37037049211E+03  0.10100000352E+00 0.  1.
       -3    1    3    3    0  502 -0.21995112285E+03  0.19232883225E+02 -0.55422763665E+02  0.22764027142E+03  0.10100000352E+00 0. -1.
</event>
<event>
 5   0  0.1068522E-01  0.5031174E+03  0.7818609E-02  0.1012968E+00
        1   -1    0    0  501    0  0.00000000000E+00  0.00000000000E+00  0.45723072437E+03  0.45723072440E+03  0.50400001928E-02 0.  1.
       -1   -1    0    0    0  501  0.00000000000E+00  0.00000000000E+00 -0.13840229961E+03  0.13840229970E+03  0.50400001928E-02 0. -1.
    10030    2    1    2    0    0  0.00000000000E+00  0.00000000000E+00  0.31882842476E+03  0.59563302410E+03  0.50311741668E+03 0.  0.
        2    1    3    3  502    0 -0.11825532230E+03  0.13691450880E+03 -0.47518135319E+02  0.18705046689E+03  0.25500000920E-02 0. -1.
       -2    1    3    3    0  502  0.11825532230E+03 -0.13691450880E+03  0.36634656008E+03  0.40858255721E+03  0.25500000920E-02 0.  1.
</event>
<event>
 5   0  0.7220250E-02  0.4782693E+03  0.7818609E-02  0.1019612E+00
       -3   -1    0    0    0  501  0.00000000000E+00  0.00000000000E+00  0.62989214423E+03  0.62989215233E+03  0.10100000352E+00 0. -1.
        3   -1    0    0  501    0  0.00000000000E+00  0.00000000000E+00 -0.90785968555E+02  0.90786024736E+02  0.10100000352E+00 0.  1.
    10030    2    1    2    0    0  0.00000000000E+00  0.00000000000E+00  0.53910617568E+03  0.72067817706E+03  0.47826934487E+03 0.  0.
        2    1    3    3  502    0  0.18562297365E+03  0.13619149551E+03  0.17211502697E+03  0.28745015970E+03  0.25500000920E-02 0.  1.
       -2    1    3    3    0  502 -0.18562297365E+03 -0.13619149551E+03  0.36699114871E+03  0.43322801737E+03  0.25500000920E-02 0. -1.
</event>
<event>
 5   0  0.1068522E-01  0.5032445E+03  0.7818609E-02  0.1012936E+00
       -1   -1    0    0    0  501  0.00000000000E+00  0.00000000000E+00  0.33422924841E+03  0.33422924845E+03  0.50400001928E-02 0. -1.
        1   -1    0    0  501    0  0.00000000000E+00  0.00000000000E+00 -0.18943212993E+03  0.18943212999E+03  0.50400001928E-02 0.  1.
    10030    2    1    2    0    0  0.00000000000E+00  0.00000000000E+00  0.14479711849E+03  0.52366137844E+03  0.50324450693E+03 0.  0.
        2    1    3    3  502    0  0.33313640802E+02 -0.24630704228E+03  0.31606063658E+02  0.25055119438E+03  0.25500000920E-02 0. -1.
       -2    1    3    3    0  502 -0.33313640802E+02  0.24630704228E+03  0.11319105483E+03  0.27311018406E+03  0.25500000920E-02 0.  1.
</event>
<event>
 5   0  0.1760649E-01  0.4925225E+03  0.7818609E-02  0.1015749E+00
       -2   -1    0    0    0  501  0.00000000000E+00  0.00000000000E+00  0.62685933249E+02  0.62685933300E+02  0.25500000920E-02 0.  1.
        2   -1    0    0  501    0  0.00000000000E+00  0.00000000000E+00 -0.96743554173E+03  0.96743554174E+03  0.25500000920E-02 0. -1.
    10030    2    1    2    0    0  0.00000000000E+00  0.00000000000E+00 -0.90474960848E+03  0.10301214750E+04  0.49252248606E+03 0.  0.
        5    1    3    3  502    0  0.10973098760E+03  0.18797787096E+03 -0.21165946092E+03  0.30364187294E+03  0.46999998093E+01 0.  1.
       -5    1    3    3    0  502 -0.10973098760E+03 -0.18797787096E+03 -0.69309014757E+03  0.72647960210E+03  0.46999998093E+01 0. -1.
</event>
<event>
 5   0  0.1709372E-01  0.4969309E+03  0.7818609E-02  0.1014583E+00
        2   -1    0    0  501    0  0.00000000000E+00  0.00000000000E+00  0.21953119273E+03  0.21953119275E+03  0.25500000920E-02 0. -1.
       -2   -1    0    0    0  501  0.00000000000E+00  0.00000000000E+00 -0.28121325720E+03  0.28121325721E+03  0.25500000920E-02 0.  1.
    10030    2    1    2    0    0  0.00000000000E+00  0.00000000000E+00 -0.61682064473E+02  0.50074444996E+03  0.49693090776E+03 0.  0.
        4    1    3    3  502    0  0.84123067224E+02 -0.13776479175E+03 -0.22117583132E+03  0.27381780356E+03  0.12699999809E+01 0.  1.
       -4    1    3    3    0  502 -0.84123067224E+02  0.13776479175E+03  0.15949376684E+03  0.22692664640E+03  0.12699999809E+01 0. -1.
</event>
<event>
 5   0  0.1068522E-01  0.4981494E+03  0.7818609E-02  0.1014263E+00
       -1   -1    0    0    0  501  0.00000000000E+00  0.00000000000E+00  0.14959863601E+03  0.14959863609E+03  0.50400001928E-02 0.  1.
        1   -1    0    0  501    0  0.00000000000E+00  0.00000000000E+00 -0.41469763091E+03  0.41469763094E+03  0.50400001928E-02 0. -1.
    10030    2    1    2    0    0  0.00000000000E+00  0.00000000000E+00 -0.26509899490E+03  0.56429626703E+03  0.49814937508E+03 0.  0.
        2    1    3    3  502    0 -0.10491705793E+02 -0.13147123436E+03 -0.37189562572E+03  0.39458980954E+03  0.25500000920E-02 0. -1.
       -2    1    3    3    0  502  0.10491705793E+02  0.13147123436E+03  0.10679663082E+03  0.16970645749E+03  0.25500000920E-02 0.  1.
</event>
<event>
 5   0  0.1147245E-01  0.5000514E+03  0.7818609E-02  0.1013765E+00
       -1   -1    0    0    0  501  0.00000000000E+00  0.00000000000E+00  0.47556819844E+02  0.47556820111E+02  0.50400001928E-02 0. -1.
        1   -1    0    0  501    0  0.00000000000E+00  0.00000000000E+00 -0.13144876960E+04  0.13144876960E+04  0.50400001928E-02 0.  1.
    10030    2    1    2    0    0  0.00000000000E+00  0.00000000000E+00 -0.12669308761E+04  0.13620445161E+04  0.50005141629E+03 0.  0.
        1    1    3    3  502    0 -0.21442978364E+03 -0.88975032812E+02 -0.88629838836E+03  0.91619949891E+03  0.50400001928E-02 0.  1.
       -1    1    3    3    0  502  0.21442978364E+03  0.88975032812E+02 -0.38063248778E+03  0.44584501719E+03  0.50400001928E-02 0. -1.
</event>
<event>
 5   0  0.1141970E-01  0.5042487E+03  0.7818609E-02  0.1012676E+00
       -1   -1    0    0    0  501  0.00000000000E+00  0.00000000000E+00  0.17265495407E+03  0.17265495414E+03  0.50400001928E-02 0. -1.
        1   -1    0    0  501    0  0.00000000000E+00  0.00000000000E+00 -0.36817180363E+03  0.36817180367E+03  0.50400001928E-02 0.  1.
    10030    2    1    2    0    0  0.00000000000E+00  0.00000000000E+00 -0.19551684956E+03  0.54082675781E+03  0.50424869212E+03 0.  0.
        3    1    3    3  502    0  0.82525695522E+02 -0.16857424280E+03  0.82794679785E+02  0.20514076864E+03  0.10100000352E+00 0. -1.
       -3    1    3    3    0  502 -0.82525695522E+02  0.16857424280E+03 -0.27831152935E+03  0.33568598917E+03  0.10100000352E+00 0.  1.
</event>
<event>
 5   0  0.1683148E-01  0.3991151E+03  0.7818609E-02  0.1044087E+00
        2   -1    0    0  501    0  0.00000000000E+00  0.00000000000E+00  0.70018682575E+03  0.70018682575E+03  0.25500000920E-02 0.  1.
       -2   -1    0    0    0  501  0.00000000000E+00  0.00000000000E+00 -0.56875127153E+02  0.56875127210E+02  0.25500000920E-02 0. -1.
    10030    2    1    2    0    0  0.00000000000E+00  0.00000000000E+00  0.64331169860E+03  0.75706195296E+03  0.39911509502E+03 0.  0.
        2    1    3    3  502    0 -0.73058924792E+02  0.17333384301E+03  0.44806340241E+03  0.48594551156E+03  0.25500000920E-02 0.  1.
       -2    1    3    3    0  502  0.73058924792E+02 -0.17333384301E+03  0.19524829619E+03  0.27111644140E+03  0.25500000920E-02 0. -1.
</event>
<event>
 5   0  0.1147245E-01  0.5049226E+03  0.7818609E-02  0.1012502E+00
        1   -1    0    0  501    0  0.00000000000E+00  0.00000000000E+00  0.23113400452E+03  0.23113400457E+03  0.50400001928E-02 0.  1.
       -1   -1    0    0    0  501  0.00000000000E+00  0.00000000000E+00 -0.27575654326E+03  0.27575654330E+03  0.50400001928E-02 0. -1.
    10030    2    1    2    0    0  0.00000000000E+00  0.00000000000E+00 -0.44622538737E+02  0.50689054788E+03  0.50492262433E+03 0.  0.
        1    1    3    3  502    0  0.15375085237E+03 -0.76141085587E+02  0.16361294060E+03  0.23707801222E+03  0.50400001928E-02 0.  1.
       -1    1    3    3    0  502 -0.15375085237E+03  0.76141085587E+02 -0.20823547934E+03  0.26981253566E+03  0.50400001928E-02 0. -1.
</event>
<event>
 5   0  0.1760649E-01  0.4986458E+03  0.7818609E-02  0.1014133E+00
       -2   -1    0    0    0  501  0.00000000000E+00  0.00000000000E+00  0.98004535124E+02  0.98004535157E+02  0.25500000920E-02 0.  1.
        2   -1    0    0  501    0  0.00000000000E+00  0.00000000000E+00 -0.63427583758E+03  0.63427583758E+03  0.25500000920E-02 0. -1.
    10030    2    1    2    0    0  0.00000000000E+00  0.00000000000E+00 -0.53627130246E+03  0.73228037274E+03  0.49864580061E+03 0.  0.
        5    1    3    3  502    0  0.34917757099E+02 -0.17190963704E+03 -0.80441335063E+01  0.17566721706E+03  0.46999998093E+01 0.  1.
       -5    1    3    3    0  502 -0.34917757099E+02  0.17190963704E+03 -0.52822716895E+03  0.55661315568E+03  0.46999998093E+01 0. -1.
</event>
<event>
 5   0  0.1147245E-01  0.5111031E+03  0.7818609E-02  0.1010921E+00
       -1   -1    0    0    0  501  0.00000000000E+00  0.00000000000E+00  0.24819621454E+03  0.24819621459E+03  0.50400001928E-02 0.  1.
        1   -1    0    0  501    0  0.00000000000E+00  0.00000000000E+00 -0.26312484017E+03  0.26312484022E+03  0.50400001928E-02 0. -1.
    10030    2    1    2    0    0  0.00000000000E+00  0.00000000000E+00 -0.14928625632E+02  0.51132105480E+03  0.51110307886E+03 0.  0.
        1    1    3    3  502    0  0.68988239775E+01  0.16354457280E+03  0.18886455584E+03  0.24992847285E+03  0.50400001928E-02 0.  1.
       -1    1    3    3    0  502 -0.68988239775E+01 -0.16354457280E+03 -0.20379318147E+03  0.26139258196E+03  0.50400001928E-02 0. -1.
</event>
<event>
 5   0  0.1683148E-01  0.5015712E+03  0.7818609E-02  0.1013370E+00
        2   -1    0    0  501    0  0.00000000000E+00  0.00000000000E+00  0.35738489996E+03  0.35738489996E+03  0.25500000920E-02 0.  1.
       -2   -1    0    0    0  501  0.00000000000E+00  0.00000000000E+00 -0.17598230895E+03  0.17598230897E+03  0.25500000920E-02 0. -1.
    10030    2    1    2    0    0  0.00000000000E+00  0.00000000000E+00  0.18140259100E+03  0.53336720894E+03  0.50157121084E+03 0.  0.
        2    1    3    3  502    0  0.13543006772E+03 -0.69304914206E+01 -0.13363195490E+03  0.19038601401E+03  0.25500000920E-02 0. -1.
       -2    1    3    3    0  502 -0.13543006772E+03  0.69304914206E+01  0.31503454590E+03  0.34298119493E+03  0.25500000920E-02 0.  1.
</event>
<event>
 5   0  0.1123271E-01  0.4981543E+03  0.7818609E-02  0.1014262E+00
       -1   -1    0    0    0  501  0.00000000000E+00  0.00000000000E+00  0.44142038224E+02  0.44142038512E+02  0.50400001928E-02 0.  1.
        1   -1    0    0  501    0  0.00000000000E+00  0.00000000000E+00 -0.14054502211E+04  0.14054502211E+04  0.50400001928E-02 0. -1.
    10030    2    1    2    0    0  0.00000000000E+00  0.00000000000E+00 -0.13613081828E+04  0.14495922596E+04  0.49815434393E+03 0.  0.
        5    1    3    3  502    0  0.20454073881E+03 -0.11342317509E+03 -0.92954407746E+03  0.95852804467E+03  0.46999998093E+01 0. -1.
       -5    1    3    3    0  502 -0.20454073881E+03  0.11342317509E+03 -0.43176410538E+03  0.49106421492E+03  0.46999998093E+01 0.  1.
</event>
<event>
 5   0  0.1760649E-01  0.5018103E+03  0.7818609E-02  0.1013307E+00
       -2   -1    0    0    0  501  0.00000000000E+00  0.00000000000E+00  0.76208277999E+02  0.76208278042E+02  0.25500000920E-02 0. -1.
        2   -1    0    0  501    0  0.00000000000E+00  0.00000000000E+00 -0.82607038968E+03  0.82607038968E+03  0.25500000920E-02 0.  1.
    10030    2    1    2    0    0  0.00000000000E+00  0.00000000000E+00 -0.74986211168E+03  0.90227866773E+03  0.50181033040E+03 0.  0.
        5    1    3    3  502    0 -0.91229264059E+02 -0.16190840253E+02  0.44235324691E+02  0.10278023097E+03  0.46999998093E+01 0. -1.
       -5    1    3    3    0  502  0.91229264059E+02  0.16190840253E+02 -0.79409743637E+03  0.79949843676E+03  0.46999998093E+01 0.  1.
</event>
<event>
 5   0  0.1147245E-01  0.4849922E+03  0.7818609E-02  0.1017772E+00
        1   -1    0    0  501    0  0.00000000000E+00  0.00000000000E+00  0.45928268239E+03  0.45928268241E+03  0.50400001928E-02 0.  1.
       -1   -1    0    0    0  501  0.00000000000E+00  0.00000000000E+00 -0.12803519649E+03  0.12803519659E+03  0.50400001928E-02 0. -1.
    10030    2    1    2    0    0  0.00000000000E+00  0.00000000000E+00  0.33124748590E+03  0.58731787900E+03  0.48499215879E+03 0.  0.
        1    1    3    3  502    0  0.43928251659E+02  0.23777381381E+03  0.18789633053E+03  0.30622068656E+03  0.50400001928E-02 0. -1.
       -1    1    3    3    0  502 -0.43928251659E+02 -0.23777381381E+03  0.14335115537E+03  0.28109719244E+03  0.50400001928E-02 0.  1.
</event>
<event>
 5   0  0.1068522E-01  0.4966507E+03  0.7818609E-02  0.1014657E+00
       -1   -1    0    0    0  501  0.00000000000E+00  0.00000000000E+00  0.15752215956E+03  0.15752215964E+03  0.50400001928E-02 0.  1.
        1   -1    0    0  501    0  0.00000000000E+00  0.00000000000E+00 -0.39147185264E+03  0.39147185267E+03  0.50400001928E-02 0. -1.
    10030    2    1    2    0    0  0.00000000000E+00  0.00000000000E+00 -0.23394969308E+03  0.54899401231E+03  0.49665074917E+03 0.  0.
        2    1    3    3  502    0 -0.19769878226E+03 -0.12214120029E+03 -0.21373433147E+03  0.31573033711E+03  0.25500000920E-02 0. -1.
       -2    1    3    3    0  502  0.19769878226E+03  0.12214120029E+03 -0.20215361609E+02  0.23326367520E+03  0.25500000920E-02 0.  1.
</event>
<event>
 5   0  0.1782124E-01  0.4980682E+03  0.7818609E-02  0.1014284E+00
        2   -1    0    0  501    0  0.00000000000E+00  0.00000000000E+00  0.12446939802E+03  0.12446939805E+03  0.25500000920E-02 0.  1.
       -2   -1    0    0    0  501  0.00000000000E+00  0.00000000000E+00 -0.49825880512E+03  0.49825880512E+03  0.25500000920E-02 0. -1.
    10030    2    1    2    0    0  0.00000000000E+00  0.00000000000E+00 -0.37378940709E+03  0.62272820317E+03  0.49806816217E+03 0.  0.
        3    1    3    3  502    0  0.43286617275E+02  0.20105460304E+03 -0.36247561096E+03  0.41675563989E+03  0.10100000352E+00 0.  1.
       -3    1    3    3    0  502 -0.43286617275E+02 -0.20105460304E+03 -0.11313796136E+02  0.20597256328E+03  0.10100000352E+00 0. -1.
</event>
<event>
 5   0  0.1141970E-01  0.5013502E+03  0.7818609E-02  0.1013427E+00
        1   -1    0    0  501    0  0.00000000000E+00  0.00000000000E+00  0.25827801031E+03  0.25827801036E+03  0.50400001928E-02 0.  1.
       -1   -1    0    0    0  501  0.00000000000E+00  0.00000000000E+00 -0.24329599286E+03  0.24329599291E+03  0.50400001928E-02 0. -1.
    10030    2    1    2    0    0  0.00000000000E+00  0.00000000000E+00  0.14982017453E+02  0.50157400327E+03  0.50135019687E+03 0.  0.
        3    1    3    3  502    0 -0.70998657920E+02 -0.31729360991E+02 -0.23092280724E+03  0.24366558001E+03  0.10100000352E+00 0. -1.
       -3    1    3    3    0  502  0.70998657920E+02  0.31729360991E+02  0.24590482470E+03  0.25790842325E+03  0.10100000352E+00 0.  1.
</event>
<event>
 5   0  0.7220250E-02  0.4990176E+03  0.7818609E-02  0.1014036E+00
        3   -1    0    0  501    0  0.00000000000E+00  0.00000000000E+00  0.26768389098E+03  0.26768391003E+03  0.10100000352E+00 0.  1.
       -3   -1    0    0    0  501  0.00000000000E+00  0.00000000000E+00 -0.23256774564E+03  0.23256776757E+03  0.10100000352E+00 0. -1.
    10030    2    1    2    0    0  0.00000000000E+00  0.00000000000E+00  0.35116145338E+02  0.50025167760E+03  0.49901763223E+03 0.  0.
        5    1    3    3  502    0 -0.21864617610E+03  0.36042699138E+02  0.13241598305E+03  0.25818851456E+03  0.46999998093E+01 0. -1.
       -5    1    3    3    0  502  0.21864617610E+03 -0.36042699138E+02 -0.97299837712E+02  0.24206316304E+03  0.46999998093E+01 0.  1.
</event>
<event>
 5   0  0.1827698E-01  0.5043169E+03  0.7818609E-02  0.1012658E+00
        2   -1    0    0  501    0  0.00000000000E+00  0.00000000000E+00  0.77251016100E+03  0.77251016101E+03  0.25500000920E-02 0.  1.
       -2   -1    0    0    0  501  0.00000000000E+00  0.00000000000E+00 -0.82308141723E+02  0.82308141762E+02  0.25500000920E-02 0. -1.
    10030    2    1    2    0    0  0.00000000000E+00  0.00000000000E+00  0.69020201928E+03  0.85481830277E+03  0.50431686798E+03 0.  0.
        1    1    3    3  502    0  0.60443861741E+02  0.19085724781E+03  0.60496166345E+03  0.63722724654E+03  0.50400001928E-02 0.  1.
       -1    1    3    3    0  502 -0.60443861741E+02 -0.19085724781E+03  0.85240355835E+02  0.21759105623E+03  0.50400001928E-02 0. -1.
</event>
<event>
 5   0  0.1074281E-01  0.5030639E+03  0.7818609E-02  0.1012982E+00
        1   -1    0    0  501    0  0.00000000000E+00  0.00000000000E+00  0.15659189076E+03  0.15659189085E+03  0.50400001928E-02 0. -1.
       -1   -1    0    0    0  501  0.00000000000E+00  0.00000000000E+00 -0.40403323825E+03  0.40403323828E+03  0.50400001928E-02 0.  1.
    10030    2    1    2    0    0  0.00000000000E+00  0.00000000000E+00 -0.24744134748E+03  0.56062512913E+03  0.50306392731E+03 0.  0.
        4    1    3    3  502    0 -0.10915973750E+03 -0.33562553044E+02  0.12603010998E+03  0.17008084777E+03  0.12699999809E+01 0. -1.
       -4    1    3    3    0  502  0.10915973750E+03  0.33562553044E+02 -0.37347145746E+03  0.39054428135E+03  0.12699999809E+01 0.  1.
</event>
<event>
 5   0  0.1683148E-01  0.4981782E+03  0.7818609E-02  0.1014256E+00
        2   -1    0    0  501    0  0.00000000000E+00  0.00000000000E+00  0.55308942163E+03  0.55308942164E+03  0.25500000920E-02 0. -1.
       -2   -1    0    0    0  501  0.00000000000E+00  0.00000000000E+00 -0.11217963344E+03  0.11217963347E+03  0.25500000920E-02 0.  1.
    10030    2    1    2    0    0  0.00000000000E+00  0.00000000000E+00  0.44090978819E+03  0.66526905510E+03  0.49817815524E+03 0.  0.
        2    1    3    3  502    0 -0.82400069155E+02 -0.15471285603E+03  0.45678565667E+03  0.48926370739E+03  0.25500000920E-02 0. -1.
       -2    1    3    3    0  502  0.82400069155E+02  0.15471285603E+03 -0.15875868483E+02  0.17600534771E+03  0.25500000920E-02 0.  1.
</event>
<event>
 5   0  0.1147245E-01  0.5011349E+03  0.7818609E-02  0.1013483E+00
        1   -1    0    0  501    0  0.00000000000E+00  0.00000000000E+00  0.69462340424E+03  0.69462340426E+03  0.50400001928E-02 0.  1.
       -1   -1    0    0    0  501  0.00000000000E+00  0.00000000000E+00 -0.90385745406E+02  0.90385745546E+02  0.50400001928E-02 0. -1.
    10030    2    1    2    0    0  0.00000000000E+00  0.00000000000E+00  0.60423765883E+03  0.78500914980E+03  0.50113492886E+03 0.  0.
        1    1    3    3  502    0  0.19797280147E+03 -0.97126979226E+02  0.11573495745E+03  0.24904108219E+03  0.50400001928E-02 0. -1.
       -1    1    3    3    0  502 -0.19797280147E+03  0.97126979226E+02  0.48850270139E+03  0.53596806762E+03  0.50400001928E-02 0.  1.
</event>
<event>
 5   0  0.1709372E-01  0.5030399E+03  0.7818609E-02  0.1012988E+00
        2   -1    0    0  501    0  0.00000000000E+00  0.00000000000E+00  0.93259378115E+03  0.93259378115E+03  0.25500000920E-02 0.  1.
       -2   -1    0    0    0  501  0.00000000000E+00  0.00000000000E+00 -0.67834782750E+02  0.67834782798E+02  0.25500000920E-02 0. -1.
    10030    2    1    2    0    0  0.00000000000E+00  0.00000000000E+00  0.86475899840E+03  0.10004285639E+04  0.50303994499E+03 0.  0.
        4    1    3    3  502    0  0.15805697763E+03  0.17544498585E+03  0.26017338013E+03  0.35136128396E+03  0.12699999809E+01 0. -1.
       -4    1    3    3    0  502 -0.15805697763E+03 -0.17544498585E+03  0.60458561827E+03  0.64906727999E+03  0.12699999809E+01 0.  1.
</event>
<event>
 5   0  0.1827698E-01  0.5128754E+03  0.7818609E-02  0.1010472E+00
       -2   -1    0    0    0  501  0.00000000000E+00  0.00000000000E+00  0.68126052402E+02  0.68126052450E+02  0.25500000920E-02 0. -1.
        2   -1    0    0  501    0  0.00000000000E+00  0.00000000000E+00 -0.96527385765E+03  0.96527385765E+03  0.25500000920E-02 0.  1.
    10030    2    1    2    0    0  0.00000000000E+00  0.00000000000E+00 -0.89714780525E+03  0.10333999101E+04  0.51287541347E+03 0.  0.
        1    1    3    3  502    0 -0.23283257102E+03 -0.18336789927E+02 -0.23521120934E+03  0.33146878740E+03  0.50400001928E-02 0.  1.
       -1    1    3    3    0  502  0.23283257102E+03  0.18336789927E+02 -0.66193659590E+03  0.70193112270E+03  0.50400001928E-02 0. -1.
</event>
<event>
 5   0  0.1141970E-01  0.4895190E+03  0.7818609E-02  0.1016551E+00
        1   -1    0    0  501    0  0.00000000000E+00  0.00000000000E+00  0.70404737637E+03  0.70404737639E+03  0.50400001928E-02 0. -1.
       -1   -1    0    0    0  501  0.00000000000E+00  0.00000000000E+00 -0.85089757324E+02  0.85089757474E+02  0.50400001928E-02 0.  1.
    10030    2    1    2    0    0  0.00000000000E+00  0.00000000000E+00  0.61895761905E+03  0.78913713387E+03  0.48951903116E+03 0.  0.
        3    1    3    3  502    0  0.18161277283E+03 -0.11032885561E+03  0.11368372006E+03  0.24099720754E+03  0.10100000352E+00 0.  1.
       -3    1    3    3    0  502 -0.18161277283E+03  0.11032885561E+03  0.50527389899E+03  0.54813992633E+03  0.10100000352E+00 0. -1.
</event>
<event>
 5   0  0.1123271E-01  0.5160914E+03  0.7818609E-02  0.1009662E+00
        1   -1    0    0  501    0  0.00000000000E+00  0.00000000000E+00  0.11012931932E+03  0.11012931944E+03  0.50400001928E-02 0. -1.
       -1   -1    0    0    0  501  0.00000000000E+00  0.00000000000E+00 -0.60463085196E+03  0.60463085198E+03  0.50400001928E-02 0.  1.
    10030    2    1    2    0    0  0.00000000000E+00  0.00000000000E+00 -0.49450153264E+03  0.71476017142E+03  0.51609140360E+03 0.  0.
        5    1    3    3  502    0 -0.25543347753E+03 -0.20392829661E+02 -0.20562469584E+03  0.32858139704E+03  0.46999998093E+01 0. -1.
       -5    1    3    3    0  502  0.25543347753E+03  0.20392829661E+02 -0.28887683680E+03  0.38617877438E+03  0.46999998093E+01 0.  1.
</event>
<event>
 5   0  0.1141970E-01  0.4949628E+03  0.7818609E-02  0.1015102E+00
       -1   -1    0    0    0  501  0.00000000000E+00  0.00000000000E+00  0.15090399898E+03  0.15090399907E+03  0.50400001928E-02 0. -1.
        1   -1    0    0  501    0  0.00000000000E+00  0.00000000000E+00 -0.40586756610E+03  0.40586756614E+03  0.50400001928E-02 0.  1.
    10030    2    1    2    0    0  0.00000000000E+00  0.00000000000E+00 -0.25496356712E+03  0.55677156520E+03  0.49496278169E+03 0.  0.
        3    1    3    3  502    0 -0.23703726861E+03  0.69395007635E+02 -0.14507790261E+03  0.28644361019E+03  0.10100000352E+00 0.  1.
       -3    1    3    3    0  502  0.23703726861E+03 -0.69395007635E+02 -0.10988566451E+03  0.27032795501E+03  0.10100000352E+00 0. -1.
</event>
<event>
 5   0  0.1123271E-01  0.5538571E+03  0.7818609E-02  0.1000605E+00
       -1   -1    0    0    0  501  0.00000000000E+00  0.00000000000E+00  0.71469316122E+02  0.71469316300E+02  0.50400001928E-02 0. -1.
        1   -1    0    0  501    0  0.00000000000E+00  0.00000000000E+00 -0.10730398092E+04  0.10730398092E+04  0.50400001928E-02 0.  1.
    10030    2    1    2    0    0  0.00000000000E+00  0.00000000000E+00 -0.10015704931E+04  0.11445091255E+04  0.55385709869E+03 0.  0.
        5    1    3    3  502    0  0.96738874366E+02 -0.17224046488E+02 -0.10357173296E+04  0.10403785630E+04  0.46999998093E+01 0.  1.
       -5    1    3    3    0  502 -0.96738874366E+02  0.17224046488E+02  0.34146836551E+02  0.10413056245E+03  0.46999998093E+01 0. -1.
</event>
<event>
 5   0  0.1683148E-01  0.4992832E+03  0.7818609E-02  0.1013966E+00
        2   -1    0    0  501    0  0.00000000000E+00  0.00000000000E+00  0.42474250031E+03  0.42474250031E+03  0.25500000920E-02 0.  1.
       -2   -1    0    0    0  501  0.00000000000E+00  0.00000000000E+00 -0.14672637382E+03  0.14672637384E+03  0.25500000920E-02 0. -1.
    10030    2    1    2    0    0  0.00000000000E+00  0.00000000000E+00  0.27801612649E+03  0.57146887415E+03  0.49928319373E+03 0.  0.
        2    1    3    3  502    0 -0.15724575682E+02  0.11383288427E+03  0.39267039189E+03  0.40913961492E+03  0.25500000920E-02 0.  1.
       -2    1    3    3    0  502  0.15724575682E+02 -0.11383288427E+03 -0.11465426540E+03  0.16232925923E+03  0.25500000920E-02 0. -1.
</event>
<event>
 5   0  0.1147245E-01  0.4972458E+03  0.7818609E-02  0.1014500E+00
        1   -1    0    0  501    0  0.00000000000E+00  0.00000000000E+00  0.11168662680E+04  0.11168662680E+04  0.50400001928E-02 0.  1.
       -1   -1    0    0    0  501  0.00000000000E+00  0.00000000000E+00 -0.55345339176E+02  0.55345339405E+02  0.50400001928E-02 0. -1.
    10030    2    1    2    0    0  0.00000000000E+00  0.00000000000E+00  0.10615209288E+04  0.11722116074E+04  0.49724578452E+03 0.  0.
        1    1    3    3  502    0  0.96208400333E+02  0.50668010791E+02  0.10578405950E+04  0.10634143257E+04  0.50400001928E-02 0.  1.
       -1    1    3    3    0  502 -0.96208400333E+02 -0.50668010791E+02  0.36803337381E+01  0.10879728165E+03  0.50400001928E-02 0. -1.
</event>
<event>
 5   0  0.1827698E-01  0.5032446E+03  0.7818609E-02  0.1012935E+00
       -2   -1    0    0    0  501  0.00000000000E+00  0.00000000000E+00  0.74986723306E+02  0.74986723349E+02  0.25500000920E-02 0. -1.
        2   -1    0    0  501    0  0.00000000000E+00  0.00000000000E+00 -0.84433327160E+03  0.84433327161E+03  0.25500000920E-02 0.  1.
    10030    2    1    2    0    0  0.00000000000E+00  0.00000000000E+00 -0.76934654830E+03  0.91931999496E+03  0.50324461423E+03 0.  0.
        1    1    3    3  502    0  0.14764376499E+03  0.51479766218E+02 -0.24537256027E+02  0.15827483890E+03  0.50400001928E-02 0. -1.
       -1    1    3    3    0  502 -0.14764376499E+03 -0.51479766218E+02 -0.74480929227E+03  0.76104515605E+03  0.50400001928E-02 0.  1.
</event>
<event>
 5   0  0.1709372E-01  0.5252486E+03  0.7818609E-02  0.1007391E+00
       -2   -1    0    0    0  501  0.00000000000E+00  0.00000000000E+00  0.21107270524E+03  0.21107270526E+03  0.25500000920E-02 0. -1.
        2   -1    0    0  501    0  0.00000000000E+00  0.00000000000E+00 -0.32676659883E+03  0.32676659884E+03  0.25500000920E-02 0.  1.
    10030    2    1    2    0    0  0.00000000000E+00  0.00000000000E+00 -0.11569389358E+03  0.53783930409E+03  0.52524855070E+03 0.  0.
        4    1    3    3  502    0  0.90220526578E+02 -0.19936705064E+03  0.90833270074E+02  0.23693724939E+03  0.12699999809E+01 0. -1.
       -4    1    3    3    0  502 -0.90220526578E+02  0.19936705064E+03 -0.20652716366E+03  0.30090205470E+03  0.12699999809E+01 0.  1.
</event>
<event>
 5   0  0.1141970E-01  0.4951103E+03  0.7818609E-02  0.1015063E+00
        1   -1    0    0  501    0  0.00000000000E+00  0.00000000000E+00  0.40097986137E+03  0.40097986140E+03  0.50400001928E-02 0.  1.
       -1   -1    0    0    0  501  0.00000000000E+00  0.00000000000E+00 -0.15283449372E+03  0.15283449381E+03  0.50400001928E-02 0. -1.
    10030    2    1    2    0    0  0.00000000000E+00  0.00000000000E+00  0.24814536765E+03  0.55381435521E+03  0.49511030745E+03 0.  0.
        3    1    3    3  502    0 -0.21946646841E+03 -0.51002680414E+02  0.93622810207E+01  0.22550934942E+03  0.10100000352E+00 0. -1.
       -3    1    3    3    0  502  0.21946646841E+03  0.51002680414E+02  0.23878308663E+03  0.32830500579E+03  0.10100000352E+00 0.  1.
</event>
<event>
 5   0  0.1782124E-01  0.5176411E+03  0.7818609E-02  0.1009274E+00
        2   -1    0    0  501    0  0.00000000000E+00  0.00000000000E+00  0.12891867465E+04  0.12891867465E+04  0.25500000920E-02 0.  1.
       -2   -1    0    0    0  501  0.00000000000E+00  0.00000000000E+00 -0.51961502674E+02  0.51961502736E+02  0.25500000920E-02 0. -1.
    10030    2    1    2    0    0  0.00000000000E+00  0.00000000000E+00  0.12372252438E+04  0.13411482492E+04  0.51764111358E+03 0.  0.
        3    1    3    3  502    0  0.18684680418E+03  0.16835553516E+03  0.46031921616E+03  0.52454657126E+03  0.10100000352E+00 0. -1.
       -3    1    3    3    0  502 -0.18684680418E+03 -0.16835553516E+03  0.77690602765E+03  0.81660167797E+03  0.10100000352E+00 0.  1.
</event>
<event>
 5   0  0.1827698E-01  0.4764878E+03  0.7818609E-02  0.1020105E+00
        2   -1    0    0  501    0  0.00000000000E+00  0.00000000000E+00  0.25861839232E+03  0.25861839233E+03  0.25500000920E-02 0. -1.
       -2   -1    0    0    0  501  0.00000000000E+00  0.00000000000E+00 -0.21947453219E+03  0.21947453220E+03  0.25500000920E-02 0.  1.
    10030    2    1    2    0    0  0.00000000000E+00  0.00000000000E+00  0.39143860134E+02  0.47809292453E+03  0.47648777813E+03 0.  0.
        1    1    3    3  502    0  0.20837830515E+03 -0.85879526421E+02  0.97054732429E+02  0.24539036702E+03  0.50400001928E-02 0. -1.
       -1    1    3    3    0  502 -0.20837830515E+03  0.85879526421E+02 -0.57910872295E+02  0.23270255751E+03  0.50400001928E-02 0.  1.
</event>
<event>
 5   0  0.1068522E-01  0.4867296E+03  0.7818609E-02  0.1017302E+00
        1   -1    0    0  501    0  0.00000000000E+00  0.00000000000E+00  0.97298214680E+03  0.97298214681E+03  0.50400001928E-02 0. -1.
       -1   -1    0    0    0  501  0.00000000000E+00  0.00000000000E+00 -0.60871027640E+02  0.60871027849E+02  0.50400001928E-02 0.  1.
    10030    2    1    2    0    0  0.00000000000E+00  0.00000000000E+00  0.91211111916E+03  0.10338531747E+04  0.48672958926E+03 0.  0.
        2    1    3    3  502    0  0.18547987693E+03 -0.74076349699E+02  0.75141997694E+03  0.77751017490E+03  0.25500000920E-02 0. -1.
       -2    1    3    3    0  502 -0.18547987693E+03  0.74076349699E+02  0.16069114222E+03  0.25634299976E+03  0.25500000920E-02 0.  1.
</event>
<event>
 5   0  0.1141970E-01  0.5006224E+03  0.7818609E-02  0.1013617E+00
        1   -1    0    0  501    0  0.00000000000E+00  0.00000000000E+00  0.53717528346E+03  0.53717528348E+03  0.50400001928E-02 0. -1.
       -1   -1    0    0    0  501  0.00000000000E+00  0.00000000000E+00 -0.11663920556E+03  0.11663920567E+03  0.50400001928E-02 0.  1.
    10030    2    1    2    0    0  0.00000000000E+00  0.00000000000E+00  0.42053607791E+03  0.65381448915E+03  0.50062240601E+03 0.  0.
        3    1    3    3  502    0 -0.13477226113E+03 -0.15324149598E+03  0.20968872317E+02  0.20514926826E+03  0.10100000352E+00 0. -1.
       -3    1    3    3    0  502  0.13477226113E+03  0.15324149598E+03  0.39956720559E+03  0.44866522089E+03  0.10100000352E+00 0.  1.
</event>
<event>
 5   0  0.1074281E-01  0.4969671E+03  0.7818609E-02  0.1014574E+00
       -1   -1    0    0    0  501  0.00000000000E+00  0.00000000000E+00  0.40221595753E+03  0.40221595756E+03  0.50400001928E-02 0. -1.
        1   -1    0    0  501    0  0.00000000000E+00  0.00000000000E+00 -0.15350972880E+03  0.15350972888E+03  0.50400001928E-02 0.  1.
    10030    2    1    2    0    0  0.00000000000E+00  0.00000000000E+00  0.24870622873E+03  0.55572568644E+03  0.49696705159E+03 0.  0.
        4    1    3    3  502    0 -0.14576851896E+03 -0.95435689046E+02 -0.73754415577E+02  0.18920295606E+03  0.12699999809E+01 0.  1.
       -4    1    3    3    0  502  0.14576851896E+03  0.95435689046E+02  0.32246064431E+03  0.36652273039E+03  0.12699999809E+01 0. -1.
</event>
<event>
 5   0  0.1760649E-01  0.4955946E+03  0.7818609E-02  0.1014935E+00
       -2   -1    0    0    0  501  0.00000000000E+00  0.00000000000E+00  0.28096564739E+03  0.28096564740E+03  0.25500000920E-02 0.  1.
        2   -1    0    0  501    0  0.00000000000E+00  0.00000000000E+00 -0.21854450331E+03  0.21854450332E+03  0.25500000920E-02 0. -1.
    10030    2    1    2    0    0  0.00000000000E+00  0.00000000000E+00  0.62421144077E+02  0.49951015072E+03  0.49559458376E+03 0.  0.
        5    1    3    3  502    0  0.29221928788E+02  0.14141949456E+03 -0.17169567778E+03  0.22439895350E+03  0.46999998093E+01 0. -1.
       -5    1    3    3    0  502 -0.29221928788E+02 -0.14141949456E+03  0.23411682186E+03  0.27511119723E+03  0.46999998093E+01 0.  1.
</event>
<event>
 5   0  0.1782124E-01  0.5072759E+03  0.7818609E-02  0.1011897E+00
        2   -1    0    0  501    0  0.00000000000E+00  0.00000000000E+00  0.39977875718E+03  0.39977875719E+03  0.25500000920E-02 0.  1.
       -2   -1    0    0    0  501  0.00000000000E+00  0.00000000000E+00 -0.16091955058E+03  0.16091955060E+03  0.25500000920E-02 0. -1.
    10030    2    1    2    0    0  0.00000000000E+00  0.00000000000E+00  0.23885920660E+03  0.56069830779E+03  0.50727593259E+03 0.  0.
        3    1    3    3  502    0  0.61082788258E+02 -0.14939024374E+03 -0.96838110304E+02  0.18821844159E+03  0.10100000352E+00 0.  1.
       -3    1    3    3    0  502 -0.61082788258E+02  0.14939024374E+03  0.33569731691E+03  0.37247986620E+03  0.10100000352E+00 0. -1.
</event>
<event>
 5   0  0.1709372E-01  0.4981366E+03  0.7818609E-02  0.1014266E+00
       -2   -1    0    0    0  501  0.00000000000E+00  0.00000000000E+00  0.86873791299E+02  0.86873791336E+02  0.25500000920E-02 0. -1.
        2   -1    0    0  501    0  0.00000000000E+00  0.00000000000E+00 -0.71408217242E+03  0.71408217243E+03  0.25500000920E-02 0.  1.
    10030    2    1    2    0    0  0.00000000000E+00  0.00000000000E+00 -0.62720838112E+03  0.80095596376E+03  0.49813663039E+03 0.  0.
        4    1    3    3  502    0  0.99112240327E+02  0.18075385004E+03 -0.53835573429E+03  0.57647523801E+03  0.12699999809E+01 0.  1.
       -4    1    3    3    0  502 -0.99112240327E+02 -0.18075385004E+03 -0.88852646831E+02  0.22448072576E+03  0.12699999809E+01 0. -1.
</event>
<event>
 5   0  0.1782124E-01  0.4952578E+03  0.7818609E-02  0.1015024E+00
       -2   -1    0    0    0  501  0.00000000000E+00  0.00000000000E+00  0.16127806506E+03  0.16127806508E+03  0.25500000920E-02 0. -1.
        2   -1    0    0  501    0  0.00000000000E+00  0.00000000000E+00 -0.38021331939E+03  0.38021331940E+03  0.25500000920E-02 0.  1.
    10030    2    1    2    0    0  0.00000000000E+00  0.00000000000E+00 -0.21893525433E+03  0.54149138447E+03  0.49525778527E+03 0.  0.
        3    1    3    3  502    0 -0.23407900192E+02  0.88561249927E+02 -0.36100772278E+03  0.37244813181E+03  0.10100000352E+00 0.  1.
       -3    1    3    3    0  502  0.23407900192E+02 -0.88561249927E+02  0.14207246845E+03  0.16904325267E+03  0.10100000352E+00 0. -1.
</event>
<event>
 5   0  0.1123271E-01  0.4961374E+03  0.7818609E-02  0.1014792E+00
        1   -1    0    0  501    0  0.00000000000E+00  0.00000000000E+00  0.40872320957E+03  0.40872320960E+03  0.50400001928E-02 0.  1.
       -1   -1    0    0    0  501  0.00000000000E+00  0.00000000000E+00 -0.15056172671E+03  0.15056172679E+03  0.50400001928E-02 0. -1.
    10030    2    1    2    0    0  0.00000000000E+00  0.00000000000E+00  0.25816148286E+03  0.55928493640E+03  0.49613736893E+03 0.  0.
        5    1    3    3  502    0  0.17105070546E+03  0.95013457862E+02 -0.42732466661E+02  0.20033485648E+03  0.46999998093E+01 0. -1.
       -5    1    3    3    0  502 -0.17105070546E+03 -0.95013457862E+02  0.30089394953E+03  0.35895007992E+03  0.46999998093E+01 0.  1.
</event>
<event>
 5   0  0.1074281E-01  0.5001223E+03  0.7818609E-02  0.1013747E+00
       -1   -1    0    0    0  501  0.00000000000E+00  0.00000000000E+00  0.23130150735E+03  0.23130150741E+03  0.50400001928E-02 0.  1.
        1   -1    0    0  501    0  0.00000000000E+00  0.00000000000E+00 -0.27034224448E+03  0.27034224453E+03  0.50400001928E-02 0. -1.
    10030    2    1    2    0    0  0.00000000000E+00  0.00000000000E+00 -0.39040737132E+02  0.50164375193E+03  0.50012225975E+03 0.  0.
        4    1    3    3  502    0  0.23435276835E+02 -0.24771057841E+03  0.54393236642E+01  0.24887937239E+03  0.12699999809E+01 0. -1.
       -4    1    3    3    0  502 -0.23435276835E+02  0.24771057841E+03 -0.44480060796E+02  0.25276437955E+03  0.12699999809E+01 0.  1.
</event>
<event>
 5   0  0.1123271E-01  0.4596758E+03  0.7818609E-02  0.1024875E+00
        1   -1    0    0  501    0  0.00000000000E+00  0.00000000000E+00  0.11854169632E+04  0.11854169633E+04  0.50400001928E-02 0.  1.
       -1   -1    0    0    0  501  0.00000000000E+00  0.00000000000E+00 -0.44562771243E+02  0.44562771528E+02  0.50400001928E-02 0. -1.
    10030    2    1    2    0    0  0.00000000000E+00  0.00000000000E+00  0.11408541920E+04  0.12299797348E+04  0.45967582117E+03 0.  0.
        5    1    3    3  502    0  0.16297931414E+03 -0.42448511525E+02  0.98872930972E+03  0.10029814908E+04  0.46999998093E+01 0.  1.
       -5    1    3    3    0  502 -0.16297931414E+03  0.42448511525E+02  0.15212488228E+03  0.22699824399E+03  0.46999998093E+01 0. -1.
</event>
<event>
 5   0  0.1074281E-01  0.4993919E+03  0.7818609E-02  0.1013938E+00
       -1   -1    0    0    0  501  0.00000000000E+00  0.00000000000E+00  0.94506336727E+02  0.94506336862E+02  0.50400001928E-02 0. -1.
        1   -1    0    0  501    0  0.00000000000E+00  0.00000000000E+00 -0.65972354399E+03  0.65972354401E+03  0.50400001928E-02 0.  1.
    10030    2    1    2    0    0  0.00000000000E+00  0.00000000000E+00 -0.56521720726E+03  0.75422988087E+03  0.49939185197E+03 0.  0.
        4    1    3    3  502    0 -0.15654350721E+03  0.44427171099E+02 -0.56863663284E+03  0.59146333470E+03  0.12699999809E+01 0.  1.
       -4    1    3    3    0  502  0.15654350721E+03 -0.44427171099E+02  0.34194255775E+01  0.16276654617E+03  0.12699999809E+01 0. -1.
</event>
<event>
 5   0  0.1782124E-01  0.4946267E+03  0.7818609E-02  0.1015191E+00
       -2   -1    0    0    0  501  0.00000000000E+00  0.00000000000E+00  0.21296912666E+03  0.21296912668E+03  0.25500000920E-02 0. -1.
        2   -1    0    0  501    0  0.00000000000E+00  0.00000000000E+00 -0.28719603172E+03  0.28719603173E+03  0.25500000920E-02 0.  1.
    10030    2    1    2    0    0  0.00000000000E+00  0.00000000000E+00 -0.74226905056E+02  0.50016515841E+03  0.49462667968E+03 0.  0.
        3    1    3    3  502    0  0.22748603511E+02  0.82096736650E+02 -0.27189095806E+03  0.28492468550E+03  0.10100000352E+00 0.  1.
       -3    1    3    3    0  502 -0.22748603511E+02 -0.82096736650E+02  0.19766405300E+03  0.21524047292E+03  0.10100000352E+00 0. -1.
</event>
<event>
 5   0  0.1147245E-01  0.4936232E+03  0.7818609E-02  0.1015457E+00
       -1   -1    0    0    0  501  0.00000000000E+00  0.00000000000E+00  0.44115250425E+03  0.44115250428E+03  0.50400001928E-02 0.  1.
        1   -1    0    0  501    0  0.00000000000E+00  0.00000000000E+00 -0.13808371579E+03  0.13808371588E+03  0.50400001928E-02 0. -1.
    10030    2    1    2    0    0  0.00000000000E+00  0.00000000000E+00  0.30306878847E+03  0.57923622016E+03  0.49362324520E+03 0.  0.
        1    1    3    3  502    0 -0.35694695317E+02  0.27650768209E+02  0.43626493555E+03  0.43859522372E+03  0.50400001928E-02 0.  1.
       -1    1    3    3    0  502  0.35694695317E+02 -0.27650768209E+02 -0.13319614708E+03  0.14064099644E+03  0.50400001928E-02 0. -1.
</event>
<event>
 5   0  0.1760649E-01  0.4995404E+03  0.7818609E-02  0.1013899E+00
        2   -1    0    0  501    0  0.00000000000E+00  0.00000000000E+00  0.39662566076E+03  0.39662566077E+03  0.25500000920E-02 0. -1.
       -2   -1    0    0    0  501  0.00000000000E+00  0.00000000000E+00 -0.15728974278E+03  0.15728974280E+03  0.25500000920E-02 0.  1.
    10030    2    1    2    0    0  0.00000000000E+00  0.00000000000E+00  0.23933591798E+03  0.55391540357E+03  0.49954038143E+03 0.  0.
        5    1    3    3  502    0 -0.23248902283E+03 -0.58317543838E+02  0.19737435551E+03  0.31053310269E+03  0.46999998093E+01 0. -1.
       -5    1    3    3    0  502  0.23248902283E+03  0.58317543838E+02  0.41961562474E+02  0.24338230088E+03  0.46999998093E+01 0.  1.
</event>
<event>
 5   0  0.1782124E-01  0.5005784E+03  0.7818609E-02  0.1013628E+00
        2   -1    0    0  501    0  0.00000000000E+00  0.00000000000E+00  0.11988469555E+04  0.11988469555E+04  0.25500000920E-02 0.  1.
       -2   -1    0    0    0  501  0.00000000000E+00  0.00000000000E+00 -0.52254122155E+02  0.52254122217E+02  0.25500000920E-02 0. -1.
    10030    2    1    2    0    0  0.00000000000E+00  0.00000000000E+00  0.11465928333E+04  0.12511010777E+04  0.50057844659E+03 0.  0.
        3    1    3    3  502    0  0.21816652280E+03 -0.57952318351E+02  0.30307501213E+03  0.37790154280E+03  0.10100000352E+00 0. -1.
       -3    1    3    3    0  502 -0.21816652280E+03  0.57952318351E+02  0.84351782120E+03  0.87319953490E+03  0.10100000352E+00 0.  1.
</event>
<event>
 5   0  0.1141970E-01  0.5015198E+03  0.7818609E-02  0.1013383E+00
       -1   -1    0    0    0  501  0.00000000000E+00  0.00000000000E+00  0.91290305248E+02  0.91290305387E+02  0.50400001928E-02 0.  1.
        1   -1    0    0  501    0  0.00000000000E+00  0.00000000000E+00 -0.68879744059E+03  0.68879744061E+03  0.50400001928E-02 0. -1.
    10030    2    1    2    0    0  0.00000000000E+00  0.00000000000E+00 -0.59750713534E+03  0.78008774599E+03  0.50151980486E+03 0.  0.
        3    1    3    3  502    0 -0.22254358930E+02 -0.21666643891E+03 -0.49203578595E+03  0.53808812206E+03  0.10100000352E+00 0. -1.
       -3    1    3    3    0  502  0.22254358930E+02  0.21666643891E+03 -0.10547134939E+03  0.24199962393E+03  0.10100000352E+00 0.  1.
</event>
<event>
 5   0  0.1709372E-01  0.5004017E+03  0.7818609E-02  0.1013674E+00
        2   -1    0    0  501    0  0.00000000000E+00  0.00000000000E+00  0.99023417273E+02  0.99023417305E+02  0.25500000920E-02 0. -1.
       -2   -1    0    0    0  501  0.00000000000E+00  0.00000000000E+00 -0.63217832653E+03  0.63217832654E+03  0.25500000920E-02 0.  1.
    10030    2    1    2    0    0  0.00000000000E+00  0.00000000000E+00 -0.53315490926E+03  0.73120174384E+03  0.50040167159E+03 0.  0.
        4    1    3    3  502    0 -0.13031508891E+03 -0.21133117369E+03 -0.22139832453E+03  0.33265856125E+03  0.12699999809E+01 0.  1.
       -4    1    3    3    0  502  0.13031508891E+03  0.21133117369E+03 -0.31175658473E+03  0.39854318259E+03  0.12699999809E+01 0. -1.
</event>
<event>
 5   0  0.1760649E-01  0.4984756E+03  0.7818609E-02  0.1014178E+00
        2   -1    0    0  501    0  0.00000000000E+00  0.00000000000E+00  0.51691853402E+03  0.51691853402E+03  0.25500000920E-02 0.  1.
       -2   -1    0    0    0  501  0.00000000000E+00  0.00000000000E+00 -0.12017266852E+03  0.12017266855E+03  0.25500000920E-02 0. -1.
    10030    2    1    2    0    0  0.00000000000E+00  0.00000000000E+00  0.39674586550E+03  0.63709120257E+03  0.49847559479E+03 0.  0.
        5    1    3    3  502    0 -0.16398859644E+03  0.90729413390E+02  0.40827889606E+03  0.44926365665E+03  0.46999998093E+01 0.  1.
       -5    1    3    3    0  502  0.16398859644E+03 -0.90729413390E+02 -0.11533030561E+02  0.18782754593E+03  0.46999998093E+01 0. -1.
</event>
<event>
 5   0  0.1068522E-01  0.4998518E+03  0.7818609E-02  0.1013818E+00
        1   -1    0    0  501    0  0.00000000000E+00  0.00000000000E+00  0.91069611639E+02  0.91069611778E+02  0.50400001928E-02 0. -1.
       -1   -1    0    0    0  501  0.00000000000E+00  0.00000000000E+00 -0.68588139730E+03  0.68588139732E+03  0.50400001928E-02 0.  1.
    10030    2    1    2    0    0  0.00000000000E+00  0.00000000000E+00 -0.59481178566E+03  0.77695100910E+03  0.49985178821E+03 0.  0.
        2    1    3    3  502    0 -0.15527372272E+03  0.97174781100E+02 -0.33118118918E+02  0.18614423670E+03  0.25500000920E-02 0. -1.
       -2    1    3    3    0  502  0.15527372272E+03 -0.97174781100E+02 -0.56169366675E+03  0.59080677240E+03  0.25500000920E-02 0.  1.
</event>
<event>
 5   0  0.1074281E-01  0.4952082E+03  0.7818609E-02  0.1015037E+00
       -1   -1    0    0    0  501  0.00000000000E+00  0.00000000000E+00  0.14371490371E+03  0.14371490380E+03  0.50400001928E-02 0.  1.
        1   -1    0    0  501    0  0.00000000000E+00  0.00000000000E+00 -0.42659320637E+03  0.42659320640E+03  0.50400001928E-02 0. -1.
    10030    2    1    2    0    0  0.00000000000E+00  0.00000000000E+00 -0.28287830266E+03  0.57030811020E+03  0.49520824554E+03 0.  0.
        4    1    3    3  502    0  0.15381742098E+02  0.23144305000E+03 -0.24119986923E+03  0.33463632976E+03  0.12699999809E+01 0. -1.
       -4    1    3    3    0  502 -0.15381742098E+02 -0.23144305000E+03 -0.41678433436E+02  0.23567178044E+03  0.12699999809E+01 0.  1.
</event>
<event>
 5   0  0.1147245E-01  0.4890247E+03  0.7818609E-02  0.1016684E+00
       -1   -1    0    0    0  501  0.00000000000E+00  0.00000000000E+00  0.47929413018E+02  0.47929413283E+02  0.50400001928E-02 0. -1.
        1   -1    0    0  501    0  0.00000000000E+00  0.00000000000E+00 -0.12473818249E+04  0.12473818249E+04  0.50400001928E-02 0.  1.
    10030    2    1    2    0    0  0.00000000000E+00  0.00000000000E+00 -0.11994524119E+04  0.12953112382E+04  0.48902465728E+03 0.  0.
        1    1    3    3  502    0 -0.95599722660E+01  0.17220953090E+03 -0.14065040567E+03  0.22255348177E+03  0.50400001928E-02 0. -1.
       -1    1    3    3    0  502  0.95599722660E+01 -0.17220953090E+03 -0.10588020062E+04  0.10727577565E+04  0.50400001928E-02 0.  1.
</event>
<event>
 5   0  0.1123271E-01  0.4703950E+03  0.7818609E-02  0.1021809E+00
        1   -1    0    0  501    0  0.00000000000E+00  0.00000000000E+00  0.11029286153E+04  0.11029286153E+04  0.50400001928E-02 0.  1.
       -1   -1    0    0    0  501  0.00000000000E+00  0.00000000000E+00 -0.50155429942E+02  0.50155430195E+02  0.50400001928E-02 0. -1.
    10030    2    1    2    0    0  0.00000000000E+00  0.00000000000E+00  0.10527731853E+04  0.11530840455E+04  0.47039497892E+03 0.  0.
        5    1    3    3  502    0 -0.13174925880E+03  0.11176970061E+03  0.91741042978E+03  0.93354931302E+03  0.46999998093E+01 0.  1.
       -5    1    3    3    0  502  0.13174925880E+03 -0.11176970061E+03  0.13536275556E+03  0.21953473247E+03  0.46999998093E+01 0. -1.
</event>
<event>
 5   0  0.1827698E-01  0.4994959E+03  0.7818609E-02  0.1013911E+00
       -2   -1    0    0    0  501  0.00000000000E+00  0.00000000000E+00  0.16735800994E+03  0.16735800996E+03  0.25500000920E-02 0. -1.
        2   -1    0    0  501    0  0.00000000000E+00  0.00000000000E+00 -0.37269829161E+03  0.37269829162E+03  0.25500000920E-02 0.  1.
    10030    2    1    2    0    0  0.00000000000E+00  0.00000000000E+00 -0.20534028167E+03  0.54005630157E+03  0.49949592350E+03 0.  0.
        1    1    3    3  502    0  0.97045163578E+02  0.43660301561E+02 -0.34695987252E+03  0.36291202635E+03  0.50400001928E-02 0.  1.
       -1    1    3    3    0  502 -0.97045163578E+02 -0.43660301561E+02  0.14161959085E+03  0.17714427522E+03  0.50400001928E-02 0. -1.
</event>
<event>
 5   0  0.1074281E-01  0.5014783E+03  0.7818609E-02  0.1013394E+00
        1   -1    0    0  501    0  0.00000000000E+00  0.00000000000E+00  0.68503462180E+03  0.68503462181E+03  0.50400001928E-02 0.  1.
       -1   -1    0    0    0  501  0.00000000000E+00  0.00000000000E+00 -0.91776544274E+02  0.91776544412E+02  0.50400001928E-02 0. -1.
    10030    2    1    2    0    0  0.00000000000E+00  0.00000000000E+00  0.59325807752E+03  0.77681116623E+03  0.50147825619E+03 0.  0.
        4    1    3    3  502    0 -0.24052797206E+03 -0.21096252553E+00  0.18693377100E+03  0.30463026359E+03  0.12699999809E+01 0. -1.
       -4    1    3    3    0  502  0.24052797206E+03  0.21096252553E+00  0.40632430652E+03  0.47218090264E+03  0.12699999809E+01 0.  1.
</event>
<event>
 5   0  0.1827698E-01  0.5078869E+03  0.7818609E-02  0.1011741E+00
        2   -1    0    0  501    0  0.00000000000E+00  0.00000000000E+00  0.89287753282E+03  0.89287753282E+03  0.25500000920E-02 0. -1.
       -2   -1    0    0    0  501  0.00000000000E+00  0.00000000000E+00 -0.72224098126E+02  0.72224098171E+02  0.25500000920E-02 0.  1.
    10030    2    1    2    0    0  0.00000000000E+00  0.00000000000E+00  0.82065343469E+03  0.96510163099E+03  0.50788689516E+03 0.  0.
        1    1    3    3  502    0  0.61940335840E+02  0.22547513877E+03  0.22210200204E+03  0.32249797323E+03  0.50400001928E-02 0.  1.
       -1    1    3    3    0  502 -0.61940335840E+02 -0.22547513877E+03  0.59855143266E+03  0.64260365776E+03  0.50400001928E-02 0. -1.
</event>
<event>
 5   0  0.1141970E-01  0.4933800E+03  0.7818609E-02  0.1015521E+00
       -1   -1    0    0    0  501  0.00000000000E+00  0.00000000000E+00  0.94435362392E+02  0.94435362526E+02  0.50400001928E-02 0. -1.
        1   -1    0    0  501    0  0.00000000000E+00  0.00000000000E+00 -0.64441914889E+03  0.64441914891E+03  0.50400001928E-02 0.  1.
    10030    2    1    2    0    0  0.00000000000E+00  0.00000000000E+00 -0.54998378650E+03  0.73885451144E+03  0.49337999925E+03 0.  0.
        3    1    3    3  502    0  0.10823229540E+02 -0.23556931172E+03 -0.38345636582E+03  0.45016534475E+03  0.10100000352E+00 0.  1.
       -3    1    3    3    0  502 -0.10823229540E+02  0.23556931172E+03 -0.16652742068E+03  0.28868916669E+03  0.10100000352E+00 0. -1.
</event>
<event>
 5   0  0.1068522E-01  0.4989406E+03  0.7818609E-02  0.1014056E+00
       -1   -1    0    0    0  501  0.00000000000E+00  0.00000000000E+00  0.53472428701E+02  0.53472428938E+02  0.50400001928E-02 0. -1.
        1   -1    0    0  501    0  0.00000000000E+00  0.00000000000E+00 -0.11638789646E+04  0.11638789646E+04  0.50400001928E-02 0.  1.
    10030    2    1    2    0    0  0.00000000000E+00  0.00000000000E+00 -0.11104065359E+04  0.12173513935E+04  0.49894061811E+03 0.  0.
        2    1    3    3  502    0 -0.62333163579E+02 -0.22859294656E+03 -0.74568959400E+03  0.78242771494E+03  0.25500000920E-02 0.  1.
       -2    1    3    3    0  502  0.62333163579E+02  0.22859294656E+03 -0.36471694187E+03  0.43492367859E+03  0.25500000920E-02 0. -1.
</event>
<event>
 5   0  0.1123271E-01  0.4870096E+03  0.7818609E-02  0.1017226E+00
       -1   -1    0    0    0  501  0.00000000000E+00  0.00000000000E+00  0.72072764542E+02  0.72072764719E+02  0.50400001928E-02 0.  1.
        1   -1    0    0  501    0  0.00000000000E+00  0.00000000000E+00 -0.82270458652E+03  0.82270458654E+03  0.50400001928E-02 0. -1.
    10030    2    1    2    0    0  0.00000000000E+00  0.00000000000E+00 -0.75063182198E+03  0.89477735126E+03  0.48700962634E+03 0.  0.
        5    1    3    3  502    0 -0.22017005733E+03  0.95771996289E+02 -0.30124389340E+03  0.38524940328E+03  0.46999998093E+01 0.  1.
       -5    1    3    3    0  502  0.22017005733E+03 -0.95771996289E+02 -0.44938792858E+03  0.50952794798E+03  0.46999998093E+01 0. -1.
</event>
<event>
 5   0  0.1760649E-01  0.4528923E+03  0.7818609E-02  0.1026863E+00
        2   -1    0    0  501    0  0.00000000000E+00  0.00000000000E+00  0.28937583133E+03  0.28937583135E+03  0.25500000920E-02 0.  1.
       -2   -1    0    0    0  501  0.00000000000E+00  0.00000000000E+00 -0.17720156408E+03  0.17720156410E+03  0.25500000920E-02 0. -1.
    10030    2    1    2    0    0  0.00000000000E+00  0.00000000000E+00  0.11217426726E+03  0.46657739544E+03  0.45289226059E+03 0.  0.
        5    1    3    3  502    0  0.11526035111E+03  0.10496481169E+03  0.22522231746E+03  0.27395208069E+03  0.46999998093E+01 0.  1.
       -5    1    3    3    0  502 -0.11526035111E+03 -0.10496481169E+03 -0.11304805020E+03  0.19262531476E+03  0.46999998093E+01 0. -1.
</event>
<event>
 5   0  0.1760649E-01  0.5016195E+03  0.7818609E-02  0.1013357E+00
        2   -1    0    0  501    0  0.00000000000E+00  0.00000000000E+00  0.18534011847E+03  0.18534011848E+03  0.25500000920E-02 0. -1.
       -2   -1    0    0    0  501  0.00000000000E+00  0.00000000000E+00 -0.33940589518E+03  0.33940589519E+03  0.25500000920E-02 0.  1.
    10030    2    1    2    0    0  0.00000000000E+00  0.00000000000E+00 -0.15406577672E+03  0.52474601368E+03  0.50161949256E+03 0.  0.
        5    1    3    3  502    0 -0.16464251520E+03 -0.97881567734E+02  0.92279182498E+02  0.21266287084E+03  0.46999998093E+01 0.  1.
       -5    1    3    3    0  502  0.16464251520E+03  0.97881567734E+02 -0.24634495922E+03  0.31208314284E+03  0.46999998093E+01 0. -1.
</event>
<event>
 5   0  0.1760649E-01  0.4910693E+03  0.7818609E-02  0.1016137E+00
       -2   -1    0    0    0  501  0.00000000000E+00  0.00000000000E+00  0.54190457232E+02  0.54190457292E+02  0.25500000920E-02 0. -1.
        2   -1    0    0  501    0  0.00000000000E+00  0.00000000000E+00 -0.11125072058E+04  0.11125072058E+04  0.25500000920E-02 0.  1.
    10030    2    1    2    0    0  0.00000000000E+00  0.00000000000E+00 -0.10583167486E+04  0.11666976631E+04  0.49106934009E+03 0.  0.
        5    1    3    3  502    0 -0.16186274040E+03 -0.49041757431E+02 -0.10641706214E+03  0.19987826749E+03  0.46999998093E+01 0. -1.
       -5    1    3    3    0  502  0.16186274040E+03  0.49041757431E+02 -0.95189968643E+03  0.96681939561E+03  0.46999998093E+01 0.  1.
</event>
<event>
 5   0  0.1074281E-01  0.4569087E+03  0.7818609E-02  0.1025682E+00
        1   -1    0    0  501    0  0.00000000000E+00  0.00000000000E+00  0.21466137970E+03  0.21466137976E+03  0.50400001928E-02 0.  1.
       -1   -1    0    0    0  501  0.00000000000E+00  0.00000000000E+00 -0.24313353355E+03  0.24313353361E+03  0.50400001928E-02 0. -1.
    10030    2    1    2    0    0  0.00000000000E+00  0.00000000000E+00 -0.28472153853E+02  0.45779491337E+03  0.45690865516E+03 0.  0.
        4    1    3    3  502    0  0.10793031912E+03 -0.16429604501E+03  0.10238394653E+03  0.22164437642E+03  0.12699999809E+01 0.  1.
       -4    1    3    3    0  502 -0.10793031912E+03  0.16429604501E+03 -0.13085610038E+03  0.23615053694E+03  0.12699999809E+01 0. -1.
</event>
<event>
 5   0  0.7220250E-02  0.4953343E+03  0.7818609E-02  0.1015004E+00
       -3   -1    0    0    0  501  0.00000000000E+00  0.00000000000E+00  0.11668128094E+04  0.11668128137E+04  0.10100000352E+00 0. -1.
        3   -1    0    0  501    0  0.00000000000E+00  0.00000000000E+00 -0.52569666551E+02  0.52569763575E+02  0.10100000352E+00 0.  1.
    10030    2    1    2    0    0  0.00000000000E+00  0.00000000000E+00  0.11142431428E+04  0.12193825773E+04  0.49533431997E+03 0.  0.
        5    1    3    3  502    0  0.19490185197E+03 -0.61601803522E+02  0.90119641434E+03  0.92409879413E+03  0.46999998093E+01 0. -1.
       -5    1    3    3    0  502 -0.19490185197E+03  0.61601803522E+02  0.21304672848E+03  0.29528378318E+03  0.46999998093E+01 0.  1.
</event>
<event>
 5   0  0.1683148E-01  0.5336179E+03  0.7818609E-02  0.1005358E+00
       -2   -1    0    0    0  501  0.00000000000E+00  0.00000000000E+00  0.29729678279E+03  0.29729678280E+03  0.25500000920E-02 0. -1.
        2   -1    0    0  501    0  0.00000000000E+00  0.00000000000E+00 -0.23944766577E+03  0.23944766579E+03  0.25500000920E-02 0.  1.
    10030    2    1    2    0    0  0.00000000000E+00  0.00000000000E+00  0.57849117016E+02  0.53674444859E+03  0.53361791832E+03 0.  0.
        2    1    3    3  502    0  0.24712296653E+03 -0.90334653593E+02 -0.15571611776E+02  0.26357652651E+03  0.25500000920E-02 0. -1.
       -2    1    3    3    0  502 -0.24712296653E+03  0.90334653593E+02  0.73420728792E+02  0.27316792207E+03  0.25500000920E-02 0.  1.
</event>
<event>
 5   0  0.1782124E-01  0.4808338E+03  0.7818609E-02  0.1018906E+00
       -2   -1    0    0    0  501  0.00000000000E+00  0.00000000000E+00  0.15904076535E+03  0.15904076538E+03  0.25500000920E-02 0.  1.
        2   -1    0    0  501    0  0.00000000000E+00  0.00000000000E+00 -0.36343068707E+03  0.36343068708E+03  0.25500000920E-02 0. -1.
    10030    2    1    2    0    0  0.00000000000E+00  0.00000000000E+00 -0.20438992171E+03  0.52247145245E+03  0.48083383672E+03 0.  0.
        3    1    3    3  502    0 -0.67553448481E+02 -0.83816433050E+02 -0.33577899151E+03  0.35261339196E+03  0.10100000352E+00 0. -1.
       -3    1    3    3    0  502  0.67553448481E+02  0.83816433050E+02  0.13138906980E+03  0.16985806049E+03  0.10100000352E+00 0.  1.
</event>
<event>
 5   0  0.1147245E-01  0.4921448E+03  0.7818609E-02  0.1015850E+00
        1   -1    0    0  501    0  0.00000000000E+00  0.00000000000E+00  0.33827361137E+03  0.33827361141E+03  0.50400001928E-02 0. -1.
       -1   -1    0    0    0  501  0.00000000000E+00  0.00000000000E+00 -0.17900191882E+03  0.17900191889E+03  0.50400001928E-02 0.  1.
    10030    2    1    2    0    0  0.00000000000E+00  0.00000000000E+00  0.15927169255E+03  0.51727553030E+03  0.49214479800E+03 0.  0.
        1    1    3    3  502    0 -0.23602361010E+03 -0.59542958599E+02  0.11751961546E+03  0.27030236493E+03  0.50400001928E-02 0.  1.
       -1    1    3    3    0  502  0.23602361010E+03  0.59542958599E+02  0.41752077091E+02  0.24697316537E+03  0.50400001928E-02 0. -1.
</event>
<event>
 5   0  0.1782124E-01  0.4970779E+03  0.7818609E-02  0.1014544E+00
        2   -1    0    0  501    0  0.00000000000E+00  0.00000000000E+00  0.55588517676E+03  0.55588517676E+03  0.25500000920E-02 0.  1.
       -2   -1    0    0    0  501  0.00000000000E+00  0.00000000000E+00 -0.11112295910E+03  0.11112295913E+03  0.25500000920E-02 0. -1.
    10030    2    1    2    0    0  0.00000000000E+00  0.00000000000E+00  0.44476221766E+03  0.66700813589E+03  0.49707788433E+03 0.  0.
        3    1    3    3  502    0 -0.54743814912E+02  0.15493593849E+03  0.47259206375E+03  0.50034518008E+03  0.10100000352E+00 0.  1.
       -3    1    3    3    0  502  0.54743814912E+02 -0.15493593849E+03 -0.27829846094E+02  0.16666295582E+03  0.10100000352E+00 0. -1.
</event>
<event>
 5   0  0.1074281E-01  0.5107496E+03  0.7818609E-02  0.1011011E+00
        1   -1    0    0  501    0  0.00000000000E+00  0.00000000000E+00  0.85263699735E+02  0.85263699884E+02  0.50400001928E-02 0.  1.
       -1   -1    0    0    0  501  0.00000000000E+00  0.00000000000E+00 -0.76487744061E+03  0.76487744063E+03  0.50400001928E-02 0. -1.
    10030    2    1    2    0    0  0.00000000000E+00  0.00000000000E+00 -0.67961374087E+03  0.85014114051E+03  0.51074956877E+03 0.  0.
        4    1    3    3  502    0 -0.16652203416E+03  0.17056620163E+03 -0.49229015794E+03  0.54696766769E+03  0.12699999809E+01 0.  1.
       -4    1    3    3    0  502  0.16652203416E+03 -0.17056620163E+03 -0.18732358294E+03  0.30317347282E+03  0.12699999809E+01 0. -1.
</event>
<event>
 5   0  0.1760649E-01  0.4859370E+03  0.7818609E-02  0.1017516E+00
        2   -1    0    0  501    0  0.00000000000E+00  0.00000000000E+00  0.17152486374E+04  0.17152486374E+04  0.25500000920E-02 0. -1.
       -2   -1    0    0    0  501  0.00000000000E+00  0.00000000000E+00 -0.34416989462E+02  0.34416989556E+02  0.25500000920E-02 0.  1.
    10030    2    1    2    0    0  0.00000000000E+00  0.00000000000E+00  0.16808316479E+04  0.17496656269E+04  0.48593700975E+03 0.  0.
        5    1    3    3  502    0 -0.48462159775E+02  0.31379707044E+02  0.16900230791E+04  0.16910154833E+04  0.46999998093E+01 0. -1.
       -5    1    3    3    0  502  0.48462159775E+02 -0.31379707044E+02 -0.91914311571E+01  0.58650143642E+02  0.46999998093E+01 0.  1.
</event>
<event>
 5   0  0.1141970E-01  0.4938793E+03  0.7818609E-02  0.1015389E+00
       -1   -1    0    0    0  501  0.00000000000E+00  0.00000000000E+00  0.89466649286E+02  0.89466649428E+02  0.50400001928E-02 0.  1.
        1   -1    0    0  501    0  0.00000000000E+00  0.00000000000E+00 -0.68158565285E+03  0.68158565286E+03  0.50400001928E-02 0. -1.
    10030    2    1    2    0    0  0.00000000000E+00  0.00000000000E+00 -0.59211900356E+03  0.77105230229E+03  0.49387927522E+03 0.  0.
        3    1    3    3  502    0 -0.10505281450E+03 -0.86274732187E+02  0.25792511274E+02  0.13836432737E+03  0.10100000352E+00 0.  1.
       -3    1    3    3    0  502  0.10505281450E+03  0.86274732187E+02 -0.61791151483E+03  0.63268797492E+03  0.10100000352E+00 0. -1.
</event>
<event>
 5   0  0.1683148E-01  0.4707827E+03  0.7818609E-02  0.1021700E+00
        2   -1    0    0  501    0  0.00000000000E+00  0.00000000000E+00  0.72430583402E+03  0.72430583402E+03  0.25500000920E-02 0.  1.
       -2   -1    0    0    0  501  0.00000000000E+00  0.00000000000E+00 -0.76499566263E+02  0.76499566305E+02  0.25500000920E-02 0. -1.
    10030    2    1    2    0    0  0.00000000000E+00  0.00000000000E+00  0.64780626776E+03  0.80080540033E+03  0.47078267667E+03 0.  0.
        2    1    3    3  502    0 -0.16255329189E+02 -0.44591332083E+02  0.71608232190E+03  0.71765347792E+03  0.25500000920E-02 0.  1.
       -2    1    3    3    0  502  0.16255329189E+02  0.44591332083E+02 -0.68276054146E+02  0.83151922408E+02  0.25500000920E-02 0. -1.
</event>
<event>
 5   0  0.1123271E-01  0.5050669E+03  0.7818609E-02  0.1012465E+00
        1   -1    0    0  501    0  0.00000000000E+00  0.00000000000E+00  0.41617446476E+03  0.41617446479E+03  0.50400001928E-02 0.  1.
       -1   -1    0    0    0  501  0.00000000000E+00  0.00000000000E+00 -0.15323657137E+03  0.15323657145E+03  0.50400001928E-02 0. -1.
    10030    2    1    2    0    0  0.00000000000E+00  0.00000000000E+00  0.26293789339E+03  0.56941103623E+03  0.50506691874E+03 0.  0.
        5    1    3    3  502    0 -0.86138438172E+01 -0.20856384021E+03  0.29161485503E+03  0.35865636398E+03  0.46999998093E+01 0.  1.
       -5    1    3    3    0  502  0.86138438172E+01  0.20856384021E+03 -0.28676961642E+02  0.21075467225E+03  0.46999998093E+01 0. -1.
</event>
<event>
 5   0  0.1068522E-01  0.4994583E+03  0.7818609E-02  0.1013920E+00
        1   -1    0    0  501    0  0.00000000000E+00  0.00000000000E+00  0.31457105899E+03  0.31457105903E+03  0.50400001928E-02 0.  1.
       -1   -1    0    0    0  501  0.00000000000E+00  0.00000000000E+00 -0.19825294671E+03  0.19825294678E+03  0.50400001928E-02 0. -1.
    10030    2    1    2    0    0  0.00000000000E+00  0.00000000000E+00  0.11631811227E+03  0.51282400580E+03  0.49945826421E+03 0.  0.
        2    1    3    3  502    0 -0.13496352874E+03  0.17671641195E+03  0.17487058617E+03  0.28288436906E+03  0.25500000920E-02 0.  1.
       -2    1    3    3    0  502  0.13496352874E+03 -0.17671641195E+03 -0.58552473897E+02  0.22993963675E+03  0.25500000920E-02 0. -1.
</event>
<event>
 5   0  0.1123271E-01  0.5020043E+03  0.7818609E-02  0.1013257E+00
        1   -1    0    0  501    0  0.00000000000E+00  0.00000000000E+00  0.34736736509E+03  0.34736736512E+03  0.50400001928E-02 0. -1.
       -1   -1    0    0    0  501  0.00000000000E+00  0.00000000000E+00 -0.18137020407E+03  0.18137020414E+03  0.50400001928E-02 0.  1.
    10030    2    1    2    0    0  0.00000000000E+00  0.00000000000E+00  0.16599716101E+03  0.52873756927E+03  0.50200434230E+03 0.  0.
        5    1    3    3  502    0 -0.33676182040E+02 -0.58274560429E+02  0.33763757932E+03  0.34431269886E+03  0.46999998093E+01 0. -1.
       -5    1    3    3    0  502  0.33676182040E+02  0.58274560429E+02 -0.17164041831E+03  0.18442487041E+03  0.46999998093E+01 0.  1.
</event>
<event>
 5   0  0.1760649E-01  0.4959906E+03  0.7818609E-02  0.1014831E+00
       -2   -1    0    0    0  501  0.00000000000E+00  0.00000000000E+00  0.28042530616E+02  0.28042530732E+02  0.25500000920E-02 0. -1.
        2   -1    0    0  501    0  0.00000000000E+00  0.00000000000E+00 -0.21931570923E+04  0.21931570923E+04  0.25500000920E-02 0.  1.
    10030    2    1    2    0    0  0.00000000000E+00  0.00000000000E+00 -0.21651145617E+04  0.22211996230E+04  0.49599062506E+03 0.  0.
        5    1    3    3  502    0 -0.27805894767E+01 -0.98376896409E+02 -0.63371919730E+02  0.11714877564E+03  0.46999998093E+01 0. -1.
       -5    1    3    3    0  502  0.27805894767E+01  0.98376896409E+02 -0.21017426419E+04  0.21040508474E+04  0.46999998093E+01 0.  1.
</event>
<event>
 5   0  0.1123271E-01  0.4960141E+03  0.7818609E-02  0.1014825E+00
       -1   -1    0    0    0  501  0.00000000000E+00  0.00000000000E+00  0.52078587889E+03  0.52078587892E+03  0.50400001928E-02 0. -1.
        1   -1    0    0  501    0  0.00000000000E+00  0.00000000000E+00 -0.11810514935E+03  0.11810514946E+03  0.50400001928E-02 0.  1.
    10030    2    1    2    0    0  0.00000000000E+00  0.00000000000E+00  0.40268072954E+03  0.63889102837E+03  0.49601408870E+03 0.  0.
        5    1    3    3  502    0  0.45116631429E+02  0.87230244647E+02  0.49461096818E+03  0.50428833603E+03  0.46999998093E+01 0. -1.
       -5    1    3    3    0  502 -0.45116631429E+02 -0.87230244647E+02 -0.91930238637E+02  0.13460269235E+03  0.46999998093E+01 0.  1.
</event>
<event>
 5   0  0.1827698E-01  0.4997037E+03  0.7818609E-02  0.1013856E+00
        2   -1    0    0  501    0  0.00000000000E+00  0.00000000000E+00  0.12128714526E+04  0.12128714526E+04  0.25500000920E-02 0.  1.
       -2   -1    0    0    0  501  0.00000000000E+00  0.00000000000E+00 -0.51469538979E+02  0.51469539042E+02  0.25500000920E-02 0. -1.
    10030    2    1    2    0    0  0.00000000000E+00  0.00000000000E+00  0.11614019136E+04  0.12643409916E+04  0.49970365036E+03 0.  0.
        1    1    3    3  502    0 -0.17332937605E+02  0.13683333660E+03  0.11078182656E+04  0.11163713999E+04  0.50400001928E-02 0.  1.
       -1    1    3    3    0  502  0.17332937605E+02 -0.13683333660E+03  0.53583647968E+02  0.14796959176E+03  0.50400001928E-02 0. -1.
</event>
<event>
 5   0  0.1760649E-01  0.5064492E+03  0.7818609E-02  0.1012109E+00
       -2   -1    0    0    0  501  0.00000000000E+00  0.00000000000E+00  0.35854039493E+02  0.35854039584E+02  0.25500000920E-02 0. -1.
        2   -1    0    0  501    0  0.00000000000E+00  0.00000000000E+00 -0.17884370396E+04  0.17884370396E+04  0.25500000920E-02 0.  1.
    10030    2    1    2    0    0  0.00000000000E+00  0.00000000000E+00 -0.17525830001E+04  0.18242910791E+04  0.50644917744E+03 0.  0.
        5    1    3    3  502    0 -0.17114442166E+03 -0.97551678857E+02 -0.30340866115E+03  0.36178121672E+03  0.46999998093E+01 0. -1.
       -5    1    3    3    0  502  0.17114442166E+03  0.97551678857E+02 -0.14491743389E+04  0.14625098624E+04  0.46999998093E+01 0.  1.
</event>
<event>
 5   0  0.1760649E-01  0.4946911E+03  0.7818609E-02  0.1015174E+00
       -2   -1    0    0    0  501  0.00000000000E+00  0.00000000000E+00  0.35356472312E+02  0.35356472404E+02  0.25500000920E-02 0. -1.
        2   -1    0    0  501    0  0.00000000000E+00  0.00000000000E+00 -0.17303713845E+04  0.17303713845E+04  0.25500000920E-02 0.  1.
    10030    2    1    2    0    0  0.00000000000E+00  0.00000000000E+00 -0.16950149122E+04  0.17657278569E+04  0.49469112799E+03 0.  0.
        5    1    3    3  502    0 -0.10070501686E+02  0.13478539724E+02 -0.17281666894E+04  0.17282549818E+04  0.46999998093E+01 0.  1.
       -5    1    3    3    0  502  0.10070501686E+02 -0.13478539724E+02  0.33151777176E+02  0.37472875063E+02  0.46999998093E+01 0. -1.
</event>
<event>
 5   0  0.1141970E-01  0.4982457E+03  0.7818609E-02  0.1014238E+00
        1   -1    0    0  501    0  0.00000000000E+00  0.00000000000E+00  0.10888476862E+03  0.10888476874E+03  0.50400001928E-02 0. -1.
       -1   -1    0    0    0  501  0.00000000000E+00  0.00000000000E+00 -0.56998053652E+03  0.56998053654E+03  0.50400001928E-02 0.  1.
    10030    2    1    2    0    0  0.00000000000E+00  0.00000000000E+00 -0.46109576790E+03  0.67886530528E+03  0.49824571804E+03 0.  0.
        3    1    3    3  502    0 -0.50683248523E+02  0.11151234844E+03 -0.52611668208E+03  0.54018753123E+03  0.10100000352E+00 0.  1.
       -3    1    3    3    0  502  0.50683248523E+02 -0.11151234844E+03  0.65020914177E+02  0.13867777406E+03  0.10100000352E+00 0. -1.
</event>
<event>
 5   0  0.1123271E-01  0.4989977E+03  0.7818609E-02  0.1014041E+00
       -1   -1    0    0    0  501  0.00000000000E+00  0.00000000000E+00  0.12490456620E+03  0.12490456630E+03  0.50400001928E-02 0.  1.
        1   -1    0    0  501    0  0.00000000000E+00  0.00000000000E+00 -0.49837799225E+03  0.49837799227E+03  0.50400001928E-02 0. -1.
    10030    2    1    2    0    0  0.00000000000E+00  0.00000000000E+00 -0.37347342605E+03  0.62328255857E+03  0.49899774334E+03 0.  0.
        5    1    3    3  502    0 -0.13765885473E+03  0.19537496947E+03 -0.27599278472E+03  0.36512387788E+03  0.46999998093E+01 0.  1.
       -5    1    3    3    0  502  0.13765885473E+03 -0.19537496947E+03 -0.97480641324E+02  0.25815868069E+03  0.46999998093E+01 0. -1.
</event>
<event>
 5   0  0.1760649E-01  0.4882081E+03  0.7818609E-02  0.1016903E+00
       -2   -1    0    0    0  501  0.00000000000E+00  0.00000000000E+00  0.87143025109E+02  0.87143025147E+02  0.25500000920E-02 0. -1.
        2   -1    0    0  501    0  0.00000000000E+00  0.00000000000E+00 -0.68378149682E+03  0.68378149683E+03  0.25500000920E-02 0.  1.
    10030    2    1    2    0    0  0.00000000000E+00  0.00000000000E+00 -0.59663847171E+03  0.77092452197E+03  0.48820810384E+03 0.  0.
        5    1    3    3  502    0  0.18410865749E+01 -0.23824872820E+03 -0.38185969329E+03  0.45011638656E+03  0.46999998093E+01 0.  1.
       -5    1    3    3    0  502 -0.18410865749E+01  0.23824872820E+03 -0.21477877842E+03  0.32080813542E+03  0.46999998093E+01 0. -1.
</event>
<event>
 5   0  0.1068522E-01  0.4911453E+03  0.7818609E-02  0.1016116E+00
       -1   -1    0    0    0  501  0.00000000000E+00  0.00000000000E+00  0.11061101032E+04  0.11061101032E+04  0.50400001928E-02 0.  1.
        1   -1    0    0  501    0  0.00000000000E+00  0.00000000000E+00 -0.54520733257E+02  0.54520733490E+02  0.50400001928E-02 0. -1.
    10030    2    1    2    0    0  0.00000000000E+00  0.00000000000E+00  0.10515893700E+04  0.11606308367E+04  0.49114533096E+03 0.  0.
        2    1    3    3  502    0  0.20626260561E+03  0.10369443693E+03  0.72363568884E+03  0.75956922587E+03  0.25500000920E-02 0.  1.
       -2    1    3    3    0  502 -0.20626260561E+03 -0.10369443693E+03  0.32795368111E+03  0.40106161084E+03  0.25500000920E-02 0. -1.
</event>
<event>
 5   0  0.1827698E-01  0.5024734E+03  0.7818609E-02  0.1013135E+00
       -2   -1    0    0    0  501  0.00000000000E+00  0.00000000000E+00  0.67678693259E+02  0.67678693307E+02  0.25500000920E-02 0.  1.
        2   -1    0    0  501    0  0.00000000000E+00  0.00000000000E+00 -0.93264026324E+03  0.93264026325E+03  0.25500000920E-02 0. -1.
    10030    2    1    2    0    0  0.00000000000E+00  0.00000000000E+00 -0.86496156998E+03  0.10003189566E+04  0.50247337969E+03 0.  0.
        1    1    3    3  502    0  0.15957107634E+03 -0.12346406122E+03 -0.13443638045E+03  0.24244472201E+03  0.50400001928E-02 0.  1.
       -1    1    3    3    0  502 -0.15957107634E+03  0.12346406122E+03 -0.73052518954E+03  0.75787423455E+03  0.50400001928E-02 0. -1.
</event>
<event>
 5   0  0.1123271E-01  0.4972425E+03  0.7818609E-02  0.1014501E+00
       -1   -1    0    0    0  501  0.00000000000E+00  0.00000000000E+00  0.76008123263E+03  0.76008123264E+03  0.50400001928E-02 0.  1.
        1   -1    0    0  501    0  0.00000000000E+00  0.00000000000E+00 -0.81323574167E+02  0.81323574324E+02  0.50400001928E-02 0. -1.
    10030    2    1    2    0    0  0.00000000000E+00  0.00000000000E+00  0.67875765846E+03  0.84140480697E+03  0.49724248639E+03 0.  0.
        5    1    3    3  502    0  0.15295522789E+03  0.16865722674E+02  0.66971801824E+03  0.68718561415E+03  0.46999998093E+01 0.  1.
       -5    1    3    3    0  502 -0.15295522789E+03 -0.16865722674E+02  0.90396402178E+01  0.15421919282E+03  0.46999998093E+01 0. -1.
</event>
<event>
 5   0  0.1147245E-01  0.4830629E+03  0.7818609E-02  0.1018297E+00
       -1   -1    0    0    0  501  0.00000000000E+00  0.00000000000E+00  0.14046981483E+03  0.14046981492E+03  0.50400001928E-02 0. -1.
        1   -1    0    0  501    0  0.00000000000E+00  0.00000000000E+00 -0.41530238329E+03  0.41530238333E+03  0.50400001928E-02 0.  1.
    10030    2    1    2    0    0  0.00000000000E+00  0.00000000000E+00 -0.27483256846E+03  0.55577219825E+03  0.48306293136E+03 0.  0.
        1    1    3    3  502    0 -0.28368268240E+02  0.11146560449E+03 -0.38177082702E+03  0.39872083469E+03  0.50400001928E-02 0.  1.
       -1    1    3    3    0  502  0.28368268240E+02 -0.11146560449E+03  0.10693825856E+03  0.15705136356E+03  0.50400001928E-02 0. -1.
</event>
<event>
 5   0  0.1147245E-01  0.5015775E+03  0.7818609E-02  0.1013368E+00
        1   -1    0    0  501    0  0.00000000000E+00  0.00000000000E+00  0.40199682297E+03  0.40199682301E+03  0.50400001928E-02 0. -1.
       -1   -1    0    0    0  501  0.00000000000E+00  0.00000000000E+00 -0.15645647873E+03  0.15645647881E+03  0.50400001928E-02 0.  1.
    10030    2    1    2    0    0  0.00000000000E+00  0.00000000000E+00  0.24554034424E+03  0.55845330182E+03  0.50157754103E+03 0.  0.
        1    1    3    3  502    0  0.15292235469E+03 -0.67924675283E+02 -0.85217024307E+02  0.18777899066E+03  0.50400001928E-02 0.  1.
       -1    1    3    3    0  502 -0.15292235469E+03  0.67924675283E+02  0.33075736855E+03  0.37067431116E+03  0.50400001928E-02 0. -1.
</event>
<event>
 5   0  0.1068522E-01  0.4630103E+03  0.7818609E-02  0.1023912E+00
       -1   -1    0    0    0  501  0.00000000000E+00  0.00000000000E+00  0.57784979849E+02  0.57784980069E+02  0.50400001928E-02 0. -1.
        1   -1    0    0  501    0  0.00000000000E+00  0.00000000000E+00 -0.92748401558E+03  0.92748401559E+03  0.50400001928E-02 0.  1.
    10030    2    1    2    0    0  0.00000000000E+00  0.00000000000E+00 -0.86969903573E+03  0.98526899566E+03  0.46301034660E+03 0.  0.
        2    1    3    3  502    0 -0.28638780977E+02 -0.22303184302E+03 -0.55200858172E+03  0.59605105241E+03  0.25500000920E-02 0. -1.
       -2    1    3    3    0  502  0.28638780977E+02  0.22303184302E+03 -0.31769045401E+03  0.38921794325E+03  0.25500000920E-02 0.  1.
</event>
<event>
 5   0  0.1709372E-01  0.4887008E+03  0.7818609E-02  0.1016771E+00
        2   -1    0    0  501    0  0.00000000000E+00  0.00000000000E+00  0.15331723494E+04  0.15331723494E+04  0.25500000920E-02 0. -1.
       -2   -1    0    0    0  501  0.00000000000E+00  0.00000000000E+00 -0.38943505904E+02  0.38943505988E+02  0.25500000920E-02 0.  1.
    10030    2    1    2    0    0  0.00000000000E+00  0.00000000000E+00  0.14942288435E+04  0.15721158554E+04  0.48870075305E+03 0.  0.
        4    1    3    3  502    0  0.10523982745E+03  0.11905314894E+03  0.14997379981E+03  0.21850132055E+03  0.12699999809E+01 0.  1.
       -4    1    3    3    0  502 -0.10523982745E+03 -0.11905314894E+03  0.13442550437E+04  0.13536145348E+04  0.12699999809E+01 0. -1.
</event>
<event>
 5   0  0.1827698E-01  0.5087395E+03  0.7818609E-02  0.1011523E+00
       -2   -1    0    0    0  501  0.00000000000E+00  0.00000000000E+00  0.23757981557E+03  0.23757981558E+03  0.25500000920E-02 0. -1.
        2   -1    0    0  501    0  0.00000000000E+00  0.00000000000E+00 -0.27234622053E+03  0.27234622054E+03  0.25500000920E-02 0.  1.
    10030    2    1    2    0    0  0.00000000000E+00  0.00000000000E+00 -0.34766404963E+02  0.50992603612E+03  0.50873948088E+03 0.  0.
        1    1    3    3  502    0  0.21200802310E+03 -0.13321264422E+03  0.27565054424E+02  0.25189847695E+03  0.50400001928E-02 0. -1.
       -1    1    3    3    0  502 -0.21200802310E+03  0.13321264422E+03 -0.62331459387E+02  0.25802755917E+03  0.50400001928E-02 0.  1.
</event>
<event>
 5   0  0.1074281E-01  0.5178912E+03  0.7818609E-02  0.1009212E+00
        1   -1    0    0  501    0  0.00000000000E+00  0.00000000000E+00  0.28592042181E+03  0.28592042185E+03  0.50400001928E-02 0. -1.
       -1   -1    0    0    0  501  0.00000000000E+00  0.00000000000E+00 -0.23451569304E+03  0.23451569309E+03  0.50400001928E-02 0.  1.
    10030    2    1    2    0    0  0.00000000000E+00  0.00000000000E+00  0.51404728770E+02  0.52043611494E+03  0.51789120826E+03 0.  0.
        4    1    3    3  502    0  0.44165522211E+02  0.95040988950E+02 -0.21224766453E+03  0.23671515991E+03  0.12699999809E+01 0.  1.
       -4    1    3    3    0  502 -0.44165522211E+02 -0.95040988950E+02  0.26365239330E+03  0.28372095503E+03  0.12699999809E+01 0. -1.
</event>
<event>
 5   0  0.1760649E-01  0.5084569E+03  0.7818609E-02  0.1011595E+00
        2   -1    0    0  501    0  0.00000000000E+00  0.00000000000E+00  0.37913949081E+03  0.37913949082E+03  0.25500000920E-02 0.  1.
       -2   -1    0    0    0  501  0.00000000000E+00  0.00000000000E+00 -0.17047054405E+03  0.17047054407E+03  0.25500000920E-02 0. -1.
    10030    2    1    2    0    0  0.00000000000E+00  0.00000000000E+00  0.20866894675E+03  0.54961003489E+03  0.50845694126E+03 0.  0.
        5    1    3    3  502    0 -0.18864833572E+03  0.38136832513E+02  0.28380720673E+03  0.34294494187E+03  0.46999998093E+01 0.  1.
       -5    1    3    3    0  502  0.18864833572E+03 -0.38136832513E+02 -0.75138259971E+02  0.20666509302E+03  0.46999998093E+01 0. -1.
</event>
<event>
 5   0  0.1782124E-01  0.4925243E+03  0.7818609E-02  0.1015749E+00
       -2   -1    0    0    0  501  0.00000000000E+00  0.00000000000E+00  0.21863822612E+02  0.21863822761E+02  0.25500000920E-02 0.  1.
        2   -1    0    0  501    0  0.00000000000E+00  0.00000000000E+00 -0.27737620542E+04  0.27737620542E+04  0.25500000920E-02 0. -1.
    10030    2    1    2    0    0  0.00000000000E+00  0.00000000000E+00 -0.27518982316E+04  0.27956258769E+04  0.49252428054E+03 0.  0.
        3    1    3    3  502    0  0.99598855124E+00 -0.65418227633E+02 -0.28370171058E+02  0.71312083876E+02  0.10100000352E+00 0.  1.
       -3    1    3    3    0  502 -0.99598855124E+00  0.65418227633E+02 -0.27235280605E+04  0.27243137931E+04  0.10100000352E+00 0. -1.
</event>
<event>
 5   0  0.1683148E-01  0.5039887E+03  0.7818609E-02  0.1012743E+00
        2   -1    0    0  501    0  0.00000000000E+00  0.00000000000E+00  0.27847911019E+03  0.27847911020E+03  0.25500000920E-02 0.  1.
       -2   -1    0    0    0  501  0.00000000000E+00  0.00000000000E+00 -0.22802842104E+03  0.22802842106E+03  0.25500000920E-02 0. -1.
    10030    2    1    2    0    0  0.00000000000E+00  0.00000000000E+00  0.50450689148E+02  0.50650753126E+03  0.50398869748E+03 0.  0.
        2    1    3    3  502    0  0.47500760741E+02  0.37363768008E+02 -0.22063741692E+03  0.22876460212E+03  0.25500000920E-02 0. -1.
       -2    1    3    3    0  502 -0.47500760741E+02 -0.37363768008E+02  0.27108810607E+03  0.27774292914E+03  0.25500000920E-02 0.  1.
</event>
<event>
 5   0  0.1683148E-01  0.5001044E+03  0.7818609E-02  0.1013752E+00
       -2   -1    0    0    0  501  0.00000000000E+00  0.00000000000E+00  0.37850494893E+02  0.37850494979E+02  0.25500000920E-02 0.  1.
        2   -1    0    0  501    0  0.00000000000E+00  0.00000000000E+00 -0.16519231857E+04  0.16519231857E+04  0.25500000920E-02 0. -1.
    10030    2    1    2    0    0  0.00000000000E+00  0.00000000000E+00 -0.16140726908E+04  0.16897736807E+04  0.50010442981E+03 0.  0.
        2    1    3    3  502    0 -0.19796457364E+03  0.82263766855E+02 -0.37211221449E+03  0.42944708630E+03  0.25500000920E-02 0.  1.
       -2    1    3    3    0  502  0.19796457364E+03 -0.82263766855E+02 -0.12419604763E+04  0.12603265944E+04  0.25500000920E-02 0. -1.
</event>
<event>
 5   0  0.1683148E-01  0.4972619E+03  0.7818609E-02  0.1014496E+00
        2   -1    0    0  501    0  0.00000000000E+00  0.00000000000E+00  0.70949305550E+03  0.70949305550E+03  0.25500000920E-02 0.  1.
       -2   -1    0    0    0  501  0.00000000000E+00  0.00000000000E+00 -0.87128915752E+02  0.87128915789E+02  0.25500000920E-02 0. -1.
    10030    2    1    2    0    0  0.00000000000E+00  0.00000000000E+00  0.62236413974E+03  0.79662197129E+03  0.49726194576E+03 0.  0.
        2    1    3    3  502    0 -0.22524489459E+03 -0.11114314898E+02  0.14347784601E+03  0.26729138190E+03  0.25500000920E-02 0. -1.
       -2    1    3    3    0  502  0.22524489459E+03  0.11114314898E+02  0.47888629373E+03  0.52933058939E+03  0.25500000920E-02 0.  1.
</event>
<event>
 5   0  0.1683148E-01  0.5048743E+03  0.7818609E-02  0.1012514E+00
        2   -1    0    0  501    0  0.00000000000E+00  0.00000000000E+00  0.17998127345E+04  0.17998127345E+04  0.25500000920E-02 0. -1.
       -2   -1    0    0    0  501  0.00000000000E+00  0.00000000000E+00 -0.35406195705E+02  0.35406195797E+02  0.25500000920E-02 0.  1.
    10030    2    1    2    0    0  0.00000000000E+00  0.00000000000E+00  0.17644065388E+04  0.18352189303E+04  0.50487432891E+03 0.  0.
        2    1    3    3  502    0 -0.11303520497E+03  0.20976175522E+03  0.11851882301E+04  0.12089036737E+04  0.25500000920E-02 0.  1.
       -2    1    3    3    0  502  0.11303520497E+03 -0.20976175522E+03  0.57921830874E+03  0.62631525664E+03  0.25500000920E-02 0. -1.
</event>
<event>
 5   0  0.1782124E-01  0.4723747E+03  0.7818609E-02  0.1021252E+00
        2   -1    0    0  501    0  0.00000000000E+00  0.00000000000E+00  0.75541864138E+03  0.75541864138E+03  0.25500000920E-02 0.  1.
       -2   -1    0    0    0  501  0.00000000000E+00  0.00000000000E+00 -0.73845748276E+02  0.73845748320E+02  0.25500000920E-02 0. -1.
    10030    2    1    2    0    0  0.00000000000E+00  0.00000000000E+00  0.68157289310E+03  0.82926438970E+03  0.47237466001E+03 0.  0.
        3    1    3    3  502    0  0.26286794044E+02 -0.10888586058E+03  0.70582253309E+03  0.71465557061E+03  0.10100000352E+00 0.  1.
       -3    1    3    3    0  502 -0.26286794044E+02  0.10888586058E+03 -0.24249639988E+02  0.11460881910E+03  0.10100000352E+00 0. -1.
</event>
<event>
 5   0  0.1709372E-01  0.5008800E+03  0.7818609E-02  0.1013549E+00
        2   -1    0    0  501    0  0.00000000000E+00  0.00000000000E+00  0.27452862204E+03  0.27452862205E+03  0.25500000920E-02 0.  1.
       -2   -1    0    0    0  501  0.00000000000E+00  0.00000000000E+00 -0.22846507176E+03  0.22846507177E+03  0.25500000920E-02 0. -1.
    10030    2    1    2    0    0  0.00000000000E+00  0.00000000000E+00  0.46063550282E+02  0.50299369383E+03  0.50088003091E+03 0.  0.
        4    1    3    3  502    0  0.93128394361E+02 -0.21842889120E+03 -0.56893720646E+02  0.24417736729E+03  0.12699999809E+01 0. -1.
       -4    1    3    3    0  502 -0.93128394361E+02  0.21842889120E+03  0.10295727093E+03  0.25881632654E+03  0.12699999809E+01 0.  1.
</event>
<event>
 5   0  0.1827698E-01  0.4962637E+03  0.7818609E-02  0.1014759E+00
       -2   -1    0    0    0  501  0.00000000000E+00  0.00000000000E+00  0.50037162206E+02  0.50037162271E+02  0.25500000920E-02 0. -1.
        2   -1    0    0  501    0  0.00000000000E+00  0.00000000000E+00 -0.12304736979E+04  0.12304736979E+04  0.25500000920E-02 0.  1.
    10030    2    1    2    0    0  0.00000000000E+00  0.00000000000E+00 -0.11804365357E+04  0.12805108601E+04  0.49626368819E+03 0.  0.
        1    1    3    3  502    0 -0.10345590626E+03 -0.21523923301E+03 -0.41639006443E+03  0.48001222667E+03  0.50400001928E-02 0.  1.
       -1    1    3    3    0  502  0.10345590626E+03  0.21523923301E+03 -0.76404647122E+03  0.80049863347E+03  0.50400001928E-02 0. -1.
</event>
<event>
 5   0  0.1074281E-01  0.4950361E+03  0.7818609E-02  0.1015083E+00
       -1   -1    0    0    0  501  0.00000000000E+00  0.00000000000E+00  0.73310506114E+02  0.73310506287E+02  0.50400001928E-02 0.  1.
        1   -1    0    0  501    0  0.00000000000E+00  0.00000000000E+00 -0.83569460790E+03  0.83569460792E+03  0.50400001928E-02 0. -1.
    10030    2    1    2    0    0  0.00000000000E+00  0.00000000000E+00 -0.76238410179E+03  0.90900511421E+03  0.49503613908E+03 0.  0.
        4    1    3    3  502    0  0.16729815252E+03 -0.17000664350E+03 -0.50261529682E+03  0.55634043550E+03  0.12699999809E+01 0. -1.
       -4    1    3    3    0  502 -0.16729815252E+03  0.17000664350E+03 -0.25976880497E+03  0.35266467870E+03  0.12699999809E+01 0.  1.
</event>
<event>
 5   0  0.1141970E-01  0.5010231E+03  0.7818609E-02  0.1013512E+00
       -1   -1    0    0    0  501  0.00000000000E+00  0.00000000000E+00  0.38579624327E+03  0.38579624330E+03  0.50400001928E-02 0.  1.
        1   -1    0    0  501    0  0.00000000000E+00  0.00000000000E+00 -0.16266625894E+03  0.16266625901E+03  0.50400001928E-02 0. -1.
    10030    2    1    2    0    0  0.00000000000E+00  0.00000000000E+00  0.22312998433E+03  0.54846250231E+03  0.50102307984E+03 0.  0.
        3    1    3    3  502    0  0.11371289492E+03 -0.18399951450E+03 -0.26771233839E+02  0.21795218046E+03  0.10100000352E+00 0. -1.
       -3    1    3    3    0  502 -0.11371289492E+03  0.18399951450E+03  0.24990121817E+03  0.33051032185E+03  0.10100000352E+00 0.  1.
</event>
<event>
 5   0  0.1074281E-01  0.4623661E+03  0.7818609E-02  0.1024097E+00
       -1   -1    0    0    0  501  0.00000000000E+00  0.00000000000E+00  0.10423165616E+03  0.10423165628E+03  0.50400001928E-02 0.  1.
        1   -1    0    0  501    0  0.00000000000E+00  0.00000000000E+00 -0.51275779588E+03  0.51275779590E+03  0.50400001928E-02 0. -1.
    10030    2    1    2    0    0  0.00000000000E+00  0.00000000000E+00 -0.40852613972E+03  0.61698945219E+03  0.46236606415E+03 0.  0.
        4    1    3    3  502    0 -0.32118047877E+01 -0.33993620744E+02 -0.50936972718E+03  0.51051445994E+03  0.12699999809E+01 0. -1.
       -4    1    3    3    0  502  0.32118047877E+01  0.33993620744E+02  0.10084358746E+03  0.10647499224E+03  0.12699999809E+01 0.  1.
</event>
<event>
 5   0  0.1709372E-01  0.5038091E+03  0.7818609E-02  0.1012789E+00
        2   -1    0    0  501    0  0.00000000000E+00  0.00000000000E+00  0.12894998865E+04  0.12894998865E+04  0.25500000920E-02 0.  1.
       -2   -1    0    0    0  501  0.00000000000E+00  0.00000000000E+00 -0.49209707833E+02  0.49209707899E+02  0.25500000920E-02 0. -1.
    10030    2    1    2    0    0  0.00000000000E+00  0.00000000000E+00  0.12402901786E+04  0.13387095944E+04  0.50380914128E+03 0.  0.
        4    1    3    3  502    0  0.15607924042E+02 -0.24271459821E+03  0.44589599302E+03  0.50791616726E+03  0.12699999809E+01 0. -1.
       -4    1    3    3    0  502 -0.15607924042E+02  0.24271459821E+03  0.79439418561E+03  0.83079342709E+03  0.12699999809E+01 0.  1.
</event>
<event>
 5   0  0.1683148E-01  0.4845553E+03  0.7818609E-02  0.1017891E+00
        2   -1    0    0  501    0  0.00000000000E+00  0.00000000000E+00  0.89969612374E+03  0.89969612375E+03  0.25500000920E-02 0. -1.
       -2   -1    0    0    0  501  0.00000000000E+00  0.00000000000E+00 -0.65242527844E+02  0.65242527894E+02  0.25500000920E-02 0.  1.
    10030    2    1    2    0    0  0.00000000000E+00  0.00000000000E+00  0.83445359590E+03  0.96493865164E+03  0.48455525765E+03 0.  0.
        2    1    3    3  502    0  0.22914837024E+01 -0.14479347218E+03  0.30424927056E+02  0.14797322960E+03  0.25500000920E-02 0.  1.
       -2    1    3    3    0  502 -0.22914837024E+01  0.14479347218E+03  0.80402866884E+03  0.81696542204E+03  0.25500000920E-02 0. -1.
</event>
<event>
 5   0  0.1683148E-01  0.5005128E+03  0.7818609E-02  0.1013645E+00
       -2   -1    0    0    0  501  0.00000000000E+00  0.00000000000E+00  0.74352638612E+02  0.74352638656E+02  0.25500000920E-02 0.  1.
        2   -1    0    0  501    0  0.00000000000E+00  0.00000000000E+00 -0.84231413058E+03  0.84231413059E+03  0.25500000920E-02 0. -1.
    10030    2    1    2    0    0  0.00000000000E+00  0.00000000000E+00 -0.76796149197E+03  0.91666676924E+03  0.50051284967E+03 0.  0.
        2    1    3    3  502    0 -0.11339475357E+03  0.18158562216E+03 -0.62134021201E+03  0.65718746746E+03  0.25500000920E-02 0. -1.
       -2    1    3    3    0  502  0.11339475357E+03 -0.18158562216E+03 -0.14662127996E+03  0.25947930178E+03  0.25500000920E-02 0.  1.
</event>
<event>
 5   0  0.1827698E-01  0.5765985E+03  0.7818609E-02  0.9955182E-01
        2   -1    0    0  501    0  0.00000000000E+00  0.00000000000E+00  0.87994383798E+03  0.87994383798E+03  0.25500000920E-02 0.  1.
       -2   -1    0    0    0  501  0.00000000000E+00  0.00000000000E+00 -0.94456556463E+02  0.94456556498E+02  0.25500000920E-02 0. -1.
    10030    2    1    2    0    0  0.00000000000E+00  0.00000000000E+00  0.78548728152E+03  0.97440039448E+03  0.57659852527E+03 0.  0.
        1    1    3    3  502    0  0.86113922153E+02  0.20554457778E+03  0.83659437306E+02  0.23804008595E+03  0.50400001928E-02 0. -1.
       -1    1    3    3    0  502 -0.86113922153E+02 -0.20554457778E+03  0.70182784421E+03  0.73636030853E+03  0.50400001928E-02 0.  1.
</event>
<event>
 5   0  0.1760649E-01  0.4998849E+03  0.7818609E-02  0.1013809E+00
        2   -1    0    0  501    0  0.00000000000E+00  0.00000000000E+00  0.64499666029E+03  0.64499666029E+03  0.25500000920E-02 0. -1.
       -2   -1    0    0    0  501  0.00000000000E+00  0.00000000000E+00 -0.96855122391E+02  0.96855122425E+02  0.25500000920E-02 0.  1.
    10030    2    1    2    0    0  0.00000000000E+00  0.00000000000E+00  0.54814153789E+03  0.74185178272E+03  0.49988490871E+03 0.  0.
        5    1    3    3  502    0 -0.34094674261E+02 -0.49284825386E+02 -0.85967579734E+02  0.10489974066E+03  0.46999998093E+01 0.  1.
       -5    1    3    3    0  502  0.34094674261E+02  0.49284825386E+02  0.63410911763E+03  0.63695204206E+03  0.46999998093E+01 0. -1.
</event>
<event>
 5   0  0.1068522E-01  0.4859066E+03  0.7818609E-02  0.1017524E+00
       -1   -1    0    0    0  501  0.00000000000E+00  0.00000000000E+00  0.16531495072E+03  0.16531495079E+03  0.50400001928E-02 0. -1.
        1   -1    0    0  501    0  0.00000000000E+00  0.00000000000E+00 -0.35705364042E+03  0.35705364046E+03  0.50400001928E-02 0.  1.
    10030    2    1    2    0    0  0.00000000000E+00  0.00000000000E+00 -0.19173868970E+03  0.52236859125E+03  0.48590659596E+03 0.  0.
        2    1    3    3  502    0  0.12835246099E+03 -0.10027091332E+03  0.97929211984E+02  0.19004931167E+03  0.25500000920E-02 0. -1.
       -2    1    3    3    0  502 -0.12835246099E+03  0.10027091332E+03 -0.28966790169E+03  0.33231927957E+03  0.25500000920E-02 0.  1.
</event>
<event>
 5   0  0.1141970E-01  0.4983481E+03  0.7818609E-02  0.1014211E+00
       -1   -1    0    0    0  501  0.00000000000E+00  0.00000000000E+00  0.19443957170E+03  0.19443957177E+03  0.50400001928E-02 0. -1.
        1   -1    0    0  501    0  0.00000000000E+00  0.00000000000E+00 -0.31931625821E+03  0.31931625825E+03  0.50400001928E-02 0.  1.
    10030    2    1    2    0    0  0.00000000000E+00  0.00000000000E+00 -0.12487668651E+03  0.51375583002E+03  0.49834813740E+03 0.  0.
        3    1    3    3  502    0 -0.19729576799E+03 -0.10077616078E+03  0.55132599417E+02  0.22830039064E+03  0.10100000352E+00 0. -1.
       -3    1    3    3    0  502  0.19729576799E+03  0.10077616078E+03 -0.18000928593E+03  0.28545543938E+03  0.10100000352E+00 0.  1.
</event>
<event>
 5   0  0.1147245E-01  0.5032698E+03  0.7818609E-02  0.1012929E+00
        1   -1    0    0  501    0  0.00000000000E+00  0.00000000000E+00  0.17671107189E+03  0.17671107196E+03  0.50400001928E-02 0. -1.
       -1   -1    0    0    0  501  0.00000000000E+00  0.00000000000E+00 -0.35832575640E+03  0.35832575644E+03  0.50400001928E-02 0.  1.
    10030    2    1    2    0    0  0.00000000000E+00  0.00000000000E+00 -0.18161468452E+03  0.53503682840E+03  0.50326982237E+03 0.  0.
        1    1    3    3  502    0 -0.48964421414E+02  0.97815358383E+02  0.15011283834E+03  0.18573966502E+03  0.50400001928E-02 0. -1.
       -1    1    3    3    0  502  0.48964421414E+02 -0.97815358383E+02 -0.33172752286E+03  0.34929716338E+03  0.50400001928E-02 0.  1.
</event>
<event>
 5   0  0.1068522E-01  0.4607715E+03  0.7818609E-02  0.1024558E+00
        1   -1    0    0  501    0  0.00000000000E+00  0.00000000000E+00  0.10655284034E+04  0.10655284034E+04  0.50400001928E-02 0.  1.
       -1   -1    0    0    0  501  0.00000000000E+00  0.00000000000E+00 -0.49813397876E+02  0.49813398131E+02  0.50400001928E-02 0. -1.
    10030    2    1    2    0    0  0.00000000000E+00  0.00000000000E+00  0.10157150055E+04  0.11153418016E+04  0.46077148547E+03 0.  0.
        2    1    3    3  502    0  0.10722256749E+03  0.20123652412E+03  0.42813300662E+03  0.48506771588E+03  0.25500000920E-02 0.  1.
       -2    1    3    3    0  502 -0.10722256749E+03 -0.20123652412E+03  0.58758199892E+03  0.63027408568E+03  0.25500000920E-02 0. -1.
</event>
<event>
 5   0  0.1782124E-01  0.4995639E+03  0.7818609E-02  0.1013893E+00
        2   -1    0    0  501    0  0.00000000000E+00  0.00000000000E+00  0.35674551391E+03  0.35674551392E+03  0.25500000920E-02 0.  1.
       -2   -1    0    0    0  501  0.00000000000E+00  0.00000000000E+00 -0.17488945910E+03  0.17488945912E+03  0.25500000920E-02 0. -1.
    10030    2    1    2    0    0  0.00000000000E+00  0.00000000000E+00  0.18185605481E+03  0.53163497304E+03  0.49956392973E+03 0.  0.
        3    1    3    3  502    0  0.86009450402E+02  0.23388810103E+03  0.72813187565E+02  0.25962095417E+03  0.10100000352E+00 0. -1.
       -3    1    3    3    0  502 -0.86009450402E+02 -0.23388810103E+03  0.10904286725E+03  0.27201401887E+03  0.10100000352E+00 0.  1.
</event>
<event>
 5   0  0.1068522E-01  0.5024670E+03  0.7818609E-02  0.1013137E+00
       -1   -1    0    0    0  501  0.00000000000E+00  0.00000000000E+00  0.13667293253E+03  0.13667293262E+03  0.50400001928E-02 0. -1.
        1   -1    0    0  501    0  0.00000000000E+00  0.00000000000E+00 -0.46181986478E+03  0.46181986481E+03  0.50400001928E-02 0.  1.
    10030    2    1    2    0    0  0.00000000000E+00  0.00000000000E+00 -0.32514693225E+03  0.59849279743E+03  0.50246701486E+03 0.  0.
        2    1    3    3  502    0 -0.24088017337E+03 -0.10547845610E+02 -0.24666067621E+03  0.34492898423E+03  0.25500000920E-02 0.  1.
       -2    1    3    3    0  502  0.24088017337E+03  0.10547845610E+02 -0.78486256038E+02  0.25356381320E+03  0.25500000920E-02 0. -1.
</event>
<event>
 5   0  0.1760649E-01  0.5282653E+03  0.7818609E-02  0.1006654E+00
       -2   -1    0    0    0  501  0.00000000000E+00  0.00000000000E+00  0.44704124203E+02  0.44704124276E+02  0.25500000920E-02 0. -1.
        2   -1    0    0  501    0  0.00000000000E+00  0.00000000000E+00 -0.15606178616E+04  0.15606178616E+04  0.25500000920E-02 0.  1.
    10030    2    1    2    0    0  0.00000000000E+00  0.00000000000E+00 -0.15159137374E+04  0.16053219858E+04  0.52826529236E+03 0.  0.
        5    1    3    3  502    0 -0.15658349844E+03 -0.19172983807E+03 -0.47836163451E+03  0.53863778754E+03  0.46999998093E+01 0. -1.
       -5    1    3    3    0  502  0.15658349844E+03  0.19172983807E+03 -0.10375521028E+04  0.10666841983E+04  0.46999998093E+01 0.  1.
</event>
<event>
 5   0  0.1709372E-01  0.4862239E+03  0.7818609E-02  0.1017439E+00
        2   -1    0    0  501    0  0.00000000000E+00  0.00000000000E+00  0.34391947299E+03  0.34391947300E+03  0.25500000920E-02 0.  1.
       -2   -1    0    0    0  501  0.00000000000E+00  0.00000000000E+00 -0.17185252004E+03  0.17185252006E+03  0.25500000920E-02 0. -1.
    10030    2    1    2    0    0  0.00000000000E+00  0.00000000000E+00  0.17206695294E+03  0.51577199306E+03  0.48622393249E+03 0.  0.
        4    1    3    3  502    0  0.11850826121E+03  0.21226324780E+03  0.87503663691E+02  0.25837646642E+03  0.12699999809E+01 0. -1.
       -4    1    3    3    0  502 -0.11850826121E+03 -0.21226324780E+03  0.84563289253E+02  0.25739552664E+03  0.12699999809E+01 0.  1.
</event>
<event>
 5   0  0.1123271E-01  0.4855966E+03  0.7818609E-02  0.1017608E+00
        1   -1    0    0  501    0  0.00000000000E+00  0.00000000000E+00  0.26908576311E+03  0.26908576316E+03  0.50400001928E-02 0.  1.
       -1   -1    0    0    0  501  0.00000000000E+00  0.00000000000E+00 -0.21907891623E+03  0.21907891629E+03  0.50400001928E-02 0. -1.
    10030    2    1    2    0    0  0.00000000000E+00  0.00000000000E+00  0.50006846879E+02  0.48816467945E+03  0.48559661194E+03 0.  0.
        5    1    3    3  502    0  0.14519899247E+03 -0.19258638354E+03  0.52656438106E+02  0.24691507247E+03  0.46999998093E+01 0.  1.
       -5    1    3    3    0  502 -0.14519899247E+03  0.19258638354E+03 -0.26495912267E+01  0.24124960699E+03  0.46999998093E+01 0. -1.
</event>
<event>
 5   0  0.1141970E-01  0.4971078E+03  0.7818609E-02  0.1014537E+00
        1   -1    0    0  501    0  0.00000000000E+00  0.00000000000E+00  0.93183250938E+03  0.93183250940E+03  0.50400001928E-02 0. -1.
       -1   -1    0    0    0  501  0.00000000000E+00  0.00000000000E+00 -0.66298433065E+02  0.66298433256E+02  0.50400001928E-02 0.  1.
    10030    2    1    2    0    0  0.00000000000E+00  0.00000000000E+00  0.86553407632E+03  0.99813094265E+03  0.49710777646E+03 0.  0.
        3    1    3    3  502    0  0.45840563551E+02 -0.43430509300E+02  0.91545758171E+03  0.91763291164E+03  0.10100000352E+00 0. -1.
       -3    1    3    3    0  502 -0.45840563551E+02  0.43430509300E+02 -0.49923505397E+02  0.80498031012E+02  0.10100000352E+00 0.  1.
</event>
<event>
 5   0  0.1074281E-01  0.4960058E+03  0.7818609E-02  0.1014827E+00
       -1   -1    0    0    0  501  0.00000000000E+00  0.00000000000E+00  0.83281574039E+02  0.83281574192E+02  0.50400001928E-02 0.  1.
        1   -1    0    0  501    0  0.00000000000E+00  0.00000000000E+00 -0.73852383588E+03  0.73852383590E+03  0.50400001928E-02 0. -1.
    10030    2    1    2    0    0  0.00000000000E+00  0.00000000000E+00 -0.65524226184E+03  0.82180541009E+03  0.49600575637E+03 0.  0.
        4    1    3    3  502    0 -0.11289345877E+03 -0.21919219153E+03 -0.28335929487E+03  0.37561183787E+03  0.12699999809E+01 0.  1.
       -4    1    3    3    0  502  0.11289345877E+03  0.21919219153E+03 -0.37188296697E+03  0.44619357222E+03  0.12699999809E+01 0. -1.
</event>
<event>
 5   0  0.1123271E-01  0.5031245E+03  0.7818609E-02  0.1012967E+00
        1   -1    0    0  501    0  0.00000000000E+00  0.00000000000E+00  0.78400966228E+03  0.78400966230E+03  0.50400001928E-02 0. -1.
       -1   -1    0    0    0  501  0.00000000000E+00  0.00000000000E+00 -0.80717827063E+02  0.80717827220E+02  0.50400001928E-02 0.  1.
    10030    2    1    2    0    0  0.00000000000E+00  0.00000000000E+00  0.70329183522E+03  0.86472748952E+03  0.50312446337E+03 0.  0.
        5    1    3    3  502    0 -0.66472322449E+02  0.11825890261E+03  0.71566359213E+03  0.72842309463E+03  0.46999998093E+01 0. -1.
       -5    1    3    3    0  502  0.66472322449E+02 -0.11825890261E+03 -0.12371756904E+02  0.13630439489E+03  0.46999998093E+01 0.  1.
</event>
<event>
 5   0  0.1683148E-01  0.4891422E+03  0.7818609E-02  0.1016652E+00
        2   -1    0    0  501    0  0.00000000000E+00  0.00000000000E+00  0.12884611115E+04  0.12884611115E+04  0.25500000920E-02 0.  1.
       -2   -1    0    0    0  501  0.00000000000E+00  0.00000000000E+00 -0.46423613525E+02  0.46423613595E+02  0.25500000920E-02 0. -1.
    10030    2    1    2    0    0  0.00000000000E+00  0.00000000000E+00  0.12420374980E+04  0.13348847251E+04  0.48914219090E+03 0.  0.
        2    1    3    3  502    0 -0.10853464976E+03 -0.10543860874E+03  0.11453761830E+04  0.11553283823E+04  0.25500000920E-02 0.  1.
       -2    1    3    3    0  502  0.10853464976E+03  0.10543860874E+03  0.96661314964E+02  0.17955634276E+03  0.25500000920E-02 0. -1.
</event>
<event>
 5   0  0.1068522E-01  0.5012503E+03  0.7818609E-02  0.1013453E+00
        1   -1    0    0  501    0  0.00000000000E+00  0.00000000000E+00  0.37039864636E+03  0.37039864639E+03  0.50400001928E-02 0. -1.
       -1   -1    0    0    0  501  0.00000000000E+00  0.00000000000E+00 -0.16958205200E+03  0.16958205207E+03  0.50400001928E-02 0.  1.
    10030    2    1    2    0    0  0.00000000000E+00  0.00000000000E+00  0.20081659436E+03  0.53998069847E+03  0.50125028693E+03 0.  0.
        2    1    3    3  502    0  0.42667280427E+02  0.10518445945E+03  0.34112083432E+03  0.35951034886E+03  0.25500000920E-02 0. -1.
       -2    1    3    3    0  502 -0.42667280427E+02 -0.10518445945E+03 -0.14030423996E+03  0.18047034960E+03  0.25500000920E-02 0.  1.
</event>
<event>
 5   0  0.1760649E-01  0.5712137E+03  0.7818609E-02  0.9966997E-01
       -2   -1    0    0    0  501  0.00000000000E+00  0.00000000000E+00  0.54505043528E+02  0.54505043587E+02  0.25500000920E-02 0. -1.
        2   -1    0    0  501    0  0.00000000000E+00  0.00000000000E+00 -0.14965818972E+04  0.14965818972E+04  0.25500000920E-02 0.  1.
    10030    2    1    2    0    0  0.00000000000E+00  0.00000000000E+00 -0.14420768537E+04  0.15510869408E+04  0.57121366054E+03 0.  0.
        5    1    3    3  502    0 -0.12628706727E+03  0.25574434847E+03 -0.75901324842E+03  0.81084942893E+03  0.46999998093E+01 0.  1.
       -5    1    3    3    0  502  0.12628706727E+03 -0.25574434847E+03 -0.68306360525E+03  0.74023751185E+03  0.46999998093E+01 0. -1.
</event>
<event>
 5   0  0.1147245E-01  0.4949552E+03  0.7818609E-02  0.1015104E+00
        1   -1    0    0  501    0  0.00000000000E+00  0.00000000000E+00  0.48044585863E+03  0.48044585866E+03  0.50400001928E-02 0. -1.
       -1   -1    0    0    0  501  0.00000000000E+00  0.00000000000E+00 -0.12747568245E+03  0.12747568255E+03  0.50400001928E-02 0.  1.
    10030    2    1    2    0    0  0.00000000000E+00  0.00000000000E+00  0.35297017618E+03  0.60792154121E+03  0.49495520504E+03 0.  0.
        1    1    3    3  502    0 -0.95473652129E+02 -0.20668688500E+03  0.29563328009E+03  0.37314035295E+03  0.50400001928E-02 0. -1.
       -1    1    3    3    0  502  0.95473652129E+02  0.20668688500E+03  0.57336896095E+02  0.23478118826E+03  0.50400001928E-02 0.  1.
</event>
<event>
 5   0  0.1782124E-01  0.5002121E+03  0.7818609E-02  0.1013724E+00
       -2   -1    0    0    0  501  0.00000000000E+00  0.00000000000E+00  0.39272175133E+02  0.39272175215E+02  0.25500000920E-02 0.  1.
        2   -1    0    0  501    0  0.00000000000E+00  0.00000000000E+00 -0.15928077294E+04  0.15928077294E+04  0.25500000920E-02 0. -1.
    10030    2    1    2    0    0  0.00000000000E+00  0.00000000000E+00 -0.15535355542E+04  0.16320799046E+04  0.50021205171E+03 0.  0.
        3    1    3    3  502    0 -0.10985793939E+03 -0.11776650689E+03 -0.14011040204E+04  0.14103298207E+04  0.10100000352E+00 0. -1.
       -3    1    3    3    0  502  0.10985793939E+03  0.11776650689E+03 -0.15243153384E+03  0.22175008388E+03  0.10100000352E+00 0.  1.
</event>
<event>
 5   0  0.1760649E-01  0.4993465E+03  0.7818609E-02  0.1013950E+00
        2   -1    0    0  501    0  0.00000000000E+00  0.00000000000E+00  0.13821841368E+04  0.13821841368E+04  0.25500000920E-02 0. -1.
       -2   -1    0    0    0  501  0.00000000000E+00  0.00000000000E+00 -0.45100163711E+02  0.45100163783E+02  0.25500000920E-02 0.  1.
    10030    2    1    2    0    0  0.00000000000E+00  0.00000000000E+00  0.13370839731E+04  0.14272843006E+04  0.49934649654E+03 0.  0.
        5    1    3    3  502    0  0.11298072488E+03 -0.75728888837E+02  0.70239862902E+02  0.15315102722E+03  0.46999998093E+01 0.  1.
       -5    1    3    3    0  502 -0.11298072488E+03  0.75728888837E+02  0.12668441102E+04  0.12741332734E+04  0.46999998093E+01 0. -1.
</event>
<event>
 5   0  0.1760649E-01  0.5021705E+03  0.7818609E-02  0.1013214E+00
       -2   -1    0    0    0  501  0.00000000000E+00  0.00000000000E+00  0.72178889209E+02  0.72178889254E+02  0.25500000920E-02 0.  1.
        2   -1    0    0  501    0  0.00000000000E+00  0.00000000000E+00 -0.87343826295E+03  0.87343826296E+03  0.25500000920E-02 0. -1.
    10030    2    1    2    0    0  0.00000000000E+00  0.00000000000E+00 -0.80125937374E+03  0.94561715221E+03  0.50217050346E+03 0.  0.
        5    1    3    3  502    0 -0.14164044290E+03  0.17230951057E+03 -0.61754258892E+03  0.65660758572E+03  0.46999998093E+01 0.  1.
       -5    1    3    3    0  502  0.14164044290E+03 -0.17230951057E+03 -0.18371678482E+03  0.28900956649E+03  0.46999998093E+01 0. -1.
</event>
<event>
 5   0  0.1782124E-01  0.4927038E+03  0.7818609E-02  0.1015701E+00
        2   -1    0    0  501    0  0.00000000000E+00  0.00000000000E+00  0.65790859084E+03  0.65790859084E+03  0.25500000920E-02 0.  1.
       -2   -1    0    0    0  501  0.00000000000E+00  0.00000000000E+00 -0.92245719968E+02  0.92245720003E+02  0.25500000920E-02 0. -1.
    10030    2    1    2    0    0  0.00000000000E+00  0.00000000000E+00  0.56566287087E+03  0.75015431085E+03  0.49270377165E+03 0.  0.
        3    1    3    3  502    0  0.33294666923E+02  0.42493824846E+02 -0.83129416457E+02  0.99119978194E+02  0.10100000352E+00 0. -1.
       -3    1    3    3    0  502 -0.33294666923E+02 -0.42493824846E+02  0.64879228733E+03  0.65103433265E+03  0.10100000352E+00 0.  1.
</event>
<event>
 5   0  0.1147245E-01  0.4948843E+03  0.7818609E-02  0.1015123E+00
       -1   -1    0    0    0  501  0.00000000000E+00  0.00000000000E+00  0.28953417086E+03  0.28953417090E+03  0.50400001928E-02 0.  1.
        1   -1    0    0  501    0  0.00000000000E+00  0.00000000000E+00 -0.21146941086E+03  0.21146941092E+03  0.50400001928E-02 0. -1.
    10030    2    1    2    0    0  0.00000000000E+00  0.00000000000E+00  0.78064759998E+02  0.50100358182E+03  0.49488431198E+03 0.  0.
        1    1    3    3  502    0 -0.20717424050E+03 -0.17129962575E+02  0.17490451432E+03  0.27167294805E+03  0.50400001928E-02 0.  1.
       -1    1    3    3    0  502  0.20717424050E+03  0.17129962575E+02 -0.96839754319E+02  0.22933063378E+03  0.50400001928E-02 0. -1.
</event>
<event>
 5   0  0.1068522E-01  0.4493256E+03  0.7818609E-02  0.1027923E+00
       -1   -1    0    0    0  501  0.00000000000E+00  0.00000000000E+00  0.46980203459E+02  0.46980203729E+02  0.50400001928E-02 0.  1.
        1   -1    0    0  501    0  0.00000000000E+00  0.00000000000E+00 -0.10743540888E+04  0.10743540888E+04  0.50400001928E-02 0. -1.
    10030    2    1    2    0    0  0.00000000000E+00  0.00000000000E+00 -0.10273738853E+04  0.11213342925E+04  0.44932560059E+03 0.  0.
        2    1    3    3  502    0  0.11809933478E+03  0.10663895818E+03 -0.11788499129E+03  0.19803078411E+03  0.25500000920E-02 0.  1.
       -2    1    3    3    0  502 -0.11809933478E+03 -0.10663895818E+03 -0.90948889402E+03  0.92330350840E+03  0.25500000920E-02 0. -1.
</event>
<event>
 5   0  0.1123271E-01  0.4987582E+03  0.7818609E-02  0.1014104E+00
       -1   -1    0    0    0  501  0.00000000000E+00  0.00000000000E+00  0.46849368041E+02  0.46849368312E+02  0.50400001928E-02 0.  1.
        1   -1    0    0  501    0  0.00000000000E+00  0.00000000000E+00 -0.13274443368E+04  0.13274443368E+04  0.50400001928E-02 0. -1.
    10030    2    1    2    0    0  0.00000000000E+00  0.00000000000E+00 -0.12805949687E+04  0.13742937051E+04  0.49875817179E+03 0.  0.
        5    1    3    3  502    0  0.41858212835E+02  0.13567178158E+03 -0.12050525928E+04  0.12133972078E+04  0.46999998093E+01 0. -1.
       -5    1    3    3    0  502 -0.41858212835E+02 -0.13567178158E+03 -0.75542375884E+02  0.16089649732E+03  0.46999998093E+01 0.  1.
</event>
<event>
 5   0  0.1683148E-01  0.4913630E+03  0.7818609E-02  0.1016058E+00
       -2   -1    0    0    0  501  0.00000000000E+00  0.00000000000E+00  0.86917170966E+02  0.86917171004E+02  0.25500000920E-02 0.  1.
        2   -1    0    0  501    0  0.00000000000E+00  0.00000000000E+00 -0.69444729758E+03  0.69444729759E+03  0.25500000920E-02 0. -1.
    10030    2    1    2    0    0  0.00000000000E+00  0.00000000000E+00 -0.60753012662E+03  0.78136446859E+03  0.49136297991E+03 0.  0.
        2    1    3    3  502    0  0.44036546888E+02 -0.88279124314E+02  0.54036478258E+02  0.11248271974E+03  0.25500000920E-02 0.  1.
       -2    1    3    3    0  502 -0.44036546888E+02  0.88279124314E+02 -0.66156660488E+03  0.66888174885E+03  0.25500000920E-02 0. -1.
</event>
<event>
 5   0  0.1141970E-01  0.5032544E+03  0.7818609E-02  0.1012933E+00
        1   -1    0    0  501    0  0.00000000000E+00  0.00000000000E+00  0.57651205213E+03  0.57651205216E+03  0.50400001928E-02 0.  1.
       -1   -1    0    0    0  501  0.00000000000E+00  0.00000000000E+00 -0.10982642525E+03  0.10982642537E+03  0.50400001928E-02 0. -1.
    10030    2    1    2    0    0  0.00000000000E+00  0.00000000000E+00  0.46668562688E+03  0.68633847752E+03  0.50325444001E+03 0.  0.
        3    1    3    3  502    0  0.80792623213E+02  0.21400951303E+03  0.90379553107E+02  0.24595933293E+03  0.10100000352E+00 0. -1.
       -3    1    3    3    0  502 -0.80792623213E+02 -0.21400951303E+03  0.37630607377E+03  0.44037914459E+03  0.10100000352E+00 0.  1.
</event>
<event>
 5   0  0.1074281E-01  0.4821826E+03  0.7818609E-02  0.1018537E+00
        1   -1    0    0  501    0  0.00000000000E+00  0.00000000000E+00  0.48112927795E+03  0.48112927798E+03  0.50400001928E-02 0. -1.
       -1   -1    0    0    0  501  0.00000000000E+00  0.00000000000E+00 -0.12080955680E+03  0.12080955691E+03  0.50400001928E-02 0.  1.
    10030    2    1    2    0    0  0.00000000000E+00  0.00000000000E+00  0.36031972115E+03  0.60193883489E+03  0.48218259974E+03 0.  0.
        4    1    3    3  502    0 -0.16614260138E+03  0.58841101074E+02 -0.25186387322E+02  0.17804944868E+03  0.12699999809E+01 0.  1.
       -4    1    3    3    0  502  0.16614260138E+03 -0.58841101074E+02  0.38550610847E+03  0.42388938621E+03  0.12699999809E+01 0. -1.
</event>
<event>
 5   0  0.1709372E-01  0.5084925E+03  0.7818609E-02  0.1011586E+00
       -2   -1    0    0    0  501  0.00000000000E+00  0.00000000000E+00  0.63031799386E+02  0.63031799438E+02  0.25500000920E-02 0.  1.
        2   -1    0    0  501    0  0.00000000000E+00  0.00000000000E+00 -0.10255324067E+04  0.10255324067E+04  0.25500000920E-02 0. -1.
    10030    2    1    2    0    0  0.00000000000E+00  0.00000000000E+00 -0.96250060731E+03  0.10885642061E+04  0.50849248943E+03 0.  0.
        4    1    3    3  502    0  0.18772600214E+03 -0.72501838325E+02 -0.14862454764E+03  0.25017681248E+03  0.12699999809E+01 0.  1.
       -4    1    3    3    0  502 -0.18772600214E+03  0.72501838325E+02 -0.81387605967E+03  0.83838739366E+03  0.12699999809E+01 0. -1.
</event>
<event>
 5   0  0.7220250E-02  0.5032670E+03  0.7818609E-02  0.1012930E+00
        3   -1    0    0  501    0  0.00000000000E+00  0.00000000000E+00  0.12783179073E+03  0.12783183063E+03  0.10100000352E+00 0. -1.
       -3   -1    0    0    0  501  0.00000000000E+00  0.00000000000E+00 -0.49533379225E+03  0.49533380255E+03  0.10100000352E+00 0.  1.
    10030    2    1    2    0    0  0.00000000000E+00  0.00000000000E+00 -0.36750200152E+03  0.62316563318E+03  0.50326701189E+03 0.  0.
        2    1    3    3  502    0 -0.46475304039E+02  0.23706025599E+03 -0.96528378050E+02  0.26014466481E+03  0.25500000920E-02 0.  1.
       -2    1    3    3    0  502  0.46475304039E+02 -0.23706025599E+03 -0.27097362347E+03  0.36302096837E+03  0.25500000920E-02 0. -1.
</event>
<event>
 5   0  0.1074281E-01  0.5017522E+03  0.7818609E-02  0.1013323E+00
        1   -1    0    0  501    0  0.00000000000E+00  0.00000000000E+00  0.10081542976E+04  0.10081542976E+04  0.50400001928E-02 0. -1.
       -1   -1    0    0    0  501  0.00000000000E+00  0.00000000000E+00 -0.62429745084E+02  0.62429745288E+02  0.50400001928E-02 0.  1.
    10030    2    1    2    0    0  0.00000000000E+00  0.00000000000E+00  0.94572455252E+03  0.10705840429E+04  0.50175219350E+03 0.  0.
        4    1    3    3  502    0  0.99102645627E+02  0.89047520162E+01  0.96424424663E+03  0.96936536406E+03  0.12699999809E+01 0. -1.
       -4    1    3    3    0  502 -0.99102645627E+02 -0.89047520162E+01 -0.18519694104E+02  0.10121867885E+03  0.12699999809E+01 0.  1.
</event>
<event>
 5   0  0.7220250E-02  0.4294703E+03  0.7818609E-02  0.1034027E+00
        3   -1    0    0  501    0  0.00000000000E+00  0.00000000000E+00  0.15524965446E+03  0.15524968731E+03  0.10100000352E+00 0.  1.
       -3   -1    0    0    0  501  0.00000000000E+00  0.00000000000E+00 -0.29701301122E+03  0.29701302839E+03  0.10100000352E+00 0. -1.
    10030    2    1    2    0    0  0.00000000000E+00  0.00000000000E+00 -0.14176335676E+03  0.45226271571E+03  0.42947027219E+03 0.  0.
        3    1    3    3  502    0  0.36094999733E+02 -0.15754275068E+03  0.78002613651E+02  0.17946304699E+03  0.10100000352E+00 0.  1.
       -3    1    3    3    0  502 -0.36094999733E+02  0.15754275068E+03 -0.21976597041E+03  0.27279966871E+03  0.10100000352E+00 0. -1.
</event>
<event>
 5   0  0.1074281E-01  0.4996853E+03  0.7818609E-02  0.1013861E+00
       -1   -1    0    0    0  501  0.00000000000E+00  0.00000000000E+00  0.13162352224E+03  0.13162352233E+03  0.50400001928E-02 0. -1.
        1   -1    0    0  501    0  0.00000000000E+00  0.00000000000E+00 -0.47424165557E+03  0.47424165559E+03  0.50400001928E-02 0.  1.
    10030    2    1    2    0    0  0.00000000000E+00  0.00000000000E+00 -0.34261813333E+03  0.60586517793E+03  0.49968532952E+03 0.  0.
        4    1    3    3  502    0  0.24008592613E+03  0.68377506233E+02 -0.15900306788E+03  0.29597351872E+03  0.12699999809E+01 0.  1.
       -4    1    3    3    0  502 -0.24008592613E+03 -0.68377506233E+02 -0.18361506545E+03  0.30989165921E+03  0.12699999809E+01 0. -1.
</event>
<event>
 5   0  0.1147245E-01  0.5159556E+03  0.7818609E-02  0.1009696E+00
        1   -1    0    0  501    0  0.00000000000E+00  0.00000000000E+00  0.45754356081E+03  0.45754356084E+03  0.50400001928E-02 0. -1.
       -1   -1    0    0    0  501  0.00000000000E+00  0.00000000000E+00 -0.14545618981E+03  0.14545618989E+03  0.50400001928E-02 0.  1.
    10030    2    1    2    0    0  0.00000000000E+00  0.00000000000E+00  0.31208737100E+03  0.60299975073E+03  0.51595559135E+03 0.  0.
        1    1    3    3  502    0 -0.47570137400E+02 -0.74421024053E+02  0.43932174875E+03  0.44811271545E+03  0.50400001928E-02 0. -1.
       -1    1    3    3    0  502  0.47570137400E+02  0.74421024053E+02 -0.12723437775E+03  0.15488703529E+03  0.50400001928E-02 0.  1.
</event>
<event>
 5   0  0.1827698E-01  0.4991787E+03  0.7818609E-02  0.1013994E+00
       -2   -1    0    0    0  501  0.00000000000E+00  0.00000000000E+00  0.92101137662E+02  0.92101137697E+02  0.25500000920E-02 0. -1.
        2   -1    0    0  501    0  0.00000000000E+00  0.00000000000E+00 -0.67637432521E+03  0.67637432521E+03  0.25500000920E-02 0.  1.
    10030    2    1    2    0    0  0.00000000000E+00  0.00000000000E+00 -0.58427318755E+03  0.76847546291E+03  0.49917870488E+03 0.  0.
        1    1    3    3  502    0 -0.56490889415E+01 -0.19568358712E+03 -0.53786229196E+02  0.20301954820E+03  0.50400001928E-02 0. -1.
       -1    1    3    3    0  502  0.56490889415E+01  0.19568358712E+03 -0.53048695835E+03  0.56545591471E+03  0.50400001928E-02 0.  1.
</event>
<event>
 5   0  0.1141970E-01  0.5009509E+03  0.7818609E-02  0.1013531E+00
       -1   -1    0    0    0  501  0.00000000000E+00  0.00000000000E+00  0.20194268949E+03  0.20194268955E+03  0.50400001928E-02 0. -1.
        1   -1    0    0  501    0  0.00000000000E+00  0.00000000000E+00 -0.31067207913E+03  0.31067207917E+03  0.50400001928E-02 0.  1.
    10030    2    1    2    0    0  0.00000000000E+00  0.00000000000E+00 -0.10872938964E+03  0.51261476872E+03  0.50095091670E+03 0.  0.
        3    1    3    3  502    0 -0.10639250854E+03 -0.15447105250E+03  0.11550427725E+03  0.22027691708E+03  0.10100000352E+00 0. -1.
       -3    1    3    3    0  502  0.10639250854E+03  0.15447105250E+03 -0.22423366689E+03  0.29233785164E+03  0.10100000352E+00 0.  1.
</event>
<event>
 5   0  0.1683148E-01  0.4997275E+03  0.7818609E-02  0.1013850E+00
        2   -1    0    0  501    0  0.00000000000E+00  0.00000000000E+00  0.76084686738E+03  0.76084686738E+03  0.25500000920E-02 0.  1.
       -2   -1    0    0    0  501  0.00000000000E+00  0.00000000000E+00 -0.82055795440E+02  0.82055795479E+02  0.25500000920E-02 0. -1.
    10030    2    1    2    0    0  0.00000000000E+00  0.00000000000E+00  0.67879107194E+03  0.84290266286E+03  0.49972750546E+03 0.  0.
        2    1    3    3  502    0 -0.24688846094E+03 -0.55195953005E+01  0.27522199769E+03  0.36977226247E+03  0.25500000920E-02 0.  1.
       -2    1    3    3    0  502  0.24688846094E+03  0.55195953005E+01  0.40356907425E+03  0.47313040039E+03  0.25500000920E-02 0. -1.
</event>
<event>
 5   0  0.1782124E-01  0.5048886E+03  0.7818609E-02  0.1012511E+00
        2   -1    0    0  501    0  0.00000000000E+00  0.00000000000E+00  0.84738757054E+03  0.84738757055E+03  0.25500000920E-02 0.  1.
       -2   -1    0    0    0  501  0.00000000000E+00  0.00000000000E+00 -0.75205402785E+02  0.75205402828E+02  0.25500000920E-02 0. -1.
    10030    2    1    2    0    0  0.00000000000E+00  0.00000000000E+00  0.77218216776E+03  0.92259297338E+03  0.50488859595E+03 0.  0.
        3    1    3    3  502    0 -0.10689363212E+03  0.20909679884E+03  0.55535648086E+03  0.60296645919E+03  0.10100000352E+00 0. -1.
       -3    1    3    3    0  502  0.10689363212E+03 -0.20909679884E+03  0.21682568690E+03  0.31962651419E+03  0.10100000352E+00 0.  1.
</event>
<event>
 5   0  0.1123271E-01  0.4930303E+03  0.7818609E-02  0.1015614E+00
       -1   -1    0    0    0  501  0.00000000000E+00  0.00000000000E+00  0.18389320391E+03  0.18389320397E+03  0.50400001928E-02 0.  1.
        1   -1    0    0  501    0  0.00000000000E+00  0.00000000000E+00 -0.33046200834E+03  0.33046200838E+03  0.50400001928E-02 0. -1.
    10030    2    1    2    0    0  0.00000000000E+00  0.00000000000E+00 -0.14656880443E+03  0.51435521235E+03  0.49303029323E+03 0.  0.
        5    1    3    3  502    0 -0.16962153364E+03 -0.25951207458E+02  0.11129380531E+03  0.20458086651E+03  0.46999998093E+01 0.  1.
       -5    1    3    3    0  502  0.16962153364E+03  0.25951207458E+02 -0.25786260974E+03  0.30977434585E+03  0.46999998093E+01 0. -1.
</event>
<event>
 5   0  0.1123271E-01  0.5338619E+03  0.7818609E-02  0.1005300E+00
       -1   -1    0    0    0  501  0.00000000000E+00  0.00000000000E+00  0.47020179548E+02  0.47020179818E+02  0.50400001928E-02 0. -1.
        1   -1    0    0  501    0  0.00000000000E+00  0.00000000000E+00 -0.15153521099E+04  0.15153521099E+04  0.50400001928E-02 0.  1.
    10030    2    1    2    0    0  0.00000000000E+00  0.00000000000E+00 -0.14683319304E+04  0.15623722898E+04  0.53386188665E+03 0.  0.
        5    1    3    3  502    0  0.29779190316E+02  0.26420377401E+03 -0.66618407372E+03  0.71729613442E+03  0.46999998093E+01 0. -1.
       -5    1    3    3    0  502 -0.29779190316E+02 -0.26420377401E+03 -0.80214785666E+03  0.84507615534E+03  0.46999998093E+01 0.  1.
</event>
<event>
 5   0  0.1709372E-01  0.4945285E+03  0.7818609E-02  0.1015217E+00
       -2   -1    0    0    0  501  0.00000000000E+00  0.00000000000E+00  0.42540528865E+03  0.42540528865E+03  0.25500000920E-02 0.  1.
        2   -1    0    0  501    0  0.00000000000E+00  0.00000000000E+00 -0.14372084938E+03  0.14372084940E+03  0.25500000920E-02 0. -1.
    10030    2    1    2    0    0  0.00000000000E+00  0.00000000000E+00  0.28168443926E+03  0.56912613806E+03  0.49452850039E+03 0.  0.
        4    1    3    3  502    0 -0.15304632461E+02  0.19539333306E+03 -0.32646467305E+02  0.19869622822E+03  0.12699999809E+01 0.  1.
       -4    1    3    3    0  502  0.15304632461E+02 -0.19539333306E+03  0.31433090657E+03  0.37042990984E+03  0.12699999809E+01 0. -1.
</event>
<event>
 5   0  0.1709372E-01  0.4914619E+03  0.7818609E-02  0.1016032E+00
       -2   -1    0    0    0  501  0.00000000000E+00  0.00000000000E+00  0.11265671324E+04  0.11265671324E+04  0.25500000920E-02 0. -1.
        2   -1    0    0  501    0  0.00000000000E+00  0.00000000000E+00 -0.53599745424E+02  0.53599745485E+02  0.25500000920E-02 0.  1.
    10030    2    1    2    0    0  0.00000000000E+00  0.00000000000E+00  0.10729673870E+04  0.11801668779E+04  0.49146194782E+03 0.  0.
        4    1    3    3  502    0 -0.12485731277E+03 -0.14943641623E+03  0.17659104511E+03  0.26288134426E+03  0.12699999809E+01 0.  1.
       -4    1    3    3    0  502  0.12485731277E+03  0.14943641623E+03  0.89637634190E+03  0.91728553366E+03  0.12699999809E+01 0. -1.
</event>
<event>
 5   0  0.1683148E-01  0.4959100E+03  0.7818609E-02  0.1014852E+00
       -2   -1    0    0    0  501  0.00000000000E+00  0.00000000000E+00  0.14863756631E+03  0.14863756633E+03  0.25500000920E-02 0. -1.
        2   -1    0    0  501    0  0.00000000000E+00  0.00000000000E+00 -0.41363490148E+03  0.41363490149E+03  0.25500000920E-02 0.  1.
    10030    2    1    2    0    0  0.00000000000E+00  0.00000000000E+00 -0.26499733517E+03  0.56227246781E+03  0.49591001241E+03 0.  0.
        2    1    3    3  502    0 -0.10039116024E+03  0.20896453566E+03 -0.23223047476E+03  0.32813953684E+03  0.25500000920E-02 0.  1.
       -2    1    3    3    0  502  0.10039116024E+03 -0.20896453566E+03 -0.32766860409E+02  0.23413293098E+03  0.25500000920E-02 0. -1.
</event>
<event>
 5   0  0.1141970E-01  0.5024456E+03  0.7818609E-02  0.1013143E+00
       -1   -1    0    0    0  501  0.00000000000E+00  0.00000000000E+00  0.31814746041E+02  0.31814746440E+02  0.50400001928E-02 0. -1.
        1   -1    0    0  501    0  0.00000000000E+00  0.00000000000E+00 -0.19837626579E+04  0.19837626579E+04  0.50400001928E-02 0.  1.
    10030    2    1    2    0    0  0.00000000000E+00  0.00000000000E+00 -0.19519479119E+04  0.20155774044E+04  0.50244564114E+03 0.  0.
        3    1    3    3  502    0 -0.22223483822E+03 -0.11711937323E+03 -0.98705078034E+03  0.10185158438E+04  0.10100000352E+00 0. -1.
       -3    1    3    3    0  502  0.22223483822E+03  0.11711937323E+03 -0.96489713154E+03  0.99706156056E+03  0.10100000352E+00 0.  1.
</event>
<event>
 5   0  0.1782124E-01  0.5053674E+03  0.7818609E-02  0.1012387E+00
       -2   -1    0    0    0  501  0.00000000000E+00  0.00000000000E+00  0.56145558659E+02  0.56145558717E+02  0.25500000920E-02 0.  1.
        2   -1    0    0  501    0  0.00000000000E+00  0.00000000000E+00 -0.11372058676E+04  0.11372058676E+04  0.25500000920E-02 0. -1.
    10030    2    1    2    0    0  0.00000000000E+00  0.00000000000E+00 -0.10810603089E+04  0.11933514263E+04  0.50536742587E+03 0.  0.
        3    1    3    3  502    0 -0.11295819275E+03 -0.35110925020E+02 -0.10677878839E+04  0.10743199270E+04  0.10100000352E+00 0. -1.
       -3    1    3    3    0  502  0.11295819275E+03  0.35110925020E+02 -0.13272425057E+02  0.11903149933E+03  0.10100000352E+00 0.  1.
</event>
<event>
 5   0  0.1123271E-01  0.4884072E+03  0.7818609E-02  0.1016850E+00
       -1   -1    0    0    0  501  0.00000000000E+00  0.00000000000E+00  0.29141048428E+02  0.29141048864E+02  0.50400001928E-02 0. -1.
        1   -1    0    0  501    0  0.00000000000E+00  0.00000000000E+00 -0.20464399335E+04  0.20464399336E+04  0.50400001928E-02 0.  1.
    10030    2    1    2    0    0  0.00000000000E+00  0.00000000000E+00 -0.20172988851E+04  0.20755809824E+04  0.48840723036E+03 0.  0.
        5    1    3    3  502    0  0.90685680349E+02 -0.18514893480E+03 -0.15645199792E+04  0.15780522412E+04  0.46999998093E+01 0.  1.
       -5    1    3    3    0  502 -0.90685680349E+02  0.18514893480E+03 -0.45277890589E+03  0.49752874118E+03  0.46999998093E+01 0. -1.
</event>
<event>
 5   0  0.1141970E-01  0.5963360E+03  0.7818609E-02  0.9913037E-01
        1   -1    0    0  501    0  0.00000000000E+00  0.00000000000E+00  0.24371999281E+03  0.24371999286E+03  0.50400001928E-02 0.  1.
       -1   -1    0    0    0  501  0.00000000000E+00  0.00000000000E+00 -0.36477985907E+03  0.36477985911E+03  0.50400001928E-02 0. -1.
    10030    2    1    2    0    0  0.00000000000E+00  0.00000000000E+00 -0.12105986626E+03  0.60849985197E+03  0.59633596121E+03 0.  0.
        3    1    3    3  502    0  0.27680979916E+03  0.10828718855E+03 -0.84554922509E+02  0.30902965106E+03  0.10100000352E+00 0.  1.
       -3    1    3    3    0  502 -0.27680979916E+03 -0.10828718855E+03 -0.36504943756E+02  0.29947020091E+03  0.10100000352E+00 0. -1.
</event>
<event>
 5   0  0.1123271E-01  0.4892715E+03  0.7818609E-02  0.1016618E+00
        1   -1    0    0  501    0  0.00000000000E+00  0.00000000000E+00  0.10212255291E+04  0.10212255291E+04  0.50400001928E-02 0. -1.
       -1   -1    0    0    0  501  0.00000000000E+00  0.00000000000E+00 -0.58602770390E+02  0.58602770606E+02  0.50400001928E-02 0.  1.
    10030    2    1    2    0    0  0.00000000000E+00  0.00000000000E+00  0.96262275868E+03  0.10798282997E+04  0.48927148014E+03 0.  0.
        5    1    3    3  502    0 -0.12227874310E+03 -0.12609496574E+03  0.85697398705E+03  0.87480199810E+03  0.46999998093E+01 0. -1.
       -5    1    3    3    0  502  0.12227874310E+03  0.12609496574E+03  0.10564877163E+03  0.20502630159E+03  0.46999998093E+01 0.  1.
</event>
<event>
 5   0  0.1709372E-01  0.5065966E+03  0.7818609E-02  0.1012071E+00
        2   -1    0    0  501    0  0.00000000000E+00  0.00000000000E+00  0.56198208614E+02  0.56198208672E+02  0.25500000920E-02 0. -1.
       -2   -1    0    0    0  501  0.00000000000E+00  0.00000000000E+00 -0.11416737991E+04  0.11416737991E+04  0.25500000920E-02 0.  1.
    10030    2    1    2    0    0  0.00000000000E+00  0.00000000000E+00 -0.10854755904E+04  0.11978720077E+04  0.50659657466E+03 0.  0.
        4    1    3    3  502    0 -0.10977059317E+03  0.17516040907E+03 -0.88886482426E+03  0.91258590869E+03  0.12699999809E+01 0.  1.
       -4    1    3    3    0  502  0.10977059317E+03 -0.17516040907E+03 -0.19661076618E+03  0.28528609904E+03  0.12699999809E+01 0. -1.
</event>
<event>
 5   0  0.1068522E-01  0.5003298E+03  0.7818609E-02  0.1013693E+00
        1   -1    0    0  501    0  0.00000000000E+00  0.00000000000E+00  0.28364101405E+03  0.28364101410E+03  0.50400001928E-02 0. -1.
       -1   -1    0    0    0  501  0.00000000000E+00  0.00000000000E+00 -0.22063976817E+03  0.22063976823E+03  0.50400001928E-02 0.  1.
    10030    2    1    2    0    0  0.00000000000E+00  0.00000000000E+00  0.63001245886E+02  0.50428078232E+03  0.50032984164E+03 0.  0.
        2    1    3    3  502    0  0.19029293767E+03  0.15204984962E+03 -0.25975374834E+02  0.24495974975E+03  0.25500000920E-02 0.  1.
       -2    1    3    3    0  502 -0.19029293767E+03 -0.15204984962E+03  0.88976620720E+02  0.25932103257E+03  0.25500000920E-02 0. -1.
</event>
<event>
 5   0  0.1141970E-01  0.4979030E+03  0.7818609E-02  0.1014328E+00
        1   -1    0    0  501    0  0.00000000000E+00  0.00000000000E+00  0.60301868511E+03  0.60301868513E+03  0.50400001928E-02 0.  1.
       -1   -1    0    0    0  501  0.00000000000E+00  0.00000000000E+00 -0.10277767895E+03  0.10277767907E+03  0.50400001928E-02 0. -1.
    10030    2    1    2    0    0  0.00000000000E+00  0.00000000000E+00  0.50024100616E+03  0.70579636420E+03  0.49790304626E+03 0.  0.
        3    1    3    3  502    0  0.19150826616E+03 -0.36108246762E+02  0.30527346034E+02  0.19725909497E+03  0.10100000352E+00 0. -1.
       -3    1    3    3    0  502 -0.19150826616E+03  0.36108246762E+02  0.46971366012E+03  0.50853726923E+03  0.10100000352E+00 0.  1.
</event>
<event>
 5   0  0.1683148E-01  0.5060390E+03  0.7818609E-02  0.1012215E+00
        2   -1    0    0  501    0  0.00000000000E+00  0.00000000000E+00  0.62974256572E+03  0.62974256573E+03  0.25500000920E-02 0. -1.
       -2   -1    0    0    0  501  0.00000000000E+00  0.00000000000E+00 -0.10165879812E+03  0.10165879816E+03  0.25500000920E-02 0.  1.
    10030    2    1    2    0    0  0.00000000000E+00  0.00000000000E+00  0.52808376760E+03  0.73140136389E+03  0.50603901973E+03 0.  0.
        2    1    3    3  502    0 -0.21901273246E+03  0.80176995752E+02  0.12225099646E+03  0.26332533826E+03  0.25500000920E-02 0.  1.
       -2    1    3    3    0  502  0.21901273246E+03 -0.80176995752E+02  0.40583277114E+03  0.46807602563E+03  0.25500000920E-02 0. -1.
</event>
<event>
 5   0  0.1141970E-01  0.5441633E+03  0.7818609E-02  0.1002854E+00
       -1   -1    0    0    0  501  0.00000000000E+00  0.00000000000E+00  0.17826526662E+04  0.17826526662E+04  0.50400001928E-02 0.  1.
        1   -1    0    0  501    0  0.00000000000E+00  0.00000000000E+00 -0.41527116267E+02  0.41527116573E+02  0.50400001928E-02 0. -1.
    10030    2    1    2    0    0  0.00000000000E+00  0.00000000000E+00  0.17411255500E+04  0.18241797828E+04  0.54416330203E+03 0.  0.
        3    1    3    3  502    0 -0.50630787701E+02 -0.26410319401E+03  0.10093660278E+04  0.10445734833E+04  0.10100000352E+00 0.  1.
       -3    1    3    3    0  502  0.50630787701E+02  0.26410319401E+03  0.73175952219E+03  0.77960629953E+03  0.10100000352E+00 0. -1.
</event>
<event>
 5   0  0.1709372E-01  0.5003009E+03  0.7818609E-02  0.1013700E+00
       -2   -1    0    0    0  501  0.00000000000E+00  0.00000000000E+00  0.45619066864E+02  0.45619066936E+02  0.25500000920E-02 0.  1.
        2   -1    0    0  501    0  0.00000000000E+00  0.00000000000E+00 -0.13716904631E+04  0.13716904631E+04  0.25500000920E-02 0. -1.
    10030    2    1    2    0    0  0.00000000000E+00  0.00000000000E+00 -0.13260713962E+04  0.14173095300E+04  0.50030086550E+03 0.  0.
        4    1    3    3  502    0  0.36993691867E+02  0.17876519600E+02 -0.13620571010E+04  0.13626772407E+04  0.12699999809E+01 0. -1.
       -4    1    3    3    0  502 -0.36993691867E+02 -0.17876519600E+02  0.35985704730E+02  0.54632289316E+02  0.12699999809E+01 0.  1.
</event>
<event>
 5   0  0.1827698E-01  0.4960286E+03  0.7818609E-02  0.1014821E+00
       -2   -1    0    0    0  501  0.00000000000E+00  0.00000000000E+00  0.40029859515E+02  0.40029859596E+02  0.25500000920E-02 0. -1.
        2   -1    0    0  501    0  0.00000000000E+00  0.00000000000E+00 -0.15366303052E+04  0.15366303052E+04  0.25500000920E-02 0.  1.
    10030    2    1    2    0    0  0.00000000000E+00  0.00000000000E+00 -0.14966004457E+04  0.15766601648E+04  0.49602860930E+03 0.  0.
        1    1    3    3  502    0  0.16278125077E+03  0.21827490044E+02 -0.15759178600E+03  0.22761666451E+03  0.50400001928E-02 0. -1.
       -1    1    3    3    0  502 -0.16278125077E+03 -0.21827490044E+02 -0.13390086597E+04  0.13490435003E+04  0.50400001928E-02 0.  1.
</event>
<event>
 5   0  0.1827698E-01  0.5002950E+03  0.7818609E-02  0.1013702E+00
       -2   -1    0    0    0  501  0.00000000000E+00  0.00000000000E+00  0.24717678925E+03  0.24717678926E+03  0.25500000920E-02 0. -1.
        2   -1    0    0  501    0  0.00000000000E+00  0.00000000000E+00 -0.25315390667E+03  0.25315390668E+03  0.25500000920E-02 0.  1.
    10030    2    1    2    0    0  0.00000000000E+00  0.00000000000E+00 -0.59771174209E+01  0.50033069594E+03  0.50029499234E+03 0.  0.
        1    1    3    3  502    0  0.19573169291E+03 -0.53987843327E+02 -0.14910917368E+03  0.25191095359E+03  0.50400001928E-02 0.  1.
       -1    1    3    3    0  502 -0.19573169291E+03  0.53987843327E+02  0.14313205626E+03  0.24841974235E+03  0.50400001928E-02 0. -1.
</event>
<event>
 5   0  0.1782124E-01  0.4883309E+03  0.7818609E-02  0.1016870E+00
        2   -1    0    0  501    0  0.00000000000E+00  0.00000000000E+00  0.14832526075E+04  0.14832526075E+04  0.25500000920E-02 0. -1.
       -2   -1    0    0    0  501  0.00000000000E+00  0.00000000000E+00 -0.40193261328E+02  0.40193261408E+02  0.25500000920E-02 0.  1.
    10030    2    1    2    0    0  0.00000000000E+00  0.00000000000E+00  0.14430593462E+04  0.15234458689E+04  0.48833087034E+03 0.  0.
        3    1    3    3  502    0  0.39136291498E+02  0.12637923633E+02  0.14723695077E+04  0.14729437680E+04  0.10100000352E+00 0. -1.
       -3    1    3    3    0  502 -0.39136291498E+02 -0.12637923633E+02 -0.29310161501E+02  0.50502100889E+02  0.10100000352E+00 0.  1.
</event>
<event>
 5   0  0.1760649E-01  0.4866320E+03  0.7818609E-02  0.1017328E+00
       -2   -1    0    0    0  501  0.00000000000E+00  0.00000000000E+00  0.51937793364E+03  0.51937793364E+03  0.25500000920E-02 0. -1.
        2   -1    0    0  501    0  0.00000000000E+00  0.00000000000E+00 -0.11398766666E+03  0.11398766669E+03  0.25500000920E-02 0.  1.
    10030    2    1    2    0    0  0.00000000000E+00  0.00000000000E+00  0.40539026697E+03  0.63336560033E+03  0.48663201202E+03 0.  0.
        5    1    3    3  502    0  0.11365872071E+03  0.81749638456E+02  0.46162833762E+03  0.48241488397E+03  0.46999998093E+01 0. -1.
       -5    1    3    3    0  502 -0.11365872071E+03 -0.81749638456E+02 -0.56238070647E+02  0.15095071636E+03  0.46999998093E+01 0.  1.
</event>
<event>
 5   0  0.7220250E-02  0.4703277E+03  0.7818609E-02  0.1021828E+00
       -3   -1    0    0    0  501  0.00000000000E+00  0.00000000000E+00  0.29406659264E+03  0.29406660998E+03  0.10100000352E+00 0.  1.
        3   -1    0    0  501    0  0.00000000000E+00  0.00000000000E+00 -0.18805953643E+03  0.18805956355E+03  0.10100000352E+00 0. -1.
    10030    2    1    2    0    0  0.00000000000E+00  0.00000000000E+00  0.10600705621E+03  0.48212617353E+03  0.47032770622E+03 0.  0.
        5    1    3    3  502    0 -0.10544949395E+03  0.14498533422E+03 -0.10292950103E+03  0.20677745306E+03  0.46999998093E+01 0. -1.
       -5    1    3    3    0  502  0.10544949395E+03 -0.14498533422E+03  0.20893655725E+03  0.27534872047E+03  0.46999998093E+01 0.  1.
</event>
<event>
 5   0  0.1141970E-01  0.5044060E+03  0.7818609E-02  0.1012635E+00
       -1   -1    0    0    0  501  0.00000000000E+00  0.00000000000E+00  0.18019886153E+03  0.18019886160E+03  0.50400001928E-02 0. -1.
        1   -1    0    0  501    0  0.00000000000E+00  0.00000000000E+00 -0.35297859959E+03  0.35297859963E+03  0.50400001928E-02 0.  1.
    10030    2    1    2    0    0  0.00000000000E+00  0.00000000000E+00 -0.17277973806E+03  0.53317746123E+03  0.50440595484E+03 0.  0.
        3    1    3    3  502    0 -0.12443271072E+03 -0.21484520944E+03 -0.13323915910E+03  0.28177055778E+03  0.10100000352E+00 0.  1.
       -3    1    3    3    0  502  0.12443271072E+03  0.21484520944E+03 -0.39540578959E+02  0.25140690345E+03  0.10100000352E+00 0. -1.
</event>
<event>
 5   0  0.1074281E-01  0.4859691E+03  0.7818609E-02  0.1017507E+00
       -1   -1    0    0    0  501  0.00000000000E+00  0.00000000000E+00  0.94245884547E+03  0.94245884548E+03  0.50400001928E-02 0. -1.
        1   -1    0    0  501    0  0.00000000000E+00  0.00000000000E+00 -0.62646223251E+02  0.62646223454E+02  0.50400001928E-02 0.  1.
    10030    2    1    2    0    0  0.00000000000E+00  0.00000000000E+00  0.87981262222E+03  0.10051050689E+04  0.48596908275E+03 0.  0.
        4    1    3    3  502    0  0.65299484296E+02  0.88158447005E+02  0.88831080302E+03  0.89506068514E+03  0.12699999809E+01 0. -1.
       -4    1    3    3    0  502 -0.65299484296E+02 -0.88158447005E+02 -0.84981808011E+01  0.11004438379E+03  0.12699999809E+01 0.  1.
</event>
<event>
 5   0  0.1709372E-01  0.5124764E+03  0.7818609E-02  0.1010573E+00
       -2   -1    0    0    0  501  0.00000000000E+00  0.00000000000E+00  0.13174893901E+03  0.13174893903E+03  0.25500000920E-02 0. -1.
        2   -1    0    0  501    0  0.00000000000E+00  0.00000000000E+00 -0.49835714595E+03  0.49835714595E+03  0.25500000920E-02 0.  1.
    10030    2    1    2    0    0  0.00000000000E+00  0.00000000000E+00 -0.36660820694E+03  0.63010608499E+03  0.51247643940E+03 0.  0.
        4    1    3    3  502    0  0.38140428835E+01 -0.81822501673E+02  0.11521382262E+03  0.14136939742E+03  0.12699999809E+01 0. -1.
       -4    1    3    3    0  502 -0.38140428835E+01  0.81822501673E+02 -0.48182202956E+03  0.48873668757E+03  0.12699999809E+01 0.  1.
</event>
<event>
 5   0  0.1147245E-01  0.5049526E+03  0.7818609E-02  0.1012494E+00
       -1   -1    0    0    0  501  0.00000000000E+00  0.00000000000E+00  0.11805558821E+03  0.11805558832E+03  0.50400001928E-02 0.  1.
        1   -1    0    0  501    0  0.00000000000E+00  0.00000000000E+00 -0.53995138656E+03  0.53995138658E+03  0.50400001928E-02 0. -1.
    10030    2    1    2    0    0  0.00000000000E+00  0.00000000000E+00 -0.42189579835E+03  0.65800697490E+03  0.50495258624E+03 0.  0.
        1    1    3    3  502    0 -0.10130587643E+03 -0.14328403399E+03  0.25597631350E+02  0.17733706254E+03  0.50400001928E-02 0.  1.
       -1    1    3    3    0  502  0.10130587643E+03  0.14328403399E+03 -0.44749342970E+03  0.48066991236E+03  0.50400001928E-02 0. -1.
</event>
<event>
 5   0  0.1068522E-01  0.4822402E+03  0.7818609E-02  0.1018521E+00
       -1   -1    0    0    0  501  0.00000000000E+00  0.00000000000E+00  0.50503692187E+02  0.50503692439E+02  0.50400001928E-02 0. -1.
        1   -1    0    0  501    0  0.00000000000E+00  0.00000000000E+00 -0.11511810818E+04  0.11511810819E+04  0.50400001928E-02 0.  1.
    10030    2    1    2    0    0  0.00000000000E+00  0.00000000000E+00 -0.11006773897E+04  0.12016847743E+04  0.48224016907E+03 0.  0.
        2    1    3    3  502    0 -0.16838290081E+03 -0.10972182342E+03 -0.21837370405E+03  0.29678065039E+03  0.25500000920E-02 0. -1.
       -2    1    3    3    0  502  0.16838290081E+03  0.10972182342E+03 -0.88230368561E+03  0.90490412391E+03  0.25500000920E-02 0.  1.
</event>
<event>
 5   0  0.1141970E-01  0.4962057E+03  0.7818609E-02  0.1014774E+00
       -1   -1    0    0    0  501  0.00000000000E+00  0.00000000000E+00  0.16694358158E+03  0.16694358166E+03  0.50400001928E-02 0. -1.
        1   -1    0    0  501    0  0.00000000000E+00  0.00000000000E+00 -0.36871750031E+03  0.36871750035E+03  0.50400001928E-02 0.  1.
    10030    2    1    2    0    0  0.00000000000E+00  0.00000000000E+00 -0.20177391873E+03  0.53566108201E+03  0.49620568366E+03 0.  0.
        3    1    3    3  502    0 -0.66954980314E+01  0.48435645026E+02 -0.36346460046E+03  0.36673882722E+03  0.10100000352E+00 0.  1.
       -3    1    3    3    0  502  0.66954980314E+01 -0.48435645026E+02  0.16169068173E+03  0.16892225479E+03  0.10100000352E+00 0. -1.
</event>
<event>
 5   0  0.1147245E-01  0.4813929E+03  0.7818609E-02  0.1018753E+00
        1   -1    0    0  501    0  0.00000000000E+00  0.00000000000E+00  0.42272198767E+03  0.42272198770E+03  0.50400001928E-02 0. -1.
       -1   -1    0    0    0  501  0.00000000000E+00  0.00000000000E+00 -0.13705171215E+03  0.13705171225E+03  0.50400001928E-02 0.  1.
    10030    2    1    2    0    0  0.00000000000E+00  0.00000000000E+00  0.28567027552E+03  0.55977369995E+03  0.48139286330E+03 0.  0.
        1    1    3    3  502    0 -0.33371226900E+02  0.20853766554E+03  0.27710533888E+03  0.34840919276E+03  0.50400001928E-02 0. -1.
       -1    1    3    3    0  502  0.33371226900E+02 -0.20853766554E+03  0.85649366362E+01  0.21136450719E+03  0.50400001928E-02 0.  1.
</event>
<event>
 5   0  0.1123271E-01  0.5246702E+03  0.7818609E-02  0.1007533E+00
        1   -1    0    0  501    0  0.00000000000E+00  0.00000000000E+00  0.60111173503E+03  0.60111173505E+03  0.50400001928E-02 0. -1.
       -1   -1    0    0    0  501  0.00000000000E+00  0.00000000000E+00 -0.11448739054E+03  0.11448739065E+03  0.50400001928E-02 0.  1.
    10030    2    1    2    0    0  0.00000000000E+00  0.00000000000E+00  0.48662434449E+03  0.71559912570E+03  0.52467023553E+03 0.  0.
        5    1    3    3  502    0  0.20283156643E+03 -0.99263500392E+02  0.61325760939E+02  0.23404449535E+03  0.46999998093E+01 0.  1.
       -5    1    3    3    0  502 -0.20283156643E+03  0.99263500392E+02  0.42529858355E+03  0.48155463035E+03  0.46999998093E+01 0. -1.
</event>
<event>
 5   0  0.7220250E-02  0.5037931E+03  0.7818609E-02  0.1012794E+00
        4   -1    0    0  501    0  0.00000000000E+00  0.00000000000E+00  0.63891426133E+03  0.63891552355E+03  0.12699999809E+01 0.  1.
       -4   -1    0    0    0  501  0.00000000000E+00  0.00000000000E+00 -0.99306591346E+02  0.99314711825E+02  0.12699999809E+01 0. -1.
    10030    2    1    2    0    0  0.00000000000E+00  0.00000000000E+00  0.53960766998E+03  0.73823023537E+03  0.50379305564E+03 0.  0.
        1    1    3    3  502    0  0.22685640885E+03 -0.10948253426E+03  0.27166035138E+03  0.37047213401E+03  0.50400001928E-02 0.  1.
       -1    1    3    3    0  502 -0.22685640885E+03  0.10948253426E+03  0.26794731860E+03  0.36775810136E+03  0.50400001928E-02 0. -1.
</event>
<event>
 5   0  0.1123271E-01  0.5414777E+03  0.7818609E-02  0.1003486E+00
       -1   -1    0    0    0  501  0.00000000000E+00  0.00000000000E+00  0.19373632658E+03  0.19373632665E+03  0.50400001928E-02 0. -1.
        1   -1    0    0  501    0  0.00000000000E+00  0.00000000000E+00 -0.37834686248E+03  0.37834686251E+03  0.50400001928E-02 0.  1.
    10030    2    1    2    0    0  0.00000000000E+00  0.00000000000E+00 -0.18461053589E+03  0.57208318916E+03  0.54147772379E+03 0.  0.
        5    1    3    3  502    0  0.11492508307E+03 -0.91364825122E+02 -0.33258482060E+03  0.36357950833E+03  0.46999998093E+01 0.  1.
       -5    1    3    3    0  502 -0.11492508307E+03  0.91364825122E+02  0.14797428470E+03  0.20850368083E+03  0.46999998093E+01 0. -1.
</event>
<event>
 5   0  0.7220250E-02  0.5165203E+03  0.7818609E-02  0.1009555E+00
       -4   -1    0    0    0  501  0.00000000000E+00  0.00000000000E+00  0.43553133366E+03  0.43553318530E+03  0.12699999809E+01 0.  1.
        4   -1    0    0  501    0  0.00000000000E+00  0.00000000000E+00 -0.15313757068E+03  0.15314283677E+03  0.12699999809E+01 0. -1.
    10030    2    1    2    0    0  0.00000000000E+00  0.00000000000E+00  0.28239376297E+03  0.58867602207E+03  0.51652030124E+03 0.  0.
        4    1    3    3  502    0 -0.29135165203E+01 -0.16475803851E+03 -0.85436416102E+02  0.18561975630E+03  0.12699999809E+01 0. -1.
       -4    1    3    3    0  502  0.29135165203E+01  0.16475803851E+03  0.36783017908E+03  0.40305626577E+03  0.12699999809E+01 0.  1.
</event>
<event>
 5   0  0.1760649E-01  0.5004664E+03  0.7818609E-02  0.1013657E+00
       -2   -1    0    0    0  501  0.00000000000E+00  0.00000000000E+00  0.21467816831E+03  0.21467816833E+03  0.25500000920E-02 0.  1.
        2   -1    0    0  501    0  0.00000000000E+00  0.00000000000E+00 -0.29167689141E+03  0.29167689142E+03  0.25500000920E-02 0. -1.
    10030    2    1    2    0    0  0.00000000000E+00  0.00000000000E+00 -0.76998723098E+02  0.50635505975E+03  0.50046642562E+03 0.  0.
        5    1    3    3  502    0  0.62656858255E+02 -0.16646300860E+03  0.13952193298E+03  0.22610677764E+03  0.46999998093E+01 0.  1.
       -5    1    3    3    0  502 -0.62656858255E+02  0.16646300860E+03 -0.21652065607E+03  0.28024828210E+03  0.46999998093E+01 0. -1.
</event>
<event>
 5   0  0.1147245E-01  0.5014278E+03  0.7818609E-02  0.1013407E+00
       -1   -1    0    0    0  501  0.00000000000E+00  0.00000000000E+00  0.13965740545E+03  0.13965740554E+03  0.50400001928E-02 0.  1.
        1   -1    0    0  501    0  0.00000000000E+00  0.00000000000E+00 -0.45008327593E+03  0.45008327596E+03  0.50400001928E-02 0. -1.
    10030    2    1    2    0    0  0.00000000000E+00  0.00000000000E+00 -0.31042587048E+03  0.58974068150E+03  0.50142781171E+03 0.  0.
        1    1    3    3  502    0 -0.27462410963E+02 -0.35557763598E+02 -0.44531006448E+03  0.44757076772E+03  0.50400001928E-02 0. -1.
       -1    1    3    3    0  502  0.27462410963E+02  0.35557763598E+02  0.13488419400E+03  0.14216991378E+03  0.50400001928E-02 0.  1.
</event>
<event>
 5   0  0.1760649E-01  0.5305451E+03  0.7818609E-02  0.1006100E+00
        2   -1    0    0  501    0  0.00000000000E+00  0.00000000000E+00  0.68153246011E+03  0.68153246011E+03  0.25500000920E-02 0.  1.
       -2   -1    0    0    0  501  0.00000000000E+00  0.00000000000E+00 -0.10325189631E+03  0.10325189635E+03  0.25500000920E-02 0. -1.
    10030    2    1    2    0    0  0.00000000000E+00  0.00000000000E+00  0.57828056380E+03  0.78478435646E+03  0.53054507413E+03 0.  0.
        5    1    3    3  502    0 -0.82738692244E+02 -0.25151892733E+03  0.31205443147E+03  0.40927682587E+03  0.46999998093E+01 0.  1.
       -5    1    3    3    0  502  0.82738692244E+02  0.25151892733E+03  0.26622613233E+03  0.37550753059E+03  0.46999998093E+01 0. -1.
</event>
<event>
 5   0  0.1141970E-01  0.4979879E+03  0.7818609E-02  0.1014305E+00
        1   -1    0    0  501    0  0.00000000000E+00  0.00000000000E+00  0.14361013619E+04  0.14361013619E+04  0.50400001928E-02 0. -1.
       -1   -1    0    0    0  501  0.00000000000E+00  0.00000000000E+00 -0.43171043834E+02  0.43171044128E+02  0.50400001928E-02 0.  1.
    10030    2    1    2    0    0  0.00000000000E+00  0.00000000000E+00  0.13929303181E+04  0.14792724060E+04  0.49798793186E+03 0.  0.
        3    1    3    3  502    0 -0.42098730692E+02 -0.23075570977E+03  0.94459486860E+03  0.97328309175E+03  0.10100000352E+00 0.  1.
       -3    1    3    3    0  502  0.42098730692E+02  0.23075570977E+03  0.44833544947E+03  0.50598931429E+03  0.10100000352E+00 0. -1.
</event>
<event>
 5   0  0.1709372E-01  0.5113640E+03  0.7818609E-02  0.1010855E+00
       -2   -1    0    0    0  501  0.00000000000E+00  0.00000000000E+00  0.89878978953E+02  0.89878978989E+02  0.25500000920E-02 0. -1.
        2   -1    0    0  501    0  0.00000000000E+00  0.00000000000E+00 -0.72734792228E+03  0.72734792229E+03  0.25500000920E-02 0.  1.
    10030    2    1    2    0    0  0.00000000000E+00  0.00000000000E+00 -0.63746894333E+03  0.81722690128E+03  0.51136401365E+03 0.  0.
        4    1    3    3  502    0 -0.10097927433E+02  0.26569796763E+02  0.87341112212E+02  0.91858614299E+02  0.12699999809E+01 0. -1.
       -4    1    3    3    0  502  0.10097927433E+02 -0.26569796763E+02 -0.72481005554E+03  0.72536828698E+03  0.12699999809E+01 0.  1.
</event>
<event>
 5   0  0.1068522E-01  0.5110053E+03  0.7818609E-02  0.1010946E+00
        1   -1    0    0  501    0  0.00000000000E+00  0.00000000000E+00  0.14217138614E+04  0.14217138615E+04  0.50400001928E-02 0.  1.
       -1   -1    0    0    0  501  0.00000000000E+00  0.00000000000E+00 -0.45917532097E+02  0.45917532373E+02  0.50400001928E-02 0. -1.
    10030    2    1    2    0    0  0.00000000000E+00  0.00000000000E+00  0.13757963294E+04  0.14676313938E+04  0.51100525271E+03 0.  0.
        2    1    3    3  502    0 -0.21303248214E+03 -0.65520118719E+02  0.10466842476E+04  0.10701512223E+04  0.25500000920E-02 0.  1.
       -2    1    3    3    0  502  0.21303248214E+03  0.65520118719E+02  0.32911208177E+03  0.39748017156E+03  0.25500000920E-02 0. -1.
</event>
<event>
 5   0  0.1709372E-01  0.4867061E+03  0.7818609E-02  0.1017308E+00
       -2   -1    0    0    0  501  0.00000000000E+00  0.00000000000E+00  0.56481813194E+02  0.56481813252E+02  0.25500000920E-02 0. -1.
        2   -1    0    0  501    0  0.00000000000E+00  0.00000000000E+00 -0.10484914204E+04  0.10484914204E+04  0.25500000920E-02 0.  1.
    10030    2    1    2    0    0  0.00000000000E+00  0.00000000000E+00 -0.99200960716E+03  0.11049732336E+04  0.48670605739E+03 0.  0.
        4    1    3    3  502    0 -0.17728942598E+03  0.78527607664E+01 -0.11797359497E+03  0.21310229568E+03  0.12699999809E+01 0. -1.
       -4    1    3    3    0  502  0.17728942598E+03 -0.78527607664E+01 -0.87403601219E+03  0.89187093792E+03  0.12699999809E+01 0.  1.
</event>
<event>
 5   0  0.1683148E-01  0.4990928E+03  0.7818609E-02  0.1014016E+00
        2   -1    0    0  501    0  0.00000000000E+00  0.00000000000E+00  0.12595521074E+04  0.12595521074E+04  0.25500000920E-02 0.  1.
       -2   -1    0    0    0  501  0.00000000000E+00  0.00000000000E+00 -0.49440903061E+02  0.49440903126E+02  0.25500000920E-02 0. -1.
    10030    2    1    2    0    0  0.00000000000E+00  0.00000000000E+00  0.12101112044E+04  0.13089930105E+04  0.49909275165E+03 0.  0.
        2    1    3    3  502    0 -0.39807922088E+02 -0.18983841475E+03  0.19327545778E+03  0.27382238214E+03  0.25500000920E-02 0. -1.
       -2    1    3    3    0  502  0.39807922088E+02  0.18983841475E+03  0.10168357466E+04  0.10351706284E+04  0.25500000920E-02 0.  1.
</event>
<event>
 5   0  0.1147245E-01  0.4965173E+03  0.7818609E-02  0.1014692E+00
       -1   -1    0    0    0  501  0.00000000000E+00  0.00000000000E+00  0.36305714416E+02  0.36305714766E+02  0.50400001928E-02 0. -1.
        1   -1    0    0  501    0  0.00000000000E+00  0.00000000000E+00 -0.16975936275E+04  0.16975936275E+04  0.50400001928E-02 0.  1.
    10030    2    1    2    0    0  0.00000000000E+00  0.00000000000E+00 -0.16612879130E+04  0.17338993422E+04  0.49651726956E+03 0.  0.
        1    1    3    3  502    0 -0.32386974442E+02  0.17868170554E+03 -0.23949157660E+03  0.30055329527E+03  0.50400001928E-02 0. -1.
       -1    1    3    3    0  502  0.32386974442E+02 -0.17868170554E+03 -0.14217963364E+04  0.14333460470E+04  0.50400001928E-02 0.  1.
</event>
<event>
 5   0  0.1123271E-01  0.4998629E+03  0.7818609E-02  0.1013815E+00
        1   -1    0    0  501    0  0.00000000000E+00  0.00000000000E+00  0.59657765360E+03  0.59657765362E+03  0.50400001928E-02 0.  1.
       -1   -1    0    0    0  501  0.00000000000E+00  0.00000000000E+00 -0.10470678865E+03  0.10470678877E+03  0.50400001928E-02 0. -1.
    10030    2    1    2    0    0  0.00000000000E+00  0.00000000000E+00  0.49187086496E+03  0.70128444239E+03  0.49986290256E+03 0.  0.
        5    1    3    3  502    0 -0.14432494579E+03  0.14861533819E+03  0.44198498734E+03  0.48814857140E+03  0.46999998093E+01 0.  1.
       -5    1    3    3    0  502  0.14432494579E+03 -0.14861533819E+03  0.49885877612E+02  0.21313587100E+03  0.46999998093E+01 0. -1.
</event>
<event>
 5   0  0.1147245E-01  0.5078725E+03  0.7818609E-02  0.1011744E+00
       -1   -1    0    0    0  501  0.00000000000E+00  0.00000000000E+00  0.75006647283E+02  0.75006647453E+02  0.50400001928E-02 0. -1.
        1   -1    0    0  501    0  0.00000000000E+00  0.00000000000E+00 -0.85970524898E+03  0.85970524900E+03  0.50400001928E-02 0.  1.
    10030    2    1    2    0    0  0.00000000000E+00  0.00000000000E+00 -0.78469860170E+03  0.93471189645E+03  0.50787245826E+03 0.  0.
        1    1    3    3  502    0  0.20253260681E+03  0.13212804482E+03 -0.24971375995E+03  0.34761219625E+03  0.50400001928E-02 0. -1.
       -1    1    3    3    0  502 -0.20253260681E+03 -0.13212804482E+03 -0.53498484174E+03  0.58709970020E+03  0.50400001928E-02 0.  1.
</event>
<event>
 5   0  0.1760649E-01  0.4896217E+03  0.7818609E-02  0.1016524E+00
       -2   -1    0    0    0  501  0.00000000000E+00  0.00000000000E+00  0.22522365860E+03  0.22522365861E+03  0.25500000920E-02 0.  1.
        2   -1    0    0  501    0  0.00000000000E+00  0.00000000000E+00 -0.26610149559E+03  0.26610149560E+03  0.25500000920E-02 0. -1.
    10030    2    1    2    0    0  0.00000000000E+00  0.00000000000E+00 -0.40877836993E+02  0.49132515422E+03  0.48962170051E+03 0.  0.
        5    1    3    3  502    0  0.13384174665E+03 -0.13829279869E+03 -0.17219917405E+03  0.25828890193E+03  0.46999998093E+01 0.  1.
       -5    1    3    3    0  502 -0.13384174665E+03  0.13829279869E+03  0.13132133706E+03  0.23303625229E+03  0.46999998093E+01 0. -1.
</event>
<event>
 5   0  0.1782124E-01  0.4960457E+03  0.7818609E-02  0.1014816E+00
       -2   -1    0    0    0  501  0.00000000000E+00  0.00000000000E+00  0.72617928255E+02  0.72617928300E+02  0.25500000920E-02 0.  1.
        2   -1    0    0  501    0  0.00000000000E+00  0.00000000000E+00 -0.84710930098E+03  0.84710930099E+03  0.25500000920E-02 0. -1.
    10030    2    1    2    0    0  0.00000000000E+00  0.00000000000E+00 -0.77449137273E+03  0.91972722929E+03  0.49604565300E+03 0.  0.
        3    1    3    3  502    0 -0.27216931663E+02 -0.22506898157E+03 -0.57375286793E+03  0.61691909640E+03  0.10100000352E+00 0. -1.
       -3    1    3    3    0  502  0.27216931663E+02  0.22506898157E+03 -0.20073850479E+03  0.30280813289E+03  0.10100000352E+00 0.  1.
</event>
<event>
 5   0  0.1782124E-01  0.4967904E+03  0.7818609E-02  0.1014620E+00
        2   -1    0    0  501    0  0.00000000000E+00  0.00000000000E+00  0.24812877203E+03  0.24812877204E+03  0.25500000920E-02 0. -1.
       -2   -1    0    0    0  501  0.00000000000E+00  0.00000000000E+00 -0.24866187339E+03  0.24866187340E+03  0.25500000920E-02 0.  1.
    10030    2    1    2    0    0  0.00000000000E+00  0.00000000000E+00 -0.53310135736E+00  0.49679064544E+03  0.49679035941E+03 0.  0.
        3    1    3    3  502    0 -0.95992942682E+02 -0.47104419304E+02  0.22393590609E+03  0.24815473318E+03  0.10100000352E+00 0. -1.
       -3    1    3    3    0  502  0.95992942682E+02  0.47104419304E+02 -0.22446900745E+03  0.24863591226E+03  0.10100000352E+00 0.  1.
</event>
<event>
 5   0  0.1068522E-01  0.5011184E+03  0.7818609E-02  0.1013487E+00
       -1   -1    0    0    0  501  0.00000000000E+00  0.00000000000E+00  0.10449213008E+03  0.10449213020E+03  0.50400001928E-02 0. -1.
        1   -1    0    0  501    0  0.00000000000E+00  0.00000000000E+00 -0.60081004216E+03  0.60081004218E+03  0.50400001928E-02 0.  1.
    10030    2    1    2    0    0  0.00000000000E+00  0.00000000000E+00 -0.49631791208E+03  0.70530217238E+03  0.50111843361E+03 0.  0.
        2    1    3    3  502    0 -0.13350196873E+03  0.14987436530E+02 -0.54583681687E+03  0.56212563503E+03  0.25500000920E-02 0.  1.
       -2    1    3    3    0  502  0.13350196873E+03 -0.14987436530E+02  0.49518904786E+02  0.14317653734E+03  0.25500000920E-02 0. -1.
</event>
<event>
 5   0  0.1709372E-01  0.5085285E+03  0.7818609E-02  0.1011577E+00
       -2   -1    0    0    0  501  0.00000000000E+00  0.00000000000E+00  0.54761475637E+02  0.54761475696E+02  0.25500000920E-02 0.  1.
        2   -1    0    0  501    0  0.00000000000E+00  0.00000000000E+00 -0.11805802226E+04  0.11805802226E+04  0.25500000920E-02 0. -1.
    10030    2    1    2    0    0  0.00000000000E+00  0.00000000000E+00 -0.11258187470E+04  0.12353416983E+04  0.50852852481E+03 0.  0.
        4    1    3    3  502    0  0.26662110948E+02 -0.15568539988E+03 -0.78885886722E+02  0.17655992728E+03  0.12699999809E+01 0.  1.
       -4    1    3    3    0  502 -0.26662110948E+02  0.15568539988E+03 -0.10469328603E+04  0.10587817710E+04  0.12699999809E+01 0. -1.
</event>
<event>
 5   0  0.1147245E-01  0.5038110E+03  0.7818609E-02  0.1012789E+00
        1   -1    0    0  501    0  0.00000000000E+00  0.00000000000E+00  0.67702059642E+03  0.67702059644E+03  0.50400001928E-02 0. -1.
       -1   -1    0    0    0  501  0.00000000000E+00  0.00000000000E+00 -0.93728892604E+02  0.93728892740E+02  0.50400001928E-02 0.  1.
    10030    2    1    2    0    0  0.00000000000E+00  0.00000000000E+00  0.58329170382E+03  0.77074948918E+03  0.50381103931E+03 0.  0.
        1    1    3    3  502    0  0.21322066327E+02 -0.16201280737E+03 -0.16430102952E+01  0.16341811335E+03  0.50400001928E-02 0. -1.
       -1    1    3    3    0  502 -0.21322066327E+02  0.16201280737E+03  0.58493471411E+03  0.60733137583E+03  0.50400001928E-02 0.  1.
</event>
<event>
 5   0  0.1782124E-01  0.4832865E+03  0.7818609E-02  0.1018236E+00
        2   -1    0    0  501    0  0.00000000000E+00  0.00000000000E+00  0.11682288357E+04  0.11682288357E+04  0.25500000920E-02 0.  1.
       -2   -1    0    0    0  501  0.00000000000E+00  0.00000000000E+00 -0.49982904500E+02  0.49982904565E+02  0.25500000920E-02 0. -1.
    10030    2    1    2    0    0  0.00000000000E+00  0.00000000000E+00  0.11182459312E+04  0.12182117403E+04  0.48328654180E+03 0.  0.
        3    1    3    3  502    0  0.10096062851E+02 -0.23981703494E+03  0.48884521648E+03  0.54459507582E+03  0.10100000352E+00 0.  1.
       -3    1    3    3    0  502 -0.10096062851E+02  0.23981703494E+03  0.62940071473E+03  0.67361666445E+03  0.10100000352E+00 0. -1.
</event>
<event>
 5   0  0.1147245E-01  0.4885782E+03  0.7818609E-02  0.1016804E+00
        1   -1    0    0  501    0  0.00000000000E+00  0.00000000000E+00  0.11855716478E+03  0.11855716489E+03  0.50400001928E-02 0.  1.
       -1   -1    0    0    0  501  0.00000000000E+00  0.00000000000E+00 -0.50336203866E+03  0.50336203869E+03  0.50400001928E-02 0. -1.
    10030    2    1    2    0    0  0.00000000000E+00  0.00000000000E+00 -0.38480487388E+03  0.62191920357E+03  0.48857824840E+03 0.  0.
        1    1    3    3  502    0 -0.15217757565E+03  0.15789887459E+03 -0.32942350504E+03  0.39573970590E+03  0.50400001928E-02 0. -1.
       -1    1    3    3    0  502  0.15217757565E+03 -0.15789887459E+03 -0.55381368837E+02  0.22617949767E+03  0.50400001928E-02 0.  1.
</event>
<event>
 5   0  0.7220250E-02  0.5049625E+03  0.7818609E-02  0.1012492E+00
       -3   -1    0    0    0  501  0.00000000000E+00  0.00000000000E+00  0.36014471102E+03  0.36014472518E+03  0.10100000352E+00 0. -1.
        3   -1    0    0  501    0  0.00000000000E+00  0.00000000000E+00 -0.17700321909E+03  0.17700324790E+03  0.10100000352E+00 0.  1.
    10030    2    1    2    0    0  0.00000000000E+00  0.00000000000E+00  0.18314149193E+03  0.53714797309E+03  0.50496251240E+03 0.  0.
        3    1    3    3  502    0  0.55132918684E+02 -0.22763054446E+03 -0.87340300138E+01  0.23437490688E+03  0.10100000352E+00 0.  1.
       -3    1    3    3    0  502 -0.55132918684E+02  0.22763054446E+03  0.19187552195E+03  0.30277306620E+03  0.10100000352E+00 0. -1.
</event>
<event>
 5   0  0.1760649E-01  0.4927177E+03  0.7818609E-02  0.1015697E+00
        2   -1    0    0  501    0  0.00000000000E+00  0.00000000000E+00  0.82750646781E+03  0.82750646782E+03  0.25500000920E-02 0.  1.
       -2   -1    0    0    0  501  0.00000000000E+00  0.00000000000E+00 -0.73344072351E+02  0.73344072396E+02  0.25500000920E-02 0. -1.
    10030    2    1    2    0    0  0.00000000000E+00  0.00000000000E+00  0.75416239546E+03  0.90085054021E+03  0.49271774585E+03 0.  0.
        5    1    3    3  502    0  0.13598038273E+03  0.71574389796E+02  0.72903846772E+03  0.74507230198E+03  0.46999998093E+01 0.  1.
       -5    1    3    3    0  502 -0.13598038273E+03 -0.71574389796E+02  0.25123927740E+02  0.15577823823E+03  0.46999998093E+01 0. -1.
</event>
<event>
 5   0  0.1123271E-01  0.5008406E+03  0.7818609E-02  0.1013560E+00
        1   -1    0    0  501    0  0.00000000000E+00  0.00000000000E+00  0.97335991467E+03  0.97335991469E+03  0.50400001928E-02 0. -1.
       -1   -1    0    0    0  501  0.00000000000E+00  0.00000000000E+00 -0.64426645505E+02  0.64426645703E+02  0.50400001928E-02 0.  1.
    10030    2    1    2    0    0  0.00000000000E+00  0.00000000000E+00  0.90893326917E+03  0.10377865604E+04  0.50084055060E+03 0.  0.
        5    1    3    3  502    0  0.18120448699E+02  0.10310159473E+03  0.92574719190E+03  0.93165886612E+03  0.46999998093E+01 0. -1.
       -5    1    3    3    0  502 -0.18120448699E+02 -0.10310159473E+03 -0.16813922734E+02  0.10612769428E+03  0.46999998093E+01 0.  1.
</event>
<event>
 5   0  0.1068522E-01  0.4951318E+03  0.7818609E-02  0.1015057E+00
       -1   -1    0    0    0  501  0.00000000000E+00  0.00000000000E+00  0.28951976105E+03  0.28951976109E+03  0.50400001928E-02 0.  1.
        1   -1    0    0  501    0  0.00000000000E+00  0.00000000000E+00 -0.21169154759E+03  0.21169154765E+03  0.50400001928E-02 0. -1.
    10030    2    1    2    0    0  0.00000000000E+00  0.00000000000E+00  0.77828213453E+02  0.50121130875E+03  0.49513184629E+03 0.  0.
        2    1    3    3  502    0  0.16343993661E+03 -0.13143511640E+03 -0.94234508196E+02  0.22993030519E+03  0.25500000920E-02 0. -1.
       -2    1    3    3    0  502 -0.16343993661E+03  0.13143511640E+03  0.17206272165E+03  0.27128100356E+03  0.25500000920E-02 0.  1.
</event>
<event>
 5   0  0.1683148E-01  0.5287683E+03  0.7818609E-02  0.1006531E+00
       -2   -1    0    0    0  501  0.00000000000E+00  0.00000000000E+00  0.15732180409E+03  0.15732180411E+03  0.25500000920E-02 0. -1.
        2   -1    0    0  501    0  0.00000000000E+00  0.00000000000E+00 -0.44430571986E+03  0.44430571987E+03  0.25500000920E-02 0.  1.
    10030    2    1    2    0    0  0.00000000000E+00  0.00000000000E+00 -0.28698391577E+03  0.60162752398E+03  0.52876829491E+03 0.  0.
        2    1    3    3  502    0  0.41238328591E+02  0.92917882401E+02 -0.42117960968E+03  0.43327427368E+03  0.25500000920E-02 0.  1.
       -2    1    3    3    0  502 -0.41238328591E+02 -0.92917882401E+02  0.13419569391E+03  0.16835325030E+03  0.25500000920E-02 0. -1.
</event>
<event>
 5   0  0.1782124E-01  0.4978208E+03  0.7818609E-02  0.1014349E+00
       -2   -1    0    0    0  501  0.00000000000E+00  0.00000000000E+00  0.10570729664E+03  0.10570729668E+03  0.25500000920E-02 0.  1.
        2   -1    0    0  501    0  0.00000000000E+00  0.00000000000E+00 -0.58611259287E+03  0.58611259287E+03  0.25500000920E-02 0. -1.
    10030    2    1    2    0    0  0.00000000000E+00  0.00000000000E+00 -0.48040529622E+03  0.69181988955E+03  0.49782076186E+03 0.  0.
        3    1    3    3  502    0 -0.10872214172E+03  0.14624966206E+03 -0.45808065642E+01  0.18229224269E+03  0.10100000352E+00 0.  1.
       -3    1    3    3    0  502  0.10872214172E+03 -0.14624966206E+03 -0.47582448966E+03  0.50952764686E+03  0.10100000352E+00 0. -1.
</event>
<event>
 5   0  0.1141970E-01  0.5171689E+03  0.7818609E-02  0.1009392E+00
        1   -1    0    0  501    0  0.00000000000E+00  0.00000000000E+00  0.62313042792E+03  0.62313042794E+03  0.50400001928E-02 0. -1.
       -1   -1    0    0    0  501  0.00000000000E+00  0.00000000000E+00 -0.10730643781E+03  0.10730643793E+03  0.50400001928E-02 0.  1.
    10030    2    1    2    0    0  0.00000000000E+00  0.00000000000E+00  0.51582399011E+03  0.73043686587E+03  0.51716885661E+03 0.  0.
        3    1    3    3  502    0 -0.50111285468E+02 -0.13708049025E+03 -0.43568893339E+02  0.15231697347E+03  0.10100000352E+00 0.  1.
       -3    1    3    3    0  502  0.50111285468E+02  0.13708049025E+03  0.55939288345E+03  0.57811989240E+03  0.10100000352E+00 0. -1.
</event>
<event>
 5   0  0.1760649E-01  0.4896736E+03  0.7818609E-02  0.1016510E+00
       -2   -1    0    0    0  501  0.00000000000E+00  0.00000000000E+00  0.29256419874E+02  0.29256419985E+02  0.25500000920E-02 0. -1.
        2   -1    0    0  501    0  0.00000000000E+00  0.00000000000E+00 -0.20489537350E+04  0.20489537350E+04  0.25500000920E-02 0.  1.
    10030    2    1    2    0    0  0.00000000000E+00  0.00000000000E+00 -0.20196973151E+04  0.20782101550E+04  0.48967356837E+03 0.  0.
        5    1    3    3  502    0 -0.10015045292E+03  0.21552047386E+03 -0.12589064073E+04  0.12811505065E+04  0.46999998093E+01 0.  1.
       -5    1    3    3    0  502  0.10015045292E+03 -0.21552047386E+03 -0.76079090783E+03  0.79705964853E+03  0.46999998093E+01 0. -1.
</event>
<event>
 5   0  0.1709372E-01  0.5054253E+03  0.7818609E-02  0.1012372E+00
       -2   -1    0    0    0  501  0.00000000000E+00  0.00000000000E+00  0.14262233757E+03  0.14262233760E+03  0.25500000920E-02 0.  1.
        2   -1    0    0  501    0  0.00000000000E+00  0.00000000000E+00 -0.44778168758E+03  0.44778168759E+03  0.25500000920E-02 0. -1.
    10030    2    1    2    0    0  0.00000000000E+00  0.00000000000E+00 -0.30515935000E+03  0.59040402518E+03  0.50542525071E+03 0.  0.
        4    1    3    3  502    0  0.39660311541E+02  0.18542824957E+03 -0.34771555855E+03  0.39606097839E+03  0.12699999809E+01 0. -1.
       -4    1    3    3    0  502 -0.39660311541E+02 -0.18542824957E+03  0.42556208543E+02  0.19434304679E+03  0.12699999809E+01 0.  1.
</event>
<event>
 5   0  0.1683148E-01  0.4976083E+03  0.7818609E-02  0.1014405E+00
       -2   -1    0    0    0  501  0.00000000000E+00  0.00000000000E+00  0.14207282549E+03  0.14207282551E+03  0.25500000920E-02 0. -1.
        2   -1    0    0  501    0  0.00000000000E+00  0.00000000000E+00 -0.43571676852E+03  0.43571676853E+03  0.25500000920E-02 0.  1.
    10030    2    1    2    0    0  0.00000000000E+00  0.00000000000E+00 -0.29364394303E+03  0.57778959405E+03  0.49760832962E+03 0.  0.
        2    1    3    3  502    0  0.10148130966E+03  0.21869085565E+02 -0.40936855860E+03  0.42232609425E+03  0.25500000920E-02 0.  1.
       -2    1    3    3    0  502 -0.10148130966E+03 -0.21869085565E+02  0.11572461556E+03  0.15546349979E+03  0.25500000920E-02 0. -1.
</event>
<event>
 5   0  0.7220250E-02  0.4940864E+03  0.7818609E-02  0.1015334E+00
        4   -1    0    0  501    0  0.00000000000E+00  0.00000000000E+00  0.25188379784E+04  0.25188382986E+04  0.12699999809E+01 0.  1.
       -4   -1    0    0    0  501  0.00000000000E+00  0.00000000000E+00 -0.24212595719E+02  0.24245879886E+02  0.12699999809E+01 0. -1.
    10030    2    1    2    0    0  0.00000000000E+00  0.00000000000E+00  0.24946253827E+04  0.25430841784E+04  0.49408636774E+03 0.  0.
        4    1    3    3  502    0 -0.25200504338E+02 -0.15387725220E+03  0.22335519317E+04  0.22389884141E+04  0.12699999809E+01 0.  1.
       -4    1    3    3    0  502  0.25200504338E+02  0.15387725220E+03  0.26107345097E+03  0.30409576430E+03  0.12699999809E+01 0. -1.
</event>
<event>
 5   0  0.1683148E-01  0.4944310E+03  0.7818609E-02  0.1015243E+00
       -2   -1    0    0    0  501  0.00000000000E+00  0.00000000000E+00  0.62019423608E+02  0.62019423660E+02  0.25500000920E-02 0.  1.
        2   -1    0    0  501    0  0.00000000000E+00  0.00000000000E+00 -0.98542532049E+03  0.98542532050E+03  0.25500000920E-02 0. -1.
    10030    2    1    2    0    0  0.00000000000E+00  0.00000000000E+00 -0.92340589688E+03  0.10474447442E+04  0.49443102821E+03 0.  0.
        2    1    3    3  502    0 -0.17805409352E+03  0.16872714337E+03 -0.52677187393E+03  0.58108580803E+03  0.25500000920E-02 0.  1.
       -2    1    3    3    0  502  0.17805409352E+03 -0.16872714337E+03 -0.39663402295E+03  0.46635893612E+03  0.25500000920E-02 0. -1.
</event>
<event>
 5   0  0.1760649E-01  0.5130108E+03  0.7818609E-02  0.1010438E+00
       -2   -1    0    0    0  501  0.00000000000E+00  0.00000000000E+00  0.96523885939E+02  0.96523885973E+02  0.25500000920E-02 0.  1.
        2   -1    0    0  501    0  0.00000000000E+00  0.00000000000E+00 -0.68164489468E+03  0.68164489468E+03  0.25500000920E-02 0. -1.
    10030    2    1    2    0    0  0.00000000000E+00  0.00000000000E+00 -0.58512100874E+03  0.77816878065E+03  0.51301077602E+03 0.  0.
        5    1    3    3  502    0 -0.10866400969E+03  0.12487506404E+03 -0.58969319339E+03  0.61250453137E+03  0.46999998093E+01 0. -1.
       -5    1    3    3    0  502  0.10866400969E+03 -0.12487506404E+03  0.45721846506E+01  0.16566424929E+03  0.46999998093E+01 0.  1.
</event>
<event>
 5   0  0.7220250E-02  0.5107833E+03  0.7818609E-02  0.1011002E+00
        3   -1    0    0  501    0  0.00000000000E+00  0.00000000000E+00  0.89984669075E+02  0.89984725757E+02  0.10100000352E+00 0. -1.
       -3   -1    0    0    0  501  0.00000000000E+00  0.00000000000E+00 -0.72484437967E+03  0.72484438670E+03  0.10100000352E+00 0.  1.
    10030    2    1    2    0    0  0.00000000000E+00  0.00000000000E+00 -0.63485971059E+03  0.81482911246E+03  0.51078334975E+03 0.  0.
        5    1    3    3  502    0  0.15083932609E+03  0.20172996525E+03 -0.38426578411E+03  0.45948858963E+03  0.46999998093E+01 0.  1.
       -5    1    3    3    0  502 -0.15083932609E+03 -0.20172996525E+03 -0.25059392649E+03  0.35534052283E+03  0.46999998093E+01 0. -1.
</event>
<event>
 5   0  0.1709372E-01  0.5039905E+03  0.7818609E-02  0.1012743E+00
       -2   -1    0    0    0  501  0.00000000000E+00  0.00000000000E+00  0.38061585154E+03  0.38061585155E+03  0.25500000920E-02 0. -1.
        2   -1    0    0  501    0  0.00000000000E+00  0.00000000000E+00 -0.16683913025E+03  0.16683913027E+03  0.25500000920E-02 0.  1.
    10030    2    1    2    0    0  0.00000000000E+00  0.00000000000E+00  0.21377672129E+03  0.54745498181E+03  0.50399054609E+03 0.  0.
        4    1    3    3  502    0  0.17900435445E+03 -0.12289225685E+03 -0.32027069141E+02  0.21948214453E+03  0.12699999809E+01 0.  1.
       -4    1    3    3    0  502 -0.17900435445E+03  0.12289225685E+03  0.24580379043E+03  0.32797283729E+03  0.12699999809E+01 0. -1.
</event>
<event>
 5   0  0.1683148E-01  0.5048632E+03  0.7818609E-02  0.1012517E+00
       -2   -1    0    0    0  501  0.00000000000E+00  0.00000000000E+00  0.54084197610E+03  0.54084197610E+03  0.25500000920E-02 0.  1.
        2   -1    0    0  501    0  0.00000000000E+00  0.00000000000E+00 -0.11781947420E+03  0.11781947423E+03  0.25500000920E-02 0. -1.
    10030    2    1    2    0    0  0.00000000000E+00  0.00000000000E+00  0.42302250189E+03  0.65866145033E+03  0.50486321816E+03 0.  0.
        2    1    3    3  502    0 -0.24787260673E+03  0.29615679069E+02  0.26039236309E+03  0.36072441056E+03  0.25500000920E-02 0. -1.
       -2    1    3    3    0  502  0.24787260673E+03 -0.29615679069E+02  0.16263013881E+03  0.29793703977E+03  0.25500000920E-02 0.  1.
</event>
<event>
 5   0  0.1760649E-01  0.4955744E+03  0.7818609E-02  0.1014941E+00
        2   -1    0    0  501    0  0.00000000000E+00  0.00000000000E+00  0.10484247699E+04  0.10484247699E+04  0.25500000920E-02 0.  1.
       -2   -1    0    0    0  501  0.00000000000E+00  0.00000000000E+00 -0.58562615077E+02  0.58562615133E+02  0.25500000920E-02 0. -1.
    10030    2    1    2    0    0  0.00000000000E+00  0.00000000000E+00  0.98986215485E+03  0.11069873851E+04  0.49557439914E+03 0.  0.
        5    1    3    3  502    0  0.11267729851E+03 -0.20261581406E+03  0.29985117926E+03  0.37905429876E+03  0.46999998093E+01 0. -1.
       -5    1    3    3    0  502 -0.11267729851E+03  0.20261581406E+03  0.69001097559E+03  0.72793308631E+03  0.46999998093E+01 0.  1.
</event>
<event>
 5   0  0.1074281E-01  0.5049691E+03  0.7818609E-02  0.1012490E+00
        1   -1    0    0  501    0  0.00000000000E+00  0.00000000000E+00  0.72755413704E+03  0.72755413706E+03  0.50400001928E-02 0.  1.
       -1   -1    0    0    0  501  0.00000000000E+00  0.00000000000E+00 -0.87620197917E+02  0.87620198062E+02  0.50400001928E-02 0. -1.
    10030    2    1    2    0    0  0.00000000000E+00  0.00000000000E+00  0.63993393912E+03  0.81517433512E+03  0.50496905865E+03 0.  0.
        4    1    3    3  502    0  0.17566130424E+03  0.16606921721E+03  0.43761148089E+03  0.49994129637E+03  0.12699999809E+01 0. -1.
       -4    1    3    3    0  502 -0.17566130424E+03 -0.16606921721E+03  0.20232245823E+03  0.31523303875E+03  0.12699999809E+01 0.  1.
</event>
<event>
 5   0  0.1782124E-01  0.4826368E+03  0.7818609E-02  0.1018413E+00
        2   -1    0    0  501    0  0.00000000000E+00  0.00000000000E+00  0.13354307200E+03  0.13354307202E+03  0.25500000920E-02 0. -1.
       -2   -1    0    0    0  501  0.00000000000E+00  0.00000000000E+00 -0.43607325134E+03  0.43607325135E+03  0.25500000920E-02 0.  1.
    10030    2    1    2    0    0  0.00000000000E+00  0.00000000000E+00 -0.30253017934E+03  0.56961632337E+03  0.48263676448E+03 0.  0.
        3    1    3    3  502    0 -0.20951342584E+03 -0.11160893655E+03 -0.20246695759E+03  0.31200209846E+03  0.10100000352E+00 0. -1.
       -3    1    3    3    0  502  0.20951342584E+03  0.11160893655E+03 -0.10006322175E+03  0.25761422491E+03  0.10100000352E+00 0.  1.
</event>
<event>
 5   0  0.1074281E-01  0.4951504E+03  0.7818609E-02  0.1015053E+00
        1   -1    0    0  501    0  0.00000000000E+00  0.00000000000E+00  0.83140062806E+03  0.83140062808E+03  0.50400001928E-02 0.  1.
       -1   -1    0    0    0  501  0.00000000000E+00  0.00000000000E+00 -0.73723157341E+02  0.73723157513E+02  0.50400001928E-02 0. -1.
    10030    2    1    2    0    0  0.00000000000E+00  0.00000000000E+00  0.75767747072E+03  0.90512378559E+03  0.49515039897E+03 0.  0.
        4    1    3    3  502    0  0.23168985812E+02  0.15482731143E+03  0.28250149554E+02  0.15908482680E+03  0.12699999809E+01 0. -1.
       -4    1    3    3    0  502 -0.23168985812E+02 -0.15482731143E+03  0.72942732117E+03  0.74603895879E+03  0.12699999809E+01 0.  1.
</event>
<event>
 5   0  0.1683148E-01  0.3941532E+03  0.7818609E-02  0.1045823E+00
       -2   -1    0    0    0  501  0.00000000000E+00  0.00000000000E+00  0.73286469077E+03  0.73286469078E+03  0.25500000920E-02 0.  1.
        2   -1    0    0  501    0  0.00000000000E+00  0.00000000000E+00 -0.52996397650E+02  0.52996397712E+02  0.25500000920E-02 0. -1.
    10030    2    1    2    0    0  0.00000000000E+00  0.00000000000E+00  0.67986829312E+03  0.78586108849E+03  0.39415321184E+03 0.  0.
        2    1    3    3  502    0  0.10823940970E+03 -0.10170022241E+03  0.59820949207E+03  0.61637107448E+03  0.25500000920E-02 0.  1.
       -2    1    3    3    0  502 -0.10823940970E+03  0.10170022241E+03  0.81658801054E+02  0.16949001401E+03  0.25500000920E-02 0. -1.
</event>
<event>
 5   0  0.1760649E-01  0.5136683E+03  0.7818609E-02  0.1010272E+00
        2   -1    0    0  501    0  0.00000000000E+00  0.00000000000E+00  0.27234040134E+03  0.27234040135E+03  0.25500000920E-02 0.  1.
       -2   -1    0    0    0  501  0.00000000000E+00  0.00000000000E+00 -0.24221074377E+03  0.24221074378E+03  0.25500000920E-02 0. -1.
    10030    2    1    2    0    0  0.00000000000E+00  0.00000000000E+00  0.30129657567E+02  0.51455114513E+03  0.51366826327E+03 0.  0.
        5    1    3    3  502    0 -0.16091547121E+03 -0.12611870294E+03 -0.14057907813E+03  0.24816180873E+03  0.46999998093E+01 0. -1.
       -5    1    3    3    0  502  0.16091547121E+03  0.12611870294E+03  0.17070873569E+03  0.26638933640E+03  0.46999998093E+01 0.  1.
</event>
<event>
 5   0  0.1147245E-01  0.5028560E+03  0.7818609E-02  0.1013036E+00
       -1   -1    0    0    0  501  0.00000000000E+00  0.00000000000E+00  0.59528787979E+02  0.59528788192E+02  0.50400001928E-02 0.  1.
        1   -1    0    0  501    0  0.00000000000E+00  0.00000000000E+00 -0.10619404470E+04  0.10619404470E+04  0.50400001928E-02 0. -1.
    10030    2    1    2    0    0  0.00000000000E+00  0.00000000000E+00 -0.10024116590E+04  0.11214692352E+04  0.50285595488E+03 0.  0.
        1    1    3    3  502    0  0.40003890403E+01 -0.16496581060E+03 -0.92427599585E+03  0.93889074887E+03  0.50400001928E-02 0. -1.
       -1    1    3    3    0  502 -0.40003890403E+01  0.16496581060E+03 -0.78135663131E+02  0.18257848630E+03  0.50400001928E-02 0.  1.
</event>
<event>
 5   0  0.1074281E-01  0.4994436E+03  0.7818609E-02  0.1013924E+00
        1   -1    0    0  501    0  0.00000000000E+00  0.00000000000E+00  0.16050273649E+04  0.16050273649E+04  0.50400001928E-02 0.  1.
       -1   -1    0    0    0  501  0.00000000000E+00  0.00000000000E+00 -0.38853528264E+02  0.38853528591E+02  0.50400001928E-02 0. -1.
    10030    2    1    2    0    0  0.00000000000E+00  0.00000000000E+00  0.15661738367E+04  0.16438808935E+04  0.49944359587E+03 0.  0.
        4    1    3    3  502    0  0.14050003120E+03 -0.56154431851E+02  0.12921261701E+03  0.19897510467E+03  0.12699999809E+01 0. -1.
       -4    1    3    3    0  502 -0.14050003120E+03  0.56154431851E+02  0.14369612197E+04  0.14449057889E+04  0.12699999809E+01 0.  1.
</event>
<event>
 5   0  0.1141970E-01  0.5048351E+03  0.7818609E-02  0.1012525E+00
        1   -1    0    0  501    0  0.00000000000E+00  0.00000000000E+00  0.11611819955E+03  0.11611819966E+03  0.50400001928E-02 0. -1.
       -1   -1    0    0    0  501  0.00000000000E+00  0.00000000000E+00 -0.54870478255E+03  0.54870478258E+03  0.50400001928E-02 0.  1.
    10030    2    1    2    0    0  0.00000000000E+00  0.00000000000E+00 -0.43258658300E+03  0.66482298224E+03  0.50483506803E+03 0.  0.
        3    1    3    3  502    0  0.59760718556E+00 -0.68355485909E+02  0.10369655598E+03  0.12420070657E+03  0.10100000352E+00 0. -1.
       -3    1    3    3    0  502 -0.59760718556E+00  0.68355485909E+02 -0.53628313899E+03  0.54062227567E+03  0.10100000352E+00 0.  1.
</event>
<event>
 5   0  0.1123271E-01  0.5044046E+03  0.7818609E-02  0.1012636E+00
        1   -1    0    0  501    0  0.00000000000E+00  0.00000000000E+00  0.79029666230E+03  0.79029666232E+03  0.50400001928E-02 0. -1.
       -1   -1    0    0    0  501  0.00000000000E+00  0.00000000000E+00 -0.80483685772E+02  0.80483685930E+02  0.50400001928E-02 0.  1.
    10030    2    1    2    0    0  0.00000000000E+00  0.00000000000E+00  0.70981297653E+03  0.87078034825E+03  0.50440455316E+03 0.  0.
        5    1    3    3  502    0  0.98290517343E+02  0.11213913607E+03  0.38676008561E+01  0.14924228614E+03  0.46999998093E+01 0.  1.
       -5    1    3    3    0  502 -0.98290517343E+02 -0.11213913607E+03  0.70594537567E+03  0.72153806211E+03  0.46999998093E+01 0. -1.
</event>
<event>
 5   0  0.1123271E-01  0.4997570E+03  0.7818609E-02  0.1013842E+00
       -1   -1    0    0    0  501  0.00000000000E+00  0.00000000000E+00  0.31402298327E+03  0.31402298331E+03  0.50400001928E-02 0. -1.
        1   -1    0    0  501    0  0.00000000000E+00  0.00000000000E+00 -0.19883664011E+03  0.19883664017E+03  0.50400001928E-02 0.  1.
    10030    2    1    2    0    0  0.00000000000E+00  0.00000000000E+00  0.11518634317E+03  0.51285962349E+03  0.49975704072E+03 0.  0.
        5    1    3    3  502    0 -0.76825364042E+01  0.17124889276E+03 -0.12891887747E+03  0.21453990678E+03  0.46999998093E+01 0.  1.
       -5    1    3    3    0  502  0.76825364042E+01 -0.17124889276E+03  0.24410522063E+03  0.29831971670E+03  0.46999998093E+01 0. -1.
</event>
<event>
 5   0  0.1147245E-01  0.4977744E+03  0.7818609E-02  0.1014361E+00
       -1   -1    0    0    0  501  0.00000000000E+00  0.00000000000E+00  0.26010575490E+03  0.26010575495E+03  0.50400001928E-02 0.  1.
        1   -1    0    0  501    0  0.00000000000E+00  0.00000000000E+00 -0.23815254376E+03  0.23815254381E+03  0.50400001928E-02 0. -1.
    10030    2    1    2    0    0  0.00000000000E+00  0.00000000000E+00  0.21953211141E+02  0.49825829876E+03  0.49777443567E+03 0.  0.
        1    1    3    3  502    0 -0.83956652595E+02 -0.16600196516E+03  0.17648386187E+03  0.25642138265E+03  0.50400001928E-02 0.  1.
       -1    1    3    3    0  502  0.83956652595E+02  0.16600196516E+03 -0.15453065073E+03  0.24183691611E+03  0.50400001928E-02 0. -1.
</event>
<event>
 5   0  0.1760649E-01  0.4980130E+03  0.7818609E-02  0.1014299E+00
       -2   -1    0    0    0  501  0.00000000000E+00  0.00000000000E+00  0.14575788427E+03  0.14575788429E+03  0.25500000920E-02 0.  1.
        2   -1    0    0  501    0  0.00000000000E+00  0.00000000000E+00 -0.42539199831E+03  0.42539199832E+03  0.25500000920E-02 0. -1.
    10030    2    1    2    0    0  0.00000000000E+00  0.00000000000E+00 -0.27963411404E+03  0.57114988261E+03  0.49801300251E+03 0.  0.
        5    1    3    3  502    0  0.58420698831E+02  0.18331849419E+03  0.41384590360E+02  0.19685889028E+03  0.46999998093E+01 0.  1.
       -5    1    3    3    0  502 -0.58420698831E+02 -0.18331849419E+03 -0.32101870440E+03  0.37429099233E+03  0.46999998093E+01 0. -1.
</event>
<event>
 5   0  0.7220250E-02  0.4818841E+03  0.7818609E-02  0.1018619E+00
        3   -1    0    0  501    0  0.00000000000E+00  0.00000000000E+00  0.18507359343E+03  0.18507362099E+03  0.10100000352E+00 0.  1.
       -3   -1    0    0    0  501  0.00000000000E+00  0.00000000000E+00 -0.31367549019E+03  0.31367550645E+03  0.10100000352E+00 0. -1.
    10030    2    1    2    0    0  0.00000000000E+00  0.00000000000E+00 -0.12860189676E+03  0.49874912744E+03  0.48188405687E+03 0.  0.
        1    1    3    3  502    0 -0.17171210400E+03 -0.51867885942E+02  0.10219464232E+03  0.20644386452E+03  0.50400001928E-02 0.  1.
       -1    1    3    3    0  502  0.17171210400E+03  0.51867885942E+02 -0.23079653908E+03  0.29230526292E+03  0.50400001928E-02 0. -1.
</event>
<event>
 5   0  0.1123271E-01  0.5016944E+03  0.7818609E-02  0.1013338E+00
        1   -1    0    0  501    0  0.00000000000E+00  0.00000000000E+00  0.11961648811E+04  0.11961648811E+04  0.50400001928E-02 0.  1.
       -1   -1    0    0    0  501  0.00000000000E+00  0.00000000000E+00 -0.52605056494E+02  0.52605056736E+02  0.50400001928E-02 0. -1.
    10030    2    1    2    0    0  0.00000000000E+00  0.00000000000E+00  0.11435598246E+04  0.12487699378E+04  0.50169441417E+03 0.  0.
        5    1    3    3  502    0  0.98091030763E+01  0.20795569762E+03  0.22365709750E+03  0.30559184861E+03  0.46999998093E+01 0. -1.
       -5    1    3    3    0  502 -0.98091030763E+01 -0.20795569762E+03  0.91990272708E+03  0.94317808921E+03  0.46999998093E+01 0.  1.
</event>
<event>
 5   0  0.1760649E-01  0.4955187E+03  0.7818609E-02  0.1014955E+00
        2   -1    0    0  501    0  0.00000000000E+00  0.00000000000E+00  0.13775126516E+04  0.13775126516E+04  0.25500000920E-02 0. -1.
       -2   -1    0    0    0  501  0.00000000000E+00  0.00000000000E+00 -0.44561974921E+02  0.44561974994E+02  0.25500000920E-02 0.  1.
    10030    2    1    2    0    0  0.00000000000E+00  0.00000000000E+00  0.13329506767E+04  0.14220746266E+04  0.49551865469E+03 0.  0.
        5    1    3    3  502    0 -0.36427060598E+02  0.19830565140E+03  0.25346777217E+03  0.32391366697E+03  0.46999998093E+01 0.  1.
       -5    1    3    3    0  502  0.36427060598E+02 -0.19830565140E+03  0.10794829045E+04  0.10981609596E+04  0.46999998093E+01 0. -1.
</event>
<event>
 5   0  0.1074281E-01  0.5034220E+03  0.7818609E-02  0.1012890E+00
        1   -1    0    0  501    0  0.00000000000E+00  0.00000000000E+00  0.16878430986E+03  0.16878430993E+03  0.50400001928E-02 0.  1.
       -1   -1    0    0    0  501  0.00000000000E+00  0.00000000000E+00 -0.37538098021E+03  0.37538098024E+03  0.50400001928E-02 0. -1.
    10030    2    1    2    0    0  0.00000000000E+00  0.00000000000E+00 -0.20659667035E+03  0.54416529018E+03  0.50342196896E+03 0.  0.
        4    1    3    3  502    0  0.10080644577E+03  0.11377576379E+03 -0.32015926068E+03  0.35441561624E+03  0.12699999809E+01 0. -1.
       -4    1    3    3    0  502 -0.10080644577E+03 -0.11377576379E+03  0.11356259033E+03  0.18974967393E+03  0.12699999809E+01 0.  1.
</event>
<event>
 5   0  0.1123271E-01  0.4953493E+03  0.7818609E-02  0.1015000E+00
        1   -1    0    0  501    0  0.00000000000E+00  0.00000000000E+00  0.49605658270E+03  0.49605658272E+03  0.50400001928E-02 0.  1.
       -1   -1    0    0    0  501  0.00000000000E+00  0.00000000000E+00 -0.12366075377E+03  0.12366075387E+03  0.50400001928E-02 0. -1.
    10030    2    1    2    0    0  0.00000000000E+00  0.00000000000E+00  0.37239582893E+03  0.61971733660E+03  0.49534929482E+03 0.  0.
        5    1    3    3  502    0 -0.36232598228E+02 -0.40652558896E+02 -0.11602118837E+03  0.12825146341E+03  0.46999998093E+01 0. -1.
       -5    1    3    3    0  502  0.36232598228E+02  0.40652558896E+02  0.48841701730E+03  0.49146587318E+03  0.46999998093E+01 0.  1.
</event>
<event>
 5   0  0.1782124E-01  0.5034442E+03  0.7818609E-02  0.1012884E+00
       -2   -1    0    0    0  501  0.00000000000E+00  0.00000000000E+00  0.41520275205E+03  0.41520275206E+03  0.25500000920E-02 0.  1.
        2   -1    0    0  501    0  0.00000000000E+00  0.00000000000E+00 -0.15260978818E+03  0.15260978820E+03  0.25500000920E-02 0. -1.
    10030    2    1    2    0    0  0.00000000000E+00  0.00000000000E+00  0.26259296387E+03  0.56781254026E+03  0.50344415401E+03 0.  0.
        3    1    3    3  502    0  0.23422212905E+03  0.89107936912E+02  0.10451699641E+03  0.27152171717E+03  0.10100000352E+00 0.  1.
       -3    1    3    3    0  502 -0.23422212905E+03 -0.89107936912E+02  0.15807596747E+03  0.29629082309E+03  0.10100000352E+00 0. -1.
</event>
<event>
 5   0  0.1760649E-01  0.4995919E+03  0.7818609E-02  0.1013885E+00
        2   -1    0    0  501    0  0.00000000000E+00  0.00000000000E+00  0.70750494836E+03  0.70750494836E+03  0.25500000920E-02 0.  1.
       -2   -1    0    0    0  501  0.00000000000E+00  0.00000000000E+00 -0.88194462825E+02  0.88194462862E+02  0.25500000920E-02 0. -1.
    10030    2    1    2    0    0  0.00000000000E+00  0.00000000000E+00  0.61931048553E+03  0.79569941123E+03  0.49959190899E+03 0.  0.
        5    1    3    3  502    0  0.18355320796E+03  0.84536687514E+02  0.54339536879E+03  0.57977482570E+03  0.46999998093E+01 0.  1.
       -5    1    3    3    0  502 -0.18355320796E+03 -0.84536687514E+02  0.75915116739E+02  0.21592458553E+03  0.46999998093E+01 0. -1.
</event>
<event>
 5   0  0.1123271E-01  0.5007726E+03  0.7818609E-02  0.1013577E+00
       -1   -1    0    0    0  501  0.00000000000E+00  0.00000000000E+00  0.98298268661E+02  0.98298268790E+02  0.50400001928E-02 0. -1.
        1   -1    0    0  501    0  0.00000000000E+00  0.00000000000E+00 -0.63778641395E+03  0.63778641397E+03  0.50400001928E-02 0.  1.
    10030    2    1    2    0    0  0.00000000000E+00  0.00000000000E+00 -0.53948814529E+03  0.73608468276E+03  0.50077260437E+03 0.  0.
        5    1    3    3  502    0  0.17463933234E+03  0.42236353166E+01 -0.53332132652E+03  0.56122229359E+03  0.46999998093E+01 0.  1.
       -5    1    3    3    0  502 -0.17463933234E+03 -0.42236353166E+01 -0.61668187669E+01  0.17486238918E+03  0.46999998093E+01 0. -1.
</event>
<event>
 5   0  0.1709372E-01  0.4957662E+03  0.7818609E-02  0.1014890E+00
       -2   -1    0    0    0  501  0.00000000000E+00  0.00000000000E+00  0.51343714327E+02  0.51343714391E+02  0.25500000920E-02 0. -1.
        2   -1    0    0  501    0  0.00000000000E+00  0.00000000000E+00 -0.11967586638E+04  0.11967586638E+04  0.25500000920E-02 0.  1.
    10030    2    1    2    0    0  0.00000000000E+00  0.00000000000E+00 -0.11454149494E+04  0.12481023782E+04  0.49576621503E+03 0.  0.
        4    1    3    3  502    0 -0.16309743439E+03 -0.17292701209E+03 -0.39576493728E+03  0.46166657135E+03  0.12699999809E+01 0. -1.
       -4    1    3    3    0  502  0.16309743439E+03  0.17292701209E+03 -0.74965001216E+03  0.78643580682E+03  0.12699999809E+01 0.  1.
</event>
<event>
 5   0  0.1147245E-01  0.4946025E+03  0.7818609E-02  0.1015197E+00
       -1   -1    0    0    0  501  0.00000000000E+00  0.00000000000E+00  0.25492211671E+03  0.25492211676E+03  0.50400001928E-02 0. -1.
        1   -1    0    0  501    0  0.00000000000E+00  0.00000000000E+00 -0.23990816277E+03  0.23990816282E+03  0.50400001928E-02 0.  1.
    10030    2    1    2    0    0  0.00000000000E+00  0.00000000000E+00  0.15013953943E+02  0.49483027958E+03  0.49460245327E+03 0.  0.
        1    1    3    3  502    0  0.14229375901E+03  0.10463251069E+03  0.18068327375E+03  0.25266958975E+03  0.50400001928E-02 0. -1.
       -1    1    3    3    0  502 -0.14229375901E+03 -0.10463251069E+03 -0.16566931981E+03  0.24216068983E+03  0.50400001928E-02 0.  1.
</event>
<event>
 5   0  0.1068522E-01  0.4959375E+03  0.7818609E-02  0.1014845E+00
        1   -1    0    0  501    0  0.00000000000E+00  0.00000000000E+00  0.13444038500E+03  0.13444038509E+03  0.50400001928E-02 0. -1.
       -1   -1    0    0    0  501  0.00000000000E+00  0.00000000000E+00 -0.45736623958E+03  0.45736623961E+03  0.50400001928E-02 0.  1.
    10030    2    1    2    0    0  0.00000000000E+00  0.00000000000E+00 -0.32292585459E+03  0.59180662471E+03  0.49593746933E+03 0.  0.
        2    1    3    3  502    0  0.14059964603E+03 -0.12123991213E+03  0.34694405028E+02  0.18886788637E+03  0.25500000920E-02 0. -1.
       -2    1    3    3    0  502 -0.14059964603E+03  0.12123991213E+03 -0.35762025961E+03  0.40293873833E+03  0.25500000920E-02 0.  1.
</event>
<event>
 5   0  0.1068522E-01  0.4985605E+03  0.7818609E-02  0.1014155E+00
        1   -1    0    0  501    0  0.00000000000E+00  0.00000000000E+00  0.53051193492E+03  0.53051193494E+03  0.50400001928E-02 0.  1.
       -1   -1    0    0    0  501  0.00000000000E+00  0.00000000000E+00 -0.11713337116E+03  0.11713337127E+03  0.50400001928E-02 0. -1.
    10030    2    1    2    0    0  0.00000000000E+00  0.00000000000E+00  0.41337856376E+03  0.64764530621E+03  0.49856053362E+03 0.  0.
        2    1    3    3  502    0  0.65771794909E+02 -0.22106512703E+03  0.32954852854E+03  0.40224116157E+03  0.25500000920E-02 0.  1.
       -2    1    3    3    0  502 -0.65771794909E+02  0.22106512703E+03  0.83830035217E+02  0.24540414464E+03  0.25500000920E-02 0. -1.
</event>
<event>
 5   0  0.1074281E-01  0.5056086E+03  0.7818609E-02  0.1012325E+00
       -1   -1    0    0    0  501  0.00000000000E+00  0.00000000000E+00  0.24929526056E+03  0.24929526061E+03  0.50400001928E-02 0.  1.
        1   -1    0    0  501    0  0.00000000000E+00  0.00000000000E+00 -0.25636275763E+03  0.25636275768E+03  0.50400001928E-02 0. -1.
    10030    2    1    2    0    0  0.00000000000E+00  0.00000000000E+00 -0.70674970699E+01  0.50565801828E+03  0.50560862526E+03 0.  0.
        4    1    3    3  502    0  0.17868988745E+03  0.17836984570E+03 -0.16283713583E+02  0.25300721326E+03  0.12699999809E+01 0.  1.
       -4    1    3    3    0  502 -0.17868988745E+03 -0.17836984570E+03  0.92162165129E+01  0.25265080502E+03  0.12699999809E+01 0. -1.
</event>
<event>
 5   0  0.1074281E-01  0.4879374E+03  0.7818609E-02  0.1016976E+00
       -1   -1    0    0    0  501  0.00000000000E+00  0.00000000000E+00  0.12891421457E+03  0.12891421467E+03  0.50400001928E-02 0. -1.
        1   -1    0    0  501    0  0.00000000000E+00  0.00000000000E+00 -0.46170803094E+03  0.46170803096E+03  0.50400001928E-02 0.  1.
    10030    2    1    2    0    0  0.00000000000E+00  0.00000000000E+00 -0.33279381637E+03  0.59062224563E+03  0.48793740666E+03 0.  0.
        4    1    3    3  502    0 -0.17860167547E+03  0.12052107706E+03 -0.30491362823E+03  0.37336017741E+03  0.12699999809E+01 0.  1.
       -4    1    3    3    0  502  0.17860167547E+03 -0.12052107706E+03 -0.27880188140E+02  0.21726206822E+03  0.12699999809E+01 0. -1.
</event>
<event>
 5   0  0.1123271E-01  0.5666953E+03  0.7818609E-02  0.9977018E-01
       -1   -1    0    0    0  501  0.00000000000E+00  0.00000000000E+00  0.19997502072E+03  0.19997502079E+03  0.50400001928E-02 0. -1.
        1   -1    0    0  501    0  0.00000000000E+00  0.00000000000E+00 -0.40147966265E+03  0.40147966269E+03  0.50400001928E-02 0.  1.
    10030    2    1    2    0    0  0.00000000000E+00  0.00000000000E+00 -0.20150464193E+03  0.60145468347E+03  0.56669534633E+03 0.  0.
        5    1    3    3  502    0 -0.27684996021E+03  0.25216683851E+02 -0.15870979304E+03  0.32014476416E+03  0.46999998093E+01 0. -1.
       -5    1    3    3    0  502  0.27684996021E+03 -0.25216683851E+02 -0.42794848892E+02  0.28130991931E+03  0.46999998093E+01 0.  1.
</event>
<event>
 5   0  0.1709372E-01  0.5031810E+03  0.7818609E-02  0.1012952E+00
       -2   -1    0    0    0  501  0.00000000000E+00  0.00000000000E+00  0.59577914167E+02  0.59577914222E+02  0.25500000920E-02 0.  1.
        2   -1    0    0  501    0  0.00000000000E+00  0.00000000000E+00 -0.10624369226E+04  0.10624369226E+04  0.25500000920E-02 0. -1.
    10030    2    1    2    0    0  0.00000000000E+00  0.00000000000E+00 -0.10028590084E+04  0.11220148368E+04  0.50318098459E+03 0.  0.
        4    1    3    3  502    0 -0.84779266562E+01  0.20119176278E+02  0.57454447516E+02  0.61475872778E+02  0.12699999809E+01 0.  1.
       -4    1    3    3    0  502  0.84779266562E+01 -0.20119176278E+02 -0.10603134559E+04  0.10605389640E+04  0.12699999809E+01 0. -1.
</event>
<event>
 5   0  0.1123271E-01  0.5070364E+03  0.7818609E-02  0.1011958E+00
       -1   -1    0    0    0  501  0.00000000000E+00  0.00000000000E+00  0.13686467474E+03  0.13686467483E+03  0.50400001928E-02 0. -1.
        1   -1    0    0  501    0  0.00000000000E+00  0.00000000000E+00 -0.46959872715E+03  0.46959872718E+03  0.50400001928E-02 0.  1.
    10030    2    1    2    0    0  0.00000000000E+00  0.00000000000E+00 -0.33273405241E+03  0.60646340201E+03  0.50703639745E+03 0.  0.
        5    1    3    3  502    0 -0.18844964531E+02 -0.17088369860E+03 -0.38915230470E+03  0.42546207515E+03  0.46999998093E+01 0.  1.
       -5    1    3    3    0  502  0.18844964531E+02  0.17088369860E+03  0.56418252288E+02  0.18100132686E+03  0.46999998093E+01 0. -1.
</event>
<event>
 5   0  0.1709372E-01  0.4770262E+03  0.7818609E-02  0.1019956E+00
       -2   -1    0    0    0  501  0.00000000000E+00  0.00000000000E+00  0.63289017859E+02  0.63289017910E+02  0.25500000920E-02 0. -1.
        2   -1    0    0  501    0  0.00000000000E+00  0.00000000000E+00 -0.89886846773E+03  0.89886846773E+03  0.25500000920E-02 0.  1.
    10030    2    1    2    0    0  0.00000000000E+00  0.00000000000E+00 -0.83557944987E+03  0.96215748564E+03  0.47702621535E+03 0.  0.
        4    1    3    3  502    0 -0.49509568557E+02  0.77350644702E+02 -0.86176861922E+03  0.86664934407E+03  0.12699999809E+01 0.  1.
       -4    1    3    3    0  502  0.49509568557E+02 -0.77350644702E+02  0.26189169349E+02  0.95508141568E+02  0.12699999809E+01 0. -1.
</event>
<event>
 5   0  0.1147245E-01  0.5134464E+03  0.7818609E-02  0.1010328E+00
        1   -1    0    0  501    0  0.00000000000E+00  0.00000000000E+00  0.15364003713E+04  0.15364003713E+04  0.50400001928E-02 0.  1.
       -1   -1    0    0    0  501  0.00000000000E+00  0.00000000000E+00 -0.42896896725E+02  0.42896897021E+02  0.50400001928E-02 0. -1.
    10030    2    1    2    0    0  0.00000000000E+00  0.00000000000E+00  0.14935034746E+04  0.15792972683E+04  0.51344642679E+03 0.  0.
        1    1    3    3  502    0 -0.15142449763E+03 -0.84390940753E+01  0.10962059588E+03  0.18712902463E+03  0.50400001928E-02 0. -1.
       -1    1    3    3    0  502  0.15142449763E+03  0.84390940753E+01  0.13838828787E+04  0.13921682437E+04  0.50400001928E-02 0.  1.
</event>
<event>
 5   0  0.7220250E-02  0.5022784E+03  0.7818609E-02  0.1013186E+00
       -3   -1    0    0    0  501  0.00000000000E+00  0.00000000000E+00  0.82530428004E+02  0.82530489805E+02  0.10100000352E+00 0. -1.
        3   -1    0    0  501    0  0.00000000000E+00  0.00000000000E+00 -0.76421344225E+03  0.76421344893E+03  0.10100000352E+00 0.  1.
    10030    2    1    2    0    0  0.00000000000E+00  0.00000000000E+00 -0.68168301425E+03  0.84674393873E+03  0.50227837487E+03 0.  0.
        4    1    3    3  502    0  0.59587595396E+02 -0.11754429320E+03  0.19550305256E+02  0.13323351577E+03  0.12699999809E+01 0. -1.
       -4    1    3    3    0  502 -0.59587595396E+02  0.11754429320E+03 -0.70123331951E+03  0.71351042296E+03  0.12699999809E+01 0.  1.
</event>
<event>
 5   0  0.1827698E-01  0.5162033E+03  0.7818609E-02  0.1009634E+00
       -2   -1    0    0    0  501  0.00000000000E+00  0.00000000000E+00  0.87180716064E+03  0.87180716064E+03  0.25500000920E-02 0. -1.
        2   -1    0    0  501    0  0.00000000000E+00  0.00000000000E+00 -0.76411931414E+02  0.76411931456E+02  0.25500000920E-02 0.  1.
    10030    2    1    2    0    0  0.00000000000E+00  0.00000000000E+00  0.79539522922E+03  0.94821909210E+03  0.51620332810E+03 0.  0.
        1    1    3    3  502    0 -0.82133541498E+02 -0.10792243553E+03  0.80107946193E+03  0.81247859977E+03  0.50400001928E-02 0. -1.
       -1    1    3    3    0  502  0.82133541498E+02  0.10792243553E+03 -0.56842327104E+01  0.13574049233E+03  0.50400001928E-02 0.  1.
</event>
<event>
 5   0  0.1147245E-01  0.5087277E+03  0.7818609E-02  0.1011526E+00
       -1   -1    0    0    0  501  0.00000000000E+00  0.00000000000E+00  0.68925728561E+02  0.68925728745E+02  0.50400001928E-02 0.  1.
        1   -1    0    0  501    0  0.00000000000E+00  0.00000000000E+00 -0.93870544388E+03  0.93870544390E+03  0.50400001928E-02 0. -1.
    10030    2    1    2    0    0  0.00000000000E+00  0.00000000000E+00 -0.86977971532E+03  0.10076311726E+04  0.50872765493E+03 0.  0.
        1    1    3    3  502    0  0.20169940533E+03  0.82707297504E+02 -0.17529257684E+03  0.27973314908E+03  0.50400001928E-02 0.  1.
       -1    1    3    3    0  502 -0.20169940533E+03 -0.82707297504E+02 -0.69448713848E+03  0.72789802357E+03  0.50400001928E-02 0. -1.
</event>
<event>
 5   0  0.1683148E-01  0.4972768E+03  0.7818609E-02  0.1014492E+00
        2   -1    0    0  501    0  0.00000000000E+00  0.00000000000E+00  0.44618050549E+03  0.44618050549E+03  0.25500000920E-02 0.  1.
       -2   -1    0    0    0  501  0.00000000000E+00  0.00000000000E+00 -0.13855614940E+03  0.13855614943E+03  0.25500000920E-02 0. -1.
    10030    2    1    2    0    0  0.00000000000E+00  0.00000000000E+00  0.30762435608E+03  0.58473665492E+03  0.49727679531E+03 0.  0.
        2    1    3    3  502    0  0.14568512084E+03  0.11870493694E+03 -0.37628630185E+02  0.19165315104E+03  0.25500000920E-02 0. -1.
       -2    1    3    3    0  502 -0.14568512084E+03 -0.11870493694E+03  0.34525298627E+03  0.39308350388E+03  0.25500000920E-02 0.  1.
</event>
<event>
 5   0  0.1147245E-01  0.4699274E+03  0.7818609E-02  0.1021941E+00
        1   -1    0    0  501    0  0.00000000000E+00  0.00000000000E+00  0.34526493279E+03  0.34526493283E+03  0.50400001928E-02 0. -1.
       -1   -1    0    0    0  501  0.00000000000E+00  0.00000000000E+00 -0.15990025788E+03  0.15990025796E+03  0.50400001928E-02 0.  1.
    10030    2    1    2    0    0  0.00000000000E+00  0.00000000000E+00  0.18536467491E+03  0.50516519078E+03  0.46992744895E+03 0.  0.
        1    1    3    3  502    0 -0.15702147364E+03 -0.61987234101E+02  0.26836861945E+03  0.31704869706E+03  0.50400001928E-02 0. -1.
       -1    1    3    3    0  502  0.15702147364E+03  0.61987234101E+02 -0.83003944541E+02  0.18811649372E+03  0.50400001928E-02 0.  1.
</event>
<event>
 5   0  0.1141970E-01  0.4970933E+03  0.7818609E-02  0.1014540E+00
       -1   -1    0    0    0  501  0.00000000000E+00  0.00000000000E+00  0.58405566079E+03  0.58405566082E+03  0.50400001928E-02 0.  1.
        1   -1    0    0  501    0  0.00000000000E+00  0.00000000000E+00 -0.10576978947E+03  0.10576978959E+03  0.50400001928E-02 0. -1.
    10030    2    1    2    0    0  0.00000000000E+00  0.00000000000E+00  0.47828587133E+03  0.68982545040E+03  0.49709332857E+03 0.  0.
        3    1    3    3  502    0 -0.20244996681E+03 -0.13042456415E+03  0.32444955307E+03  0.40405949894E+03  0.10100000352E+00 0.  1.
       -3    1    3    3    0  502  0.20244996681E+03  0.13042456415E+03  0.15383631826E+03  0.28576595146E+03  0.10100000352E+00 0. -1.
</event>
<event>
 5   0  0.1147245E-01  0.5008907E+03  0.7818609E-02  0.1013547E+00
       -1   -1    0    0    0  501  0.00000000000E+00  0.00000000000E+00  0.70533092603E+02  0.70533092783E+02  0.50400001928E-02 0.  1.
        1   -1    0    0  501    0  0.00000000000E+00  0.00000000000E+00 -0.88926862341E+03  0.88926862342E+03  0.50400001928E-02 0. -1.
    10030    2    1    2    0    0  0.00000000000E+00  0.00000000000E+00 -0.81873553081E+03  0.95980171621E+03  0.50089067173E+03 0.  0.
        1    1    3    3  502    0 -0.48194560790E+02  0.38188360351E+02  0.55843555199E+02  0.83063645710E+02  0.50400001928E-02 0.  1.
       -1    1    3    3    0  502  0.48194560790E+02 -0.38188360351E+02 -0.87457908600E+03  0.87673807050E+03  0.50400001928E-02 0. -1.
</event>
<event>
 5   0  0.1760649E-01  0.4811996E+03  0.7818609E-02  0.1018806E+00
       -2   -1    0    0    0  501  0.00000000000E+00  0.00000000000E+00  0.27396816839E+03  0.27396816840E+03  0.25500000920E-02 0.  1.
        2   -1    0    0  501    0  0.00000000000E+00  0.00000000000E+00 -0.21129562541E+03  0.21129562542E+03  0.25500000920E-02 0. -1.
    10030    2    1    2    0    0  0.00000000000E+00  0.00000000000E+00  0.62672542985E+02  0.48526379383E+03  0.48119964875E+03 0.  0.
        5    1    3    3  502    0 -0.15610414658E+03  0.82571757230E+02 -0.13338213385E+03  0.22135826910E+03  0.46999998093E+01 0. -1.
       -5    1    3    3    0  502  0.15610414658E+03 -0.82571757230E+02  0.19605467684E+03  0.26390552472E+03  0.46999998093E+01 0.  1.
</event>
<event>
 5   0  0.1782124E-01  0.5027544E+03  0.7818609E-02  0.1013062E+00
        2   -1    0    0  501    0  0.00000000000E+00  0.00000000000E+00  0.38329028827E+03  0.38329028827E+03  0.25500000920E-02 0.  1.
       -2   -1    0    0    0  501  0.00000000000E+00  0.00000000000E+00 -0.16486328368E+03  0.16486328370E+03  0.25500000920E-02 0. -1.
    10030    2    1    2    0    0  0.00000000000E+00  0.00000000000E+00  0.21842700459E+03  0.54815357197E+03  0.50275439544E+03 0.  0.
        3    1    3    3  502    0 -0.20262057087E+03  0.33465966410E+02 -0.48844102255E+02  0.21109434662E+03  0.10100000352E+00 0. -1.
       -3    1    3    3    0  502  0.20262057087E+03 -0.33465966410E+02  0.26727110684E+03  0.33705922536E+03  0.10100000352E+00 0.  1.
</event>
<event>
 5   0  0.1827698E-01  0.4891501E+03  0.7818609E-02  0.1016650E+00
       -2   -1    0    0    0  501  0.00000000000E+00  0.00000000000E+00  0.45164202790E+02  0.45164202862E+02  0.25500000920E-02 0. -1.
        2   -1    0    0  501    0  0.00000000000E+00  0.00000000000E+00 -0.13244326371E+04  0.13244326371E+04  0.25500000920E-02 0.  1.
    10030    2    1    2    0    0  0.00000000000E+00  0.00000000000E+00 -0.12792684343E+04  0.13695968400E+04  0.48915005573E+03 0.  0.
        1    1    3    3  502    0  0.17317055504E+03 -0.14872115197E+03 -0.88550322828E+03  0.91445174257E+03  0.50400001928E-02 0.  1.
       -1    1    3    3    0  502 -0.17317055504E+03  0.14872115197E+03 -0.39376520606E+03  0.45514509742E+03  0.50400001928E-02 0. -1.
</event>
<event>
 5   0  0.1068522E-01  0.4855731E+03  0.7818609E-02  0.1017615E+00
       -1   -1    0    0    0  501  0.00000000000E+00  0.00000000000E+00  0.66888258780E+02  0.66888258970E+02  0.50400001928E-02 0. -1.
        1   -1    0    0  501    0  0.00000000000E+00  0.00000000000E+00 -0.88125057884E+03  0.88125057885E+03  0.50400001928E-02 0.  1.
    10030    2    1    2    0    0  0.00000000000E+00  0.00000000000E+00 -0.81436232006E+03  0.94813883783E+03  0.48557313297E+03 0.  0.
        2    1    3    3  502    0  0.20851639898E+03 -0.11298943536E+03 -0.30572737339E+03  0.38693013321E+03  0.25500000920E-02 0. -1.
       -2    1    3    3    0  502 -0.20851639898E+03  0.11298943536E+03 -0.50863494667E+03  0.56120870461E+03  0.25500000920E-02 0.  1.
</event>
<event>
 5   0  0.1147245E-01  0.4898737E+03  0.7818609E-02  0.1016456E+00
        1   -1    0    0  501    0  0.00000000000E+00  0.00000000000E+00  0.47727762505E+03  0.47727762508E+03  0.50400001928E-02 0.  1.
       -1   -1    0    0    0  501  0.00000000000E+00  0.00000000000E+00 -0.12570057228E+03  0.12570057238E+03  0.50400001928E-02 0. -1.
    10030    2    1    2    0    0  0.00000000000E+00  0.00000000000E+00  0.35157705277E+03  0.60297819746E+03  0.48987374147E+03 0.  0.
        1    1    3    3  502    0  0.10413996105E+03  0.12110418846E+03  0.40435797083E+03  0.43476053702E+03  0.50400001928E-02 0.  1.
       -1    1    3    3    0  502 -0.10413996105E+03 -0.12110418846E+03 -0.52780918058E+02  0.16821766045E+03  0.50400001928E-02 0. -1.
</event>
<event>
 5   0  0.1760649E-01  0.5002741E+03  0.7818609E-02  0.1013707E+00
        2   -1    0    0  501    0  0.00000000000E+00  0.00000000000E+00  0.13141775298E+04  0.13141775298E+04  0.25500000920E-02 0. -1.
       -2   -1    0    0    0  501  0.00000000000E+00  0.00000000000E+00 -0.47610410359E+02  0.47610410428E+02  0.25500000920E-02 0.  1.
    10030    2    1    2    0    0  0.00000000000E+00  0.00000000000E+00  0.12665671194E+04  0.13617879402E+04  0.50027405100E+03 0.  0.
        5    1    3    3  502    0 -0.99238992375E+00 -0.83071588286E+02  0.12753986764E+04  0.12781102251E+04  0.46999998093E+01 0. -1.
       -5    1    3    3    0  502  0.99238992375E+00  0.83071588286E+02 -0.88315569756E+01  0.83677715163E+02  0.46999998093E+01 0.  1.
</event>
<event>
 5   0  0.1141970E-01  0.4998297E+03  0.7818609E-02  0.1013823E+00
       -1   -1    0    0    0  501  0.00000000000E+00  0.00000000000E+00  0.62739055937E+02  0.62739056140E+02  0.50400001928E-02 0. -1.
        1   -1    0    0  501    0  0.00000000000E+00  0.00000000000E+00 -0.99551102592E+03  0.99551102594E+03  0.50400001928E-02 0.  1.
    10030    2    1    2    0    0  0.00000000000E+00  0.00000000000E+00 -0.93277196999E+03  0.10582500821E+04  0.49982965921E+03 0.  0.
        3    1    3    3  502    0  0.64090562111E+02 -0.36093220597E+01 -0.97775867592E+03  0.97986359555E+03  0.10100000352E+00 0.  1.
       -3    1    3    3    0  502 -0.64090562111E+02  0.36093220597E+01  0.44986705933E+02  0.78386486521E+02  0.10100000352E+00 0. -1.
</event>
<event>
 5   0  0.1074281E-01  0.5025601E+03  0.7818609E-02  0.1013113E+00
        1   -1    0    0  501    0  0.00000000000E+00  0.00000000000E+00  0.57858214664E+03  0.57858214666E+03  0.50400001928E-02 0. -1.
       -1   -1    0    0    0  501  0.00000000000E+00  0.00000000000E+00 -0.10913169999E+03  0.10913170011E+03  0.50400001928E-02 0.  1.
    10030    2    1    2    0    0  0.00000000000E+00  0.00000000000E+00  0.46945044665E+03  0.68771384677E+03  0.50256005928E+03 0.  0.
        4    1    3    3  502    0  0.11246179492E+03 -0.15232331950E+03  0.86663816344E+01  0.18954357823E+03  0.12699999809E+01 0.  1.
       -4    1    3    3    0  502 -0.11246179492E+03  0.15232331950E+03  0.46078406502E+03  0.49817026854E+03  0.12699999809E+01 0. -1.
</event>
<event>
 5   0  0.1782124E-01  0.4857113E+03  0.7818609E-02  0.1017577E+00
       -2   -1    0    0    0  501  0.00000000000E+00  0.00000000000E+00  0.80792898085E+02  0.80792898125E+02  0.25500000920E-02 0.  1.
        2   -1    0    0  501    0  0.00000000000E+00  0.00000000000E+00 -0.73000057635E+03  0.73000057635E+03  0.25500000920E-02 0. -1.
    10030    2    1    2    0    0  0.00000000000E+00  0.00000000000E+00 -0.64920767826E+03  0.81079347448E+03  0.48571128126E+03 0.  0.
        3    1    3    3  502    0 -0.78624348991E+02 -0.12220452176E+03 -0.64942195654E+03  0.66548074444E+03  0.10100000352E+00 0. -1.
       -3    1    3    3    0  502  0.78624348991E+02  0.12220452176E+03  0.21427827255E+00  0.14531273003E+03  0.10100000352E+00 0.  1.
</event>
<event>
 5   0  0.1123271E-01  0.5099680E+03  0.7818609E-02  0.1011209E+00
        1   -1    0    0  501    0  0.00000000000E+00  0.00000000000E+00  0.18589532298E+03  0.18589532305E+03  0.50400001928E-02 0. -1.
       -1   -1    0    0    0  501  0.00000000000E+00  0.00000000000E+00 -0.34974974508E+03  0.34974974512E+03  0.50400001928E-02 0.  1.
    10030    2    1    2    0    0  0.00000000000E+00  0.00000000000E+00 -0.16385442210E+03  0.53564506817E+03  0.50996800626E+03 0.  0.
        5    1    3    3  502    0 -0.15732959240E+03  0.18987291998E+03 -0.13934361884E+02  0.24702344590E+03  0.46999998093E+01 0. -1.
       -5    1    3    3    0  502  0.15732959240E+03 -0.18987291998E+03 -0.14992006021E+03  0.28862162226E+03  0.46999998093E+01 0.  1.
</event>
<event>
 5   0  0.1760649E-01  0.3890880E+03  0.7818609E-02  0.1047625E+00
       -2   -1    0    0    0  501  0.00000000000E+00  0.00000000000E+00  0.12708810431E+03  0.12708810434E+03  0.25500000920E-02 0. -1.
        2   -1    0    0  501    0  0.00000000000E+00  0.00000000000E+00 -0.29780410778E+03  0.29780410779E+03  0.25500000920E-02 0.  1.
    10030    2    1    2    0    0  0.00000000000E+00  0.00000000000E+00 -0.17071600347E+03  0.42489221213E+03  0.38908795676E+03 0.  0.
        5    1    3    3  502    0 -0.15407709631E+03 -0.11417284075E+03 -0.49971123715E+02  0.19822813215E+03  0.46999998093E+01 0. -1.
       -5    1    3    3    0  502  0.15407709631E+03  0.11417284075E+03 -0.12074487975E+03  0.22666407999E+03  0.46999998093E+01 0.  1.
</event>
<event>
 5   0  0.1709372E-01  0.4706322E+03  0.7818609E-02  0.1021742E+00
       -2   -1    0    0    0  501  0.00000000000E+00  0.00000000000E+00  0.10814056819E+04  0.10814056819E+04  0.25500000920E-02 0.  1.
        2   -1    0    0  501    0  0.00000000000E+00  0.00000000000E+00 -0.51205268255E+02  0.51205268318E+02  0.25500000920E-02 0. -1.
    10030    2    1    2    0    0  0.00000000000E+00  0.00000000000E+00  0.10302004137E+04  0.11326109503E+04  0.47063220491E+03 0.  0.
        4    1    3    3  502    0 -0.52306783094E+02 -0.97502499790E+02  0.10148877300E+04  0.10209022747E+04  0.12699999809E+01 0.  1.
       -4    1    3    3    0  502  0.52306783094E+02  0.97502499790E+02  0.15312683698E+02  0.11170867560E+03  0.12699999809E+01 0. -1.
</event>
<event>
 5   0  0.1827698E-01  0.4377981E+03  0.7818609E-02  0.1031425E+00
       -2   -1    0    0    0  501  0.00000000000E+00  0.00000000000E+00  0.36269680533E+03  0.36269680534E+03  0.25500000920E-02 0. -1.
        2   -1    0    0  501    0  0.00000000000E+00  0.00000000000E+00 -0.13211251403E+03  0.13211251405E+03  0.25500000920E-02 0.  1.
    10030    2    1    2    0    0  0.00000000000E+00  0.00000000000E+00  0.23058429131E+03  0.49480931939E+03  0.43779806665E+03 0.  0.
        1    1    3    3  502    0  0.47354633540E+02 -0.12351606684E+03  0.31241188702E+03  0.33926371344E+03  0.50400001928E-02 0. -1.
       -1    1    3    3    0  502 -0.47354633540E+02  0.12351606684E+03 -0.81827595707E+02  0.15554560595E+03  0.50400001928E-02 0.  1.
</event>
<event>
 5   0  0.1827698E-01  0.4976361E+03  0.7818609E-02  0.1014398E+00
       -2   -1    0    0    0  501  0.00000000000E+00  0.00000000000E+00  0.89041686797E+02  0.89041686833E+02  0.25500000920E-02 0.  1.
        2   -1    0    0  501    0  0.00000000000E+00  0.00000000000E+00 -0.69529706309E+03  0.69529706309E+03  0.25500000920E-02 0. -1.
    10030    2    1    2    0    0  0.00000000000E+00  0.00000000000E+00 -0.60625537629E+03  0.78433874992E+03  0.49763610535E+03 0.  0.
        1    1    3    3  502    0 -0.20436069431E+03  0.60634682385E+02 -0.10085090385E+03  0.23581934382E+03  0.50400001928E-02 0.  1.
       -1    1    3    3    0  502  0.20436069431E+03 -0.60634682385E+02 -0.50540447244E+03  0.54851940611E+03  0.50400001928E-02 0. -1.
</event>
<event>
 5   0  0.7220250E-02  0.4874205E+03  0.7818609E-02  0.1017116E+00
        3   -1    0    0  501    0  0.00000000000E+00  0.00000000000E+00  0.32477492554E+03  0.32477494124E+03  0.10100000352E+00 0.  1.
       -3   -1    0    0    0  501  0.00000000000E+00  0.00000000000E+00 -0.18287949781E+03  0.18287952570E+03  0.10100000352E+00 0. -1.
    10030    2    1    2    0    0  0.00000000000E+00  0.00000000000E+00  0.14189542773E+03  0.50765446694E+03  0.48742050162E+03 0.  0.
        3    1    3    3  502    0  0.15164459577E+03 -0.11905091155E+03  0.22621856284E+03  0.29722727221E+03  0.10100000352E+00 0.  1.
       -3    1    3    3    0  502 -0.15164459577E+03  0.11905091155E+03 -0.84323135113E+02  0.21042719473E+03  0.10100000352E+00 0. -1.
</event>
<event>
 5   0  0.1068522E-01  0.4995034E+03  0.7818609E-02  0.1013909E+00
       -1   -1    0    0    0  501  0.00000000000E+00  0.00000000000E+00  0.34248269989E+02  0.34248270360E+02  0.50400001928E-02 0. -1.
        1   -1    0    0  501    0  0.00000000000E+00  0.00000000000E+00 -0.18212863347E+04  0.18212863347E+04  0.50400001928E-02 0.  1.
    10030    2    1    2    0    0  0.00000000000E+00  0.00000000000E+00 -0.17870380647E+04  0.18555346050E+04  0.49950337924E+03 0.  0.
        2    1    3    3  502    0  0.16746606564E+03 -0.31431249726E+02 -0.15718374577E+04  0.15810457932E+04  0.25500000920E-02 0.  1.
       -2    1    3    3    0  502 -0.16746606564E+03  0.31431249726E+02 -0.21520060697E+03  0.27448881188E+03  0.25500000920E-02 0. -1.
</event>
<event>
 5   0  0.1709372E-01  0.4273702E+03  0.7818609E-02  0.1034694E+00
       -2   -1    0    0    0  501  0.00000000000E+00  0.00000000000E+00  0.23957041296E+02  0.23957041432E+02  0.25500000920E-02 0.  1.
        2   -1    0    0  501    0  0.00000000000E+00  0.00000000000E+00 -0.19059667515E+04  0.19059667515E+04  0.25500000920E-02 0. -1.
    10030    2    1    2    0    0  0.00000000000E+00  0.00000000000E+00 -0.18820097102E+04  0.19299237929E+04  0.42737021098E+03 0.  0.
        4    1    3    3  502    0  0.13471443080E+03  0.60916931926E+02 -0.24432661412E+03  0.28558003734E+03  0.12699999809E+01 0.  1.
       -4    1    3    3    0  502 -0.13471443080E+03 -0.60916931926E+02 -0.16376830961E+04  0.16443437556E+04  0.12699999809E+01 0. -1.
</event>
<event>
 5   0  0.1123271E-01  0.4988353E+03  0.7818609E-02  0.1014083E+00
       -1   -1    0    0    0  501  0.00000000000E+00  0.00000000000E+00  0.14149689555E+03  0.14149689564E+03  0.50400001928E-02 0.  1.
        1   -1    0    0  501    0  0.00000000000E+00  0.00000000000E+00 -0.43965040187E+03  0.43965040190E+03  0.50400001928E-02 0. -1.
    10030    2    1    2    0    0  0.00000000000E+00  0.00000000000E+00 -0.29815350632E+03  0.58114729754E+03  0.49883531161E+03 0.  0.
        5    1    3    3  502    0  0.62095021066E+02  0.95005925889E+02  0.10961061210E+03  0.15785592760E+03  0.46999998093E+01 0.  1.
       -5    1    3    3    0  502 -0.62095021066E+02 -0.95005925889E+02 -0.40776411842E+03  0.42329136994E+03  0.46999998093E+01 0. -1.
</event>
<event>
 5   0  0.1141970E-01  0.4886778E+03  0.7818609E-02  0.1016777E+00
       -1   -1    0    0    0  501  0.00000000000E+00  0.00000000000E+00  0.89886171050E+02  0.89886171192E+02  0.50400001928E-02 0.  1.
        1   -1    0    0  501    0  0.00000000000E+00  0.00000000000E+00 -0.66419002271E+03  0.66419002273E+03  0.50400001928E-02 0. -1.
    10030    2    1    2    0    0  0.00000000000E+00  0.00000000000E+00 -0.57430385166E+03  0.75407619392E+03  0.48867779999E+03 0.  0.
        3    1    3    3  502    0 -0.64218223924E+02  0.19616773454E+03 -0.85391301273E+02  0.22337735985E+03  0.10100000352E+00 0.  1.
       -3    1    3    3    0  502  0.64218223924E+02 -0.19616773454E+03 -0.48891255039E+03  0.53069883407E+03  0.10100000352E+00 0. -1.
</event>
<event>
 5   0  0.1709372E-01  0.5068566E+03  0.7818609E-02  0.1012005E+00
        2   -1    0    0  501    0  0.00000000000E+00  0.00000000000E+00  0.99380802695E+03  0.99380802696E+03  0.25500000920E-02 0. -1.
       -2   -1    0    0    0  501  0.00000000000E+00  0.00000000000E+00 -0.64626074437E+02  0.64626074487E+02  0.25500000920E-02 0.  1.
    10030    2    1    2    0    0  0.00000000000E+00  0.00000000000E+00  0.92918195252E+03  0.10584341014E+04  0.50685663280E+03 0.  0.
        4    1    3    3  502    0  0.44877280479E+02 -0.16812492299E+03  0.84932656865E+03  0.86697012241E+03  0.12699999809E+01 0. -1.
       -4    1    3    3    0  502 -0.44877280479E+02  0.16812492299E+03  0.79855383863E+02  0.19146397903E+03  0.12699999809E+01 0.  1.
</event>
<event>
 5   0  0.1074281E-01  0.4976019E+03  0.7818609E-02  0.1014407E+00
        1   -1    0    0  501    0  0.00000000000E+00  0.00000000000E+00  0.79475796113E+02  0.79475796273E+02  0.50400001928E-02 0. -1.
       -1   -1    0    0    0  501  0.00000000000E+00  0.00000000000E+00 -0.77887751967E+03  0.77887751969E+03  0.50400001928E-02 0.  1.
    10030    2    1    2    0    0  0.00000000000E+00  0.00000000000E+00 -0.69940172356E+03  0.85835331596E+03  0.49760189319E+03 0.  0.
        4    1    3    3  502    0 -0.10894798756E+03 -0.20190731877E+03 -0.51573024331E+03  0.56446038491E+03  0.12699999809E+01 0.  1.
       -4    1    3    3    0  502  0.10894798756E+03  0.20190731877E+03 -0.18367148025E+03  0.29389293105E+03  0.12699999809E+01 0. -1.
</event>
<event>
 5   0  0.1782124E-01  0.4976402E+03  0.7818609E-02  0.1014397E+00
       -2   -1    0    0    0  501  0.00000000000E+00  0.00000000000E+00  0.22900381878E+03  0.22900381879E+03  0.25500000920E-02 0.  1.
        2   -1    0    0  501    0  0.00000000000E+00  0.00000000000E+00 -0.27035118804E+03  0.27035118805E+03  0.25500000920E-02 0. -1.
    10030    2    1    2    0    0  0.00000000000E+00  0.00000000000E+00 -0.41347369261E+02  0.49935500684E+03  0.49764024949E+03 0.  0.
        3    1    3    3  502    0 -0.12619264111E+03  0.10138479795E+03  0.16894301250E+03  0.23397694673E+03  0.10100000352E+00 0.  1.
       -3    1    3    3    0  502  0.12619264111E+03 -0.10138479795E+03 -0.21029038176E+03  0.26537806011E+03  0.10100000352E+00 0. -1.
</event>
<event>
 5   0  0.1782124E-01  0.4949442E+03  0.7818609E-02  0.1015107E+00
       -2   -1    0    0    0  501  0.00000000000E+00  0.00000000000E+00  0.77371973689E+03  0.77371973689E+03  0.25500000920E-02 0. -1.
        2   -1    0    0  501    0  0.00000000000E+00  0.00000000000E+00 -0.79153267207E+02  0.79153267248E+02  0.25500000920E-02 0.  1.
    10030    2    1    2    0    0  0.00000000000E+00  0.00000000000E+00  0.69456646968E+03  0.85287300414E+03  0.49494421947E+03 0.  0.
        3    1    3    3  502    0 -0.83628865115E+02  0.11440682889E+03 -0.23110671209E+01  0.14173235625E+03  0.10100000352E+00 0.  1.
       -3    1    3    3    0  502  0.83628865115E+02 -0.11440682889E+03  0.69687753680E+03  0.71114064789E+03  0.10100000352E+00 0. -1.
</event>
<event>
 5   0  0.1782124E-01  0.4967014E+03  0.7818609E-02  0.1014644E+00
       -2   -1    0    0    0  501  0.00000000000E+00  0.00000000000E+00  0.49106721482E+03  0.49106721483E+03  0.25500000920E-02 0. -1.
        2   -1    0    0  501    0  0.00000000000E+00  0.00000000000E+00 -0.12560003751E+03  0.12560003754E+03  0.25500000920E-02 0.  1.
    10030    2    1    2    0    0  0.00000000000E+00  0.00000000000E+00  0.36546717731E+03  0.61666725237E+03  0.49670136143E+03 0.  0.
        3    1    3    3  502    0  0.21773667981E+03  0.11919909343E+03  0.19237959248E+03  0.31405031987E+03  0.10100000352E+00 0. -1.
       -3    1    3    3    0  502 -0.21773667981E+03 -0.11919909343E+03  0.17308758483E+03  0.30261693249E+03  0.10100000352E+00 0.  1.
</event>
<event>
 5   0  0.1068522E-01  0.4925025E+03  0.7818609E-02  0.1015755E+00
       -1   -1    0    0    0  501  0.00000000000E+00  0.00000000000E+00  0.31621087309E+03  0.31621087314E+03  0.50400001928E-02 0.  1.
        1   -1    0    0  501    0  0.00000000000E+00  0.00000000000E+00 -0.19176973198E+03  0.19176973205E+03  0.50400001928E-02 0. -1.
    10030    2    1    2    0    0  0.00000000000E+00  0.00000000000E+00  0.12444114111E+03  0.50798060518E+03  0.49250248491E+03 0.  0.
        2    1    3    3  502    0  0.10386692179E+03 -0.53028160293E+02  0.28592231279E+03  0.30879101701E+03  0.25500000920E-02 0.  1.
       -2    1    3    3    0  502 -0.10386692179E+03  0.53028160293E+02 -0.16148117168E+03  0.19918958818E+03  0.25500000920E-02 0. -1.
</event>
<event>
 5   0  0.1760649E-01  0.4994584E+03  0.7818609E-02  0.1013920E+00
        2   -1    0    0  501    0  0.00000000000E+00  0.00000000000E+00  0.51425466772E+03  0.51425466773E+03  0.25500000920E-02 0.  1.
       -2   -1    0    0    0  501  0.00000000000E+00  0.00000000000E+00 -0.12127195631E+03  0.12127195633E+03  0.25500000920E-02 0. -1.
    10030    2    1    2    0    0  0.00000000000E+00  0.00000000000E+00  0.39298271141E+03  0.63552662406E+03  0.49945838507E+03 0.  0.
        5    1    3    3  502    0 -0.71514926238E+02 -0.22336929379E+03  0.87519245647E+02  0.25037958071E+03  0.46999998093E+01 0. -1.
       -5    1    3    3    0  502  0.71514926238E+02  0.22336929379E+03  0.30546346577E+03  0.38514704335E+03  0.46999998093E+01 0.  1.
</event>
<event>
 5   0  0.1760649E-01  0.4972909E+03  0.7818609E-02  0.1014488E+00
        2   -1    0    0  501    0  0.00000000000E+00  0.00000000000E+00  0.44909639339E+03  0.44909639339E+03  0.25500000920E-02 0.  1.
       -2   -1    0    0    0  501  0.00000000000E+00  0.00000000000E+00 -0.13766434028E+03  0.13766434031E+03  0.25500000920E-02 0. -1.
    10030    2    1    2    0    0  0.00000000000E+00  0.00000000000E+00  0.31143205310E+03  0.58676073370E+03  0.49729089567E+03 0.  0.
        5    1    3    3  502    0  0.18874844770E+02  0.23312998455E+03  0.56318337436E+02  0.24062355369E+03  0.46999998093E+01 0.  1.
       -5    1    3    3    0  502 -0.18874844770E+02 -0.23312998455E+03  0.25511371567E+03  0.34613718001E+03  0.46999998093E+01 0. -1.
</event>
<event>
 5   0  0.1709372E-01  0.5000782E+03  0.7818609E-02  0.1013758E+00
        2   -1    0    0  501    0  0.00000000000E+00  0.00000000000E+00  0.10933934498E+04  0.10933934498E+04  0.25500000920E-02 0. -1.
       -2   -1    0    0    0  501  0.00000000000E+00  0.00000000000E+00 -0.57179379645E+02  0.57179379702E+02  0.25500000920E-02 0.  1.
    10030    2    1    2    0    0  0.00000000000E+00  0.00000000000E+00  0.10362140702E+04  0.11505728295E+04  0.50007823069E+03 0.  0.
        4    1    3    3  502    0 -0.12440316796E+03  0.95273150942E+01  0.10166455542E+04  0.10242737494E+04  0.12699999809E+01 0. -1.
       -4    1    3    3    0  502  0.12440316796E+03 -0.95273150942E+01  0.19568516009E+02  0.12629908016E+03  0.12699999809E+01 0.  1.
</event>
<event>
 5   0  0.1709372E-01  0.5140844E+03  0.7818609E-02  0.1010167E+00
       -2   -1    0    0    0  501  0.00000000000E+00  0.00000000000E+00  0.97162241572E+02  0.97162241606E+02  0.25500000920E-02 0. -1.
        2   -1    0    0  501    0  0.00000000000E+00  0.00000000000E+00 -0.68000374327E+03  0.68000374328E+03  0.25500000920E-02 0.  1.
    10030    2    1    2    0    0  0.00000000000E+00  0.00000000000E+00 -0.58284150170E+03  0.77716598488E+03  0.51408438213E+03 0.  0.
        4    1    3    3  502    0  0.25343580965E+03  0.30953457441E+02 -0.24654324840E+03  0.35492677044E+03  0.12699999809E+01 0. -1.
       -4    1    3    3    0  502 -0.25343580965E+03 -0.30953457441E+02 -0.33629825330E+03  0.42223921445E+03  0.12699999809E+01 0.  1.
</event>
<event>
 5   0  0.1068522E-01  0.4997867E+03  0.7818609E-02  0.1013835E+00
        1   -1    0    0  501    0  0.00000000000E+00  0.00000000000E+00  0.11761075110E+03  0.11761075121E+03  0.50400001928E-02 0.  1.
       -1   -1    0    0    0  501  0.00000000000E+00  0.00000000000E+00 -0.53096064257E+03  0.53096064259E+03  0.50400001928E-02 0. -1.
    10030    2    1    2    0    0  0.00000000000E+00  0.00000000000E+00 -0.41334989147E+03  0.64857139380E+03  0.49978667458E+03 0.  0.
        2    1    3    3  502    0 -0.22963173267E+03 -0.91604995273E+02 -0.25390240060E+03  0.35438487107E+03  0.25500000920E-02 0. -1.
       -2    1    3    3    0  502  0.22963173267E+03  0.91604995273E+02 -0.15944749087E+03  0.29418652273E+03  0.25500000920E-02 0.  1.
</event>
<event>
 5   0  0.1782124E-01  0.5023773E+03  0.7818609E-02  0.1013160E+00
        2   -1    0    0  501    0  0.00000000000E+00  0.00000000000E+00  0.20080794094E+03  0.20080794095E+03  0.25500000920E-02 0. -1.
       -2   -1    0    0    0  501  0.00000000000E+00  0.00000000000E+00 -0.31420933234E+03  0.31420933235E+03  0.25500000920E-02 0.  1.
    10030    2    1    2    0    0  0.00000000000E+00  0.00000000000E+00 -0.11340139140E+03  0.51501727330E+03  0.50237726484E+03 0.  0.
        3    1    3    3  502    0 -0.19946804286E+02  0.10718301450E+03  0.17528846932E+03  0.20642706043E+03  0.10100000352E+00 0. -1.
       -3    1    3    3    0  502  0.19946804286E+02 -0.10718301450E+03 -0.28868986072E+03  0.30859021287E+03  0.10100000352E+00 0.  1.
</event>
<event>
 5   0  0.1074281E-01  0.4865476E+03  0.7818609E-02  0.1017351E+00
       -1   -1    0    0    0  501  0.00000000000E+00  0.00000000000E+00  0.91267057268E+02  0.91267057407E+02  0.50400001928E-02 0.  1.
        1   -1    0    0  501    0  0.00000000000E+00  0.00000000000E+00 -0.64845025566E+03  0.64845025568E+03  0.50400001928E-02 0. -1.
    10030    2    1    2    0    0  0.00000000000E+00  0.00000000000E+00 -0.55718319839E+03  0.73971731309E+03  0.48654762019E+03 0.  0.
        4    1    3    3  502    0  0.40665915681E+02  0.14911510842E+03 -0.56420297352E+03  0.58499200036E+03  0.12699999809E+01 0. -1.
       -4    1    3    3    0  502 -0.40665915681E+02 -0.14911510842E+03  0.70197751271E+01  0.15472531273E+03  0.12699999809E+01 0.  1.
</event>
<event>
 5   0  0.1827698E-01  0.5004190E+03  0.7818609E-02  0.1013670E+00
       -2   -1    0    0    0  501  0.00000000000E+00  0.00000000000E+00  0.76242603016E+02  0.76242603058E+02  0.25500000920E-02 0.  1.
        2   -1    0    0  501    0  0.00000000000E+00  0.00000000000E+00 -0.82112598750E+03  0.82112598751E+03  0.25500000920E-02 0. -1.
    10030    2    1    2    0    0  0.00000000000E+00  0.00000000000E+00 -0.74488338449E+03  0.89736859057E+03  0.50041895532E+03 0.  0.
        1    1    3    3  502    0 -0.12542047238E+03  0.15126001644E+02 -0.75973757669E+03  0.77016899203E+03  0.50400001928E-02 0. -1.
       -1    1    3    3    0  502  0.12542047238E+03 -0.15126001644E+02  0.14854192205E+02  0.12719959854E+03  0.50400001928E-02 0.  1.
</event>
<event>
 5   0  0.1683148E-01  0.5043420E+03  0.7818609E-02  0.1012652E+00
        2   -1    0    0  501    0  0.00000000000E+00  0.00000000000E+00  0.94496289495E+03  0.94496289495E+03  0.25500000920E-02 0. -1.
       -2   -1    0    0    0  501  0.00000000000E+00  0.00000000000E+00 -0.67293880007E+02  0.67293880055E+02  0.25500000920E-02 0.  1.
    10030    2    1    2    0    0  0.00000000000E+00  0.00000000000E+00  0.87766901494E+03  0.10122567750E+04  0.50434202557E+03 0.  0.
        2    1    3    3  502    0  0.19408935424E+02 -0.72325459611E+02 -0.44462554434E+02  0.87089595450E+02  0.25500000920E-02 0.  1.
       -2    1    3    3    0  502 -0.19408935424E+02  0.72325459611E+02  0.92213156937E+03  0.92516717955E+03  0.25500000920E-02 0. -1.
</event>
<event>
 5   0  0.1074281E-01  0.4978794E+03  0.7818609E-02  0.1014334E+00
        1   -1    0    0  501    0  0.00000000000E+00  0.00000000000E+00  0.12212816245E+03  0.12212816255E+03  0.50400001928E-02 0. -1.
       -1   -1    0    0    0  501  0.00000000000E+00  0.00000000000E+00 -0.50742580453E+03  0.50742580456E+03  0.50400001928E-02 0.  1.
    10030    2    1    2    0    0  0.00000000000E+00  0.00000000000E+00 -0.38529764208E+03  0.62955396711E+03  0.49787942768E+03 0.  0.
        4    1    3    3  502    0  0.22523683249E+03  0.77860891645E+02 -0.28361533336E+03  0.37045002278E+03  0.12699999809E+01 0.  1.
       -4    1    3    3    0  502 -0.22523683249E+03 -0.77860891645E+02 -0.10168230872E+03  0.25910394433E+03  0.12699999809E+01 0. -1.
</event>
<event>
 5   0  0.1068522E-01  0.4993742E+03  0.7818609E-02  0.1013942E+00
       -1   -1    0    0    0  501  0.00000000000E+00  0.00000000000E+00  0.12077119035E+03  0.12077119045E+03  0.50400001928E-02 0. -1.
        1   -1    0    0  501    0  0.00000000000E+00  0.00000000000E+00 -0.51621301050E+03  0.51621301052E+03  0.50400001928E-02 0.  1.
    10030    2    1    2    0    0  0.00000000000E+00  0.00000000000E+00 -0.39544182015E+03  0.63698420098E+03  0.49937424761E+03 0.  0.
        2    1    3    3  502    0  0.24370235055E+03 -0.45619436766E+02 -0.16006060552E+03  0.29511246351E+03  0.25500000920E-02 0. -1.
       -2    1    3    3    0  502 -0.24370235055E+03  0.45619436766E+02 -0.23538121463E+03  0.34187173747E+03  0.25500000920E-02 0.  1.
</event>
<event>
 5   0  0.1709372E-01  0.4993465E+03  0.7818609E-02  0.1013950E+00
        2   -1    0    0  501    0  0.00000000000E+00  0.00000000000E+00  0.69706821714E+02  0.69706821760E+02  0.25500000920E-02 0. -1.
       -2   -1    0    0    0  501  0.00000000000E+00  0.00000000000E+00 -0.89427022544E+03  0.89427022544E+03  0.25500000920E-02 0.  1.
    10030    2    1    2    0    0  0.00000000000E+00  0.00000000000E+00 -0.82456340373E+03  0.96397704720E+03  0.49934651373E+03 0.  0.
        4    1    3    3  502    0 -0.67888399090E+00  0.24527451395E+03 -0.32224870399E+03  0.40497640450E+03  0.12699999809E+01 0. -1.
       -4    1    3    3    0  502  0.67888399090E+00 -0.24527451395E+03 -0.50231469973E+03  0.55900064270E+03  0.12699999809E+01 0.  1.
</event>
<event>
 5   0  0.1709372E-01  0.5055910E+03  0.7818609E-02  0.1012330E+00
       -2   -1    0    0    0  501  0.00000000000E+00  0.00000000000E+00  0.33368559319E+02  0.33368559416E+02  0.25500000920E-02 0. -1.
        2   -1    0    0  501    0  0.00000000000E+00  0.00000000000E+00 -0.19151434157E+04  0.19151434157E+04  0.25500000920E-02 0.  1.
    10030    2    1    2    0    0  0.00000000000E+00  0.00000000000E+00 -0.18817748563E+04  0.19485119751E+04  0.50559104726E+03 0.  0.
        4    1    3    3  502    0  0.20776430497E+03  0.63759969816E+02 -0.44325843198E+03  0.49367093351E+03  0.12699999809E+01 0. -1.
       -4    1    3    3    0  502 -0.20776430497E+03 -0.63759969816E+02 -0.14385164244E+04  0.14548410416E+04  0.12699999809E+01 0.  1.
</event>
<event>
 5   0  0.1074281E-01  0.5011687E+03  0.7818609E-02  0.1013474E+00
        1   -1    0    0  501    0  0.00000000000E+00  0.00000000000E+00  0.42126974264E+03  0.42126974267E+03  0.50400001928E-02 0.  1.
       -1   -1    0    0    0  501  0.00000000000E+00  0.00000000000E+00 -0.14905538077E+03  0.14905538085E+03  0.50400001928E-02 0. -1.
    10030    2    1    2    0    0  0.00000000000E+00  0.00000000000E+00  0.27221436187E+03  0.57032512352E+03  0.50116872180E+03 0.  0.
        4    1    3    3  502    0  0.18063852628E+03 -0.94261611957E+02  0.30209537931E+03  0.36438819927E+03  0.12699999809E+01 0.  1.
       -4    1    3    3    0  502 -0.18063852628E+03  0.94261611957E+02 -0.29881017438E+02  0.20593692425E+03  0.12699999809E+01 0. -1.
</event>
<event>
 5   0  0.1068522E-01  0.4894839E+03  0.7818609E-02  0.1016561E+00
        1   -1    0    0  501    0  0.00000000000E+00  0.00000000000E+00  0.47621040491E+03  0.47621040494E+03  0.50400001928E-02 0. -1.
       -1   -1    0    0    0  501  0.00000000000E+00  0.00000000000E+00 -0.12578183015E+03  0.12578183026E+03  0.50400001928E-02 0.  1.
    10030    2    1    2    0    0  0.00000000000E+00  0.00000000000E+00  0.35042857476E+03  0.60199223519E+03  0.48948387637E+03 0.  0.
        2    1    3    3  502    0  0.88524055935E+02  0.34037860247E+02  0.45269094664E+03  0.46251938077E+03  0.25500000920E-02 0. -1.
       -2    1    3    3    0  502 -0.88524055935E+02 -0.34037860247E+02 -0.10226237189E+03  0.13947285442E+03  0.25500000920E-02 0.  1.
</event>
<event>
 5   0  0.1760649E-01  0.5658219E+03  0.7818609E-02  0.9978967E-01
        2   -1    0    0  501    0  0.00000000000E+00  0.00000000000E+00  0.59901070004E+03  0.59901070005E+03  0.25500000920E-02 0.  1.
       -2   -1    0    0    0  501  0.00000000000E+00  0.00000000000E+00 -0.13361797485E+03  0.13361797488E+03  0.25500000920E-02 0. -1.
    10030    2    1    2    0    0  0.00000000000E+00  0.00000000000E+00  0.46539272519E+03  0.73262867493E+03  0.56582186832E+03 0.  0.
        5    1    3    3  502    0 -0.27558251836E+03 -0.63556779373E+02  0.23994241498E+03  0.37091729689E+03  0.46999998093E+01 0. -1.
       -5    1    3    3    0  502  0.27558251836E+03  0.63556779373E+02  0.22545031021E+03  0.36171137804E+03  0.46999998093E+01 0.  1.
</event>
<event>
 5   0  0.1760649E-01  0.3899105E+03  0.7818609E-02  0.1047330E+00
        2   -1    0    0  501    0  0.00000000000E+00  0.00000000000E+00  0.25306690550E+03  0.25306690551E+03  0.25500000920E-02 0. -1.
       -2   -1    0    0    0  501  0.00000000000E+00  0.00000000000E+00 -0.15018774882E+03  0.15018774885E+03  0.25500000920E-02 0.  1.
    10030    2    1    2    0    0  0.00000000000E+00  0.00000000000E+00  0.10287915667E+03  0.40325465435E+03  0.38991049663E+03 0.  0.
        5    1    3    3  502    0 -0.57169323346E+02  0.18609618522E+03  0.60993541335E+02  0.20406475386E+03  0.46999998093E+01 0. -1.
       -5    1    3    3    0  502  0.57169323346E+02 -0.18609618522E+03  0.41885615336E+02  0.19918990049E+03  0.46999998093E+01 0.  1.
</event>
<event>
 5   0  0.1141970E-01  0.4961140E+03  0.7818609E-02  0.1014798E+00
       -1   -1    0    0    0  501  0.00000000000E+00  0.00000000000E+00  0.39564175443E+02  0.39564175764E+02  0.50400001928E-02 0.  1.
        1   -1    0    0  501    0  0.00000000000E+00  0.00000000000E+00 -0.15552521966E+04  0.15552521966E+04  0.50400001928E-02 0. -1.
    10030    2    1    2    0    0  0.00000000000E+00  0.00000000000E+00 -0.15156880211E+04  0.15948163724E+04  0.49611398298E+03 0.  0.
        3    1    3    3  502    0  0.15772486535E+03 -0.58850527490E+02 -0.17218578433E+03  0.24080795722E+03  0.10100000352E+00 0.  1.
       -3    1    3    3    0  502 -0.15772486535E+03  0.58850527490E+02 -0.13435022368E+04  0.13540084151E+04  0.10100000352E+00 0. -1.
</event>
<event>
 5   0  0.1683148E-01  0.5055629E+03  0.7818609E-02  0.1012337E+00
       -2   -1    0    0    0  501  0.00000000000E+00  0.00000000000E+00  0.17279090334E+03  0.17279090335E+03  0.25500000920E-02 0. -1.
        2   -1    0    0  501    0  0.00000000000E+00  0.00000000000E+00 -0.36980216914E+03  0.36980216915E+03  0.25500000920E-02 0.  1.
    10030    2    1    2    0    0  0.00000000000E+00  0.00000000000E+00 -0.19701126581E+03  0.54259307251E+03  0.50556285809E+03 0.  0.
        2    1    3    3  502    0 -0.16479610845E+03  0.47439637120E+02  0.10081248566E+03  0.19892569920E+03  0.25500000920E-02 0. -1.
       -2    1    3    3    0  502  0.16479610845E+03 -0.47439637120E+02 -0.29782375147E+03  0.34366737331E+03  0.25500000920E-02 0.  1.
</event>
<event>
 5   0  0.1074281E-01  0.4985087E+03  0.7818609E-02  0.1014169E+00
        1   -1    0    0  501    0  0.00000000000E+00  0.00000000000E+00  0.54582736306E+03  0.54582736308E+03  0.50400001928E-02 0. -1.
       -1   -1    0    0    0  501  0.00000000000E+00  0.00000000000E+00 -0.11382305620E+03  0.11382305632E+03  0.50400001928E-02 0.  1.
    10030    2    1    2    0    0  0.00000000000E+00  0.00000000000E+00  0.43200430686E+03  0.65965041940E+03  0.49850873079E+03 0.  0.
        4    1    3    3  502    0  0.20541906060E+02 -0.10262935753E+03 -0.83330847573E+02  0.13379236895E+03  0.12699999809E+01 0.  1.
       -4    1    3    3    0  502 -0.20541906060E+02  0.10262935753E+03  0.51533515443E+03  0.52585805045E+03  0.12699999809E+01 0. -1.
</event>
<event>
 5   0  0.1782124E-01  0.4956358E+03  0.7818609E-02  0.1014924E+00
       -2   -1    0    0    0  501  0.00000000000E+00  0.00000000000E+00  0.68799270274E+03  0.68799270274E+03  0.25500000920E-02 0.  1.
        2   -1    0    0  501    0  0.00000000000E+00  0.00000000000E+00 -0.89265066519E+02  0.89265066556E+02  0.25500000920E-02 0. -1.
    10030    2    1    2    0    0  0.00000000000E+00  0.00000000000E+00  0.59872763622E+03  0.77725776930E+03  0.49563581142E+03 0.  0.
        3    1    3    3  502    0 -0.21222132160E+03  0.70142392194E+02  0.46721184339E+03  0.51792350915E+03  0.10100000352E+00 0.  1.
       -3    1    3    3    0  502  0.21222132160E+03 -0.70142392194E+02  0.13151579283E+03  0.25933426015E+03  0.10100000352E+00 0. -1.
</event>
<event>
 5   0  0.1760649E-01  0.4404273E+03  0.7818609E-02  0.1030616E+00
       -2   -1    0    0    0  501  0.00000000000E+00  0.00000000000E+00  0.98428050036E+02  0.98428050069E+02  0.25500000920E-02 0.  1.
        2   -1    0    0  501    0  0.00000000000E+00  0.00000000000E+00 -0.49268524199E+03  0.49268524199E+03  0.25500000920E-02 0. -1.
    10030    2    1    2    0    0  0.00000000000E+00  0.00000000000E+00 -0.39425719195E+03  0.59111329206E+03  0.44042728191E+03 0.  0.
        5    1    3    3  502    0 -0.10506844658E+03  0.60505131312E+02  0.49516807716E+02  0.13105057660E+03  0.46999998093E+01 0.  1.
       -5    1    3    3    0  502  0.10506844658E+03 -0.60505131312E+02 -0.44377399967E+03  0.46006271547E+03  0.46999998093E+01 0. -1.
</event>
<event>
 5   0  0.1683148E-01  0.4900034E+03  0.7818609E-02  0.1016422E+00
        2   -1    0    0  501    0  0.00000000000E+00  0.00000000000E+00  0.12873860428E+04  0.12873860428E+04  0.25500000920E-02 0. -1.
       -2   -1    0    0    0  501  0.00000000000E+00  0.00000000000E+00 -0.46626124992E+02  0.46626125061E+02  0.25500000920E-02 0.  1.
    10030    2    1    2    0    0  0.00000000000E+00  0.00000000000E+00  0.12407599178E+04  0.13340121678E+04  0.49000335750E+03 0.  0.
        2    1    3    3  502    0  0.93355412766E+02  0.13932728150E+03  0.13414536640E+03  0.21476103882E+03  0.25500000920E-02 0.  1.
       -2    1    3    3    0  502 -0.93355412766E+02 -0.13932728150E+03  0.11066145514E+04  0.11192511290E+04  0.25500000920E-02 0. -1.
</event>
<event>
 5   0  0.1147245E-01  0.4977945E+03  0.7818609E-02  0.1014356E+00
       -1   -1    0    0    0  501  0.00000000000E+00  0.00000000000E+00  0.75277930538E+02  0.75277930707E+02  0.50400001928E-02 0.  1.
        1   -1    0    0  501    0  0.00000000000E+00  0.00000000000E+00 -0.82294825300E+03  0.82294825301E+03  0.50400001928E-02 0. -1.
    10030    2    1    2    0    0  0.00000000000E+00  0.00000000000E+00 -0.74767032246E+03  0.89822618372E+03  0.49779450181E+03 0.  0.
        1    1    3    3  502    0 -0.19591899754E+03 -0.15315553691E+03 -0.39267112722E+03  0.46479187413E+03  0.50400001928E-02 0. -1.
       -1    1    3    3    0  502  0.19591899754E+03  0.15315553691E+03 -0.35499919524E+03  0.43343430959E+03  0.50400001928E-02 0.  1.
</event>
<event>
 5   0  0.1683148E-01  0.4993054E+03  0.7818609E-02  0.1013960E+00
        2   -1    0    0  501    0  0.00000000000E+00  0.00000000000E+00  0.10340010242E+04  0.10340010242E+04  0.25500000920E-02 0.  1.
       -2   -1    0    0    0  501  0.00000000000E+00  0.00000000000E+00 -0.60276994171E+02  0.60276994225E+02  0.25500000920E-02 0. -1.
    10030    2    1    2    0    0  0.00000000000E+00  0.00000000000E+00  0.97372403006E+03  0.10942780185E+04  0.49930541251E+03 0.  0.
        2    1    3    3  502    0  0.20028471684E+03  0.56237054659E+02  0.78934973420E+03  0.81630238086E+03  0.25500000920E-02 0.  1.
       -2    1    3    3    0  502 -0.20028471684E+03 -0.56237054659E+02  0.18437429586E+03  0.27797563759E+03  0.25500000920E-02 0. -1.
</event>
<event>
 5   0  0.1141970E-01  0.5023873E+03  0.7818609E-02  0.1013158E+00
        1   -1    0    0  501    0  0.00000000000E+00  0.00000000000E+00  0.47316882514E+03  0.47316882517E+03  0.50400001928E-02 0. -1.
       -1   -1    0    0    0  501  0.00000000000E+00  0.00000000000E+00 -0.13335252599E+03  0.13335252608E+03  0.50400001928E-02 0.  1.
    10030    2    1    2    0    0  0.00000000000E+00  0.00000000000E+00  0.33981629915E+03  0.60652135125E+03  0.50238733299E+03 0.  0.
        3    1    3    3  502    0 -0.48051900436E+01 -0.24151652414E+03  0.86746678605E+02  0.25666771853E+03  0.10100000352E+00 0.  1.
       -3    1    3    3    0  502  0.48051900436E+01  0.24151652414E+03  0.25306962055E+03  0.34985363272E+03  0.10100000352E+00 0. -1.
</event>
<event>
 5   0  0.1074281E-01  0.5027639E+03  0.7818609E-02  0.1013060E+00
        1   -1    0    0  501    0  0.00000000000E+00  0.00000000000E+00  0.10340493405E+03  0.10340493417E+03  0.50400001928E-02 0.  1.
       -1   -1    0    0    0  501  0.00000000000E+00  0.00000000000E+00 -0.61112055987E+03  0.61112055989E+03  0.50400001928E-02 0. -1.
    10030    2    1    2    0    0  0.00000000000E+00  0.00000000000E+00 -0.50771562582E+03  0.71452549407E+03  0.50276388591E+03 0.  0.
        4    1    3    3  502    0 -0.20719490943E+03 -0.39034469714E+02 -0.44839987312E+03  0.49549720426E+03  0.12699999809E+01 0. -1.
       -4    1    3    3    0  502  0.20719490943E+03  0.39034469714E+02 -0.59315752703E+02  0.21902828981E+03  0.12699999809E+01 0.  1.
</event>
<event>
 5   0  0.1782124E-01  0.4946226E+03  0.7818609E-02  0.1015192E+00
        2   -1    0    0  501    0  0.00000000000E+00  0.00000000000E+00  0.76877887411E+03  0.76877887411E+03  0.25500000920E-02 0.  1.
       -2   -1    0    0    0  501  0.00000000000E+00  0.00000000000E+00 -0.79558465426E+02  0.79558465467E+02  0.25500000920E-02 0. -1.
    10030    2    1    2    0    0  0.00000000000E+00  0.00000000000E+00  0.68922040868E+03  0.84833733958E+03  0.49462255304E+03 0.  0.
        3    1    3    3  502    0 -0.91290265829E+02 -0.75306052100E+02  0.71706373501E+03  0.72676359595E+03  0.10100000352E+00 0.  1.
       -3    1    3    3    0  502  0.91290265829E+02  0.75306052100E+02 -0.27843326335E+02  0.12157374363E+03  0.10100000352E+00 0. -1.
</event>
<event>
 5   0  0.1147245E-01  0.4741553E+03  0.7818609E-02  0.1020754E+00
       -1   -1    0    0    0  501  0.00000000000E+00  0.00000000000E+00  0.25333838016E+03  0.25333838021E+03  0.50400001928E-02 0.  1.
        1   -1    0    0  501    0  0.00000000000E+00  0.00000000000E+00 -0.22186067200E+03  0.22186067206E+03  0.50400001928E-02 0. -1.
    10030    2    1    2    0    0  0.00000000000E+00  0.00000000000E+00  0.31477708161E+02  0.47519905228E+03  0.47415534709E+03 0.  0.
        1    1    3    3  502    0 -0.13937971859E+03  0.74421599485E+02 -0.16140015022E+03  0.22586564356E+03  0.50400001928E-02 0. -1.
       -1    1    3    3    0  502  0.13937971859E+03 -0.74421599485E+02  0.19287785838E+03  0.24933340872E+03  0.50400001928E-02 0.  1.
</event>
<event>
 5   0  0.1068522E-01  0.5011662E+03  0.7818609E-02  0.1013475E+00
        1   -1    0    0  501    0  0.00000000000E+00  0.00000000000E+00  0.13247237276E+04  0.13247237276E+04  0.50400001928E-02 0.  1.
       -1   -1    0    0    0  501  0.00000000000E+00  0.00000000000E+00 -0.47399979662E+02  0.47399979930E+02  0.50400001928E-02 0. -1.
    10030    2    1    2    0    0  0.00000000000E+00  0.00000000000E+00  0.12773237480E+04  0.13721237076E+04  0.50116615184E+03 0.  0.
        2    1    3    3  502    0 -0.57243585859E+02  0.18786981461E+02  0.13045991479E+04  0.13059895542E+04  0.25500000920E-02 0.  1.
       -2    1    3    3    0  502  0.57243585859E+02 -0.18786981461E+02 -0.27275399977E+02  0.66134153391E+02  0.25500000920E-02 0. -1.
</event>
<event>
 5   0  0.1068522E-01  0.5032675E+03  0.7818609E-02  0.1012930E+00
        1   -1    0    0  501    0  0.00000000000E+00  0.00000000000E+00  0.55340355047E+03  0.55340355050E+03  0.50400001928E-02 0.  1.
       -1   -1    0    0    0  501  0.00000000000E+00  0.00000000000E+00 -0.11441840685E+03  0.11441840696E+03  0.50400001928E-02 0. -1.
    10030    2    1    2    0    0  0.00000000000E+00  0.00000000000E+00  0.43898514362E+03  0.66782195746E+03  0.50326753376E+03 0.  0.
        2    1    3    3  502    0 -0.15597002518E+03  0.19245338115E+03  0.16082599846E+03  0.29534717614E+03  0.25500000920E-02 0. -1.
       -2    1    3    3    0  502  0.15597002518E+03 -0.19245338115E+03  0.27815914517E+03  0.37247478131E+03  0.25500000920E-02 0.  1.
</event>
<event>
 5   0  0.1709372E-01  0.4936306E+03  0.7818609E-02  0.1015455E+00
        2   -1    0    0  501    0  0.00000000000E+00  0.00000000000E+00  0.69412851815E+03  0.69412851815E+03  0.25500000920E-02 0.  1.
       -2   -1    0    0    0  501  0.00000000000E+00  0.00000000000E+00 -0.87761529967E+02  0.87761530004E+02  0.25500000920E-02 0. -1.
    10030    2    1    2    0    0  0.00000000000E+00  0.00000000000E+00  0.60636698818E+03  0.78189004816E+03  0.49363055320E+03 0.  0.
        4    1    3    3  502    0 -0.48480117271E+02 -0.44284863767E+02 -0.73667693114E+02  0.98691503374E+02  0.12699999809E+01 0. -1.
       -4    1    3    3    0  502  0.48480117271E+02  0.44284863767E+02  0.68003468130E+03  0.68319854479E+03  0.12699999809E+01 0.  1.
</event>
<event>
 5   0  0.1074281E-01  0.5009581E+03  0.7818609E-02  0.1013529E+00
        1   -1    0    0  501    0  0.00000000000E+00  0.00000000000E+00  0.37722541321E+03  0.37722541324E+03  0.50400001928E-02 0.  1.
       -1   -1    0    0    0  501  0.00000000000E+00  0.00000000000E+00 -0.16631898878E+03  0.16631898886E+03  0.50400001928E-02 0. -1.
    10030    2    1    2    0    0  0.00000000000E+00  0.00000000000E+00  0.21090642443E+03  0.54354440209E+03  0.50095807927E+03 0.  0.
        4    1    3    3  502    0 -0.34006351214E+02 -0.21553242455E+02 -0.16278165659E+03  0.16769154661E+03  0.12699999809E+01 0. -1.
       -4    1    3    3    0  502  0.34006351214E+02  0.21553242455E+02  0.37368808101E+03  0.37585285548E+03  0.12699999809E+01 0.  1.
</event>
<event>
 5   0  0.1074281E-01  0.5025560E+03  0.7818609E-02  0.1013114E+00
        1   -1    0    0  501    0  0.00000000000E+00  0.00000000000E+00  0.22293736337E+03  0.22293736343E+03  0.50400001928E-02 0. -1.
       -1   -1    0    0    0  501  0.00000000000E+00  0.00000000000E+00 -0.28322139640E+03  0.28322139645E+03  0.50400001928E-02 0.  1.
    10030    2    1    2    0    0  0.00000000000E+00  0.00000000000E+00 -0.60284033029E+02  0.50615875987E+03  0.50255599246E+03 0.  0.
        4    1    3    3  502    0 -0.18158104763E+03 -0.17366860619E+03 -0.27563023770E+02  0.25277221923E+03  0.12699999809E+01 0. -1.
       -4    1    3    3    0  502  0.18158104763E+03  0.17366860619E+03 -0.32721009259E+02  0.25338654065E+03  0.12699999809E+01 0.  1.
</event>
<event>
 5   0  0.1760649E-01  0.5029504E+03  0.7818609E-02  0.1013012E+00
       -2   -1    0    0    0  501  0.00000000000E+00  0.00000000000E+00  0.81986946363E+02  0.81986946403E+02  0.25500000920E-02 0.  1.
        2   -1    0    0  501    0  0.00000000000E+00  0.00000000000E+00 -0.77133964182E+03  0.77133964182E+03  0.25500000920E-02 0. -1.
    10030    2    1    2    0    0  0.00000000000E+00  0.00000000000E+00 -0.68935269545E+03  0.85332658822E+03  0.50295042245E+03 0.  0.
        5    1    3    3  502    0  0.77064078320E+02 -0.19963786074E+03 -0.56863010440E+03  0.60758244974E+03  0.46999998093E+01 0. -1.
       -5    1    3    3    0  502 -0.77064078320E+02  0.19963786074E+03 -0.12072259105E+03  0.24574413848E+03  0.46999998093E+01 0.  1.
</event>
<event>
 5   0  0.1827698E-01  0.4951997E+03  0.7818609E-02  0.1015040E+00
       -2   -1    0    0    0  501  0.00000000000E+00  0.00000000000E+00  0.14156652769E+03  0.14156652771E+03  0.25500000920E-02 0. -1.
        2   -1    0    0  501    0  0.00000000000E+00  0.00000000000E+00 -0.43305210993E+03  0.43305210994E+03  0.25500000920E-02 0.  1.
    10030    2    1    2    0    0  0.00000000000E+00  0.00000000000E+00 -0.29148558224E+03  0.57461863765E+03  0.49519969111E+03 0.  0.
        1    1    3    3  502    0 -0.18363777404E+03  0.13741264462E+02 -0.33779853458E+03  0.38473303002E+03  0.50400001928E-02 0.  1.
       -1    1    3    3    0  502  0.18363777404E+03 -0.13741264462E+02  0.46312952338E+02  0.18988560762E+03  0.50400001928E-02 0. -1.
</event>
<event>
 5   0  0.1827698E-01  0.4987614E+03  0.7818609E-02  0.1014103E+00
       -2   -1    0    0    0  501  0.00000000000E+00  0.00000000000E+00  0.14384577347E+03  0.14384577349E+03  0.25500000920E-02 0.  1.
        2   -1    0    0  501    0  0.00000000000E+00  0.00000000000E+00 -0.43234318132E+03  0.43234318133E+03  0.25500000920E-02 0. -1.
    10030    2    1    2    0    0  0.00000000000E+00  0.00000000000E+00 -0.28849740785E+03  0.57618895483E+03  0.49876142325E+03 0.  0.
        1    1    3    3  502    0  0.10177230578E+01 -0.12265766942E+03 -0.39508418646E+03  0.41368762859E+03  0.50400001928E-02 0. -1.
       -1    1    3    3    0  502 -0.10177230578E+01  0.12265766942E+03  0.10658677861E+03  0.16250132624E+03  0.50400001928E-02 0.  1.
</event>
<event>
 5   0  0.7220250E-02  0.4711296E+03  0.7818609E-02  0.1021602E+00
       -3   -1    0    0    0  501  0.00000000000E+00  0.00000000000E+00  0.41743095535E+03  0.41743096757E+03  0.10100000352E+00 0. -1.
        3   -1    0    0  501    0  0.00000000000E+00  0.00000000000E+00 -0.13293398570E+03  0.13293402407E+03  0.10100000352E+00 0.  1.
    10030    2    1    2    0    0  0.00000000000E+00  0.00000000000E+00  0.28449696965E+03  0.55036499164E+03  0.47112959818E+03 0.  0.
        4    1    3    3  502    0  0.83078860710E+02  0.29737566760E+02  0.39739055918E+03  0.40707160230E+03  0.12699999809E+01 0. -1.
       -4    1    3    3    0  502 -0.83078860710E+02 -0.29737566760E+02 -0.11289358952E+03  0.14329338934E+03  0.12699999809E+01 0.  1.
</event>
<event>
 5   0  0.1147245E-01  0.5037867E+03  0.7818609E-02  0.1012795E+00
        1   -1    0    0  501    0  0.00000000000E+00  0.00000000000E+00  0.98735283266E+03  0.98735283268E+03  0.50400001928E-02 0. -1.
       -1   -1    0    0    0  501  0.00000000000E+00  0.00000000000E+00 -0.64262999701E+02  0.64262999899E+02  0.50400001928E-02 0.  1.
    10030    2    1    2    0    0  0.00000000000E+00  0.00000000000E+00  0.92308983296E+03  0.10516158326E+04  0.50378668065E+03 0.  0.
        1    1    3    3  502    0  0.12408345760E+03 -0.19988427533E+03  0.64941096627E+03  0.69071342184E+03  0.50400001928E-02 0.  1.
       -1    1    3    3    0  502 -0.12408345760E+03  0.19988427533E+03  0.27367886669E+03  0.36090241073E+03  0.50400001928E-02 0. -1.
</event>
<event>
 5   0  0.1760649E-01  0.5096252E+03  0.7818609E-02  0.1011297E+00
       -2   -1    0    0    0  501  0.00000000000E+00  0.00000000000E+00  0.93071014903E+02  0.93071014938E+02  0.25500000920E-02 0.  1.
        2   -1    0    0  501    0  0.00000000000E+00  0.00000000000E+00 -0.69763356513E+03  0.69763356513E+03  0.25500000920E-02 0. -1.
    10030    2    1    2    0    0  0.00000000000E+00  0.00000000000E+00 -0.60456255022E+03  0.79070458007E+03  0.50962521112E+03 0.  0.
        5    1    3    3  502    0  0.12990006876E+03  0.20364082391E+03 -0.17657998724E+03  0.29924270236E+03  0.46999998093E+01 0.  1.
       -5    1    3    3    0  502 -0.12990006876E+03 -0.20364082391E+03 -0.42798256298E+03  0.49146187771E+03  0.46999998093E+01 0. -1.
</event>
<event>
 5   0  0.1683148E-01  0.4987650E+03  0.7818609E-02  0.1014102E+00
        2   -1    0    0  501    0  0.00000000000E+00  0.00000000000E+00  0.61109779635E+03  0.61109779636E+03  0.25500000920E-02 0. -1.
       -2   -1    0    0    0  501  0.00000000000E+00  0.00000000000E+00 -0.10177032249E+03  0.10177032252E+03  0.25500000920E-02 0.  1.
    10030    2    1    2    0    0  0.00000000000E+00  0.00000000000E+00  0.50932747386E+03  0.71286811888E+03  0.49876495395E+03 0.  0.
        2    1    3    3  502    0 -0.63041049816E+02  0.18015774476E+03  0.48406274023E+03  0.52033424204E+03  0.25500000920E-02 0. -1.
       -2    1    3    3    0  502  0.63041049816E+02 -0.18015774476E+03  0.25264733635E+02  0.19253387684E+03  0.25500000920E-02 0.  1.
</event>
<event>
 5   0  0.1123271E-01  0.5194703E+03  0.7818609E-02  0.1008818E+00
       -1   -1    0    0    0  501  0.00000000000E+00  0.00000000000E+00  0.17284894914E+03  0.17284894921E+03  0.50400001928E-02 0.  1.
        1   -1    0    0  501    0  0.00000000000E+00  0.00000000000E+00 -0.39029652504E+03  0.39029652507E+03  0.50400001928E-02 0. -1.
    10030    2    1    2    0    0  0.00000000000E+00  0.00000000000E+00 -0.21744757590E+03  0.56314547428E+03  0.51947028494E+03 0.  0.
        5    1    3    3  502    0  0.19853999907E+03  0.16609750963E+02  0.71853011480E+02  0.21184654898E+03  0.46999998093E+01 0.  1.
       -5    1    3    3    0  502 -0.19853999907E+03 -0.16609750963E+02 -0.28930058738E+03  0.35129892530E+03  0.46999998093E+01 0. -1.
</event>
<event>
 5   0  0.1827698E-01  0.5030429E+03  0.7818609E-02  0.1012988E+00
       -2   -1    0    0    0  501  0.00000000000E+00  0.00000000000E+00  0.74583957238E+02  0.74583957282E+02  0.25500000920E-02 0. -1.
        2   -1    0    0  501    0  0.00000000000E+00  0.00000000000E+00 -0.84821249401E+03  0.84821249401E+03  0.25500000920E-02 0.  1.
    10030    2    1    2    0    0  0.00000000000E+00  0.00000000000E+00 -0.77362853677E+03  0.92279645129E+03  0.50304291826E+03 0.  0.
        1    1    3    3  502    0 -0.25896039294E+01 -0.22838172758E+03 -0.19356151997E+03  0.29938433757E+03  0.50400001928E-02 0. -1.
       -1    1    3    3    0  502  0.25896039294E+01  0.22838172758E+03 -0.58006701679E+03  0.62341211372E+03  0.50400001928E-02 0.  1.
</event>
<event>
 5   0  0.1709372E-01  0.4962038E+03  0.7818609E-02  0.1014775E+00
       -2   -1    0    0    0  501  0.00000000000E+00  0.00000000000E+00  0.45526493682E+02  0.45526493753E+02  0.25500000920E-02 0. -1.
        2   -1    0    0  501    0  0.00000000000E+00  0.00000000000E+00 -0.13520599239E+04  0.13520599239E+04  0.25500000920E-02 0.  1.
    10030    2    1    2    0    0  0.00000000000E+00  0.00000000000E+00 -0.13065334302E+04  0.13975864176E+04  0.49620377924E+03 0.  0.
        4    1    3    3  502    0 -0.20483800824E+03  0.78107965815E+02 -0.98044196311E+03  0.10046529350E+04  0.12699999809E+01 0.  1.
       -4    1    3    3    0  502  0.20483800824E+03 -0.78107965815E+02 -0.32609146709E+03  0.39293348261E+03  0.12699999809E+01 0. -1.
</event>
<event>
 5   0  0.1827698E-01  0.4671619E+03  0.7818609E-02  0.1022724E+00
       -2   -1    0    0    0  501  0.00000000000E+00  0.00000000000E+00  0.15816878817E+03  0.15816878819E+03  0.25500000920E-02 0.  1.
        2   -1    0    0  501    0  0.00000000000E+00  0.00000000000E+00 -0.34494833278E+03  0.34494833279E+03  0.25500000920E-02 0. -1.
    10030    2    1    2    0    0  0.00000000000E+00  0.00000000000E+00 -0.18677954460E+03  0.50311712098E+03  0.46716189821E+03 0.  0.
        1    1    3    3  502    0 -0.51221351007E+02  0.52293412517E+02  0.14549711897E+03  0.16287307772E+03  0.50400001928E-02 0.  1.
       -1    1    3    3    0  502  0.51221351007E+02 -0.52293412517E+02 -0.33227666358E+03  0.34024404326E+03  0.50400001928E-02 0. -1.
</event>
<event>
 5   0  0.1683148E-01  0.5333620E+03  0.7818609E-02  0.1005420E+00
       -2   -1    0    0    0  501  0.00000000000E+00  0.00000000000E+00  0.63259823947E+02  0.63259823998E+02  0.25500000920E-02 0. -1.
        2   -1    0    0  501    0  0.00000000000E+00  0.00000000000E+00 -0.11242323831E+04  0.11242323831E+04  0.25500000920E-02 0.  1.
    10030    2    1    2    0    0  0.00000000000E+00  0.00000000000E+00 -0.10609725592E+04  0.11874922071E+04  0.53336195089E+03 0.  0.
        2    1    3    3  502    0  0.12163189138E+03 -0.39603637658E+02 -0.10514704237E+04  0.10592227419E+04  0.25500000920E-02 0.  1.
       -2    1    3    3    0  502 -0.12163189138E+03  0.39603637658E+02 -0.95021354922E+01  0.12826946520E+03  0.25500000920E-02 0. -1.
</event>
<event>
 5   0  0.1068522E-01  0.5050886E+03  0.7818609E-02  0.1012459E+00
       -1   -1    0    0    0  501  0.00000000000E+00  0.00000000000E+00  0.16541354719E+03  0.16541354727E+03  0.50400001928E-02 0. -1.
        1   -1    0    0  501    0  0.00000000000E+00  0.00000000000E+00 -0.38557066445E+03  0.38557066448E+03  0.50400001928E-02 0.  1.
    10030    2    1    2    0    0  0.00000000000E+00  0.00000000000E+00 -0.22015711726E+03  0.55098421175E+03  0.50508855196E+03 0.  0.
        2    1    3    3  502    0  0.14141512878E+03  0.19138252286E+03 -0.17817410031E+02  0.23862725916E+03  0.25500000920E-02 0. -1.
       -2    1    3    3    0  502 -0.14141512878E+03 -0.19138252286E+03 -0.20233970723E+03  0.31235695259E+03  0.25500000920E-02 0.  1.
</event>
<event>
 5   0  0.1068522E-01  0.5005299E+03  0.7818609E-02  0.1013641E+00
       -1   -1    0    0    0  501  0.00000000000E+00  0.00000000000E+00  0.11252000100E+03  0.11252000112E+03  0.50400001928E-02 0. -1.
        1   -1    0    0  501    0  0.00000000000E+00  0.00000000000E+00 -0.55663481092E+03  0.55663481095E+03  0.50400001928E-02 0.  1.
    10030    2    1    2    0    0  0.00000000000E+00  0.00000000000E+00 -0.44411480992E+03  0.66915481206E+03  0.50052991731E+03 0.  0.
        2    1    3    3  502    0 -0.15996701563E+03  0.64968633311E+02 -0.46426082802E+03  0.49532664560E+03  0.25500000920E-02 0.  1.
       -2    1    3    3    0  502  0.15996701563E+03 -0.64968633311E+02  0.20146018098E+02  0.17382816646E+03  0.25500000920E-02 0. -1.
</event>
<event>
 5   0  0.1827698E-01  0.5052926E+03  0.7818609E-02  0.1012407E+00
       -2   -1    0    0    0  501  0.00000000000E+00  0.00000000000E+00  0.22670253049E+03  0.22670253050E+03  0.25500000920E-02 0.  1.
        2   -1    0    0  501    0  0.00000000000E+00  0.00000000000E+00 -0.28155906896E+03  0.28155906897E+03  0.25500000920E-02 0. -1.
    10030    2    1    2    0    0  0.00000000000E+00  0.00000000000E+00 -0.54856538470E+02  0.50826159948E+03  0.50529260205E+03 0.  0.
        1    1    3    3  502    0  0.18694693081E+01 -0.50299370968E+02  0.22160803599E+03  0.22725237793E+03  0.50400001928E-02 0.  1.
       -1    1    3    3    0  502 -0.18694693081E+01  0.50299370968E+02 -0.27646457446E+03  0.28100922154E+03  0.50400001928E-02 0. -1.
</event>
<event>
 5   0  0.1147245E-01  0.4968564E+03  0.7818609E-02  0.1014603E+00
        1   -1    0    0  501    0  0.00000000000E+00  0.00000000000E+00  0.10987562875E+04  0.10987562875E+04  0.50400001928E-02 0. -1.
       -1   -1    0    0    0  501  0.00000000000E+00  0.00000000000E+00 -0.56169491515E+02  0.56169491741E+02  0.50400001928E-02 0.  1.
    10030    2    1    2    0    0  0.00000000000E+00  0.00000000000E+00  0.10425867960E+04  0.11549257792E+04  0.49685644648E+03 0.  0.
        1    1    3    3  502    0 -0.18732385945E+03  0.16317583562E+03  0.52124537018E+03  0.57741953345E+03  0.50400001928E-02 0. -1.
       -1    1    3    3    0  502  0.18732385945E+03 -0.16317583562E+03  0.52134142577E+03  0.57750624577E+03  0.50400001928E-02 0.  1.
</event>
<event>
 5   0  0.1123271E-01  0.5351343E+03  0.7818609E-02  0.1004995E+00
        1   -1    0    0  501    0  0.00000000000E+00  0.00000000000E+00  0.19938906388E+03  0.19938906394E+03  0.50400001928E-02 0. -1.
       -1   -1    0    0    0  501  0.00000000000E+00  0.00000000000E+00 -0.35905770748E+03  0.35905770752E+03  0.50400001928E-02 0.  1.
    10030    2    1    2    0    0  0.00000000000E+00  0.00000000000E+00 -0.15966864360E+03  0.55844677146E+03  0.53513430165E+03 0.  0.
        5    1    3    3  502    0  0.11271767148E+03 -0.91734250227E+02 -0.31422916245E+03  0.34624052718E+03  0.46999998093E+01 0.  1.
       -5    1    3    3    0  502 -0.11271767148E+03  0.91734250227E+02  0.15456051885E+03  0.21220624428E+03  0.46999998093E+01 0. -1.
</event>
<event>
 5   0  0.1827698E-01  0.4974759E+03  0.7818609E-02  0.1014440E+00
       -2   -1    0    0    0  501  0.00000000000E+00  0.00000000000E+00  0.13733578072E+03  0.13733578075E+03  0.25500000920E-02 0. -1.
        2   -1    0    0  501    0  0.00000000000E+00  0.00000000000E+00 -0.45050577697E+03  0.45050577698E+03  0.25500000920E-02 0.  1.
    10030    2    1    2    0    0  0.00000000000E+00  0.00000000000E+00 -0.31316999625E+03  0.58784155773E+03  0.49747587926E+03 0.  0.
        1    1    3    3  502    0 -0.14117901184E+03  0.13323403668E+03 -0.34035977706E+03  0.39182598150E+03  0.50400001928E-02 0.  1.
       -1    1    3    3    0  502  0.14117901184E+03 -0.13323403668E+03  0.27189780811E+02  0.19601557622E+03  0.50400001928E-02 0. -1.
</event>
<event>
 5   0  0.1068522E-01  0.4894421E+03  0.7818609E-02  0.1016572E+00
        1   -1    0    0  501    0  0.00000000000E+00  0.00000000000E+00  0.63205150082E+03  0.63205150084E+03  0.50400001928E-02 0. -1.
       -1   -1    0    0    0  501  0.00000000000E+00  0.00000000000E+00 -0.94752391279E+02  0.94752391413E+02  0.50400001928E-02 0.  1.
    10030    2    1    2    0    0  0.00000000000E+00  0.00000000000E+00  0.53729910955E+03  0.72680389226E+03  0.48944209533E+03 0.  0.
        2    1    3    3  502    0 -0.77641549487E+02 -0.34344560046E+02 -0.72183270359E+02  0.11143690384E+03  0.25500000920E-02 0.  1.
       -2    1    3    3    0  502  0.77641549487E+02  0.34344560046E+02  0.60948237990E+03  0.61536698842E+03  0.25500000920E-02 0. -1.
</event>
<event>
 5   0  0.1683148E-01  0.4790901E+03  0.7818609E-02  0.1019386E+00
        2   -1    0    0  501    0  0.00000000000E+00  0.00000000000E+00  0.55860668469E+03  0.55860668470E+03  0.25500000920E-02 0.  1.
       -2   -1    0    0    0  501  0.00000000000E+00  0.00000000000E+00 -0.10272313264E+03  0.10272313267E+03  0.25500000920E-02 0. -1.
    10030    2    1    2    0    0  0.00000000000E+00  0.00000000000E+00  0.45588355205E+03  0.66132981737E+03  0.47909008997E+03 0.  0.
        2    1    3    3  502    0 -0.14698885479E+03  0.12175354536E+03  0.42775099303E+03  0.46840213630E+03  0.25500000920E-02 0.  1.
       -2    1    3    3    0  502  0.14698885479E+03 -0.12175354536E+03  0.28132559018E+02  0.19292768107E+03  0.25500000920E-02 0. -1.
</event>
<event>
 5   0  0.1074281E-01  0.5160255E+03  0.7818609E-02  0.1009679E+00
       -1   -1    0    0    0  501  0.00000000000E+00  0.00000000000E+00  0.20487176490E+03  0.20487176496E+03  0.50400001928E-02 0.  1.
        1   -1    0    0  501    0  0.00000000000E+00  0.00000000000E+00 -0.32493774626E+03  0.32493774630E+03  0.50400001928E-02 0. -1.
    10030    2    1    2    0    0  0.00000000000E+00  0.00000000000E+00 -0.12006598136E+03  0.52980951126E+03  0.51602546288E+03 0.  0.
        4    1    3    3  502    0 -0.16824502151E+03 -0.13695372900E+03 -0.20342847061E+03  0.29740118813E+03  0.12699999809E+01 0. -1.
       -4    1    3    3    0  502  0.16824502151E+03  0.13695372900E+03  0.83362489249E+02  0.23240832313E+03  0.12699999809E+01 0.  1.
</event>
<event>
 5   0  0.1147245E-01  0.5135338E+03  0.7818609E-02  0.1010306E+00
       -1   -1    0    0    0  501  0.00000000000E+00  0.00000000000E+00  0.71552394377E+02  0.71552394555E+02  0.50400001928E-02 0.  1.
        1   -1    0    0  501    0  0.00000000000E+00  0.00000000000E+00 -0.92141193964E+03  0.92141193965E+03  0.50400001928E-02 0. -1.
    10030    2    1    2    0    0  0.00000000000E+00  0.00000000000E+00 -0.84985954526E+03  0.99296433421E+03  0.51353375968E+03 0.  0.
        1    1    3    3  502    0 -0.24293963836E+03 -0.14193498417E+02 -0.58329675805E+03  0.63202549890E+03  0.50400001928E-02 0. -1.
       -1    1    3    3    0  502  0.24293963836E+03  0.14193498417E+02 -0.26656278721E+03  0.36093883531E+03  0.50400001928E-02 0.  1.
</event>
<event>
 5   0  0.1760649E-01  0.4953723E+03  0.7818609E-02  0.1014994E+00
       -2   -1    0    0    0  501  0.00000000000E+00  0.00000000000E+00  0.81938111578E+02  0.81938111617E+02  0.25500000920E-02 0.  1.
        2   -1    0    0  501    0  0.00000000000E+00  0.00000000000E+00 -0.74871668513E+03  0.74871668514E+03  0.25500000920E-02 0. -1.
    10030    2    1    2    0    0  0.00000000000E+00  0.00000000000E+00 -0.66677857355E+03  0.83065479675E+03  0.49537230970E+03 0.  0.
        5    1    3    3  502    0  0.22025071673E+03 -0.30191849025E+02 -0.51634369829E+03  0.56218754053E+03  0.46999998093E+01 0.  1.
       -5    1    3    3    0  502 -0.22025071673E+03  0.30191849025E+02 -0.15043487526E+03  0.26846725622E+03  0.46999998093E+01 0. -1.
</event>
<event>
 5   0  0.1141970E-01  0.5052644E+03  0.7818609E-02  0.1012414E+00
       -1   -1    0    0    0  501  0.00000000000E+00  0.00000000000E+00  0.24564401524E+02  0.24564402041E+02  0.50400001928E-02 0. -1.
        1   -1    0    0  501    0  0.00000000000E+00  0.00000000000E+00 -0.25981920947E+04  0.25981920947E+04  0.50400001928E-02 0.  1.
    10030    2    1    2    0    0  0.00000000000E+00  0.00000000000E+00 -0.25736276932E+04  0.26227564967E+04  0.50526442398E+03 0.  0.
        3    1    3    3  502    0 -0.83336094641E+01  0.24903723325E+03 -0.10706576088E+04  0.10992709939E+04  0.10100000352E+00 0.  1.
       -3    1    3    3    0  502  0.83336094641E+01 -0.24903723325E+03 -0.15029700843E+04  0.15234855028E+04  0.10100000352E+00 0. -1.
</event>
<event>
 5   0  0.7220250E-02  0.4873198E+03  0.7818609E-02  0.1017143E+00
        3   -1    0    0  501    0  0.00000000000E+00  0.00000000000E+00  0.43427631907E+03  0.43427633081E+03  0.10100000352E+00 0.  1.
       -3   -1    0    0    0  501  0.00000000000E+00  0.00000000000E+00 -0.13671049076E+03  0.13671052807E+03  0.10100000352E+00 0. -1.
    10030    2    1    2    0    0  0.00000000000E+00  0.00000000000E+00  0.29756582831E+03  0.57098685888E+03  0.48731978294E+03 0.  0.
        1    1    3    3  502    0 -0.12776466968E+03  0.58122971742E+02  0.38214618761E+03  0.40710907555E+03  0.50400001928E-02 0.  1.
       -1    1    3    3    0  502  0.12776466968E+03 -0.58122971742E+02 -0.84580359308E+02  0.16387778333E+03  0.50400001928E-02 0. -1.
</event>
<event>
 5   0  0.1141970E-01  0.4971836E+03  0.7818609E-02  0.1014517E+00
        1   -1    0    0  501    0  0.00000000000E+00  0.00000000000E+00  0.58518017809E+03  0.58518017811E+03  0.50400001928E-02 0.  1.
       -1   -1    0    0    0  501  0.00000000000E+00  0.00000000000E+00 -0.10560486966E+03  0.10560486978E+03  0.50400001928E-02 0. -1.
    10030    2    1    2    0    0  0.00000000000E+00  0.00000000000E+00  0.47957530843E+03  0.69078504789E+03  0.49718357368E+03 0.  0.
        3    1    3    3  502    0 -0.23219870777E+03 -0.18192347029E+00  0.36313595394E+03  0.43102668622E+03  0.10100000352E+00 0.  1.
       -3    1    3    3    0  502  0.23219870777E+03  0.18192347029E+00  0.11643935449E+03  0.25975836168E+03  0.10100000352E+00 0. -1.
</event>
<event>
 5   0  0.1683148E-01  0.4996875E+03  0.7818609E-02  0.1013861E+00
        2   -1    0    0  501    0  0.00000000000E+00  0.00000000000E+00  0.21724977149E+03  0.21724977150E+03  0.25500000920E-02 0. -1.
       -2   -1    0    0    0  501  0.00000000000E+00  0.00000000000E+00 -0.28732774659E+03  0.28732774660E+03  0.25500000920E-02 0.  1.
    10030    2    1    2    0    0  0.00000000000E+00  0.00000000000E+00 -0.70077975101E+02  0.50457751810E+03  0.49968745149E+03 0.  0.
        2    1    3    3  502    0 -0.97392196749E+02 -0.22851570591E+03 -0.79959492932E+01  0.24853290134E+03  0.25500000920E-02 0.  1.
       -2    1    3    3    0  502  0.97392196749E+02  0.22851570591E+03 -0.62082025808E+02  0.25604461676E+03  0.25500000920E-02 0. -1.
</event>
<event>
 5   0  0.1709372E-01  0.4868061E+03  0.7818609E-02  0.1017281E+00
       -2   -1    0    0    0  501  0.00000000000E+00  0.00000000000E+00  0.38838290341E+02  0.38838290424E+02  0.25500000920E-02 0. -1.
        2   -1    0    0  501    0  0.00000000000E+00  0.00000000000E+00 -0.15254287856E+04  0.15254287856E+04  0.25500000920E-02 0.  1.
    10030    2    1    2    0    0  0.00000000000E+00  0.00000000000E+00 -0.14865904952E+04  0.15642670760E+04  0.48680610570E+03 0.  0.
        4    1    3    3  502    0  0.63298574820E+02 -0.24043356493E+02  0.79544346105E+01  0.68188551060E+02  0.12699999809E+01 0. -1.
       -4    1    3    3    0  502 -0.63298574820E+02  0.24043356493E+02 -0.14945449299E+04  0.14960785250E+04  0.12699999809E+01 0.  1.
</event>
<event>
 5   0  0.1141970E-01  0.4987107E+03  0.7818609E-02  0.1014116E+00
        1   -1    0    0  501    0  0.00000000000E+00  0.00000000000E+00  0.20569796910E+03  0.20569796916E+03  0.50400001928E-02 0.  1.
       -1   -1    0    0    0  501  0.00000000000E+00  0.00000000000E+00 -0.30227861900E+03  0.30227861905E+03  0.50400001928E-02 0. -1.
    10030    2    1    2    0    0  0.00000000000E+00  0.00000000000E+00 -0.96580649906E+02  0.50797658821E+03  0.49871073001E+03 0.  0.
        3    1    3    3  502    0  0.18900882358E+03  0.51958066678E+02  0.10869692521E+03  0.22414059836E+03  0.10100000352E+00 0.  1.
       -3    1    3    3    0  502 -0.18900882358E+03 -0.51958066678E+02 -0.20527757512E+03  0.28383598984E+03  0.10100000352E+00 0. -1.
</event>
<event>
 5   0  0.1683148E-01  0.5012265E+03  0.7818609E-02  0.1013459E+00
        2   -1    0    0  501    0  0.00000000000E+00  0.00000000000E+00  0.81172349233E+03  0.81172349234E+03  0.25500000920E-02 0.  1.
       -2   -1    0    0    0  501  0.00000000000E+00  0.00000000000E+00 -0.77374857610E+02  0.77374857652E+02  0.25500000920E-02 0. -1.
    10030    2    1    2    0    0  0.00000000000E+00  0.00000000000E+00  0.73434863472E+03  0.88909834999E+03  0.50122645444E+03 0.  0.
        2    1    3    3  502    0  0.13737017402E+03 -0.14732253839E+03  0.63166471986E+03  0.66300438411E+03  0.25500000920E-02 0.  1.
       -2    1    3    3    0  502 -0.13737017402E+03  0.14732253839E+03  0.10268391487E+03  0.22609396588E+03  0.25500000920E-02 0. -1.
</event>
<event>
 5   0  0.1709372E-01  0.4990973E+03  0.7818609E-02  0.1014015E+00
       -2   -1    0    0    0  501  0.00000000000E+00  0.00000000000E+00  0.22550419232E+03  0.22550419233E+03  0.25500000920E-02 0. -1.
        2   -1    0    0  501    0  0.00000000000E+00  0.00000000000E+00 -0.27615687098E+03  0.27615687099E+03  0.25500000920E-02 0.  1.
    10030    2    1    2    0    0  0.00000000000E+00  0.00000000000E+00 -0.50652678659E+02  0.50166106332E+03  0.49909731375E+03 0.  0.
        4    1    3    3  502    0 -0.12493452240E+03  0.15940849864E+03  0.12120734825E+03  0.23603503659E+03  0.12699999809E+01 0. -1.
       -4    1    3    3    0  502  0.12493452240E+03 -0.15940849864E+03 -0.17186002691E+03  0.26562602673E+03  0.12699999809E+01 0.  1.
</event>
<event>
 5   0  0.1782124E-01  0.4867169E+03  0.7818609E-02  0.1017305E+00
       -2   -1    0    0    0  501  0.00000000000E+00  0.00000000000E+00  0.34851550942E+02  0.34851551035E+02  0.25500000920E-02 0. -1.
        2   -1    0    0  501    0  0.00000000000E+00  0.00000000000E+00 -0.16993027293E+04  0.16993027293E+04  0.25500000920E-02 0.  1.
    10030    2    1    2    0    0  0.00000000000E+00  0.00000000000E+00 -0.16644511784E+04  0.17341542803E+04  0.48671690218E+03 0.  0.
        3    1    3    3  502    0  0.22997371637E+03  0.36361222887E+02 -0.57995179178E+03  0.62494330922E+03  0.10100000352E+00 0. -1.
       -3    1    3    3    0  502 -0.22997371637E+03 -0.36361222887E+02 -0.10844993866E+04  0.11092109711E+04  0.10100000352E+00 0.  1.
</event>
<event>
 5   0  0.1141970E-01  0.5152397E+03  0.7818609E-02  0.1009876E+00
       -1   -1    0    0    0  501  0.00000000000E+00  0.00000000000E+00  0.11252181197E+03  0.11252181208E+03  0.50400001928E-02 0.  1.
        1   -1    0    0  501    0  0.00000000000E+00  0.00000000000E+00 -0.58982340566E+03  0.58982340569E+03  0.50400001928E-02 0. -1.
    10030    2    1    2    0    0  0.00000000000E+00  0.00000000000E+00 -0.47730159370E+03  0.70234521777E+03  0.51523974378E+03 0.  0.
        3    1    3    3  502    0 -0.86575722509E+02  0.19581247141E+03 -0.43396638081E+03  0.48390568251E+03  0.10100000352E+00 0. -1.
       -3    1    3    3    0  502  0.86575722509E+02 -0.19581247141E+03 -0.43335212887E+02  0.21843953526E+03  0.10100000352E+00 0.  1.
</event>
<event>
 5   0  0.1683148E-01  0.5002185E+03  0.7818609E-02  0.1013722E+00
        2   -1    0    0  501    0  0.00000000000E+00  0.00000000000E+00  0.12542089917E+04  0.12542089917E+04  0.25500000920E-02 0.  1.
       -2   -1    0    0    0  501  0.00000000000E+00  0.00000000000E+00 -0.49875765942E+02  0.49875766007E+02  0.25500000920E-02 0. -1.
    10030    2    1    2    0    0  0.00000000000E+00  0.00000000000E+00  0.12043332258E+04  0.13040847577E+04  0.50021848889E+03 0.  0.
        2    1    3    3  502    0 -0.97598963144E+02 -0.21170163411E+03  0.83840865404E+03  0.87021388788E+03  0.25500000920E-02 0.  1.
       -2    1    3    3    0  502  0.97598963144E+02  0.21170163411E+03  0.36592457174E+03  0.43387086984E+03  0.25500000920E-02 0. -1.
</event>
<event>
 5   0  0.1123271E-01  0.5028387E+03  0.7818609E-02  0.1013041E+00
        1   -1    0    0  501    0  0.00000000000E+00  0.00000000000E+00  0.82778314628E+03  0.82778314629E+03  0.50400001928E-02 0. -1.
       -1   -1    0    0    0  501  0.00000000000E+00  0.00000000000E+00 -0.76362629683E+02  0.76362629849E+02  0.50400001928E-02 0.  1.
    10030    2    1    2    0    0  0.00000000000E+00  0.00000000000E+00  0.75142051660E+03  0.90414577614E+03  0.50283873335E+03 0.  0.
        5    1    3    3  502    0 -0.15258166387E+03  0.19595747050E+03  0.44556094705E+03  0.51012463372E+03  0.46999998093E+01 0. -1.
       -5    1    3    3    0  502  0.15258166387E+03 -0.19595747050E+03  0.30585956955E+03  0.39402114243E+03  0.46999998093E+01 0.  1.
</event>
<event>
 5   0  0.1068522E-01  0.5108335E+03  0.7818609E-02  0.1010989E+00
        1   -1    0    0  501    0  0.00000000000E+00  0.00000000000E+00  0.24523319667E+04  0.24523319667E+04  0.50400001928E-02 0. -1.
       -1   -1    0    0    0  501  0.00000000000E+00  0.00000000000E+00 -0.26602319592E+02  0.26602320069E+02  0.50400001928E-02 0.  1.
    10030    2    1    2    0    0  0.00000000000E+00  0.00000000000E+00  0.24257296471E+04  0.24789342867E+04  0.51083351229E+03 0.  0.
        2    1    3    3  502    0  0.11965876720E+03 -0.22522402642E+03  0.12803921315E+04  0.13055451325E+04  0.25500000920E-02 0. -1.
       -2    1    3    3    0  502 -0.11965876720E+03  0.22522402642E+03  0.11453375155E+04  0.11733891542E+04  0.25500000920E-02 0.  1.
</event>
<event>
 5   0  0.1683148E-01  0.5165603E+03  0.7818609E-02  0.1009545E+00
        2   -1    0    0  501    0  0.00000000000E+00  0.00000000000E+00  0.11085951677E+04  0.11085951677E+04  0.25500000920E-02 0.  1.
       -2   -1    0    0    0  501  0.00000000000E+00  0.00000000000E+00 -0.60174034017E+02  0.60174034071E+02  0.25500000920E-02 0. -1.
    10030    2    1    2    0    0  0.00000000000E+00  0.00000000000E+00  0.10484211337E+04  0.11687692018E+04  0.51656032898E+03 0.  0.
        2    1    3    3  502    0  0.44317875031E+02  0.93043208060E+02  0.10600576480E+04  0.10650555524E+04  0.25500000920E-02 0.  1.
       -2    1    3    3    0  502 -0.44317875031E+02 -0.93043208060E+02 -0.11636514234E+02  0.10371364946E+03  0.25500000920E-02 0. -1.
</event>
<event>
 5   0  0.1141970E-01  0.4989210E+03  0.7818609E-02  0.1014061E+00
        1   -1    0    0  501    0  0.00000000000E+00  0.00000000000E+00  0.98649717648E+03  0.98649717650E+03  0.50400001928E-02 0. -1.
       -1   -1    0    0    0  501  0.00000000000E+00  0.00000000000E+00 -0.63082319811E+02  0.63082320013E+02  0.50400001928E-02 0.  1.
    10030    2    1    2    0    0  0.00000000000E+00  0.00000000000E+00  0.92341485667E+03  0.10495794965E+04  0.49892095764E+03 0.  0.
        3    1    3    3  502    0 -0.66829191860E+02  0.83493862827E+02 -0.12410286702E+02  0.10766332445E+03  0.10100000352E+00 0.  1.
       -3    1    3    3    0  502  0.66829191860E+02 -0.83493862827E+02  0.93582514337E+03  0.94191617206E+03  0.10100000352E+00 0. -1.
</event>
<event>
 5   0  0.1141970E-01  0.4983460E+03  0.7818609E-02  0.1014212E+00
       -1   -1    0    0    0  501  0.00000000000E+00  0.00000000000E+00  0.44893226424E+02  0.44893226707E+02  0.50400001928E-02 0.  1.
        1   -1    0    0  501    0  0.00000000000E+00  0.00000000000E+00 -0.13829965649E+04  0.13829965649E+04  0.50400001928E-02 0. -1.
    10030    2    1    2    0    0  0.00000000000E+00  0.00000000000E+00 -0.13381033385E+04  0.14278897916E+04  0.49834597678E+03 0.  0.
        3    1    3    3  502    0 -0.53405057731E+02 -0.86263814880E+02 -0.13211331610E+04  0.13250231640E+04  0.10100000352E+00 0. -1.
       -3    1    3    3    0  502  0.53405057731E+02  0.86263814880E+02 -0.16970177502E+02  0.10286662760E+03  0.10100000352E+00 0.  1.
</event>
<event>
 5   0  0.1141970E-01  0.5337119E+03  0.7818609E-02  0.1005336E+00
        1   -1    0    0  501    0  0.00000000000E+00  0.00000000000E+00  0.15557815501E+03  0.15557815509E+03  0.50400001928E-02 0. -1.
       -1   -1    0    0    0  501  0.00000000000E+00  0.00000000000E+00 -0.45772557970E+03  0.45772557973E+03  0.50400001928E-02 0.  1.
    10030    2    1    2    0    0  0.00000000000E+00  0.00000000000E+00 -0.30214742469E+03  0.61330373482E+03  0.53371191189E+03 0.  0.
        3    1    3    3  502    0 -0.17616230039E+03 -0.62301161827E+02  0.67857192257E+02  0.19879436507E+03  0.10100000352E+00 0. -1.
       -3    1    3    3    0  502  0.17616230039E+03  0.62301161827E+02 -0.37000461694E+03  0.41450936974E+03  0.10100000352E+00 0.  1.
</event>
<event>
 5   0  0.7220250E-02  0.4770207E+03  0.7818609E-02  0.1019957E+00
       -4   -1    0    0    0  501  0.00000000000E+00  0.00000000000E+00  0.47170735249E+03  0.47170906213E+03  0.12699999809E+01 0.  1.
        4   -1    0    0  501    0  0.00000000000E+00  0.00000000000E+00 -0.12059322135E+03  0.12059990852E+03  0.12699999809E+01 0. -1.
    10030    2    1    2    0    0  0.00000000000E+00  0.00000000000E+00  0.35111413114E+03  0.59230897066E+03  0.47702073711E+03 0.  0.
        3    1    3    3  502    0 -0.84819352274E+02 -0.15016188618E+03  0.38013092725E+03  0.41742358179E+03  0.10100000352E+00 0.  1.
       -3    1    3    3    0  502  0.84819352274E+02  0.15016188618E+03 -0.29016796109E+02  0.17488538887E+03  0.10100000352E+00 0. -1.
</event>
<event>
 5   0  0.1760649E-01  0.4955163E+03  0.7818609E-02  0.1014956E+00
        2   -1    0    0  501    0  0.00000000000E+00  0.00000000000E+00  0.35482728648E+03  0.35482728649E+03  0.25500000920E-02 0. -1.
       -2   -1    0    0    0  501  0.00000000000E+00  0.00000000000E+00 -0.17299710325E+03  0.17299710327E+03  0.25500000920E-02 0.  1.
    10030    2    1    2    0    0  0.00000000000E+00  0.00000000000E+00  0.18183018323E+03  0.52782438977E+03  0.49551626704E+03 0.  0.
        5    1    3    3  502    0 -0.12526513716E+03  0.62423111843E+02  0.30862820382E+03  0.33891216808E+03  0.46999998093E+01 0. -1.
       -5    1    3    3    0  502  0.12526513716E+03 -0.62423111843E+02 -0.12679802059E+03  0.18891222169E+03  0.46999998093E+01 0.  1.
</event>
<event>
 5   0  0.1074281E-01  0.5059722E+03  0.7818609E-02  0.1012232E+00
        1   -1    0    0  501    0  0.00000000000E+00  0.00000000000E+00  0.11232399667E+04  0.11232399667E+04  0.50400001928E-02 0.  1.
       -1   -1    0    0    0  501  0.00000000000E+00  0.00000000000E+00 -0.56979787049E+02  0.56979787272E+02  0.50400001928E-02 0. -1.
    10030    2    1    2    0    0  0.00000000000E+00  0.00000000000E+00  0.10662601796E+04  0.11802197539E+04  0.50597222945E+03 0.  0.
        4    1    3    3  502    0  0.11655654432E+03 -0.20615801649E+03  0.32562493680E+03  0.40264099164E+03  0.12699999809E+01 0.  1.
       -4    1    3    3    0  502 -0.11655654432E+03  0.20615801649E+03  0.74063524282E+03  0.77757876231E+03  0.12699999809E+01 0. -1.
</event>
<event>
 5   0  0.1141970E-01  0.5269103E+03  0.7818609E-02  0.1006984E+00
        1   -1    0    0  501    0  0.00000000000E+00  0.00000000000E+00  0.27610309447E+03  0.27610309451E+03  0.50400001928E-02 0. -1.
       -1   -1    0    0    0  501  0.00000000000E+00  0.00000000000E+00 -0.25138659711E+03  0.25138659716E+03  0.50400001928E-02 0.  1.
    10030    2    1    2    0    0  0.00000000000E+00  0.00000000000E+00  0.24716497354E+02  0.52748969168E+03  0.52691030506E+03 0.  0.
        3    1    3    3  502    0 -0.88343317263E+02 -0.23213580821E+03  0.10030148349E+03  0.26786558747E+03  0.10100000352E+00 0.  1.
       -3    1    3    3    0  502  0.88343317263E+02  0.23213580821E+03 -0.75584986136E+02  0.25962410421E+03  0.10100000352E+00 0. -1.
</event>
<event>
 5   0  0.7220250E-02  0.4955502E+03  0.7818609E-02  0.1014947E+00
        3   -1    0    0  501    0  0.00000000000E+00  0.00000000000E+00  0.61587497409E+03  0.61587498237E+03  0.10100000352E+00 0.  1.
       -3   -1    0    0    0  501  0.00000000000E+00  0.00000000000E+00 -0.99683361798E+02  0.99683412965E+02  0.10100000352E+00 0. -1.
    10030    2    1    2    0    0  0.00000000000E+00  0.00000000000E+00  0.51619161229E+03  0.71555839533E+03  0.49555023614E+03 0.  0.
        3    1    3    3  502    0  0.20667657027E+03  0.13220210512E+03  0.30811417134E+03  0.39386159254E+03  0.10100000352E+00 0.  1.
       -3    1    3    3    0  502 -0.20667657027E+03 -0.13220210512E+03  0.20807744095E+03  0.32169680279E+03  0.10100000352E+00 0. -1.
</event>
<event>
 5   0  0.1683148E-01  0.5022174E+03  0.7818609E-02  0.1013202E+00
       -2   -1    0    0    0  501  0.00000000000E+00  0.00000000000E+00  0.50909547479E+02  0.50909547543E+02  0.25500000920E-02 0.  1.
        2   -1    0    0  501    0  0.00000000000E+00  0.00000000000E+00 -0.12385808289E+04  0.12385808289E+04  0.25500000920E-02 0. -1.
    10030    2    1    2    0    0  0.00000000000E+00  0.00000000000E+00 -0.11876712814E+04  0.12894903764E+04  0.50221744118E+03 0.  0.
        2    1    3    3  502    0  0.95603057498E+02  0.19983158837E+03 -0.89745272253E+03  0.92438844513E+03  0.25500000920E-02 0. -1.
       -2    1    3    3    0  502 -0.95603057498E+02 -0.19983158837E+03 -0.29021855888E+03  0.36510193130E+03  0.25500000920E-02 0.  1.
</event>
<event>
 5   0  0.7220250E-02  0.4957639E+03  0.7818609E-02  0.1014891E+00
       -4   -1    0    0    0  501  0.00000000000E+00  0.00000000000E+00  0.41521079475E+02  0.41540497599E+02  0.12699999809E+01 0.  1.
        4   -1    0    0  501    0  0.00000000000E+00  0.00000000000E+00 -0.14794959696E+04  0.14794965147E+04  0.12699999809E+01 0. -1.
    10030    2    1    2    0    0  0.00000000000E+00  0.00000000000E+00 -0.14379748901E+04  0.15210370123E+04  0.49576386325E+03 0.  0.
        4    1    3    3  502    0  0.53162769614E+02 -0.22798921347E+02 -0.14584984472E+04  0.14596456434E+04  0.12699999809E+01 0. -1.
       -4    1    3    3    0  502 -0.53162769614E+02  0.22798921347E+02  0.20523557025E+02  0.61391368942E+02  0.12699999809E+01 0.  1.
</event>
<event>
 5   0  0.1760649E-01  0.4870696E+03  0.7818609E-02  0.1017210E+00
        2   -1    0    0  501    0  0.00000000000E+00  0.00000000000E+00  0.10849658174E+04  0.10849658174E+04  0.25500000920E-02 0. -1.
       -2   -1    0    0    0  501  0.00000000000E+00  0.00000000000E+00 -0.54664585165E+02  0.54664585225E+02  0.25500000920E-02 0.  1.
    10030    2    1    2    0    0  0.00000000000E+00  0.00000000000E+00  0.10303012322E+04  0.11396304026E+04  0.48706963100E+03 0.  0.
        5    1    3    3  502    0 -0.52549204228E+02 -0.14726342254E+03  0.95187450511E+03  0.96464247157E+03  0.46999998093E+01 0. -1.
       -5    1    3    3    0  502  0.52549204228E+02  0.14726342254E+03  0.78426727089E+02  0.17498793102E+03  0.46999998093E+01 0.  1.
</event>
<event>
 5   0  0.1074281E-01  0.4912684E+03  0.7818609E-02  0.1016083E+00
        1   -1    0    0  501    0  0.00000000000E+00  0.00000000000E+00  0.31773435425E+03  0.31773435429E+03  0.50400001928E-02 0.  1.
       -1   -1    0    0    0  501  0.00000000000E+00  0.00000000000E+00 -0.18989494952E+03  0.18989494959E+03  0.50400001928E-02 0. -1.
    10030    2    1    2    0    0  0.00000000000E+00  0.00000000000E+00  0.12783940472E+03  0.50762930388E+03  0.49126835513E+03 0.  0.
        4    1    3    3  502    0 -0.10737296864E+03  0.42401544279E+02 -0.16011348303E+03  0.19739499917E+03  0.12699999809E+01 0. -1.
       -4    1    3    3    0  502  0.10737296864E+03 -0.42401544279E+02  0.28795288775E+03  0.31023430471E+03  0.12699999809E+01 0.  1.
</event>
<event>
 5   0  0.1782124E-01  0.5063501E+03  0.7818609E-02  0.1012135E+00
        2   -1    0    0  501    0  0.00000000000E+00  0.00000000000E+00  0.85660188469E+03  0.85660188469E+03  0.25500000920E-02 0.  1.
       -2   -1    0    0    0  501  0.00000000000E+00  0.00000000000E+00 -0.74827764511E+02  0.74827764555E+02  0.25500000920E-02 0. -1.
    10030    2    1    2    0    0  0.00000000000E+00  0.00000000000E+00  0.78177412018E+03  0.93142964925E+03  0.50635009284E+03 0.  0.
        3    1    3    3  502    0  0.23405935492E+02 -0.86662183851E+02 -0.44570653522E+02  0.10022337693E+03  0.10100000352E+00 0. -1.
       -3    1    3    3    0  502 -0.23405935492E+02  0.86662183851E+02  0.82634477370E+03  0.83120627232E+03  0.10100000352E+00 0.  1.
</event>
<event>
 5   0  0.1760649E-01  0.4922494E+03  0.7818609E-02  0.1015822E+00
       -2   -1    0    0    0  501  0.00000000000E+00  0.00000000000E+00  0.55332570792E+02  0.55332570850E+02  0.25500000920E-02 0. -1.
        2   -1    0    0  501    0  0.00000000000E+00  0.00000000000E+00 -0.10947866165E+04  0.10947866165E+04  0.25500000920E-02 0.  1.
    10030    2    1    2    0    0  0.00000000000E+00  0.00000000000E+00 -0.10394540457E+04  0.11501191874E+04  0.49224935956E+03 0.  0.
        5    1    3    3  502    0 -0.96775041708E+02 -0.22580100465E+03 -0.55307911824E+03  0.60520253092E+03  0.46999998093E+01 0.  1.
       -5    1    3    3    0  502  0.96775041708E+02  0.22580100465E+03 -0.48637492751E+03  0.54491665647E+03  0.46999998093E+01 0. -1.
</event>
<event>
 5   0  0.1147245E-01  0.4259838E+03  0.7818609E-02  0.1035136E+00
       -1   -1    0    0    0  501  0.00000000000E+00  0.00000000000E+00  0.37203364322E+03  0.37203364325E+03  0.50400001928E-02 0. -1.
        1   -1    0    0  501    0  0.00000000000E+00  0.00000000000E+00 -0.12193939892E+03  0.12193939902E+03  0.50400001928E-02 0.  1.
    10030    2    1    2    0    0  0.00000000000E+00  0.00000000000E+00  0.25009424430E+03  0.49397304228E+03  0.42598384414E+03 0.  0.
        1    1    3    3  502    0 -0.20069957723E+03  0.69194956148E+02  0.10505287385E+03  0.23686360756E+03  0.50400001928E-02 0. -1.
       -1    1    3    3    0  502  0.20069957723E+03 -0.69194956148E+02  0.14504137045E+03  0.25710943472E+03  0.50400001928E-02 0.  1.
</event>
<event>
 5   0  0.1683148E-01  0.4046210E+03  0.7818609E-02  0.1042191E+00
       -2   -1    0    0    0  501  0.00000000000E+00  0.00000000000E+00  0.67295095825E+02  0.67295095873E+02  0.25500000920E-02 0. -1.
        2   -1    0    0  501    0  0.00000000000E+00  0.00000000000E+00 -0.60820969350E+03  0.60820969351E+03  0.25500000920E-02 0.  1.
    10030    2    1    2    0    0  0.00000000000E+00  0.00000000000E+00 -0.54091459768E+03  0.67550478938E+03  0.40462095657E+03 0.  0.
        2    1    3    3  502    0 -0.13088123149E+03  0.82410051047E+02 -0.48818287368E+03  0.51209748235E+03  0.25500000920E-02 0.  1.
       -2    1    3    3    0  502  0.13088123149E+03 -0.82410051047E+02 -0.52731723997E+02  0.16340730703E+03  0.25500000920E-02 0. -1.
</event>
<event>
 5   0  0.1760649E-01  0.5147673E+03  0.7818609E-02  0.1009995E+00
       -2   -1    0    0    0  501  0.00000000000E+00  0.00000000000E+00  0.60367871622E+02  0.60367871676E+02  0.25500000920E-02 0.  1.
        2   -1    0    0  501    0  0.00000000000E+00  0.00000000000E+00 -0.10973773454E+04  0.10973773454E+04  0.25500000920E-02 0. -1.
    10030    2    1    2    0    0  0.00000000000E+00  0.00000000000E+00 -0.10370094738E+04  0.11577452171E+04  0.51476726680E+03 0.  0.
        5    1    3    3  502    0  0.12921491792E+03 -0.13547682159E+03 -0.91560192277E+03  0.93455841722E+03  0.46999998093E+01 0. -1.
       -5    1    3    3    0  502 -0.12921491792E+03  0.13547682159E+03 -0.12140755105E+03  0.22318679991E+03  0.46999998093E+01 0.  1.
</event>
<event>
 5   0  0.1068522E-01  0.4958847E+03  0.7818609E-02  0.1014859E+00
        1   -1    0    0  501    0  0.00000000000E+00  0.00000000000E+00  0.36295944868E+03  0.36295944872E+03  0.50400001928E-02 0. -1.
       -1   -1    0    0    0  501  0.00000000000E+00  0.00000000000E+00 -0.16937269846E+03  0.16937269854E+03  0.50400001928E-02 0.  1.
    10030    2    1    2    0    0  0.00000000000E+00  0.00000000000E+00  0.19358675022E+03  0.53233214725E+03  0.49588474985E+03 0.  0.
        2    1    3    3  502    0 -0.10810258817E+02  0.24701271410E+03  0.76903807560E+02  0.25893307677E+03  0.25500000920E-02 0.  1.
       -2    1    3    3    0  502  0.10810258817E+02 -0.24701271410E+03  0.11668294266E+03  0.27339907048E+03  0.25500000920E-02 0. -1.
</event>
<event>
 5   0  0.1760649E-01  0.4995876E+03  0.7818609E-02  0.1013887E+00
       -2   -1    0    0    0  501  0.00000000000E+00  0.00000000000E+00  0.79806632900E+02  0.79806632941E+02  0.25500000920E-02 0. -1.
        2   -1    0    0  501    0  0.00000000000E+00  0.00000000000E+00 -0.78185156235E+03  0.78185156235E+03  0.25500000920E-02 0.  1.
    10030    2    1    2    0    0  0.00000000000E+00  0.00000000000E+00 -0.70204492945E+03  0.86165819529E+03  0.49958759247E+03 0.  0.
        5    1    3    3  502    0 -0.19824468062E+03 -0.90307436904E+02 -0.14036083696E+03  0.25919035689E+03  0.46999998093E+01 0. -1.
       -5    1    3    3    0  502  0.19824468062E+03  0.90307436904E+02 -0.56168409249E+03  0.60246783840E+03  0.46999998093E+01 0.  1.
</event>
<event>
 5   0  0.1074281E-01  0.5049923E+03  0.7818609E-02  0.1012484E+00
       -1   -1    0    0    0  501  0.00000000000E+00  0.00000000000E+00  0.42982548885E+03  0.42982548888E+03  0.50400001928E-02 0.  1.
        1   -1    0    0  501    0  0.00000000000E+00  0.00000000000E+00 -0.14832600776E+03  0.14832600784E+03  0.50400001928E-02 0. -1.
    10030    2    1    2    0    0  0.00000000000E+00  0.00000000000E+00  0.28149948110E+03  0.57815149673E+03  0.50499227252E+03 0.  0.
        4    1    3    3  502    0  0.48809234055E+02 -0.15744442244E+03  0.35972157708E+03  0.39569219528E+03  0.12699999809E+01 0.  1.
       -4    1    3    3    0  502 -0.48809234055E+02  0.15744442244E+03 -0.78222095985E+02  0.18245930145E+03  0.12699999809E+01 0. -1.
</event>
<event>
 5   0  0.1123271E-01  0.5033845E+03  0.7818609E-02  0.1012899E+00
        1   -1    0    0  501    0  0.00000000000E+00  0.00000000000E+00  0.42239185619E+03  0.42239185622E+03  0.50400001928E-02 0.  1.
       -1   -1    0    0    0  501  0.00000000000E+00  0.00000000000E+00 -0.14997680038E+03  0.14997680046E+03  0.50400001928E-02 0. -1.
    10030    2    1    2    0    0  0.00000000000E+00  0.00000000000E+00  0.27241505581E+03  0.57236865668E+03  0.50338446193E+03 0.  0.
        5    1    3    3  502    0  0.15279592757E+03  0.56141716443E+02 -0.81998865423E+02  0.18233044654E+03  0.46999998093E+01 0. -1.
       -5    1    3    3    0  502 -0.15279592757E+03 -0.56141716443E+02  0.35441392123E+03  0.39003821014E+03  0.46999998093E+01 0.  1.
</event>
<event>
 5   0  0.1123271E-01  0.5182357E+03  0.7818609E-02  0.1009126E+00
       -1   -1    0    0    0  501  0.00000000000E+00  0.00000000000E+00  0.80304059644E+02  0.80304059802E+02  0.50400001928E-02 0.  1.
        1   -1    0    0  501    0  0.00000000000E+00  0.00000000000E+00 -0.83609780997E+03  0.83609780999E+03  0.50400001928E-02 0. -1.
    10030    2    1    2    0    0  0.00000000000E+00  0.00000000000E+00 -0.75579375033E+03  0.91640186979E+03  0.51823565481E+03 0.  0.
        5    1    3    3  502    0 -0.19848806010E+03  0.79571545152E+02 -0.11927076352E+03  0.24490150231E+03  0.46999998093E+01 0.  1.
       -5    1    3    3    0  502  0.19848806010E+03 -0.79571545152E+02 -0.63652298680E+03  0.67150036748E+03  0.46999998093E+01 0. -1.
</event>
<event>
 5   0  0.1123271E-01  0.4682136E+03  0.7818609E-02  0.1022426E+00
       -1   -1    0    0    0  501  0.00000000000E+00  0.00000000000E+00  0.57409419042E+02  0.57409419263E+02  0.50400001928E-02 0.  1.
        1   -1    0    0  501    0  0.00000000000E+00  0.00000000000E+00 -0.95465178673E+03  0.95465178674E+03  0.50400001928E-02 0. -1.
    10030    2    1    2    0    0  0.00000000000E+00  0.00000000000E+00 -0.89724236769E+03  0.10120612060E+04  0.46821364603E+03 0.  0.
        5    1    3    3  502    0  0.11479362822E+03  0.86903227568E+02 -0.84750630665E+03  0.85966201373E+03  0.46999998093E+01 0. -1.
       -5    1    3    3    0  502 -0.11479362822E+03 -0.86903227568E+02 -0.49736061040E+02  0.15239919228E+03  0.46999998093E+01 0.  1.
</event>
<event>
 5   0  0.1782124E-01  0.5054628E+03  0.7818609E-02  0.1012363E+00
        2   -1    0    0  501    0  0.00000000000E+00  0.00000000000E+00  0.90892673163E+03  0.90892673163E+03  0.25500000920E-02 0.  1.
       -2   -1    0    0    0  501  0.00000000000E+00  0.00000000000E+00 -0.70273158402E+02  0.70273158448E+02  0.25500000920E-02 0. -1.
    10030    2    1    2    0    0  0.00000000000E+00  0.00000000000E+00  0.83865357322E+03  0.97919989008E+03  0.50546276702E+03 0.  0.
        3    1    3    3  502    0  0.17296999775E+03 -0.14024705845E+03  0.65086710831E+03  0.68790686900E+03  0.10100000352E+00 0.  1.
       -3    1    3    3    0  502 -0.17296999775E+03  0.14024705845E+03  0.18778646491E+03  0.29129302108E+03  0.10100000352E+00 0. -1.
</event>
<event>
 5   0  0.1141970E-01  0.4999237E+03  0.7818609E-02  0.1013799E+00
       -1   -1    0    0    0  501  0.00000000000E+00  0.00000000000E+00  0.15921823236E+03  0.15921823244E+03  0.50400001928E-02 0.  1.
        1   -1    0    0  501    0  0.00000000000E+00  0.00000000000E+00 -0.39242312852E+03  0.39242312855E+03  0.50400001928E-02 0. -1.
    10030    2    1    2    0    0  0.00000000000E+00  0.00000000000E+00 -0.23320489616E+03  0.55164136099E+03  0.49992366173E+03 0.  0.
        3    1    3    3  502    0  0.20364406159E+02  0.14417019256E+03  0.10759416072E+03  0.18104216936E+03  0.10100000352E+00 0.  1.
       -3    1    3    3    0  502 -0.20364406159E+02 -0.14417019256E+03 -0.34079905689E+03  0.37059919163E+03  0.10100000352E+00 0. -1.
</event>
<event>
 5   0  0.1123271E-01  0.5053126E+03  0.7818609E-02  0.1012401E+00
        1   -1    0    0  501    0  0.00000000000E+00  0.00000000000E+00  0.14143467999E+03  0.14143468008E+03  0.50400001928E-02 0. -1.
       -1   -1    0    0    0  501  0.00000000000E+00  0.00000000000E+00 -0.45134047199E+03  0.45134047202E+03  0.50400001928E-02 0.  1.
    10030    2    1    2    0    0  0.00000000000E+00  0.00000000000E+00 -0.30990579200E+03  0.59277515210E+03  0.50531255776E+03 0.  0.
        5    1    3    3  502    0  0.95885700230E+02 -0.17109525240E+03  0.31805408622E+02  0.19874940734E+03  0.46999998093E+01 0. -1.
       -5    1    3    3    0  502 -0.95885700230E+02  0.17109525240E+03 -0.34171120063E+03  0.39402574476E+03  0.46999998093E+01 0.  1.
</event>
<event>
 5   0  0.1782124E-01  0.4981554E+03  0.7818609E-02  0.1014262E+00
       -2   -1    0    0    0  501  0.00000000000E+00  0.00000000000E+00  0.43298415778E+02  0.43298415854E+02  0.25500000920E-02 0. -1.
        2   -1    0    0  501    0  0.00000000000E+00  0.00000000000E+00 -0.14328399600E+04  0.14328399600E+04  0.25500000920E-02 0.  1.
    10030    2    1    2    0    0  0.00000000000E+00  0.00000000000E+00 -0.13895415442E+04  0.14761383759E+04  0.49815539901E+03 0.  0.
        3    1    3    3  502    0 -0.21455342943E+03 -0.12651638159E+03 -0.69373874801E+03  0.73709770694E+03  0.10100000352E+00 0. -1.
       -3    1    3    3    0  502  0.21455342943E+03  0.12651638159E+03 -0.69580279622E+03  0.73904066893E+03  0.10100000352E+00 0.  1.
</event>
<event>
 5   0  0.7220250E-02  0.5027743E+03  0.7818609E-02  0.1013057E+00
        3   -1    0    0  501    0  0.00000000000E+00  0.00000000000E+00  0.52635128789E+02  0.52635225692E+02  0.10100000352E+00 0.  1.
       -3   -1    0    0    0  501  0.00000000000E+00  0.00000000000E+00 -0.12006323013E+04  0.12006323056E+04  0.10100000352E+00 0. -1.
    10030    2    1    2    0    0  0.00000000000E+00  0.00000000000E+00 -0.11479971725E+04  0.12532675312E+04  0.50277430003E+03 0.  0.
        5    1    3    3  502    0 -0.46065714863E+02  0.22486114801E+03 -0.31870841107E+03  0.39278712716E+03  0.46999998093E+01 0.  1.
       -5    1    3    3    0  502  0.46065714863E+02 -0.22486114801E+03 -0.82928876145E+03  0.86048040409E+03  0.46999998093E+01 0. -1.
</event>
<event>
 5   0  0.1827698E-01  0.5388591E+03  0.7818609E-02  0.1004106E+00
        2   -1    0    0  501    0  0.00000000000E+00  0.00000000000E+00  0.12595120921E+04  0.12595120921E+04  0.25500000920E-02 0.  1.
       -2   -1    0    0    0  501  0.00000000000E+00  0.00000000000E+00 -0.57635240161E+02  0.57635240218E+02  0.25500000920E-02 0. -1.
    10030    2    1    2    0    0  0.00000000000E+00  0.00000000000E+00  0.12018768520E+04  0.13171473323E+04  0.53885909830E+03 0.  0.
        1    1    3    3  502    0 -0.77707437273E+02  0.10255621656E+03  0.11795577410E+04  0.11865549662E+04  0.50400001928E-02 0.  1.
       -1    1    3    3    0  502  0.77707437273E+02 -0.10255621656E+03  0.22319110960E+02  0.13059236617E+03  0.50400001928E-02 0. -1.
</event>
<event>
 5   0  0.1709372E-01  0.5004874E+03  0.7818609E-02  0.1013652E+00
        2   -1    0    0  501    0  0.00000000000E+00  0.00000000000E+00  0.18991296756E+04  0.18991296756E+04  0.25500000920E-02 0.  1.
       -2   -1    0    0    0  501  0.00000000000E+00  0.00000000000E+00 -0.32974010098E+02  0.32974010197E+02  0.25500000920E-02 0. -1.
    10030    2    1    2    0    0  0.00000000000E+00  0.00000000000E+00  0.18661556655E+04  0.19321036858E+04  0.50048744719E+03 0.  0.
        4    1    3    3  502    0 -0.89224616695E+02 -0.95533353658E+02  0.10932157990E+03  0.17041265979E+03  0.12699999809E+01 0. -1.
       -4    1    3    3    0  502  0.89224616695E+02  0.95533353658E+02  0.17568340856E+04  0.17616910260E+04  0.12699999809E+01 0.  1.
</event>
<event>
 5   0  0.7220250E-02  0.5018982E+03  0.7818609E-02  0.1013285E+00
       -3   -1    0    0    0  501  0.00000000000E+00  0.00000000000E+00  0.84274011501E+02  0.84274072024E+02  0.10100000352E+00 0.  1.
        3   -1    0    0  501    0  0.00000000000E+00  0.00000000000E+00 -0.74726978622E+03  0.74726979304E+03  0.10100000352E+00 0. -1.
    10030    2    1    2    0    0  0.00000000000E+00  0.00000000000E+00 -0.66299577471E+03  0.83154386506E+03  0.50189819908E+03 0.  0.
        3    1    3    3  502    0 -0.11357237443E+03  0.22362690837E+03 -0.31785951447E+03  0.40489796186E+03  0.10100000352E+00 0.  1.
       -3    1    3    3    0  502  0.11357237443E+03 -0.22362690837E+03 -0.34513626024E+03  0.42664590320E+03  0.10100000352E+00 0. -1.
</event>
<event>
 5   0  0.1068522E-01  0.5050381E+03  0.7818609E-02  0.1012472E+00
        1   -1    0    0  501    0  0.00000000000E+00  0.00000000000E+00  0.11951447613E+04  0.11951447613E+04  0.50400001928E-02 0.  1.
       -1   -1    0    0    0  501  0.00000000000E+00  0.00000000000E+00 -0.53354101930E+02  0.53354102168E+02  0.50400001928E-02 0. -1.
    10030    2    1    2    0    0  0.00000000000E+00  0.00000000000E+00  0.11417906594E+04  0.12484988635E+04  0.50503811964E+03 0.  0.
        2    1    3    3  502    0 -0.18793538737E+03 -0.14364473961E+03  0.35239355755E+03  0.42442283215E+03  0.25500000920E-02 0.  1.
       -2    1    3    3    0  502  0.18793538737E+03  0.14364473961E+03  0.78939710185E+03  0.82407603135E+03  0.25500000920E-02 0. -1.
</event>
<event>
 5   0  0.1760649E-01  0.5227905E+03  0.7818609E-02  0.1007996E+00
       -2   -1    0    0    0  501  0.00000000000E+00  0.00000000000E+00  0.29796873293E+02  0.29796873402E+02  0.25500000920E-02 0.  1.
        2   -1    0    0  501    0  0.00000000000E+00  0.00000000000E+00 -0.22931085666E+04  0.22931085666E+04  0.25500000920E-02 0. -1.
    10030    2    1    2    0    0  0.00000000000E+00  0.00000000000E+00 -0.22633116933E+04  0.23229054400E+04  0.52279045720E+03 0.  0.
        5    1    3    3  502    0  0.25454293856E+03  0.26690741789E+02 -0.89650284244E+03  0.93233252639E+03  0.46999998093E+01 0.  1.
       -5    1    3    3    0  502 -0.25454293856E+03 -0.26690741789E+02 -0.13668088509E+04  0.13905729136E+04  0.46999998093E+01 0. -1.
</event>
<event>
 5   0  0.1074281E-01  0.5053249E+03  0.7818609E-02  0.1012398E+00
       -1   -1    0    0    0  501  0.00000000000E+00  0.00000000000E+00  0.45218046802E+03  0.45218046805E+03  0.50400001928E-02 0.  1.
        1   -1    0    0  501    0  0.00000000000E+00  0.00000000000E+00 -0.14117884821E+03  0.14117884830E+03  0.50400001928E-02 0. -1.
    10030    2    1    2    0    0  0.00000000000E+00  0.00000000000E+00  0.31100161981E+03  0.59335931635E+03  0.50532491605E+03 0.  0.
        4    1    3    3  502    0  0.72145979949E+02  0.19666026543E+03 -0.10376956582E+02  0.20973696992E+03  0.12699999809E+01 0. -1.
       -4    1    3    3    0  502 -0.72145979949E+02 -0.19666026543E+03  0.32137857639E+03  0.38362234643E+03  0.12699999809E+01 0.  1.
</event>
<event>
 5   0  0.1827698E-01  0.4960842E+03  0.7818609E-02  0.1014806E+00
        2   -1    0    0  501    0  0.00000000000E+00  0.00000000000E+00  0.17572294895E+03  0.17572294897E+03  0.25500000920E-02 0. -1.
       -2   -1    0    0    0  501  0.00000000000E+00  0.00000000000E+00 -0.35012441546E+03  0.35012441547E+03  0.25500000920E-02 0.  1.
    10030    2    1    2    0    0  0.00000000000E+00  0.00000000000E+00 -0.17440146651E+03  0.52584736444E+03  0.49608424604E+03 0.  0.
        1    1    3    3  502    0  0.16436784596E+02 -0.21962297592E+03 -0.20815402314E+03  0.30303880414E+03  0.50400001928E-02 0.  1.
       -1    1    3    3    0  502 -0.16436784596E+02  0.21962297592E+03  0.33752556625E+02  0.22280856030E+03  0.50400001928E-02 0. -1.
</event>
<event>
 5   0  0.1760649E-01  0.4965772E+03  0.7818609E-02  0.1014676E+00
        2   -1    0    0  501    0  0.00000000000E+00  0.00000000000E+00  0.62559897882E+03  0.62559897883E+03  0.25500000920E-02 0. -1.
       -2   -1    0    0    0  501  0.00000000000E+00  0.00000000000E+00 -0.98541124366E+02  0.98541124399E+02  0.25500000920E-02 0.  1.
    10030    2    1    2    0    0  0.00000000000E+00  0.00000000000E+00  0.52705785446E+03  0.72414010323E+03  0.49657719154E+03 0.  0.
        5    1    3    3  502    0  0.18995315664E+03 -0.15218642421E+03  0.33470392068E+03  0.41387403149E+03  0.46999998093E+01 0. -1.
       -5    1    3    3    0  502 -0.18995315664E+03  0.15218642421E+03  0.19235393378E+03  0.31026607173E+03  0.46999998093E+01 0.  1.
</event>
<event>
 5   0  0.1683148E-01  0.5074436E+03  0.7818609E-02  0.1011854E+00
       -2   -1    0    0    0  501  0.00000000000E+00  0.00000000000E+00  0.38997933505E+02  0.38997933588E+02  0.25500000920E-02 0. -1.
        2   -1    0    0  501    0  0.00000000000E+00  0.00000000000E+00 -0.16507223252E+04  0.16507223252E+04  0.25500000920E-02 0.  1.
    10030    2    1    2    0    0  0.00000000000E+00  0.00000000000E+00 -0.16117243917E+04  0.16897202588E+04  0.50744363054E+03 0.  0.
        2    1    3    3  502    0 -0.14416054870E+03  0.10817896069E+03 -0.14005006066E+04  0.14120506012E+04  0.25500000920E-02 0.  1.
       -2    1    3    3    0  502  0.14416054870E+03 -0.10817896069E+03 -0.21122378511E+03  0.27766965757E+03  0.25500000920E-02 0. -1.
</event>
<event>
 5   0  0.1147245E-01  0.4820710E+03  0.7818609E-02  0.1018568E+00
       -1   -1    0    0    0  501  0.00000000000E+00  0.00000000000E+00  0.25915987039E+03  0.25915987044E+03  0.50400001928E-02 0.  1.
        1   -1    0    0  501    0  0.00000000000E+00  0.00000000000E+00 -0.22417867424E+03  0.22417867429E+03  0.50400001928E-02 0. -1.
    10030    2    1    2    0    0  0.00000000000E+00  0.00000000000E+00  0.34981196150E+02  0.48333854473E+03  0.48207101628E+03 0.  0.
        1    1    3    3  502    0 -0.16508676068E+03  0.12072780384E+03  0.14537704131E+03  0.25092493965E+03  0.50400001928E-02 0.  1.
       -1    1    3    3    0  502  0.16508676068E+03 -0.12072780384E+03 -0.11039584516E+03  0.23241360508E+03  0.50400001928E-02 0. -1.
</event>
<event>
 5   0  0.1068522E-01  0.5031688E+03  0.7818609E-02  0.1012955E+00
       -1   -1    0    0    0  501  0.00000000000E+00  0.00000000000E+00  0.10410773625E+04  0.10410773625E+04  0.50400001928E-02 0.  1.
        1   -1    0    0  501    0  0.00000000000E+00  0.00000000000E+00 -0.60797318221E+02  0.60797318430E+02  0.50400001928E-02 0. -1.
    10030    2    1    2    0    0  0.00000000000E+00  0.00000000000E+00  0.98028004429E+03  0.11018746810E+04  0.50316880596E+03 0.  0.
        2    1    3    3  502    0  0.71362239052E+02  0.21684972138E+03  0.25861007557E+03  0.34495730463E+03  0.25500000920E-02 0. -1.
       -2    1    3    3    0  502 -0.71362239052E+02 -0.21684972138E+03  0.72166996872E+03  0.75691737632E+03  0.25500000920E-02 0.  1.
</event>
<event>
 5   0  0.1683148E-01  0.4814937E+03  0.7818609E-02  0.1018725E+00
       -2   -1    0    0    0  501  0.00000000000E+00  0.00000000000E+00  0.59309565127E+02  0.59309565182E+02  0.25500000920E-02 0. -1.
        2   -1    0    0  501    0  0.00000000000E+00  0.00000000000E+00 -0.97722919194E+03  0.97722919195E+03  0.25500000920E-02 0.  1.
    10030    2    1    2    0    0  0.00000000000E+00  0.00000000000E+00 -0.91791962682E+03  0.10365387571E+04  0.48149366946E+03 0.  0.
        2    1    3    3  502    0  0.14913757873E+02  0.60637056670E+02  0.41572411403E+02  0.75016919504E+02  0.25500000920E-02 0. -1.
       -2    1    3    3    0  502 -0.14913757873E+02 -0.60637056670E+02 -0.95949203822E+03  0.96152183762E+03  0.25500000920E-02 0.  1.
</event>
<event>
 5   0  0.1760649E-01  0.4947572E+03  0.7818609E-02  0.1015156E+00
       -2   -1    0    0    0  501  0.00000000000E+00  0.00000000000E+00  0.15370732642E+03  0.15370732644E+03  0.25500000920E-02 0. -1.
        2   -1    0    0  501    0  0.00000000000E+00  0.00000000000E+00 -0.39813442544E+03  0.39813442545E+03  0.25500000920E-02 0.  1.
    10030    2    1    2    0    0  0.00000000000E+00  0.00000000000E+00 -0.24442709902E+03  0.55184175188E+03  0.49475722570E+03 0.  0.
        5    1    3    3  502    0 -0.83437201954E+02 -0.30515393396E+02  0.13524607560E+03  0.16188436264E+03  0.46999998093E+01 0. -1.
       -5    1    3    3    0  502  0.83437201954E+02  0.30515393396E+02 -0.37967317462E+03  0.38995738924E+03  0.46999998093E+01 0.  1.
</event>
<event>
 5   0  0.1074281E-01  0.4990257E+03  0.7818609E-02  0.1014034E+00
        1   -1    0    0  501    0  0.00000000000E+00  0.00000000000E+00  0.45302673719E+03  0.45302673721E+03  0.50400001928E-02 0. -1.
       -1   -1    0    0    0  501  0.00000000000E+00  0.00000000000E+00 -0.13742379233E+03  0.13742379242E+03  0.50400001928E-02 0.  1.
    10030    2    1    2    0    0  0.00000000000E+00  0.00000000000E+00  0.31560294485E+03  0.59045052964E+03  0.49902565981E+03 0.  0.
        4    1    3    3  502    0 -0.18067498593E+03  0.83034287602E+02  0.33613587580E+03  0.39054715895E+03  0.12699999809E+01 0. -1.
       -4    1    3    3    0  502  0.18067498593E+03 -0.83034287602E+02 -0.20532930949E+02  0.19990337069E+03  0.12699999809E+01 0.  1.
</event>
<event>
 5   0  0.1068522E-01  0.4934235E+03  0.7818609E-02  0.1015510E+00
        1   -1    0    0  501    0  0.00000000000E+00  0.00000000000E+00  0.23447798674E+03  0.23447798680E+03  0.50400001928E-02 0.  1.
       -1   -1    0    0    0  501  0.00000000000E+00  0.00000000000E+00 -0.25958382240E+03  0.25958382245E+03  0.50400001928E-02 0. -1.
    10030    2    1    2    0    0  0.00000000000E+00  0.00000000000E+00 -0.25105835657E+02  0.49406180924E+03  0.49342351826E+03 0.  0.
        2    1    3    3  502    0  0.53378030449E+02  0.17009419462E+03  0.15821224618E+03  0.23835344349E+03  0.25500000920E-02 0.  1.
       -2    1    3    3    0  502 -0.53378030449E+02 -0.17009419462E+03 -0.18331808184E+03  0.25570836575E+03  0.25500000920E-02 0. -1.
</event>
<event>
 5   0  0.7220250E-02  0.4978355E+03  0.7818609E-02  0.1014345E+00
        3   -1    0    0  501    0  0.00000000000E+00  0.00000000000E+00  0.44461797918E+03  0.44461799065E+03  0.10100000352E+00 0. -1.
       -3   -1    0    0    0  501  0.00000000000E+00  0.00000000000E+00 -0.13935565011E+03  0.13935568671E+03  0.10100000352E+00 0.  1.
    10030    2    1    2    0    0  0.00000000000E+00  0.00000000000E+00  0.30526232907E+03  0.58397367736E+03  0.49783548116E+03 0.  0.
        4    1    3    3  502    0 -0.52665044854E+02  0.14190799729E+03  0.38442449717E+03  0.41315286949E+03  0.12699999809E+01 0. -1.
       -4    1    3    3    0  502  0.52665044854E+02 -0.14190799729E+03 -0.79162168097E+02  0.17082080787E+03  0.12699999809E+01 0.  1.
</event>
<event>
 5   0  0.1709372E-01  0.4978023E+03  0.7818609E-02  0.1014354E+00
       -2   -1    0    0    0  501  0.00000000000E+00  0.00000000000E+00  0.59252351691E+02  0.59252351746E+02  0.25500000920E-02 0. -1.
        2   -1    0    0  501    0  0.00000000000E+00  0.00000000000E+00 -0.10455583206E+04  0.10455583206E+04  0.25500000920E-02 0.  1.
    10030    2    1    2    0    0  0.00000000000E+00  0.00000000000E+00 -0.98630596888E+03  0.11048106723E+04  0.49780232766E+03 0.  0.
        4    1    3    3  502    0  0.17901351946E+03 -0.45898120069E+02 -0.86318164265E+03  0.88274381260E+03  0.12699999809E+01 0.  1.
       -4    1    3    3    0  502 -0.17901351946E+03  0.45898120069E+02 -0.12312432623E+03  0.22206685972E+03  0.12699999809E+01 0. -1.
</event>
<event>
 5   0  0.1123271E-01  0.5157589E+03  0.7818609E-02  0.1009746E+00
        1   -1    0    0  501    0  0.00000000000E+00  0.00000000000E+00  0.47436910180E+03  0.47436910183E+03  0.50400001928E-02 0.  1.
       -1   -1    0    0    0  501  0.00000000000E+00  0.00000000000E+00 -0.14019001342E+03  0.14019001351E+03  0.50400001928E-02 0. -1.
    10030    2    1    2    0    0  0.00000000000E+00  0.00000000000E+00  0.33417908838E+03  0.61455911534E+03  0.51575890020E+03 0.  0.
        5    1    3    3  502    0  0.23409483965E+03  0.98904565070E+02  0.21899046653E+03  0.33550174571E+03  0.46999998093E+01 0. -1.
       -5    1    3    3    0  502 -0.23409483965E+03 -0.98904565070E+02  0.11518862185E+03  0.27905736963E+03  0.46999998093E+01 0.  1.
</event>
<event>
 5   0  0.1709372E-01  0.4801980E+03  0.7818609E-02  0.1019081E+00
       -2   -1    0    0    0  501  0.00000000000E+00  0.00000000000E+00  0.14726652535E+03  0.14726652537E+03  0.25500000920E-02 0.  1.
        2   -1    0    0  501    0  0.00000000000E+00  0.00000000000E+00 -0.39145026043E+03  0.39145026044E+03  0.25500000920E-02 0. -1.
    10030    2    1    2    0    0  0.00000000000E+00  0.00000000000E+00 -0.24418373508E+03  0.53871678580E+03  0.48019795796E+03 0.  0.
        4    1    3    3  502    0  0.19588744070E+03 -0.66216639043E+02 -0.25898397826E+03  0.33140737259E+03  0.12699999809E+01 0. -1.
       -4    1    3    3    0  502 -0.19588744070E+03  0.66216639043E+02  0.14800243176E+02  0.20730941322E+03  0.12699999809E+01 0.  1.
</event>
<event>
 5   0  0.1709372E-01  0.4994927E+03  0.7818609E-02  0.1013911E+00
        2   -1    0    0  501    0  0.00000000000E+00  0.00000000000E+00  0.35429531350E+03  0.35429531351E+03  0.25500000920E-02 0.  1.
       -2   -1    0    0    0  501  0.00000000000E+00  0.00000000000E+00 -0.17604871464E+03  0.17604871466E+03  0.25500000920E-02 0. -1.
    10030    2    1    2    0    0  0.00000000000E+00  0.00000000000E+00  0.17824659886E+03  0.53034402817E+03  0.49949268084E+03 0.  0.
        4    1    3    3  502    0 -0.26638460915E+02 -0.73983371366E+02 -0.16255871190E+03  0.18058265297E+03  0.12699999809E+01 0. -1.
       -4    1    3    3    0  502  0.26638460915E+02  0.73983371366E+02  0.34080531076E+03  0.34976137520E+03  0.12699999809E+01 0.  1.
</event>
<event>
 5   0  0.1782124E-01  0.5183260E+03  0.7818609E-02  0.1009103E+00
       -2   -1    0    0    0  501  0.00000000000E+00  0.00000000000E+00  0.60330935050E+02  0.60330935104E+02  0.25500000920E-02 0.  1.
        2   -1    0    0  501    0  0.00000000000E+00  0.00000000000E+00 -0.11132838108E+04  0.11132838108E+04  0.25500000920E-02 0. -1.
    10030    2    1    2    0    0  0.00000000000E+00  0.00000000000E+00 -0.10529528758E+04  0.11736147459E+04  0.51832597202E+03 0.  0.
        3    1    3    3  502    0 -0.30918354037E+02 -0.22088015442E+03 -0.22761849037E+03  0.31867565736E+03  0.10100000352E+00 0.  1.
       -3    1    3    3    0  502  0.30918354037E+02  0.22088015442E+03 -0.82533438542E+03  0.85493908858E+03  0.10100000352E+00 0. -1.
</event>
<event>
 5   0  0.1068522E-01  0.5018391E+03  0.7818609E-02  0.1013300E+00
       -1   -1    0    0    0  501  0.00000000000E+00  0.00000000000E+00  0.16721763655E+03  0.16721763663E+03  0.50400001928E-02 0.  1.
        1   -1    0    0  501    0  0.00000000000E+00  0.00000000000E+00 -0.37651897518E+03  0.37651897522E+03  0.50400001928E-02 0. -1.
    10030    2    1    2    0    0  0.00000000000E+00  0.00000000000E+00 -0.20930133863E+03  0.54373661184E+03  0.50183907053E+03 0.  0.
        2    1    3    3  502    0  0.15195150951E+03  0.12900435633E+01  0.11169366364E+03  0.18859056169E+03  0.25500000920E-02 0.  1.
       -2    1    3    3    0  502 -0.15195150951E+03 -0.12900435633E+01 -0.32099500227E+03  0.35514605016E+03  0.25500000920E-02 0. -1.
</event>
<event>
 5   0  0.1074281E-01  0.4977799E+03  0.7818609E-02  0.1014360E+00
       -1   -1    0    0    0  501  0.00000000000E+00  0.00000000000E+00  0.63533297682E+03  0.63533297684E+03  0.50400001928E-02 0.  1.
        1   -1    0    0  501    0  0.00000000000E+00  0.00000000000E+00 -0.97501937170E+02  0.97501937300E+02  0.50400001928E-02 0. -1.
    10030    2    1    2    0    0  0.00000000000E+00  0.00000000000E+00  0.53783103965E+03  0.73283491414E+03  0.49777985513E+03 0.  0.
        4    1    3    3  502    0 -0.47647735204E+02  0.91758094645E+02  0.60221589609E+03  0.61102819330E+03  0.12699999809E+01 0.  1.
       -4    1    3    3    0  502  0.47647735204E+02 -0.91758094645E+02 -0.64384856440E+02  0.12180672084E+03  0.12699999809E+01 0. -1.
</event>
<event>
 5   0  0.1123271E-01  0.4988177E+03  0.7818609E-02  0.1014088E+00
       -1   -1    0    0    0  501  0.00000000000E+00  0.00000000000E+00  0.11431389546E+03  0.11431389558E+03  0.50400001928E-02 0. -1.
        1   -1    0    0  501    0  0.00000000000E+00  0.00000000000E+00 -0.54415758636E+03  0.54415758639E+03  0.50400001928E-02 0.  1.
    10030    2    1    2    0    0  0.00000000000E+00  0.00000000000E+00 -0.42984369090E+03  0.65847148196E+03  0.49881769611E+03 0.  0.
        5    1    3    3  502    0  0.77517305687E+00 -0.13932205150E+03  0.58084095532E+02  0.15102015455E+03  0.46999998093E+01 0. -1.
       -5    1    3    3    0  502 -0.77517305687E+00  0.13932205150E+03 -0.48792778643E+03  0.50745132742E+03  0.46999998093E+01 0.  1.
</event>
<event>
 5   0  0.1827698E-01  0.5004451E+03  0.7818609E-02  0.1013663E+00
        2   -1    0    0  501    0  0.00000000000E+00  0.00000000000E+00  0.11634652893E+04  0.11634652893E+04  0.25500000920E-02 0. -1.
       -2   -1    0    0    0  501  0.00000000000E+00  0.00000000000E+00 -0.53814522668E+02  0.53814522728E+02  0.25500000920E-02 0.  1.
    10030    2    1    2    0    0  0.00000000000E+00  0.00000000000E+00  0.11096507667E+04  0.12172798121E+04  0.50044511877E+03 0.  0.
        1    1    3    3  502    0 -0.80014340802E+02  0.17152926639E+03  0.95292699481E+03  0.97154230038E+03  0.50400001928E-02 0. -1.
       -1    1    3    3    0  502  0.80014340802E+02 -0.17152926639E+03  0.15672377187E+03  0.24573751170E+03  0.50400001928E-02 0.  1.
</event>
<event>
 5   0  0.1760649E-01  0.5039284E+03  0.7818609E-02  0.1012759E+00
       -2   -1    0    0    0  501  0.00000000000E+00  0.00000000000E+00  0.57344577328E+02  0.57344577384E+02  0.25500000920E-02 0.  1.
        2   -1    0    0  501    0  0.00000000000E+00  0.00000000000E+00 -0.11070959377E+04  0.11070959377E+04  0.25500000920E-02 0. -1.
    10030    2    1    2    0    0  0.00000000000E+00  0.00000000000E+00 -0.10497513604E+04  0.11644405151E+04  0.50392836255E+03 0.  0.
        5    1    3    3  502    0 -0.17701303456E+03 -0.11299298051E+03 -0.20333721954E+03  0.29235106105E+03  0.46999998093E+01 0.  1.
       -5    1    3    3    0  502  0.17701303456E+03  0.11299298051E+03 -0.84641414086E+03  0.87208945407E+03  0.46999998093E+01 0. -1.
</event>
<event>
 5   0  0.1709372E-01  0.5094317E+03  0.7818609E-02  0.1011346E+00
       -2   -1    0    0    0  501  0.00000000000E+00  0.00000000000E+00  0.10174167282E+03  0.10174167285E+03  0.25500000920E-02 0. -1.
        2   -1    0    0  501    0  0.00000000000E+00  0.00000000000E+00 -0.63769516331E+03  0.63769516332E+03  0.25500000920E-02 0.  1.
    10030    2    1    2    0    0  0.00000000000E+00  0.00000000000E+00 -0.53595349049E+03  0.73943683617E+03  0.50943173312E+03 0.  0.
        4    1    3    3  502    0 -0.25027387888E+03 -0.43390015422E+02 -0.29547294695E+03  0.38964802472E+03  0.12699999809E+01 0.  1.
       -4    1    3    3    0  502  0.25027387888E+03  0.43390015422E+02 -0.24048054354E+03  0.34978881144E+03  0.12699999809E+01 0. -1.
</event>
<event>
 5   0  0.1123271E-01  0.4957356E+03  0.7818609E-02  0.1014898E+00
        1   -1    0    0  501    0  0.00000000000E+00  0.00000000000E+00  0.10775903559E+04  0.10775903559E+04  0.50400001928E-02 0. -1.
       -1   -1    0    0    0  501  0.00000000000E+00  0.00000000000E+00 -0.57014663550E+02  0.57014663773E+02  0.50400001928E-02 0.  1.
    10030    2    1    2    0    0  0.00000000000E+00  0.00000000000E+00  0.10205756924E+04  0.11346050197E+04  0.49573562196E+03 0.  0.
        5    1    3    3  502    0  0.20225696861E+03 -0.11164806705E+03  0.30502576692E+03  0.38266954506E+03  0.46999998093E+01 0. -1.
       -5    1    3    3    0  502 -0.20225696861E+03  0.11164806705E+03  0.71554992544E+03  0.75193547464E+03  0.46999998093E+01 0.  1.
</event>
<event>
 5   0  0.1147245E-01  0.4982855E+03  0.7818609E-02  0.1014227E+00
       -1   -1    0    0    0  501  0.00000000000E+00  0.00000000000E+00  0.58519133742E+02  0.58519133959E+02  0.50400001928E-02 0. -1.
        1   -1    0    0  501    0  0.00000000000E+00  0.00000000000E+00 -0.10607147965E+04  0.10607147965E+04  0.50400001928E-02 0.  1.
    10030    2    1    2    0    0  0.00000000000E+00  0.00000000000E+00 -0.10021956628E+04  0.11192339305E+04  0.49828550518E+03 0.  0.
        1    1    3    3  502    0 -0.14378542804E+03  0.92879172052E+02 -0.94477032604E+02  0.19551649453E+03  0.50400001928E-02 0. -1.
       -1    1    3    3    0  502  0.14378542804E+03 -0.92879172052E+02 -0.90771863017E+03  0.92371743597E+03  0.50400001928E-02 0.  1.
</event>
<event>
 5   0  0.7220250E-02  0.5143125E+03  0.7818609E-02  0.1010109E+00
        4   -1    0    0  501    0  0.00000000000E+00  0.00000000000E+00  0.13882021151E+03  0.13882602070E+03  0.12699999809E+01 0. -1.
       -4   -1    0    0    0  501  0.00000000000E+00  0.00000000000E+00 -0.47635019306E+03  0.47635188604E+03  0.12699999809E+01 0.  1.
    10030    2    1    2    0    0  0.00000000000E+00  0.00000000000E+00 -0.33752998155E+03  0.61517790674E+03  0.51431252026E+03 0.  0.
        4    1    3    3  502    0 -0.11936488169E+03 -0.19995709822E+03 -0.38300964228E+02  0.23600718818E+03  0.12699999809E+01 0. -1.
       -4    1    3    3    0  502  0.11936488169E+03  0.19995709822E+03 -0.29922901732E+03  0.37917071857E+03  0.12699999809E+01 0.  1.
</event>
<event>
 5   0  0.1068522E-01  0.4933485E+03  0.7818609E-02  0.1015530E+00
       -1   -1    0    0    0  501  0.00000000000E+00  0.00000000000E+00  0.19221339260E+03  0.19221339267E+03  0.50400001928E-02 0.  1.
        1   -1    0    0  501    0  0.00000000000E+00  0.00000000000E+00 -0.31656582341E+03  0.31656582345E+03  0.50400001928E-02 0. -1.
    10030    2    1    2    0    0  0.00000000000E+00  0.00000000000E+00 -0.12435243081E+03  0.50877921612E+03  0.49334852154E+03 0.  0.
        2    1    3    3  502    0  0.13326792120E+03  0.19923415035E+03 -0.12225293408E+03  0.26907315992E+03  0.25500000920E-02 0.  1.
       -2    1    3    3    0  502 -0.13326792120E+03 -0.19923415035E+03 -0.20994967264E+01  0.23970605621E+03  0.25500000920E-02 0. -1.
</event>
<event>
 5   0  0.1141970E-01  0.5018898E+03  0.7818609E-02  0.1013287E+00
        1   -1    0    0  501    0  0.00000000000E+00  0.00000000000E+00  0.78431287433E+02  0.78431287595E+02  0.50400001928E-02 0. -1.
       -1   -1    0    0    0  501  0.00000000000E+00  0.00000000000E+00 -0.80291094936E+03  0.80291094938E+03  0.50400001928E-02 0.  1.
    10030    2    1    2    0    0  0.00000000000E+00  0.00000000000E+00 -0.72447966193E+03  0.88134223697E+03  0.50188978683E+03 0.  0.
        3    1    3    3  502    0  0.15298662193E+03 -0.62665182017E+02 -0.69376323932E+03  0.71318950775E+03  0.10100000352E+00 0.  1.
       -3    1    3    3    0  502 -0.15298662193E+03  0.62665182017E+02 -0.30716422606E+02  0.16815272922E+03  0.10100000352E+00 0. -1.
</event>
<event>
 5   0  0.1827698E-01  0.5036653E+03  0.7818609E-02  0.1012827E+00
        2   -1    0    0  501    0  0.00000000000E+00  0.00000000000E+00  0.59872747503E+03  0.59872747504E+03  0.25500000920E-02 0.  1.
       -2   -1    0    0    0  501  0.00000000000E+00  0.00000000000E+00 -0.10592413310E+03  0.10592413313E+03  0.25500000920E-02 0. -1.
    10030    2    1    2    0    0  0.00000000000E+00  0.00000000000E+00  0.49280334194E+03  0.70465160817E+03  0.50366532049E+03 0.  0.
        1    1    3    3  502    0 -0.55816357049E+02  0.15202330253E+03  0.51621525590E+03  0.54102194103E+03  0.50400001928E-02 0.  1.
       -1    1    3    3    0  502  0.55816357049E+02 -0.15202330253E+03 -0.23411913964E+02  0.16362966714E+03  0.50400001928E-02 0. -1.
</event>
<event>
 5   0  0.1068522E-01  0.4378176E+03  0.7818609E-02  0.1031419E+00
        1   -1    0    0  501    0  0.00000000000E+00  0.00000000000E+00  0.46717867925E+03  0.46717867928E+03  0.50400001928E-02 0.  1.
       -1   -1    0    0    0  501  0.00000000000E+00  0.00000000000E+00 -0.10257545472E+03  0.10257545485E+03  0.50400001928E-02 0. -1.
    10030    2    1    2    0    0  0.00000000000E+00  0.00000000000E+00  0.36460322452E+03  0.56975413412E+03  0.43781761273E+03 0.  0.
        2    1    3    3  502    0 -0.11335170796E+03  0.17445402289E+03  0.27092968776E+03  0.34159290320E+03  0.25500000920E-02 0.  1.
       -2    1    3    3    0  502  0.11335170796E+03 -0.17445402289E+03  0.93673536764E+02  0.22816123092E+03  0.25500000920E-02 0. -1.
</event>
<event>
 5   0  0.1074281E-01  0.4824088E+03  0.7818609E-02  0.1018475E+00
       -1   -1    0    0    0  501  0.00000000000E+00  0.00000000000E+00  0.54620375095E+03  0.54620375098E+03  0.50400001928E-02 0.  1.
        1   -1    0    0  501    0  0.00000000000E+00  0.00000000000E+00 -0.10651622166E+03  0.10651622178E+03  0.50400001928E-02 0. -1.
    10030    2    1    2    0    0  0.00000000000E+00  0.00000000000E+00  0.43968752930E+03  0.65271997275E+03  0.48240878869E+03 0.  0.
        4    1    3    3  502    0  0.13027556054E+02  0.23661528994E+03  0.15901044640E+03  0.28538123206E+03  0.12699999809E+01 0.  1.
       -4    1    3    3    0  502 -0.13027556054E+02 -0.23661528994E+03  0.28067708290E+03  0.36733874069E+03  0.12699999809E+01 0. -1.
</event>
<event>
 5   0  0.1709372E-01  0.4967028E+03  0.7818609E-02  0.1014643E+00
        2   -1    0    0  501    0  0.00000000000E+00  0.00000000000E+00  0.91339119733E+02  0.91339119769E+02  0.25500000920E-02 0. -1.
       -2   -1    0    0    0  501  0.00000000000E+00  0.00000000000E+00 -0.67526837869E+03  0.67526837869E+03  0.25500000920E-02 0.  1.
    10030    2    1    2    0    0  0.00000000000E+00  0.00000000000E+00 -0.58392925896E+03  0.76660749846E+03  0.49670280574E+03 0.  0.
        4    1    3    3  502    0 -0.13661127317E+03 -0.15974250916E+03 -0.49611586177E+03  0.53880689527E+03  0.12699999809E+01 0.  1.
       -4    1    3    3    0  502  0.13661127317E+03  0.15974250916E+03 -0.87813397186E+02  0.22780060319E+03  0.12699999809E+01 0. -1.
</event>
<event>
 5   0  0.1123271E-01  0.5024381E+03  0.7818609E-02  0.1013144E+00
        1   -1    0    0  501    0  0.00000000000E+00  0.00000000000E+00  0.22114243836E+03  0.22114243842E+03  0.50400001928E-02 0.  1.
       -1   -1    0    0    0  501  0.00000000000E+00  0.00000000000E+00 -0.28538629045E+03  0.28538629049E+03  0.50400001928E-02 0. -1.
    10030    2    1    2    0    0  0.00000000000E+00  0.00000000000E+00 -0.64243852083E+02  0.50652872891E+03  0.50243813617E+03 0.  0.
        5    1    3    3  502    0 -0.19797376068E+03 -0.14989344955E+03  0.59649339384E+01  0.24843374684E+03  0.46999998093E+01 0. -1.
       -5    1    3    3    0  502  0.19797376068E+03  0.14989344955E+03 -0.70208786022E+02  0.25809498207E+03  0.46999998093E+01 0.  1.
</event>
<event>
 5   0  0.1123271E-01  0.5159587E+03  0.7818609E-02  0.1009695E+00
        1   -1    0    0  501    0  0.00000000000E+00  0.00000000000E+00  0.26177756875E+03  0.26177756880E+03  0.50400001928E-02 0.  1.
       -1   -1    0    0    0  501  0.00000000000E+00  0.00000000000E+00 -0.25423625633E+03  0.25423625638E+03  0.50400001928E-02 0. -1.
    10030    2    1    2    0    0  0.00000000000E+00  0.00000000000E+00  0.75413124206E+01  0.51601382518E+03  0.51595871577E+03 0.  0.
        5    1    3    3  502    0  0.65863779447E+02 -0.50289183852E+02 -0.24051803726E+03  0.25443674205E+03  0.46999998093E+01 0. -1.
       -5    1    3    3    0  502 -0.65863779447E+02  0.50289183852E+02  0.24805934968E+03  0.26157708313E+03  0.46999998093E+01 0.  1.
</event>
<event>
 5   0  0.7220250E-02  0.5016257E+03  0.7818609E-02  0.1013355E+00
       -3   -1    0    0    0  501  0.00000000000E+00  0.00000000000E+00  0.47648391147E+03  0.47648392218E+03  0.10100000352E+00 0.  1.
        3   -1    0    0  501    0  0.00000000000E+00  0.00000000000E+00 -0.13202346804E+03  0.13202350668E+03  0.10100000352E+00 0. -1.
    10030    2    1    2    0    0  0.00000000000E+00  0.00000000000E+00  0.34446044343E+03  0.60850742886E+03  0.50162565114E+03 0.  0.
        4    1    3    3  502    0  0.88673530656E+02  0.23315842528E+03  0.20385426434E+03  0.32215527360E+03  0.12699999809E+01 0.  1.
       -4    1    3    3    0  502 -0.88673530656E+02 -0.23315842528E+03  0.14060617909E+03  0.28635215525E+03  0.12699999809E+01 0. -1.
</event>
<event>
 5   0  0.1068522E-01  0.4987750E+03  0.7818609E-02  0.1014099E+00
        1   -1    0    0  501    0  0.00000000000E+00  0.00000000000E+00  0.63507419563E+03  0.63507419565E+03  0.50400001928E-02 0. -1.
       -1   -1    0    0    0  501  0.00000000000E+00  0.00000000000E+00 -0.97932048065E+02  0.97932048195E+02  0.50400001928E-02 0.  1.
    10030    2    1    2    0    0  0.00000000000E+00  0.00000000000E+00  0.53714214756E+03  0.73300624384E+03  0.49877496612E+03 0.  0.
        2    1    3    3  502    0  0.99763315194E+02  0.93833237179E+02 -0.37718027902E+02  0.14205648557E+03  0.25500000920E-02 0.  1.
       -2    1    3    3    0  502 -0.99763315194E+02 -0.93833237179E+02  0.57486017547E+03  0.59094975827E+03  0.25500000920E-02 0. -1.
</event>
<event>
 5   0  0.1827698E-01  0.5081411E+03  0.7818609E-02  0.1011676E+00
       -2   -1    0    0    0  501  0.00000000000E+00  0.00000000000E+00  0.19732095522E+03  0.19732095523E+03  0.25500000920E-02 0.  1.
        2   -1    0    0  501    0  0.00000000000E+00  0.00000000000E+00 -0.32714131595E+03  0.32714131596E+03  0.25500000920E-02 0. -1.
    10030    2    1    2    0    0  0.00000000000E+00  0.00000000000E+00 -0.12982036074E+03  0.52446227120E+03  0.50814107081E+03 0.  0.
        1    1    3    3  502    0 -0.78186667266E+02  0.50789264881E+02  0.17902646471E+03  0.20184939796E+03  0.50400001928E-02 0.  1.
       -1    1    3    3    0  502  0.78186667266E+02 -0.50789264881E+02 -0.30884682545E+03  0.32261287324E+03  0.50400001928E-02 0. -1.
</event>
<event>
 5   0  0.1068522E-01  0.5845743E+03  0.7818609E-02  0.9937937E-01
       -1   -1    0    0    0  501  0.00000000000E+00  0.00000000000E+00  0.69790027405E+02  0.69790027587E+02  0.50400001928E-02 0. -1.
        1   -1    0    0  501    0  0.00000000000E+00  0.00000000000E+00 -0.12241258340E+04  0.12241258340E+04  0.50400001928E-02 0.  1.
    10030    2    1    2    0    0  0.00000000000E+00  0.00000000000E+00 -0.11543358066E+04  0.12939158616E+04  0.58457429169E+03 0.  0.
        2    1    3    3  502    0  0.20480162157E+03  0.17508731797E+03 -0.82790696916E+03  0.87064873670E+03  0.25500000920E-02 0.  1.
       -2    1    3    3    0  502 -0.20480162157E+03 -0.17508731797E+03 -0.32642883745E+03  0.42326712492E+03  0.25500000920E-02 0. -1.
</event>
<event>
 5   0  0.1827698E-01  0.5180091E+03  0.7818609E-02  0.1009182E+00
        2   -1    0    0  501    0  0.00000000000E+00  0.00000000000E+00  0.87203003519E+03  0.87203003520E+03  0.25500000920E-02 0. -1.
       -2   -1    0    0    0  501  0.00000000000E+00  0.00000000000E+00 -0.76927802373E+02  0.76927802415E+02  0.25500000920E-02 0.  1.
    10030    2    1    2    0    0  0.00000000000E+00  0.00000000000E+00  0.79510223282E+03  0.94895783761E+03  0.51800908962E+03 0.  0.
        1    1    3    3  502    0 -0.13272460297E+03  0.84734174388E+01  0.80470095163E+03  0.81561709191E+03  0.50400001928E-02 0. -1.
       -1    1    3    3    0  502  0.13272460297E+03 -0.84734174388E+01 -0.95987188041E+01  0.13334074571E+03  0.50400001928E-02 0.  1.
</event>
<event>
 5   0  0.1782124E-01  0.5015915E+03  0.7818609E-02  0.1013364E+00
        2   -1    0    0  501    0  0.00000000000E+00  0.00000000000E+00  0.86288950511E+03  0.86288950512E+03  0.25500000920E-02 0. -1.
       -2   -1    0    0    0  501  0.00000000000E+00  0.00000000000E+00 -0.72892876079E+02  0.72892876124E+02  0.25500000920E-02 0.  1.
    10030    2    1    2    0    0  0.00000000000E+00  0.00000000000E+00  0.78999662903E+03  0.93578238124E+03  0.50159145842E+03 0.  0.
        3    1    3    3  502    0 -0.75039569972E+02  0.55189379826E+02 -0.39423102775E+02  0.10114838575E+03  0.10100000352E+00 0.  1.
       -3    1    3    3    0  502  0.75039569972E+02 -0.55189379826E+02  0.82941973181E+03  0.83463399549E+03  0.10100000352E+00 0. -1.
</event>
<event>
 5   0  0.1782124E-01  0.4354653E+03  0.7818609E-02  0.1032147E+00
        2   -1    0    0  501    0  0.00000000000E+00  0.00000000000E+00  0.18362528676E+04  0.18362528676E+04  0.25500000920E-02 0. -1.
       -2   -1    0    0    0  501  0.00000000000E+00  0.00000000000E+00 -0.25817525601E+02  0.25817525727E+02  0.25500000920E-02 0.  1.
    10030    2    1    2    0    0  0.00000000000E+00  0.00000000000E+00  0.18104353420E+04  0.18620703933E+04  0.43546529386E+03 0.  0.
        3    1    3    3  502    0  0.12248241351E+03 -0.17558423163E+03  0.73547789258E+03  0.76600228765E+03  0.10100000352E+00 0.  1.
       -3    1    3    3    0  502 -0.12248241351E+03  0.17558423163E+03  0.10749574494E+04  0.10960681057E+04  0.10100000352E+00 0. -1.
</event>
<event>
 5   0  0.1074281E-01  0.5017749E+03  0.7818609E-02  0.1013317E+00
        1   -1    0    0  501    0  0.00000000000E+00  0.00000000000E+00  0.13670671971E+04  0.13670671971E+04  0.50400001928E-02 0. -1.
       -1   -1    0    0    0  501  0.00000000000E+00  0.00000000000E+00 -0.46043464823E+02  0.46043465099E+02  0.50400001928E-02 0.  1.
    10030    2    1    2    0    0  0.00000000000E+00  0.00000000000E+00  0.13210237323E+04  0.14131106622E+04  0.50177489217E+03 0.  0.
        4    1    3    3  502    0 -0.21680479742E+03 -0.65676524417E+02  0.96415742552E+03  0.99041348947E+03  0.12699999809E+01 0. -1.
       -4    1    3    3    0  502  0.21680479742E+03  0.65676524417E+02  0.35686630678E+03  0.42269717276E+03  0.12699999809E+01 0.  1.
</event>
<event>
 5   0  0.1141970E-01  0.4929899E+03  0.7818609E-02  0.1015625E+00
        1   -1    0    0  501    0  0.00000000000E+00  0.00000000000E+00  0.53940368875E+03  0.53940368877E+03  0.50400001928E-02 0. -1.
       -1   -1    0    0    0  501  0.00000000000E+00  0.00000000000E+00 -0.11264246305E+03  0.11264246317E+03  0.50400001928E-02 0.  1.
    10030    2    1    2    0    0  0.00000000000E+00  0.00000000000E+00  0.42676122570E+03  0.65204615194E+03  0.49298989899E+03 0.  0.
        3    1    3    3  502    0  0.19015269352E+03  0.15518328900E+03  0.18322422696E+03  0.30628585927E+03  0.10100000352E+00 0. -1.
       -3    1    3    3    0  502 -0.19015269352E+03 -0.15518328900E+03  0.24353699873E+03  0.34576029267E+03  0.10100000352E+00 0.  1.
</event>
<event>
 5   0  0.1782124E-01  0.5015392E+03  0.7818609E-02  0.1013378E+00
       -2   -1    0    0    0  501  0.00000000000E+00  0.00000000000E+00  0.17152215324E+03  0.17152215326E+03  0.25500000920E-02 0. -1.
        2   -1    0    0  501    0  0.00000000000E+00  0.00000000000E+00 -0.36663137108E+03  0.36663137109E+03  0.25500000920E-02 0.  1.
    10030    2    1    2    0    0  0.00000000000E+00  0.00000000000E+00 -0.19510921784E+03  0.53815352434E+03  0.50153923962E+03 0.  0.
        3    1    3    3  502    0 -0.23649809272E+03  0.61315199741E+02 -0.15820059582E+03  0.29106415152E+03  0.10100000352E+00 0.  1.
       -3    1    3    3    0  502  0.23649809272E+03 -0.61315199741E+02 -0.36908622015E+02  0.24708937282E+03  0.10100000352E+00 0. -1.
</event>
<event>
 5   0  0.7220250E-02  0.5005346E+03  0.7818609E-02  0.1013639E+00
       -3   -1    0    0    0  501  0.00000000000E+00  0.00000000000E+00  0.64248123329E+03  0.64248124123E+03  0.10100000352E+00 0. -1.
        3   -1    0    0  501    0  0.00000000000E+00  0.00000000000E+00 -0.97487216388E+02  0.97487268707E+02  0.10100000352E+00 0.  1.
    10030    2    1    2    0    0  0.00000000000E+00  0.00000000000E+00  0.54499401691E+03  0.73996850994E+03  0.50053463141E+03 0.  0.
        3    1    3    3  502    0 -0.60921634401E+02 -0.84317370483E+02 -0.64012908356E+02  0.12214142270E+03  0.10100000352E+00 0.  1.
       -3    1    3    3    0  502  0.60921634401E+02  0.84317370483E+02  0.60900692526E+03  0.61782708723E+03  0.10100000352E+00 0. -1.
</event>
<event>
 5   0  0.1141970E-01  0.4968176E+03  0.7818609E-02  0.1014613E+00
        1   -1    0    0  501    0  0.00000000000E+00  0.00000000000E+00  0.52123907723E+02  0.52123907966E+02  0.50400001928E-02 0.  1.
       -1   -1    0    0    0  501  0.00000000000E+00  0.00000000000E+00 -0.11838506757E+04  0.11838506757E+04  0.50400001928E-02 0. -1.
    10030    2    1    2    0    0  0.00000000000E+00  0.00000000000E+00 -0.11317267680E+04  0.12359745837E+04  0.49681756626E+03 0.  0.
        3    1    3    3  502    0  0.20226499288E+03 -0.51238341703E+02 -0.23051589401E+03  0.31092456094E+03  0.10100000352E+00 0.  1.
       -3    1    3    3    0  502 -0.20226499288E+03  0.51238341703E+02 -0.90121087398E+03  0.92505002275E+03  0.10100000352E+00 0. -1.
</event>
<event>
 5   0  0.1683148E-01  0.4955181E+03  0.7818609E-02  0.1014955E+00
        2   -1    0    0  501    0  0.00000000000E+00  0.00000000000E+00  0.34171390932E+03  0.34171390933E+03  0.25500000920E-02 0.  1.
       -2   -1    0    0    0  501  0.00000000000E+00  0.00000000000E+00 -0.17963723967E+03  0.17963723969E+03  0.25500000920E-02 0. -1.
    10030    2    1    2    0    0  0.00000000000E+00  0.00000000000E+00  0.16207666964E+03  0.52135114901E+03  0.49551808618E+03 0.  0.
        2    1    3    3  502    0  0.11838753624E+03  0.19239227765E+03  0.18809851517E+03  0.29395824304E+03  0.25500000920E-02 0.  1.
       -2    1    3    3    0  502 -0.11838753624E+03 -0.19239227765E+03 -0.26021845531E+02  0.22739290597E+03  0.25500000920E-02 0. -1.
</event>
<event>
 5   0  0.1147245E-01  0.4954204E+03  0.7818609E-02  0.1014981E+00
        1   -1    0    0  501    0  0.00000000000E+00  0.00000000000E+00  0.43846015331E+03  0.43846015334E+03  0.50400001928E-02 0.  1.
       -1   -1    0    0    0  501  0.00000000000E+00  0.00000000000E+00 -0.13994510746E+03  0.13994510755E+03  0.50400001928E-02 0. -1.
    10030    2    1    2    0    0  0.00000000000E+00  0.00000000000E+00  0.29851504585E+03  0.57840526089E+03  0.49542044086E+03 0.  0.
        1    1    3    3  502    0  0.26430126223E+02 -0.19098210816E+03 -0.32317047661E+02  0.19549196609E+03  0.50400001928E-02 0. -1.
       -1    1    3    3    0  502 -0.26430126223E+02  0.19098210816E+03  0.33083209352E+03  0.38291329480E+03  0.50400001928E-02 0.  1.
</event>
<event>
 5   0  0.1147245E-01  0.6241058E+03  0.7818609E-02  0.9856619E-01
        1   -1    0    0  501    0  0.00000000000E+00  0.00000000000E+00  0.10368620933E+04  0.10368620933E+04  0.50400001928E-02 0. -1.
       -1   -1    0    0    0  501  0.00000000000E+00  0.00000000000E+00 -0.93915092396E+02  0.93915092531E+02  0.50400001928E-02 0.  1.
    10030    2    1    2    0    0  0.00000000000E+00  0.00000000000E+00  0.94294700093E+03  0.11307771859E+04  0.62410575828E+03 0.  0.
        1    1    3    3  502    0 -0.19398827387E+03  0.23224209506E+03  0.33337929637E+03  0.45023282465E+03  0.50400001928E-02 0.  1.
       -1    1    3    3    0  502  0.19398827387E+03 -0.23224209506E+03  0.60956770456E+03  0.68054436122E+03  0.50400001928E-02 0. -1.
</event>
<event>
 5   0  0.1068522E-01  0.4950347E+03  0.7818609E-02  0.1015083E+00
        1   -1    0    0  501    0  0.00000000000E+00  0.00000000000E+00  0.78593363620E+03  0.78593363622E+03  0.50400001928E-02 0.  1.
       -1   -1    0    0    0  501  0.00000000000E+00  0.00000000000E+00 -0.77951672821E+02  0.77951672984E+02  0.50400001928E-02 0. -1.
    10030    2    1    2    0    0  0.00000000000E+00  0.00000000000E+00  0.70798196338E+03  0.86388530920E+03  0.49503471291E+03 0.  0.
        2    1    3    3  502    0  0.10450119354E+02  0.21313324035E+03  0.57285927147E+03  0.61131229993E+03  0.25500000920E-02 0.  1.
       -2    1    3    3    0  502 -0.10450119354E+02 -0.21313324035E+03  0.13512269191E+03  0.25257300927E+03  0.25500000920E-02 0. -1.
</event>
<event>
 5   0  0.1709372E-01  0.4984330E+03  0.7818609E-02  0.1014189E+00
       -2   -1    0    0    0  501  0.00000000000E+00  0.00000000000E+00  0.52691351449E+02  0.52691351511E+02  0.25500000920E-02 0.  1.
        2   -1    0    0  501    0  0.00000000000E+00  0.00000000000E+00 -0.11787296264E+04  0.11787296264E+04  0.25500000920E-02 0. -1.
    10030    2    1    2    0    0  0.00000000000E+00  0.00000000000E+00 -0.11260382750E+04  0.12314209780E+04  0.49843297262E+03 0.  0.
        4    1    3    3  502    0  0.13707153886E+03  0.20782883723E+03 -0.53530760965E+03  0.59037046183E+03  0.12699999809E+01 0. -1.
       -4    1    3    3    0  502 -0.13707153886E+03 -0.20782883723E+03 -0.59073066534E+03  0.64105051613E+03  0.12699999809E+01 0.  1.
</event>
<event>
 5   0  0.1141970E-01  0.4941247E+03  0.7818609E-02  0.1015324E+00
        1   -1    0    0  501    0  0.00000000000E+00  0.00000000000E+00  0.83024946553E+03  0.83024946554E+03  0.50400001928E-02 0.  1.
       -1   -1    0    0    0  501  0.00000000000E+00  0.00000000000E+00 -0.73519822546E+02  0.73519822718E+02  0.50400001928E-02 0. -1.
    10030    2    1    2    0    0  0.00000000000E+00  0.00000000000E+00  0.75672964298E+03  0.90376928826E+03  0.49412465415E+03 0.  0.
        3    1    3    3  502    0 -0.18134174839E+03 -0.16587669941E+03  0.42463150140E+03  0.49062392043E+03  0.10100000352E+00 0. -1.
       -3    1    3    3    0  502  0.18134174839E+03  0.16587669941E+03  0.33209814158E+03  0.41314536783E+03  0.10100000352E+00 0.  1.
</event>
<event>
 5   0  0.1123271E-01  0.5091488E+03  0.7818609E-02  0.1011418E+00
       -1   -1    0    0    0  501  0.00000000000E+00  0.00000000000E+00  0.11658632844E+03  0.11658632855E+03  0.50400001928E-02 0.  1.
        1   -1    0    0  501    0  0.00000000000E+00  0.00000000000E+00 -0.55588101728E+03  0.55588101730E+03  0.50400001928E-02 0. -1.
    10030    2    1    2    0    0  0.00000000000E+00  0.00000000000E+00 -0.43929468884E+03  0.67246734585E+03  0.50914880693E+03 0.  0.
        5    1    3    3  502    0 -0.21241138255E+03 -0.81744930695E+02 -0.69142346713E+02  0.23791507568E+03  0.46999998093E+01 0.  1.
       -5    1    3    3    0  502  0.21241138255E+03  0.81744930695E+02 -0.37015234212E+03  0.43455227017E+03  0.46999998093E+01 0. -1.
</event>
<event>
 5   0  0.1068522E-01  0.4761923E+03  0.7818609E-02  0.1020187E+00
        1   -1    0    0  501    0  0.00000000000E+00  0.00000000000E+00  0.26254062285E+03  0.26254062290E+03  0.50400001928E-02 0.  1.
       -1   -1    0    0    0  501  0.00000000000E+00  0.00000000000E+00 -0.21592761932E+03  0.21592761938E+03  0.50400001928E-02 0. -1.
    10030    2    1    2    0    0  0.00000000000E+00  0.00000000000E+00  0.46613003526E+02  0.47846824228E+03  0.47619227920E+03 0.  0.
        2    1    3    3  502    0  0.14787939927E+03 -0.18611811518E+03  0.97698372669E+01  0.23791536153E+03  0.25500000920E-02 0.  1.
       -2    1    3    3    0  502 -0.14787939927E+03  0.18611811518E+03  0.36843166259E+02  0.24055288074E+03  0.25500000920E-02 0. -1.
</event>
<event>
 5   0  0.1683148E-01  0.5058785E+03  0.7818609E-02  0.1012256E+00
        2   -1    0    0  501    0  0.00000000000E+00  0.00000000000E+00  0.79489070486E+03  0.79489070487E+03  0.25500000920E-02 0. -1.
       -2   -1    0    0    0  501  0.00000000000E+00  0.00000000000E+00 -0.80486879279E+02  0.80486879319E+02  0.25500000920E-02 0.  1.
    10030    2    1    2    0    0  0.00000000000E+00  0.00000000000E+00  0.71440382558E+03  0.87537758419E+03  0.50587853175E+03 0.  0.
        2    1    3    3  502    0  0.37715729087E+02 -0.13068996079E+03  0.72621346929E+03  0.73884257123E+03  0.25500000920E-02 0. -1.
       -2    1    3    3    0  502 -0.37715729087E+02  0.13068996079E+03 -0.11809643707E+02  0.13653501296E+03  0.25500000920E-02 0.  1.
</event>
<event>
 5   0  0.7220250E-02  0.4990965E+03  0.7818609E-02  0.1014015E+00
       -3   -1    0    0    0  501  0.00000000000E+00  0.00000000000E+00  0.80730390388E+02  0.80730453567E+02  0.10100000352E+00 0.  1.
        3   -1    0    0  501    0  0.00000000000E+00  0.00000000000E+00 -0.77138620414E+03  0.77138621075E+03  0.10100000352E+00 0. -1.
    10030    2    1    2    0    0  0.00000000000E+00  0.00000000000E+00 -0.69065581375E+03  0.85211666432E+03  0.49909654030E+03 0.  0.
        2    1    3    3  502    0  0.49414898756E+02  0.19406152614E+03 -0.91100063235E+02  0.22000211289E+03  0.25500000920E-02 0.  1.
       -2    1    3    3    0  502 -0.49414898756E+02 -0.19406152614E+03 -0.59955575052E+03  0.63211455143E+03  0.25500000920E-02 0. -1.
</event>
<event>
 5   0  0.1709372E-01  0.4925249E+03  0.7818609E-02  0.1015749E+00
       -2   -1    0    0    0  501  0.00000000000E+00  0.00000000000E+00  0.41660392499E+02  0.41660392577E+02  0.25500000920E-02 0. -1.
        2   -1    0    0  501    0  0.00000000000E+00  0.00000000000E+00 -0.14557040624E+04  0.14557040624E+04  0.25500000920E-02 0.  1.
    10030    2    1    2    0    0  0.00000000000E+00  0.00000000000E+00 -0.14140436699E+04  0.14973644550E+04  0.49252493404E+03 0.  0.
        4    1    3    3  502    0  0.82565293512E+02 -0.22799337015E+03 -0.83762880430E+03  0.87202157726E+03  0.12699999809E+01 0. -1.
       -4    1    3    3    0  502 -0.82565293512E+02  0.22799337015E+03 -0.57641486565E+03  0.62534287776E+03  0.12699999809E+01 0.  1.
</event>
<event>
 5   0  0.1709372E-01  0.4983657E+03  0.7818609E-02  0.1014206E+00
       -2   -1    0    0    0  501  0.00000000000E+00  0.00000000000E+00  0.36875571281E+02  0.36875571369E+02  0.25500000920E-02 0.  1.
        2   -1    0    0  501    0  0.00000000000E+00  0.00000000000E+00 -0.16838273862E+04  0.16838273862E+04  0.25500000920E-02 0. -1.
    10030    2    1    2    0    0  0.00000000000E+00  0.00000000000E+00 -0.16469518149E+04  0.17207029576E+04  0.49836571665E+03 0.  0.
        4    1    3    3  502    0 -0.19963910760E+03  0.12088550681E+03 -0.11248981280E+04  0.11488544252E+04  0.12699999809E+01 0. -1.
       -4    1    3    3    0  502  0.19963910760E+03 -0.12088550681E+03 -0.52205368690E+03  0.57184853234E+03  0.12699999809E+01 0.  1.
</event>
<event>
 5   0  0.1074281E-01  0.5006323E+03  0.7818609E-02  0.1013614E+00
       -1   -1    0    0    0  501  0.00000000000E+00  0.00000000000E+00  0.76091479339E+02  0.76091479506E+02  0.50400001928E-02 0.  1.
        1   -1    0    0  501    0  0.00000000000E+00  0.00000000000E+00 -0.82345844435E+03  0.82345844437E+03  0.50400001928E-02 0. -1.
    10030    2    1    2    0    0  0.00000000000E+00  0.00000000000E+00 -0.74736696502E+03  0.89954992388E+03  0.50063228536E+03 0.  0.
        4    1    3    3  502    0 -0.16731805612E+02  0.77888743470E+02  0.52698636459E+02  0.95526796571E+02  0.12699999809E+01 0.  1.
       -4    1    3    3    0  502  0.16731805612E+02 -0.77888743470E+02 -0.80006560148E+03  0.80402312731E+03  0.12699999809E+01 0. -1.
</event>
<event>
 5   0  0.1683148E-01  0.4491621E+03  0.7818609E-02  0.1027972E+00
       -2   -1    0    0    0  501  0.00000000000E+00  0.00000000000E+00  0.84374443786E+02  0.84374443825E+02  0.25500000920E-02 0.  1.
        2   -1    0    0  501    0  0.00000000000E+00  0.00000000000E+00 -0.59777160801E+03  0.59777160802E+03  0.25500000920E-02 0. -1.
    10030    2    1    2    0    0  0.00000000000E+00  0.00000000000E+00 -0.51339716423E+03  0.68214605184E+03  0.44916209525E+03 0.  0.
        2    1    3    3  502    0 -0.17805975987E+02  0.10813843198E+03 -0.55440281935E+03  0.56513136469E+03  0.25500000920E-02 0. -1.
       -2    1    3    3    0  502  0.17805975987E+02 -0.10813843198E+03  0.41005655120E+02  0.11701468715E+03  0.25500000920E-02 0.  1.
</event>
<event>
 5   0  0.7220250E-02  0.5055138E+03  0.7818609E-02  0.1012350E+00
        3   -1    0    0  501    0  0.00000000000E+00  0.00000000000E+00  0.10328081618E+03  0.10328086556E+03  0.10100000352E+00 0. -1.
       -3   -1    0    0    0  501  0.00000000000E+00  0.00000000000E+00 -0.61856621957E+03  0.61856622781E+03  0.10100000352E+00 0.  1.
    10030    2    1    2    0    0  0.00000000000E+00  0.00000000000E+00 -0.51528540339E+03  0.72184709338E+03  0.50551377753E+03 0.  0.
        4    1    3    3  502    0 -0.22205467942E+03  0.11150795012E+03 -0.19155282261E+03  0.31374575749E+03  0.12699999809E+01 0. -1.
       -4    1    3    3    0  502  0.22205467942E+03 -0.11150795012E+03 -0.32373258078E+03  0.40810133589E+03  0.12699999809E+01 0.  1.
</event>
<event>
 5   0  0.1709372E-01  0.4982514E+03  0.7818609E-02  0.1014236E+00
        2   -1    0    0  501    0  0.00000000000E+00  0.00000000000E+00  0.12288239113E+04  0.12288239113E+04  0.25500000920E-02 0. -1.
       -2   -1    0    0    0  501  0.00000000000E+00  0.00000000000E+00 -0.50506507122E+02  0.50506507187E+02  0.25500000920E-02 0.  1.
    10030    2    1    2    0    0  0.00000000000E+00  0.00000000000E+00  0.11783174042E+04  0.12793304185E+04  0.49825135693E+03 0.  0.
        4    1    3    3  502    0 -0.21028539148E+03  0.10641431757E+03  0.79645553996E+03  0.83059436122E+03  0.12699999809E+01 0. -1.
       -4    1    3    3    0  502  0.21028539148E+03 -0.10641431757E+03  0.38186186422E+03  0.44873605728E+03  0.12699999809E+01 0.  1.
</event>
<event>
 5   0  0.1760649E-01  0.5035549E+03  0.7818609E-02  0.1012855E+00
        2   -1    0    0  501    0  0.00000000000E+00  0.00000000000E+00  0.74400402430E+03  0.74400402430E+03  0.25500000920E-02 0.  1.
       -2   -1    0    0    0  501  0.00000000000E+00  0.00000000000E+00 -0.85203696297E+02  0.85203696335E+02  0.25500000920E-02 0. -1.
    10030    2    1    2    0    0  0.00000000000E+00  0.00000000000E+00  0.65880032800E+03  0.82920772064E+03  0.50355493423E+03 0.  0.
        5    1    3    3  502    0 -0.19477289382E+03 -0.20544744192E+01  0.66807860802E+02  0.20597592407E+03  0.46999998093E+01 0. -1.
       -5    1    3    3    0  502  0.19477289382E+03  0.20544744192E+01  0.59199246720E+03  0.62323179657E+03  0.46999998093E+01 0.  1.
</event>
<event>
 5   0  0.7220250E-02  0.4961246E+03  0.7818609E-02  0.1014795E+00
       -4   -1    0    0    0  501  0.00000000000E+00  0.00000000000E+00  0.95587513268E+02  0.95595949667E+02  0.12699999809E+01 0. -1.
        4   -1    0    0  501    0  0.00000000000E+00  0.00000000000E+00 -0.64371721094E+03  0.64371846375E+03  0.12699999809E+01 0.  1.
    10030    2    1    2    0    0  0.00000000000E+00  0.00000000000E+00 -0.54812969768E+03  0.73931441341E+03  0.49612461782E+03 0.  0.
        2    1    3    3  502    0  0.21702696832E+03  0.97389037248E+02 -0.37890377156E+03  0.44738506643E+03  0.25500000920E-02 0. -1.
       -2    1    3    3    0  502 -0.21702696832E+03 -0.97389037248E+02 -0.16922592611E+03  0.29192934698E+03  0.25500000920E-02 0.  1.
</event>
<event>
 5   0  0.1782124E-01  0.5051065E+03  0.7818609E-02  0.1012455E+00
       -2   -1    0    0    0  501  0.00000000000E+00  0.00000000000E+00  0.57074032601E+02  0.57074032658E+02  0.25500000920E-02 0.  1.
        2   -1    0    0  501    0  0.00000000000E+00  0.00000000000E+00 -0.11175510850E+04  0.11175510850E+04  0.25500000920E-02 0. -1.
    10030    2    1    2    0    0  0.00000000000E+00  0.00000000000E+00 -0.10604770524E+04  0.11746251176E+04  0.50510651191E+03 0.  0.
        3    1    3    3  502    0  0.22585016647E+03  0.78258323931E+02 -0.71988405748E+03  0.75852866088E+03  0.10100000352E+00 0. -1.
       -3    1    3    3    0  502 -0.22585016647E+03 -0.78258323931E+02 -0.34059299491E+03  0.41609645677E+03  0.10100000352E+00 0.  1.
</event>
<event>
 5   0  0.1123271E-01  0.4997469E+03  0.7818609E-02  0.1013845E+00
       -1   -1    0    0    0  501  0.00000000000E+00  0.00000000000E+00  0.69432618448E+02  0.69432618630E+02  0.50400001928E-02 0.  1.
        1   -1    0    0  501    0  0.00000000000E+00  0.00000000000E+00 -0.89924231543E+03  0.89924231544E+03  0.50400001928E-02 0. -1.
    10030    2    1    2    0    0  0.00000000000E+00  0.00000000000E+00 -0.82980969698E+03  0.96867493407E+03  0.49974693065E+03 0.  0.
        5    1    3    3  502    0 -0.12875892105E+02  0.13132278270E+02 -0.89784268761E+03  0.89804333249E+03  0.46999998093E+01 0. -1.
       -5    1    3    3    0  502  0.12875892105E+02 -0.13132278270E+02  0.68032990631E+02  0.70631601585E+02  0.46999998093E+01 0.  1.
</event>
<event>
 5   0  0.7220250E-02  0.4995480E+03  0.7818609E-02  0.1013897E+00
       -4   -1    0    0    0  501  0.00000000000E+00  0.00000000000E+00  0.30190072634E+03  0.30190339757E+03  0.12699999809E+01 0. -1.
        4   -1    0    0  501    0  0.00000000000E+00  0.00000000000E+00 -0.20664199156E+03  0.20664589416E+03  0.12699999809E+01 0.  1.
    10030    2    1    2    0    0  0.00000000000E+00  0.00000000000E+00  0.95258734783E+02  0.50854929173E+03  0.49954795122E+03 0.  0.
        5    1    3    3  502    0 -0.78695454376E+02 -0.22095858934E+03  0.13490201568E+03  0.27062209181E+03  0.46999998093E+01 0. -1.
       -5    1    3    3    0  502  0.78695454376E+02  0.22095858934E+03 -0.39643280896E+02  0.23792719992E+03  0.46999998093E+01 0.  1.
</event>
<event>
 5   0  0.1827698E-01  0.5026171E+03  0.7818609E-02  0.1013098E+00
       -2   -1    0    0    0  501  0.00000000000E+00  0.00000000000E+00  0.37630202208E+02  0.37630202295E+02  0.25500000920E-02 0.  1.
        2   -1    0    0  501    0  0.00000000000E+00  0.00000000000E+00 -0.16783325944E+04  0.16783325944E+04  0.25500000920E-02 0. -1.
    10030    2    1    2    0    0  0.00000000000E+00  0.00000000000E+00 -0.16407023922E+04  0.17159627967E+04  0.50261713054E+03 0.  0.
        1    1    3    3  502    0 -0.18504976209E+03 -0.16527482346E+03 -0.68392504000E+03  0.72753875642E+03  0.50400001928E-02 0.  1.
       -1    1    3    3    0  502  0.18504976209E+03  0.16527482346E+03 -0.95677735223E+03  0.98842404033E+03  0.50400001928E-02 0. -1.
</event>
<event>
 5   0  0.1074281E-01  0.5085209E+03  0.7818609E-02  0.1011578E+00
        1   -1    0    0  501    0  0.00000000000E+00  0.00000000000E+00  0.11496492939E+04  0.11496492939E+04  0.50400001928E-02 0. -1.
       -1   -1    0    0    0  501  0.00000000000E+00  0.00000000000E+00 -0.56233136731E+02  0.56233136957E+02  0.50400001928E-02 0.  1.
    10030    2    1    2    0    0  0.00000000000E+00  0.00000000000E+00  0.10934161571E+04  0.12058824308E+04  0.50852093793E+03 0.  0.
        4    1    3    3  502    0  0.30619042474E+01  0.32975556851E+02  0.11445053686E+04  0.11449851153E+04  0.12699999809E+01 0. -1.
       -4    1    3    3    0  502 -0.30619042474E+01 -0.32975556851E+02 -0.51089211482E+02  0.60897315516E+02  0.12699999809E+01 0.  1.
</event>
<event>
 5   0  0.1782124E-01  0.4993433E+03  0.7818609E-02  0.1013950E+00
       -2   -1    0    0    0  501  0.00000000000E+00  0.00000000000E+00  0.15963374816E+03  0.15963374818E+03  0.25500000920E-02 0. -1.
        2   -1    0    0  501    0  0.00000000000E+00  0.00000000000E+00 -0.39049351442E+03  0.39049351443E+03  0.25500000920E-02 0.  1.
    10030    2    1    2    0    0  0.00000000000E+00  0.00000000000E+00 -0.23085976626E+03  0.55012726261E+03  0.49934334219E+03 0.  0.
        3    1    3    3  502    0 -0.18240498719E+03 -0.10020558752E+03  0.36521837712E+02  0.21129740640E+03  0.10100000352E+00 0. -1.
       -3    1    3    3    0  502  0.18240498719E+03  0.10020558752E+03 -0.26738160397E+03  0.33882985621E+03  0.10100000352E+00 0.  1.
</event>
<event>
 5   0  0.1141970E-01  0.5019355E+03  0.7818609E-02  0.1013275E+00
       -1   -1    0    0    0  501  0.00000000000E+00  0.00000000000E+00  0.12791148705E+03  0.12791148715E+03  0.50400001928E-02 0. -1.
        1   -1    0    0  501    0  0.00000000000E+00  0.00000000000E+00 -0.49240940082E+03  0.49240940085E+03  0.50400001928E-02 0.  1.
    10030    2    1    2    0    0  0.00000000000E+00  0.00000000000E+00 -0.36449791378E+03  0.62032088800E+03  0.50193552867E+03 0.  0.
        3    1    3    3  502    0 -0.11156887635E+02 -0.14191317412E+03  0.73191150678E+02  0.16006492392E+03  0.10100000352E+00 0. -1.
       -3    1    3    3    0  502  0.11156887635E+02  0.14191317412E+03 -0.43768906445E+03  0.46025596408E+03  0.10100000352E+00 0.  1.
</event>
<event>
 5   0  0.1141970E-01  0.5247295E+03  0.7818609E-02  0.1007518E+00
       -1   -1    0    0    0  501  0.00000000000E+00  0.00000000000E+00  0.92367571281E+02  0.92367571418E+02  0.50400001928E-02 0. -1.
        1   -1    0    0  501    0  0.00000000000E+00  0.00000000000E+00 -0.74523187169E+03  0.74523187170E+03  0.50400001928E-02 0.  1.
    10030    2    1    2    0    0  0.00000000000E+00  0.00000000000E+00 -0.65286430041E+03  0.83759944312E+03  0.52472948495E+03 0.  0.
        3    1    3    3  502    0  0.16739141508E+03 -0.76813794316E+02 -0.28163949818E+02  0.18631549348E+03  0.10100000352E+00 0. -1.
       -3    1    3    3    0  502 -0.16739141508E+03  0.76813794316E+02 -0.62470035059E+03  0.65128394965E+03  0.10100000352E+00 0.  1.
</event>
<event>
 5   0  0.1123271E-01  0.4961437E+03  0.7818609E-02  0.1014790E+00
       -1   -1    0    0    0  501  0.00000000000E+00  0.00000000000E+00  0.19976022199E+03  0.19976022205E+03  0.50400001928E-02 0.  1.
        1   -1    0    0  501    0  0.00000000000E+00  0.00000000000E+00 -0.30806752620E+03  0.30806752624E+03  0.50400001928E-02 0. -1.
    10030    2    1    2    0    0  0.00000000000E+00  0.00000000000E+00 -0.10830730421E+03  0.50782774829E+03  0.49614367858E+03 0.  0.
        5    1    3    3  502    0  0.20923858996E+03 -0.12995901006E+03 -0.24357704687E+02  0.24755912344E+03  0.46999998093E+01 0.  1.
       -5    1    3    3    0  502 -0.20923858996E+03  0.12995901006E+03 -0.83949599522E+02  0.26026862485E+03  0.46999998093E+01 0. -1.
</event>
<event>
 5   0  0.1683148E-01  0.5132534E+03  0.7818609E-02  0.1010376E+00
       -2   -1    0    0    0  501  0.00000000000E+00  0.00000000000E+00  0.12191934740E+03  0.12191934743E+03  0.25500000920E-02 0. -1.
        2   -1    0    0  501    0  0.00000000000E+00  0.00000000000E+00 -0.54017066171E+03  0.54017066171E+03  0.25500000920E-02 0.  1.
    10030    2    1    2    0    0  0.00000000000E+00  0.00000000000E+00 -0.41825131431E+03  0.66209000914E+03  0.51325336656E+03 0.  0.
        2    1    3    3  502    0 -0.17118798881E+03 -0.34150113288E+02  0.33534851633E+02  0.17775304226E+03  0.25500000920E-02 0. -1.
       -2    1    3    3    0  502  0.17118798881E+03  0.34150113288E+02 -0.45178616594E+03  0.48433696688E+03  0.25500000920E-02 0.  1.
</event>
<event>
 5   0  0.1760649E-01  0.5014412E+03  0.7818609E-02  0.1013403E+00
        2   -1    0    0  501    0  0.00000000000E+00  0.00000000000E+00  0.49169295844E+03  0.49169295845E+03  0.25500000920E-02 0.  1.
       -2   -1    0    0    0  501  0.00000000000E+00  0.00000000000E+00 -0.12784567192E+03  0.12784567194E+03  0.25500000920E-02 0. -1.
    10030    2    1    2    0    0  0.00000000000E+00  0.00000000000E+00  0.36384728652E+03  0.61953863039E+03  0.50144118960E+03 0.  0.
        5    1    3    3  502    0 -0.18620040619E+03 -0.67540955703E+01 -0.25269550454E+02  0.18808734474E+03  0.46999998093E+01 0. -1.
       -5    1    3    3    0  502  0.18620040619E+03  0.67540955703E+01  0.38911683698E+03  0.43145128565E+03  0.46999998093E+01 0.  1.
</event>
<event>
 5   0  0.1074281E-01  0.4828035E+03  0.7818609E-02  0.1018368E+00
       -1   -1    0    0    0  501  0.00000000000E+00  0.00000000000E+00  0.21014614640E+03  0.21014614646E+03  0.50400001928E-02 0.  1.
        1   -1    0    0  501    0  0.00000000000E+00  0.00000000000E+00 -0.27730606865E+03  0.27730606869E+03  0.50400001928E-02 0. -1.
    10030    2    1    2    0    0  0.00000000000E+00  0.00000000000E+00 -0.67159922248E+02  0.48745221515E+03  0.48280348684E+03 0.  0.
        4    1    3    3  502    0  0.29887487357E+02  0.20537188511E+03  0.90904895772E+02  0.22657490167E+03  0.12699999809E+01 0.  1.
       -4    1    3    3    0  502 -0.29887487357E+02 -0.20537188511E+03 -0.15806481802E+03  0.26087731348E+03  0.12699999809E+01 0. -1.
</event>
<event>
 5   0  0.1709372E-01  0.5166503E+03  0.7818609E-02  0.1009522E+00
        2   -1    0    0  501    0  0.00000000000E+00  0.00000000000E+00  0.77113764526E+03  0.77113764526E+03  0.25500000920E-02 0.  1.
       -2   -1    0    0    0  501  0.00000000000E+00  0.00000000000E+00 -0.86536926009E+02  0.86536926047E+02  0.25500000920E-02 0. -1.
    10030    2    1    2    0    0  0.00000000000E+00  0.00000000000E+00  0.68460071925E+03  0.85767457131E+03  0.51665029321E+03 0.  0.
        4    1    3    3  502    0 -0.62410296133E+02 -0.22421851105E+03  0.15624471560E+03  0.28032661275E+03  0.12699999809E+01 0. -1.
       -4    1    3    3    0  502  0.62410296133E+02  0.22421851105E+03  0.52835600365E+03  0.57734795856E+03  0.12699999809E+01 0.  1.
</event>
<event>
 5   0  0.1123271E-01  0.5000921E+03  0.7818609E-02  0.1013755E+00
        1   -1    0    0  501    0  0.00000000000E+00  0.00000000000E+00  0.50155253065E+03  0.50155253067E+03  0.50400001928E-02 0. -1.
       -1   -1    0    0    0  501  0.00000000000E+00  0.00000000000E+00 -0.12465900268E+03  0.12465900278E+03  0.50400001928E-02 0.  1.
    10030    2    1    2    0    0  0.00000000000E+00  0.00000000000E+00  0.37689352797E+03  0.62621153345E+03  0.50009214472E+03 0.  0.
        5    1    3    3  502    0  0.61418267276E+02 -0.23287917988E+03  0.10448419041E+03  0.26257180355E+03  0.46999998093E+01 0.  1.
       -5    1    3    3    0  502 -0.61418267276E+02  0.23287917988E+03  0.27240933756E+03  0.36363972991E+03  0.46999998093E+01 0. -1.
</event>
<event>
 5   0  0.1683148E-01  0.5055390E+03  0.7818609E-02  0.1012343E+00
        2   -1    0    0  501    0  0.00000000000E+00  0.00000000000E+00  0.61145690446E+03  0.61145690447E+03  0.25500000920E-02 0.  1.
       -2   -1    0    0    0  501  0.00000000000E+00  0.00000000000E+00 -0.10449211167E+03  0.10449211170E+03  0.25500000920E-02 0. -1.
    10030    2    1    2    0    0  0.00000000000E+00  0.00000000000E+00  0.50696479280E+03  0.71594901617E+03  0.50553901197E+03 0.  0.
        2    1    3    3  502    0  0.12372578899E+03  0.11541035951E+03 -0.12466468661E+02  0.16965563590E+03  0.25500000920E-02 0. -1.
       -2    1    3    3    0  502 -0.12372578899E+03 -0.11541035951E+03  0.51943126146E+03  0.54629338027E+03  0.25500000920E-02 0.  1.
</event>
<event>
 5   0  0.1782124E-01  0.5029401E+03  0.7818609E-02  0.1013014E+00
       -2   -1    0    0    0  501  0.00000000000E+00  0.00000000000E+00  0.35739256909E+02  0.35739257000E+02  0.25500000920E-02 0.  1.
        2   -1    0    0  501    0  0.00000000000E+00  0.00000000000E+00 -0.17694040025E+04  0.17694040025E+04  0.25500000920E-02 0. -1.
    10030    2    1    2    0    0  0.00000000000E+00  0.00000000000E+00 -0.17336647456E+04  0.18051432595E+04  0.50294009308E+03 0.  0.
        3    1    3    3  502    0  0.22214881154E+03  0.10483819607E+03 -0.10599834415E+04  0.10880744682E+04  0.10100000352E+00 0. -1.
       -3    1    3    3    0  502 -0.22214881154E+03 -0.10483819607E+03 -0.67368130409E+03  0.71706879133E+03  0.10100000352E+00 0.  1.
</event>
<event>
 5   0  0.1068522E-01  0.5042380E+03  0.7818609E-02  0.1012679E+00
        1   -1    0    0  501    0  0.00000000000E+00  0.00000000000E+00  0.11951038702E+04  0.11951038703E+04  0.50400001928E-02 0. -1.
       -1   -1    0    0    0  501  0.00000000000E+00  0.00000000000E+00 -0.53186996276E+02  0.53186996514E+02  0.50400001928E-02 0.  1.
    10030    2    1    2    0    0  0.00000000000E+00  0.00000000000E+00  0.11419168740E+04  0.12482908668E+04  0.50423798053E+03 0.  0.
        2    1    3    3  502    0  0.42979780011E+02 -0.19524743872E+03  0.19068874347E+03  0.27628069189E+03  0.25500000920E-02 0.  1.
       -2    1    3    3    0  502 -0.42979780011E+02  0.19524743872E+03  0.95122813050E+03  0.97201017488E+03  0.25500000920E-02 0. -1.
</event>
<event>
 5   0  0.1123271E-01  0.4885883E+03  0.7818609E-02  0.1016801E+00
       -1   -1    0    0    0  501  0.00000000000E+00  0.00000000000E+00  0.69251096833E+03  0.69251096834E+03  0.50400001928E-02 0.  1.
        1   -1    0    0  501    0  0.00000000000E+00  0.00000000000E+00 -0.86178611419E+02  0.86178611566E+02  0.50400001928E-02 0. -1.
    10030    2    1    2    0    0  0.00000000000E+00  0.00000000000E+00  0.60633235691E+03  0.77868957991E+03  0.48858830812E+03 0.  0.
        5    1    3    3  502    0 -0.18514839707E+03 -0.12299908652E+03  0.14182001660E+03  0.26371141676E+03  0.46999998093E+01 0. -1.
       -5    1    3    3    0  502  0.18514839707E+03  0.12299908652E+03  0.46451234031E+03  0.51497816315E+03  0.46999998093E+01 0.  1.
</event>
<event>
 5   0  0.1782124E-01  0.5137956E+03  0.7818609E-02  0.1010240E+00
       -2   -1    0    0    0  501  0.00000000000E+00  0.00000000000E+00  0.42667584673E+02  0.42667584749E+02  0.25500000920E-02 0.  1.
        2   -1    0    0  501    0  0.00000000000E+00  0.00000000000E+00 -0.15467589573E+04  0.15467589573E+04  0.25500000920E-02 0. -1.
    10030    2    1    2    0    0  0.00000000000E+00  0.00000000000E+00 -0.15040913726E+04  0.15894265420E+04  0.51379555795E+03 0.  0.
        3    1    3    3  502    0  0.11777158053E+03 -0.12446370324E+03 -0.13441507930E+04  0.13550286798E+04  0.10100000352E+00 0.  1.
       -3    1    3    3    0  502 -0.11777158053E+03  0.12446370324E+03 -0.15994057962E+03  0.23439786222E+03  0.10100000352E+00 0. -1.
</event>
<event>
 5   0  0.1782124E-01  0.5865103E+03  0.7818609E-02  0.9933795E-01
       -2   -1    0    0    0  501  0.00000000000E+00  0.00000000000E+00  0.99741538850E+02  0.99741538882E+02  0.25500000920E-02 0.  1.
        2   -1    0    0  501    0  0.00000000000E+00  0.00000000000E+00 -0.86221428160E+03  0.86221428161E+03  0.25500000920E-02 0. -1.
    10030    2    1    2    0    0  0.00000000000E+00  0.00000000000E+00 -0.76247274275E+03  0.96195582049E+03  0.58651028732E+03 0.  0.
        3    1    3    3  502    0  0.81028236867E+02  0.41528361640E+02 -0.83844397652E+03  0.84337328151E+03  0.10100000352E+00 0. -1.
       -3    1    3    3    0  502 -0.81028236867E+02 -0.41528361640E+02  0.75971233769E+02  0.11858253898E+03  0.10100000352E+00 0.  1.
</event>
<event>
 5   0  0.1683148E-01  0.5010424E+03  0.7818609E-02  0.1013507E+00
        2   -1    0    0  501    0  0.00000000000E+00  0.00000000000E+00  0.11523214722E+04  0.11523214722E+04  0.25500000920E-02 0. -1.
       -2   -1    0    0    0  501  0.00000000000E+00  0.00000000000E+00 -0.54464731983E+02  0.54464732042E+02  0.25500000920E-02 0.  1.
    10030    2    1    2    0    0  0.00000000000E+00  0.00000000000E+00  0.10978567402E+04  0.12067862043E+04  0.50104243405E+03 0.  0.
        2    1    3    3  502    0 -0.17866093028E+03 -0.13528091333E+03  0.81864549487E+03  0.84876445484E+03  0.25500000920E-02 0.  1.
       -2    1    3    3    0  502  0.17866093028E+03  0.13528091333E+03  0.27921124538E+03  0.35802174944E+03  0.25500000920E-02 0. -1.
</event>
<event>
 5   0  0.1074281E-01  0.5013017E+03  0.7818609E-02  0.1013440E+00
       -1   -1    0    0    0  501  0.00000000000E+00  0.00000000000E+00  0.11455193811E+03  0.11455193822E+03  0.50400001928E-02 0. -1.
        1   -1    0    0  501    0  0.00000000000E+00  0.00000000000E+00 -0.54844856028E+03  0.54844856031E+03  0.50400001928E-02 0.  1.
    10030    2    1    2    0    0  0.00000000000E+00  0.00000000000E+00 -0.43389662217E+03  0.66300049853E+03  0.50130168793E+03 0.  0.
        4    1    3    3  502    0 -0.17793604296E+03 -0.16592148396E+03 -0.13723132313E+03  0.27932995395E+03  0.12699999809E+01 0. -1.
       -4    1    3    3    0  502  0.17793604296E+03  0.16592148396E+03 -0.29666529904E+03  0.38367054459E+03  0.12699999809E+01 0.  1.
</event>
<event>
 5   0  0.1709372E-01  0.5002790E+03  0.7818609E-02  0.1013706E+00
       -2   -1    0    0    0  501  0.00000000000E+00  0.00000000000E+00  0.67415254768E+02  0.67415254816E+02  0.25500000920E-02 0.  1.
        2   -1    0    0  501    0  0.00000000000E+00  0.00000000000E+00 -0.92812491942E+03  0.92812491942E+03  0.25500000920E-02 0. -1.
    10030    2    1    2    0    0  0.00000000000E+00  0.00000000000E+00 -0.86070966465E+03  0.99554017424E+03  0.50027903384E+03 0.  0.
        4    1    3    3  502    0 -0.20049543593E+03  0.76630993408E+02 -0.17475844293E+03  0.27679027305E+03  0.12699999809E+01 0.  1.
       -4    1    3    3    0  502  0.20049543593E+03 -0.76630993408E+02 -0.68595122172E+03  0.71874990119E+03  0.12699999809E+01 0. -1.
</event>
<event>
 5   0  0.1782124E-01  0.5024399E+03  0.7818609E-02  0.1013144E+00
       -2   -1    0    0    0  501  0.00000000000E+00  0.00000000000E+00  0.73109143162E+03  0.73109143162E+03  0.25500000920E-02 0.  1.
        2   -1    0    0  501    0  0.00000000000E+00  0.00000000000E+00 -0.86324996385E+02  0.86324996423E+02  0.25500000920E-02 0. -1.
    10030    2    1    2    0    0  0.00000000000E+00  0.00000000000E+00  0.64476643523E+03  0.81741642805E+03  0.50243990769E+03 0.  0.
        3    1    3    3  502    0 -0.56731345702E+02 -0.88710872702E+02 -0.48689103602E+02  0.11601165257E+03  0.10100000352E+00 0. -1.
       -3    1    3    3    0  502  0.56731345702E+02  0.88710872702E+02  0.69345553884E+03  0.70140477548E+03  0.10100000352E+00 0.  1.
</event>
<event>
 5   0  0.7220250E-02  0.4907593E+03  0.7818609E-02  0.1016219E+00
        4   -1    0    0  501    0  0.00000000000E+00  0.00000000000E+00  0.25720088873E+03  0.25720402420E+03  0.12699999809E+01 0. -1.
       -4   -1    0    0    0  501  0.00000000000E+00  0.00000000000E+00 -0.23409541473E+03  0.23409885967E+03  0.12699999809E+01 0.  1.
    10030    2    1    2    0    0  0.00000000000E+00  0.00000000000E+00  0.23105473996E+02  0.49130288387E+03  0.49075926967E+03 0.  0.
        4    1    3    3  502    0 -0.23160895753E+03 -0.29233667920E+02 -0.64110316361E+02  0.24209308564E+03  0.12699999809E+01 0.  1.
       -4    1    3    3    0  502  0.23160895753E+03  0.29233667920E+02  0.87215790356E+02  0.24920979823E+03  0.12699999809E+01 0. -1.
</event>
<event>
 5   0  0.1074281E-01  0.5124415E+03  0.7818609E-02  0.1010582E+00
        1   -1    0    0  501    0  0.00000000000E+00  0.00000000000E+00  0.29717508674E+03  0.29717508678E+03  0.50400001928E-02 0. -1.
       -1   -1    0    0    0  501  0.00000000000E+00  0.00000000000E+00 -0.22091042490E+03  0.22091042495E+03  0.50400001928E-02 0.  1.
    10030    2    1    2    0    0  0.00000000000E+00  0.00000000000E+00  0.76264661839E+02  0.51808551173E+03  0.51244150771E+03 0.  0.
        4    1    3    3  502    0 -0.10900795915E+03 -0.61490266612E+01  0.27247593436E+03  0.29353925358E+03  0.12699999809E+01 0. -1.
       -4    1    3    3    0  502  0.10900795915E+03  0.61490266612E+01 -0.19621127252E+03  0.22454625815E+03  0.12699999809E+01 0.  1.
</event>
<event>
 5   0  0.1827698E-01  0.4985778E+03  0.7818609E-02  0.1014151E+00
       -2   -1    0    0    0  501  0.00000000000E+00  0.00000000000E+00  0.30332320313E+03  0.30332320315E+03  0.25500000920E-02 0. -1.
        2   -1    0    0  501    0  0.00000000000E+00  0.00000000000E+00 -0.20488033785E+03  0.20488033787E+03  0.25500000920E-02 0.  1.
    10030    2    1    2    0    0  0.00000000000E+00  0.00000000000E+00  0.98442865283E+02  0.50820354101E+03  0.49857781877E+03 0.  0.
        1    1    3    3  502    0  0.14923792791E+03 -0.17706509388E+03 -0.44869730381E+02  0.23587560139E+03  0.50400001928E-02 0.  1.
       -1    1    3    3    0  502 -0.14923792791E+03  0.17706509388E+03  0.14331259566E+03  0.27232793963E+03  0.50400001928E-02 0. -1.
</event>
<event>
 5   0  0.1123271E-01  0.4992442E+03  0.7818609E-02  0.1013976E+00
        1   -1    0    0  501    0  0.00000000000E+00  0.00000000000E+00  0.48087370031E+03  0.48087370033E+03  0.50400001928E-02 0.  1.
       -1   -1    0    0    0  501  0.00000000000E+00  0.00000000000E+00 -0.12957912717E+03  0.12957912727E+03  0.50400001928E-02 0. -1.
    10030    2    1    2    0    0  0.00000000000E+00  0.00000000000E+00  0.35129457313E+03  0.61045282761E+03  0.49924420640E+03 0.  0.
        5    1    3    3  502    0 -0.12448763322E+03 -0.43734993631E+02  0.43468413736E+03  0.45429319802E+03  0.46999998093E+01 0.  1.
       -5    1    3    3    0  502  0.12448763322E+03  0.43734993631E+02 -0.83389564229E+02  0.15615962959E+03  0.46999998093E+01 0. -1.
</event>
<event>
 5   0  0.1074281E-01  0.4880753E+03  0.7818609E-02  0.1016939E+00
        1   -1    0    0  501    0  0.00000000000E+00  0.00000000000E+00  0.75426642472E+02  0.75426642640E+02  0.50400001928E-02 0. -1.
       -1   -1    0    0    0  501  0.00000000000E+00  0.00000000000E+00 -0.78956693184E+03  0.78956693186E+03  0.50400001928E-02 0.  1.
    10030    2    1    2    0    0  0.00000000000E+00  0.00000000000E+00 -0.71414028937E+03  0.86499357450E+03  0.48807533335E+03 0.  0.
        4    1    3    3  502    0 -0.17982855732E+03  0.94263726499E+02 -0.59700489521E+03  0.63058735951E+03  0.12699999809E+01 0.  1.
       -4    1    3    3    0  502  0.17982855732E+03 -0.94263726499E+02 -0.11713539416E+03  0.23440621499E+03  0.12699999809E+01 0. -1.
</event>
<event>
 5   0  0.1782124E-01  0.5000022E+03  0.7818609E-02  0.1013778E+00
       -2   -1    0    0    0  501  0.00000000000E+00  0.00000000000E+00  0.65788902547E+02  0.65788902597E+02  0.25500000920E-02 0. -1.
        2   -1    0    0  501    0  0.00000000000E+00  0.00000000000E+00 -0.95001666585E+03  0.95001666585E+03  0.25500000920E-02 0.  1.
    10030    2    1    2    0    0  0.00000000000E+00  0.00000000000E+00 -0.88422776330E+03  0.10158055684E+04  0.50000221549E+03 0.  0.
        3    1    3    3  502    0 -0.12896846119E+02  0.10853990578E+03  0.14672799630E+02  0.11028391105E+03  0.10100000352E+00 0. -1.
       -3    1    3    3    0  502  0.12896846119E+02 -0.10853990578E+03 -0.89890056293E+03  0.90552165740E+03  0.10100000352E+00 0.  1.
</event>
<event>
 5   0  0.1074281E-01  0.5132230E+03  0.7818609E-02  0.1010384E+00
        1   -1    0    0  501    0  0.00000000000E+00  0.00000000000E+00  0.56370950130E+03  0.56370950132E+03  0.50400001928E-02 0. -1.
       -1   -1    0    0    0  501  0.00000000000E+00  0.00000000000E+00 -0.11681454028E+03  0.11681454038E+03  0.50400001928E-02 0.  1.
    10030    2    1    2    0    0  0.00000000000E+00  0.00000000000E+00  0.44689496103E+03  0.68052404171E+03  0.51322301697E+03 0.  0.
        4    1    3    3  502    0 -0.20817608495E+02  0.15366645508E+03 -0.47653575014E+02  0.16223202012E+03  0.12699999809E+01 0.  1.
       -4    1    3    3    0  502  0.20817608495E+02 -0.15366645508E+03  0.49454853604E+03  0.51829202159E+03  0.12699999809E+01 0. -1.
</event>
<event>
 5   0  0.1147245E-01  0.4975735E+03  0.7818609E-02  0.1014414E+00
       -1   -1    0    0    0  501  0.00000000000E+00  0.00000000000E+00  0.16318208219E+03  0.16318208227E+03  0.50400001928E-02 0. -1.
        1   -1    0    0  501    0  0.00000000000E+00  0.00000000000E+00 -0.37929925905E+03  0.37929925908E+03  0.50400001928E-02 0.  1.
    10030    2    1    2    0    0  0.00000000000E+00  0.00000000000E+00 -0.21611717686E+03  0.54248134135E+03  0.49757348360E+03 0.  0.
        1    1    3    3  502    0  0.13322283007E+03 -0.45431080016E+02  0.11559637264E+03  0.18213958075E+03  0.50400001928E-02 0. -1.
       -1    1    3    3    0  502 -0.13322283007E+03  0.45431080016E+02 -0.33171354950E+03  0.36034176060E+03  0.50400001928E-02 0.  1.
</event>
<event>
 5   0  0.1068522E-01  0.4912341E+03  0.7818609E-02  0.1016093E+00
       -1   -1    0    0    0  501  0.00000000000E+00  0.00000000000E+00  0.22289404080E+03  0.22289404086E+03  0.50400001928E-02 0. -1.
        1   -1    0    0  501    0  0.00000000000E+00  0.00000000000E+00 -0.27065659806E+03  0.27065659811E+03  0.50400001928E-02 0.  1.
    10030    2    1    2    0    0  0.00000000000E+00  0.00000000000E+00 -0.47762557261E+02  0.49355063896E+03  0.49123413088E+03 0.  0.
        2    1    3    3  502    0  0.15962817428E+01  0.22959566081E+03 -0.11153388271E+03  0.25525775713E+03  0.25500000920E-02 0. -1.
       -2    1    3    3    0  502 -0.15962817428E+01 -0.22959566081E+03  0.63771325450E+02  0.23829288183E+03  0.25500000920E-02 0.  1.
</event>
<event>
 5   0  0.1827698E-01  0.4950545E+03  0.7818609E-02  0.1015078E+00
        2   -1    0    0  501    0  0.00000000000E+00  0.00000000000E+00  0.26079083955E+03  0.26079083957E+03  0.25500000920E-02 0. -1.
       -2   -1    0    0    0  501  0.00000000000E+00  0.00000000000E+00 -0.23493824877E+03  0.23493824879E+03  0.25500000920E-02 0.  1.
    10030    2    1    2    0    0  0.00000000000E+00  0.00000000000E+00  0.25852590779E+02  0.49572908835E+03  0.49505451476E+03 0.  0.
        1    1    3    3  502    0 -0.43572212827E+02 -0.19747149377E+03 -0.13001349139E+03  0.24041014237E+03  0.50400001928E-02 0.  1.
       -1    1    3    3    0  502  0.43572212827E+02  0.19747149377E+03  0.15586608217E+03  0.25531894599E+03  0.50400001928E-02 0. -1.
</event>
<event>
 5   0  0.1123271E-01  0.5126876E+03  0.7818609E-02  0.1010519E+00
       -1   -1    0    0    0  501  0.00000000000E+00  0.00000000000E+00  0.46263517758E+02  0.46263518032E+02  0.50400001928E-02 0.  1.
        1   -1    0    0  501    0  0.00000000000E+00  0.00000000000E+00 -0.14203879373E+04  0.14203879373E+04  0.50400001928E-02 0. -1.
    10030    2    1    2    0    0  0.00000000000E+00  0.00000000000E+00 -0.13741244195E+04  0.14666514553E+04  0.51268759598E+03 0.  0.
        5    1    3    3  502    0 -0.51934909518E+02 -0.25088051902E+03 -0.70764803163E+03  0.75261284624E+03  0.46999998093E+01 0. -1.
       -5    1    3    3    0  502  0.51934909518E+02  0.25088051902E+03 -0.66647638790E+03  0.71403860910E+03  0.46999998093E+01 0.  1.
</event>
<event>
 5   0  0.1782124E-01  0.4776025E+03  0.7818609E-02  0.1019796E+00
       -2   -1    0    0    0  501  0.00000000000E+00  0.00000000000E+00  0.47921761287E+02  0.47921761355E+02  0.25500000920E-02 0. -1.
        2   -1    0    0  501    0  0.00000000000E+00  0.00000000000E+00 -0.11899820488E+04  0.11899820488E+04  0.25500000920E-02 0.  1.
    10030    2    1    2    0    0  0.00000000000E+00  0.00000000000E+00 -0.11420602875E+04  0.12379038102E+04  0.47760249465E+03 0.  0.
        3    1    3    3  502    0 -0.75955965023E+02 -0.19817253583E+03 -0.85477486427E+03  0.88072796105E+03  0.10100000352E+00 0.  1.
       -3    1    3    3    0  502  0.75955965023E+02  0.19817253583E+03 -0.28728542326E+03  0.35717584913E+03  0.10100000352E+00 0. -1.
</event>
<event>
 5   0  0.1683148E-01  0.4754891E+03  0.7818609E-02  0.1020382E+00
       -2   -1    0    0    0  501  0.00000000000E+00  0.00000000000E+00  0.35765477422E+02  0.35765477513E+02  0.25500000920E-02 0.  1.
        2   -1    0    0  501    0  0.00000000000E+00  0.00000000000E+00 -0.15803641281E+04  0.15803641281E+04  0.25500000920E-02 0. -1.
    10030    2    1    2    0    0  0.00000000000E+00  0.00000000000E+00 -0.15445986507E+04  0.16161296056E+04  0.47548912760E+03 0.  0.
        2    1    3    3  502    0 -0.20549380037E+03  0.47000707244E+02 -0.39864358012E+03  0.45094730562E+03  0.25500000920E-02 0.  1.
       -2    1    3    3    0  502  0.20549380037E+03 -0.47000707244E+02 -0.11459550706E+04  0.11651823000E+04  0.25500000920E-02 0. -1.
</event>
<event>
 5   0  0.1709372E-01  0.4863078E+03  0.7818609E-02  0.1017416E+00
        2   -1    0    0  501    0  0.00000000000E+00  0.00000000000E+00  0.54737913259E+03  0.54737913260E+03  0.25500000920E-02 0. -1.
       -2   -1    0    0    0  501  0.00000000000E+00  0.00000000000E+00 -0.10801257688E+03  0.10801257691E+03  0.25500000920E-02 0.  1.
    10030    2    1    2    0    0  0.00000000000E+00  0.00000000000E+00  0.43936655571E+03  0.65539170951E+03  0.48630784758E+03 0.  0.
        4    1    3    3  502    0  0.15838749835E+02  0.55877025498E+02 -0.98522919700E+02  0.11437432658E+03  0.12699999809E+01 0.  1.
       -4    1    3    3    0  502 -0.15838749835E+02 -0.55877025498E+02  0.53788947541E+03  0.54101738293E+03  0.12699999809E+01 0. -1.
</event>
<event>
 5   0  0.1782124E-01  0.5018958E+03  0.7818609E-02  0.1013285E+00
        2   -1    0    0  501    0  0.00000000000E+00  0.00000000000E+00  0.10264492321E+04  0.10264492321E+04  0.25500000920E-02 0.  1.
       -2   -1    0    0    0  501  0.00000000000E+00  0.00000000000E+00 -0.61352124450E+02  0.61352124503E+02  0.25500000920E-02 0. -1.
    10030    2    1    2    0    0  0.00000000000E+00  0.00000000000E+00  0.96509710764E+03  0.10878013566E+04  0.50189577029E+03 0.  0.
        3    1    3    3  502    0  0.55625080230E+01  0.24205335834E+03  0.33953298460E+03  0.41701729893E+03  0.10100000352E+00 0. -1.
       -3    1    3    3    0  502 -0.55625080230E+01 -0.24205335834E+03  0.62556412304E+03  0.67078405766E+03  0.10100000352E+00 0.  1.
</event>
<event>
 5   0  0.1147245E-01  0.4995339E+03  0.7818609E-02  0.1013901E+00
        1   -1    0    0  501    0  0.00000000000E+00  0.00000000000E+00  0.93991527267E+03  0.93991527269E+03  0.50400001928E-02 0.  1.
       -1   -1    0    0    0  501  0.00000000000E+00  0.00000000000E+00 -0.66371435190E+02  0.66371435382E+02  0.50400001928E-02 0. -1.
    10030    2    1    2    0    0  0.00000000000E+00  0.00000000000E+00  0.87354383748E+03  0.10062867081E+04  0.49953388557E+03 0.  0.
        1    1    3    3  502    0 -0.14938458272E+03 -0.63948505007E+02  0.81887229830E+03  0.83483950900E+03  0.50400001928E-02 0.  1.
       -1    1    3    3    0  502  0.14938458272E+03  0.63948505007E+02  0.54671539188E+02  0.17144719907E+03  0.50400001928E-02 0. -1.
</event>
<event>
 5   0  0.1123271E-01  0.4983181E+03  0.7818609E-02  0.1014219E+00
       -1   -1    0    0    0  501  0.00000000000E+00  0.00000000000E+00  0.12596154368E+03  0.12596154378E+03  0.50400001928E-02 0.  1.
        1   -1    0    0  501    0  0.00000000000E+00  0.00000000000E+00 -0.49285075775E+03  0.49285075777E+03  0.50400001928E-02 0. -1.
    10030    2    1    2    0    0  0.00000000000E+00  0.00000000000E+00 -0.36688921406E+03  0.61881230156E+03  0.49831814051E+03 0.  0.
        5    1    3    3  502    0 -0.94708839341E+02  0.20751511010E+02  0.10151509197E+03  0.14045566330E+03  0.46999998093E+01 0.  1.
       -5    1    3    3    0  502  0.94708839341E+02 -0.20751511010E+02 -0.46840430603E+03  0.47835663825E+03  0.46999998093E+01 0. -1.
</event>
<event>
 5   0  0.1123271E-01  0.4989880E+03  0.7818609E-02  0.1014043E+00
       -1   -1    0    0    0  501  0.00000000000E+00  0.00000000000E+00  0.69670019389E+03  0.69670019391E+03  0.50400001928E-02 0. -1.
        1   -1    0    0  501    0  0.00000000000E+00  0.00000000000E+00 -0.89345827945E+02  0.89345828088E+02  0.50400001928E-02 0.  1.
    10030    2    1    2    0    0  0.00000000000E+00  0.00000000000E+00  0.60735436594E+03  0.78604602199E+03  0.49898799872E+03 0.  0.
        5    1    3    3  502    0 -0.21040727981E+03  0.23687475653E+02  0.51142821854E+03  0.55354605284E+03  0.46999998093E+01 0. -1.
       -5    1    3    3    0  502  0.21040727981E+03 -0.23687475653E+02  0.95926147403E+02  0.23249996915E+03  0.46999998093E+01 0.  1.
</event>
<event>
 5   0  0.7220250E-02  0.5106085E+03  0.7818609E-02  0.1011046E+00
       -3   -1    0    0    0  501  0.00000000000E+00  0.00000000000E+00  0.15466061818E+03  0.15466065116E+03  0.10100000352E+00 0. -1.
        3   -1    0    0  501    0  0.00000000000E+00  0.00000000000E+00 -0.42144042073E+03  0.42144043283E+03  0.10100000352E+00 0.  1.
    10030    2    1    2    0    0  0.00000000000E+00  0.00000000000E+00 -0.26677980255E+03  0.57610108399E+03  0.51060845658E+03 0.  0.
        5    1    3    3  502    0 -0.78382589384E+02 -0.23856405585E+03 -0.81667647014E+02  0.26409909812E+03  0.46999998093E+01 0. -1.
       -5    1    3    3    0  502  0.78382589384E+02  0.23856405585E+03 -0.18511215553E+03  0.31200198587E+03  0.46999998093E+01 0.  1.
</event>
<event>
 5   0  0.1709372E-01  0.5021852E+03  0.7818609E-02  0.1013210E+00
        2   -1    0    0  501    0  0.00000000000E+00  0.00000000000E+00  0.40081204002E+03  0.40081204003E+03  0.25500000920E-02 0. -1.
       -2   -1    0    0    0  501  0.00000000000E+00  0.00000000000E+00 -0.15729941040E+03  0.15729941042E+03  0.25500000920E-02 0.  1.
    10030    2    1    2    0    0  0.00000000000E+00  0.00000000000E+00  0.24351262962E+03  0.55811145045E+03  0.50218521517E+03 0.  0.
        4    1    3    3  502    0 -0.20769510472E+01 -0.13679178237E+03  0.35574982629E+03  0.38115070150E+03  0.12699999809E+01 0. -1.
       -4    1    3    3    0  502  0.20769510472E+01  0.13679178237E+03 -0.11223719667E+03  0.17696074894E+03  0.12699999809E+01 0.  1.
</event>
<event>
 5   0  0.1683148E-01  0.4980696E+03  0.7818609E-02  0.1014284E+00
       -2   -1    0    0    0  501  0.00000000000E+00  0.00000000000E+00  0.17961484202E+03  0.17961484203E+03  0.25500000920E-02 0.  1.
        2   -1    0    0  501    0  0.00000000000E+00  0.00000000000E+00 -0.34528513761E+03  0.34528513762E+03  0.25500000920E-02 0. -1.
    10030    2    1    2    0    0  0.00000000000E+00  0.00000000000E+00 -0.16567029559E+03  0.52489997965E+03  0.49806961541E+03 0.  0.
        2    1    3    3  502    0 -0.13707623550E+02  0.12745299522E+03  0.14217549622E+03  0.19143154564E+03  0.25500000920E-02 0.  1.
       -2    1    3    3    0  502  0.13707623550E+02 -0.12745299522E+03 -0.30784579182E+03  0.33346843401E+03  0.25500000920E-02 0. -1.
</event>
<event>
 5   0  0.7220250E-02  0.4986687E+03  0.7818609E-02  0.1014127E+00
       -4   -1    0    0    0  501  0.00000000000E+00  0.00000000000E+00  0.28664904027E+03  0.28665185363E+03  0.12699999809E+01 0.  1.
        4   -1    0    0  501    0  0.00000000000E+00  0.00000000000E+00 -0.21687141756E+03  0.21687513609E+03  0.12699999809E+01 0. -1.
    10030    2    1    2    0    0  0.00000000000E+00  0.00000000000E+00  0.69777622716E+02  0.50352698972E+03  0.49866874049E+03 0.  0.
        5    1    3    3  502    0 -0.94030751373E+02  0.10925336353E+03  0.24026024249E+03  0.28022339975E+03  0.46999998093E+01 0.  1.
       -5    1    3    3    0  502  0.94030751373E+02 -0.10925336353E+03 -0.17048261978E+03  0.22330358997E+03  0.46999998093E+01 0. -1.
</event>
<event>
 5   0  0.7220250E-02  0.4931785E+03  0.7818609E-02  0.1015575E+00
        3   -1    0    0  501    0  0.00000000000E+00  0.00000000000E+00  0.17973215895E+03  0.17973218733E+03  0.10100000352E+00 0.  1.
       -3   -1    0    0    0  501  0.00000000000E+00  0.00000000000E+00 -0.33831592764E+03  0.33831594271E+03  0.10100000352E+00 0. -1.
    10030    2    1    2    0    0  0.00000000000E+00  0.00000000000E+00 -0.15858376868E+03  0.51804813004E+03  0.49317852077E+03 0.  0.
        5    1    3    3  502    0 -0.12144549886E+03  0.95951690101E+01  0.14586026121E+03  0.19010097912E+03  0.46999998093E+01 0.  1.
       -5    1    3    3    0  502  0.12144549886E+03 -0.95951690101E+01 -0.30444402990E+03  0.32794715092E+03  0.46999998093E+01 0. -1.
</event>
<event>
 5   0  0.7220250E-02  0.4996488E+03  0.7818609E-02  0.1013871E+00
        4   -1    0    0  501    0  0.00000000000E+00  0.00000000000E+00  0.53767624812E+03  0.53767774800E+03  0.12699999809E+01 0. -1.
       -4   -1    0    0    0  501  0.00000000000E+00  0.00000000000E+00 -0.11607259116E+03  0.11607953876E+03  0.12699999809E+01 0.  1.
    10030    2    1    2    0    0  0.00000000000E+00  0.00000000000E+00  0.42160365696E+03  0.65375728676E+03  0.49964882310E+03 0.  0.
        2    1    3    3  502    0  0.94770888181E+02 -0.82502191660E+02 -0.71723196427E+02  0.14468016377E+03  0.25500000920E-02 0.  1.
       -2    1    3    3    0  502 -0.94770888181E+02  0.82502191660E+02  0.49332685339E+03  0.50907712299E+03  0.25500000920E-02 0. -1.
</event>
<event>
 5   0  0.1827698E-01  0.5164911E+03  0.7818609E-02  0.1009562E+00
        2   -1    0    0  501    0  0.00000000000E+00  0.00000000000E+00  0.26144250035E+04  0.26144250035E+04  0.25500000920E-02 0. -1.
       -2   -1    0    0    0  501  0.00000000000E+00  0.00000000000E+00 -0.25508767626E+02  0.25508767753E+02  0.25500000920E-02 0.  1.
    10030    2    1    2    0    0  0.00000000000E+00  0.00000000000E+00  0.25889162359E+04  0.26399337712E+04  0.51649108437E+03 0.  0.
        1    1    3    3  502    0  0.21027171390E+02  0.70582216839E+02  0.29306163894E+02  0.79264383793E+02  0.50400001928E-02 0.  1.
       -1    1    3    3    0  502 -0.21027171390E+02 -0.70582216839E+02  0.25596100720E+04  0.25606693875E+04  0.50400001928E-02 0. -1.
</event>
<event>
 5   0  0.1074281E-01  0.5106029E+03  0.7818609E-02  0.1011048E+00
       -1   -1    0    0    0  501  0.00000000000E+00  0.00000000000E+00  0.18350509374E+03  0.18350509381E+03  0.50400001928E-02 0.  1.
        1   -1    0    0  501    0  0.00000000000E+00  0.00000000000E+00 -0.35518812095E+03  0.35518812098E+03  0.50400001928E-02 0. -1.
    10030    2    1    2    0    0  0.00000000000E+00  0.00000000000E+00 -0.17168302720E+03  0.53869321479E+03  0.51060289642E+03 0.  0.
        4    1    3    3  502    0  0.17374020969E+03  0.37912342623E+02  0.10741393308E+03  0.20775555854E+03  0.12699999809E+01 0.  1.
       -4    1    3    3    0  502 -0.17374020969E+03 -0.37912342623E+02 -0.27909696028E+03  0.33093765625E+03  0.12699999809E+01 0. -1.
</event>
<event>
 5   0  0.1123271E-01  0.5011693E+03  0.7818609E-02  0.1013474E+00
        1   -1    0    0  501    0  0.00000000000E+00  0.00000000000E+00  0.62388690647E+03  0.62388690649E+03  0.50400001928E-02 0.  1.
       -1   -1    0    0    0  501  0.00000000000E+00  0.00000000000E+00 -0.10064751180E+03  0.10064751193E+03  0.50400001928E-02 0. -1.
    10030    2    1    2    0    0  0.00000000000E+00  0.00000000000E+00  0.52323939467E+03  0.72453441841E+03  0.50116929209E+03 0.  0.
        5    1    3    3  502    0 -0.77782937303E+02  0.20058364462E+03  0.44724620775E+03  0.49632171438E+03  0.46999998093E+01 0.  1.
       -5    1    3    3    0  502  0.77782937303E+02 -0.20058364462E+03  0.75993186920E+02  0.22821270403E+03  0.46999998093E+01 0. -1.
</event>
<event>
 5   0  0.1074281E-01  0.5010449E+03  0.7818609E-02  0.1013507E+00
        1   -1    0    0  501    0  0.00000000000E+00  0.00000000000E+00  0.64971719438E+02  0.64971719634E+02  0.50400001928E-02 0.  1.
       -1   -1    0    0    0  501  0.00000000000E+00  0.00000000000E+00 -0.96598180213E+03  0.96598180215E+03  0.50400001928E-02 0. -1.
    10030    2    1    2    0    0  0.00000000000E+00  0.00000000000E+00 -0.90101008269E+03  0.10309535218E+04  0.50104490313E+03 0.  0.
        4    1    3    3  502    0 -0.58998085670E+02 -0.22776523466E+03 -0.27347776253E+03  0.36076235354E+03  0.12699999809E+01 0.  1.
       -4    1    3    3    0  502  0.58998085670E+02  0.22776523466E+03 -0.62753232016E+03  0.67019116823E+03  0.12699999809E+01 0. -1.
</event>
<event>
 5   0  0.1141970E-01  0.5061365E+03  0.7818609E-02  0.1012189E+00
       -1   -1    0    0    0  501  0.00000000000E+00  0.00000000000E+00  0.43710839074E+03  0.43710839077E+03  0.50400001928E-02 0.  1.
        1   -1    0    0  501    0  0.00000000000E+00  0.00000000000E+00 -0.14651640199E+03  0.14651640207E+03  0.50400001928E-02 0. -1.
    10030    2    1    2    0    0  0.00000000000E+00  0.00000000000E+00  0.29059198875E+03  0.58362479284E+03  0.50613653780E+03 0.  0.
        3    1    3    3  502    0 -0.20089272922E+03  0.12477858960E+03  0.41415067396E+02  0.24008915653E+03  0.10100000352E+00 0.  1.
       -3    1    3    3    0  502  0.20089272922E+03 -0.12477858960E+03  0.24917692136E+03  0.34353563631E+03  0.10100000352E+00 0. -1.
</event>
<event>
 5   0  0.7220250E-02  0.4987708E+03  0.7818609E-02  0.1014100E+00
       -3   -1    0    0    0  501  0.00000000000E+00  0.00000000000E+00  0.36061563562E+03  0.36061564976E+03  0.10100000352E+00 0. -1.
        3   -1    0    0  501    0  0.00000000000E+00  0.00000000000E+00 -0.17246355257E+03  0.17246358214E+03  0.10100000352E+00 0.  1.
    10030    2    1    2    0    0  0.00000000000E+00  0.00000000000E+00  0.18815208305E+03  0.53307923191E+03  0.49877075008E+03 0.  0.
        5    1    3    3  502    0 -0.55577602535E+02  0.92805808256E+02 -0.14603047242E+03  0.18179322546E+03  0.46999998093E+01 0.  1.
       -5    1    3    3    0  502  0.55577602535E+02 -0.92805808256E+02  0.33418255547E+03  0.35128600645E+03  0.46999998093E+01 0. -1.
</event>
<event>
 5   0  0.1827698E-01  0.5011079E+03  0.7818609E-02  0.1013490E+00
        2   -1    0    0  501    0  0.00000000000E+00  0.00000000000E+00  0.34593999548E+03  0.34593999549E+03  0.25500000920E-02 0.  1.
       -2   -1    0    0    0  501  0.00000000000E+00  0.00000000000E+00 -0.18146872050E+03  0.18146872051E+03  0.25500000920E-02 0. -1.
    10030    2    1    2    0    0  0.00000000000E+00  0.00000000000E+00  0.16447127499E+03  0.52740871601E+03  0.50110792593E+03 0.  0.
        1    1    3    3  502    0 -0.15899502054E+03  0.67985386502E+02  0.27306912419E+03  0.32321537084E+03  0.50400001928E-02 0.  1.
       -1    1    3    3    0  502  0.15899502054E+03 -0.67985386502E+02 -0.10859784920E+03  0.20419334517E+03  0.50400001928E-02 0. -1.
</event>
<event>
 5   0  0.1827698E-01  0.4994076E+03  0.7818609E-02  0.1013934E+00
       -2   -1    0    0    0  501  0.00000000000E+00  0.00000000000E+00  0.74947398077E+02  0.74947398120E+02  0.25500000920E-02 0.  1.
        2   -1    0    0  501    0  0.00000000000E+00  0.00000000000E+00 -0.83194337230E+03  0.83194337230E+03  0.25500000920E-02 0. -1.
    10030    2    1    2    0    0  0.00000000000E+00  0.00000000000E+00 -0.75699597422E+03  0.90689077042E+03  0.49940761357E+03 0.  0.
        1    1    3    3  502    0  0.21099945236E+03 -0.11244660034E+03 -0.24771318230E+03  0.34427725387E+03  0.50400001928E-02 0.  1.
       -1    1    3    3    0  502 -0.21099945236E+03  0.11244660034E+03 -0.50928279193E+03  0.56261351655E+03  0.50400001928E-02 0. -1.
</event>
<event>
 5   0  0.1123271E-01  0.4694993E+03  0.7818609E-02  0.1022062E+00
        1   -1    0    0  501    0  0.00000000000E+00  0.00000000000E+00  0.83868427316E+03  0.83868427318E+03  0.50400001928E-02 0.  1.
       -1   -1    0    0    0  501  0.00000000000E+00  0.00000000000E+00 -0.65706969335E+02  0.65706969528E+02  0.50400001928E-02 0. -1.
    10030    2    1    2    0    0  0.00000000000E+00  0.00000000000E+00  0.77297730383E+03  0.90439124270E+03  0.46949931592E+03 0.  0.
        5    1    3    3  502    0 -0.10411731408E+03 -0.16463098971E+03  0.63868931693E+03  0.66774988688E+03  0.46999998093E+01 0.  1.
       -5    1    3    3    0  502  0.10411731408E+03  0.16463098971E+03  0.13428798689E+03  0.23664135583E+03  0.46999998093E+01 0. -1.
</event>
<event>
 5   0  0.1709372E-01  0.4971985E+03  0.7818609E-02  0.1014513E+00
       -2   -1    0    0    0  501  0.00000000000E+00  0.00000000000E+00  0.40868035977E+02  0.40868036057E+02  0.25500000920E-02 0. -1.
        2   -1    0    0  501    0  0.00000000000E+00  0.00000000000E+00 -0.15122232362E+04  0.15122232362E+04  0.25500000920E-02 0.  1.
    10030    2    1    2    0    0  0.00000000000E+00  0.00000000000E+00 -0.14713552003E+04  0.15530912723E+04  0.49719852649E+03 0.  0.
        4    1    3    3  502    0 -0.66999805128E+02 -0.23924128987E+03 -0.76265945778E+03  0.80210749286E+03  0.12699999809E+01 0.  1.
       -4    1    3    3    0  502  0.66999805128E+02  0.23924128987E+03 -0.70869574248E+03  0.75098377943E+03  0.12699999809E+01 0. -1.
</event>
<event>
 5   0  0.1068522E-01  0.5068122E+03  0.7818609E-02  0.1012016E+00
        1   -1    0    0  501    0  0.00000000000E+00  0.00000000000E+00  0.14480349956E+03  0.14480349965E+03  0.50400001928E-02 0.  1.
       -1   -1    0    0    0  501  0.00000000000E+00  0.00000000000E+00 -0.44346069004E+03  0.44346069007E+03  0.50400001928E-02 0. -1.
    10030    2    1    2    0    0  0.00000000000E+00  0.00000000000E+00 -0.29865719048E+03  0.58826418972E+03  0.50681223297E+03 0.  0.
        2    1    3    3  502    0 -0.12511485674E+03 -0.63789567083E+02  0.95501852179E+02  0.16983356565E+03  0.25500000920E-02 0.  1.
       -2    1    3    3    0  502  0.12511485674E+03  0.63789567083E+02 -0.39415904265E+03  0.41843062407E+03  0.25500000920E-02 0. -1.
</event>
<event>
 5   0  0.1760649E-01  0.5043807E+03  0.7818609E-02  0.1012642E+00
       -2   -1    0    0    0  501  0.00000000000E+00  0.00000000000E+00  0.31520886643E+03  0.31520886644E+03  0.25500000920E-02 0.  1.
        2   -1    0    0  501    0  0.00000000000E+00  0.00000000000E+00 -0.20177091842E+03  0.20177091844E+03  0.25500000920E-02 0. -1.
    10030    2    1    2    0    0  0.00000000000E+00  0.00000000000E+00  0.11343794801E+03  0.51697978487E+03  0.50438073905E+03 0.  0.
        5    1    3    3  502    0 -0.21827458287E+02 -0.24950249061E+03  0.86601324347E+02  0.26504680743E+03  0.46999998093E+01 0. -1.
       -5    1    3    3    0  502  0.21827458287E+02  0.24950249061E+03  0.26836623660E+02  0.25193297744E+03  0.46999998093E+01 0.  1.
</event>
<event>
 5   0  0.1760649E-01  0.5024141E+03  0.7818609E-02  0.1013151E+00
       -2   -1    0    0    0  501  0.00000000000E+00  0.00000000000E+00  0.11619749656E+03  0.11619749659E+03  0.25500000920E-02 0. -1.
        2   -1    0    0  501    0  0.00000000000E+00  0.00000000000E+00 -0.54308386376E+03  0.54308386376E+03  0.25500000920E-02 0.  1.
    10030    2    1    2    0    0  0.00000000000E+00  0.00000000000E+00 -0.42688636720E+03  0.65928136035E+03  0.50241411366E+03 0.  0.
        5    1    3    3  502    0  0.21263872635E+03  0.32778135454E+02 -0.43393241259E+02  0.21953290754E+03  0.46999998093E+01 0. -1.
       -5    1    3    3    0  502 -0.21263872635E+03 -0.32778135454E+02 -0.38349312594E+03  0.43974845281E+03  0.46999998093E+01 0.  1.
</event>
<event>
 5   0  0.1782124E-01  0.4990397E+03  0.7818609E-02  0.1014030E+00
       -2   -1    0    0    0  501  0.00000000000E+00  0.00000000000E+00  0.13340666523E+03  0.13340666525E+03  0.25500000920E-02 0. -1.
        2   -1    0    0  501    0  0.00000000000E+00  0.00000000000E+00 -0.46669441391E+03  0.46669441392E+03  0.25500000920E-02 0.  1.
    10030    2    1    2    0    0  0.00000000000E+00  0.00000000000E+00 -0.33328774868E+03  0.60010107917E+03  0.49903965954E+03 0.  0.
        3    1    3    3  502    0  0.18108581027E+03 -0.79263462393E+01 -0.37285006202E+03  0.41457457302E+03  0.10100000352E+00 0.  1.
       -3    1    3    3    0  502 -0.18108581027E+03  0.79263462393E+01  0.39562313331E+02  0.18552650615E+03  0.10100000352E+00 0. -1.
</event>
<event>
 5   0  0.1760649E-01  0.5016811E+03  0.7818609E-02  0.1013341E+00
       -2   -1    0    0    0  501  0.00000000000E+00  0.00000000000E+00  0.91558633314E+02  0.91558633350E+02  0.25500000920E-02 0. -1.
        2   -1    0    0  501    0  0.00000000000E+00  0.00000000000E+00 -0.68722069914E+03  0.68722069915E+03  0.25500000920E-02 0.  1.
    10030    2    1    2    0    0  0.00000000000E+00  0.00000000000E+00 -0.59566206583E+03  0.77877933250E+03  0.50168112587E+03 0.  0.
        5    1    3    3  502    0  0.21218563136E+03 -0.64030282963E+02 -0.11562925284E+03  0.25002966505E+03  0.46999998093E+01 0. -1.
       -5    1    3    3    0  502 -0.21218563136E+03  0.64030282963E+02 -0.48003281299E+03  0.52874966745E+03  0.46999998093E+01 0.  1.
</event>
<event>
 5   0  0.1683148E-01  0.4958776E+03  0.7818609E-02  0.1014861E+00
       -2   -1    0    0    0  501  0.00000000000E+00  0.00000000000E+00  0.82693608296E+02  0.82693608335E+02  0.25500000920E-02 0.  1.
        2   -1    0    0  501    0  0.00000000000E+00  0.00000000000E+00 -0.74339051099E+03  0.74339051099E+03  0.25500000920E-02 0. -1.
    10030    2    1    2    0    0  0.00000000000E+00  0.00000000000E+00 -0.66069690269E+03  0.82608411933E+03  0.49587758064E+03 0.  0.
        2    1    3    3  502    0  0.63331634232E+02 -0.10879891365E+02 -0.72927708969E+03  0.73210268507E+03  0.25500000920E-02 0. -1.
       -2    1    3    3    0  502 -0.63331634232E+02  0.10879891365E+02  0.68580186997E+02  0.93981434261E+02  0.25500000920E-02 0.  1.
</event>
<event>
 5   0  0.1760649E-01  0.5125975E+03  0.7818609E-02  0.1010542E+00
       -2   -1    0    0    0  501  0.00000000000E+00  0.00000000000E+00  0.18391663738E+03  0.18391663740E+03  0.25500000920E-02 0. -1.
        2   -1    0    0  501    0  0.00000000000E+00  0.00000000000E+00 -0.35716746050E+03  0.35716746050E+03  0.25500000920E-02 0.  1.
    10030    2    1    2    0    0  0.00000000000E+00  0.00000000000E+00 -0.17325082311E+03  0.54108409791E+03  0.51259745736E+03 0.  0.
        5    1    3    3  502    0  0.78319200121E+02 -0.16564210901E+02 -0.34358468917E+03  0.35281836519E+03  0.46999998093E+01 0.  1.
       -5    1    3    3    0  502 -0.78319200121E+02  0.16564210901E+02  0.17033386605E+03  0.18826573271E+03  0.46999998093E+01 0. -1.
</event>
<event>
 5   0  0.1683148E-01  0.5013616E+03  0.7818609E-02  0.1013424E+00
       -2   -1    0    0    0  501  0.00000000000E+00  0.00000000000E+00  0.12687374041E+03  0.12687374044E+03  0.25500000920E-02 0.  1.
        2   -1    0    0  501    0  0.00000000000E+00  0.00000000000E+00 -0.49530242627E+03  0.49530242628E+03  0.25500000920E-02 0. -1.
    10030    2    1    2    0    0  0.00000000000E+00  0.00000000000E+00 -0.36842868586E+03  0.62217616672E+03  0.50136163182E+03 0.  0.
        2    1    3    3  502    0  0.34907823801E+02  0.24676530366E+03 -0.21772521015E+03  0.33093192411E+03  0.25500000920E-02 0.  1.
       -2    1    3    3    0  502 -0.34907823801E+02 -0.24676530366E+03 -0.15070347571E+03  0.29124424261E+03  0.25500000920E-02 0. -1.
</event>
<event>
 5   0  0.1709372E-01  0.4957123E+03  0.7818609E-02  0.1014904E+00
       -2   -1    0    0    0  501  0.00000000000E+00  0.00000000000E+00  0.63231946559E+03  0.63231946560E+03  0.25500000920E-02 0. -1.
        2   -1    0    0  501    0  0.00000000000E+00  0.00000000000E+00 -0.97154480387E+02  0.97154480420E+02  0.25500000920E-02 0.  1.
    10030    2    1    2    0    0  0.00000000000E+00  0.00000000000E+00  0.53516498521E+03  0.72947394602E+03  0.49571229209E+03 0.  0.
        4    1    3    3  502    0 -0.47934454411E+02 -0.40087010121E+02  0.62053283257E+03  0.62367242163E+03  0.12699999809E+01 0. -1.
       -4    1    3    3    0  502  0.47934454411E+02  0.40087010121E+02 -0.85367847364E+02  0.10580152439E+03  0.12699999809E+01 0.  1.
</event>
<event>
 5   0  0.1827698E-01  0.5068369E+03  0.7818609E-02  0.1012010E+00
        2   -1    0    0  501    0  0.00000000000E+00  0.00000000000E+00  0.26162436627E+03  0.26162436628E+03  0.25500000920E-02 0. -1.
       -2   -1    0    0    0  501  0.00000000000E+00  0.00000000000E+00 -0.24546991117E+03  0.24546991118E+03  0.25500000920E-02 0.  1.
    10030    2    1    2    0    0  0.00000000000E+00  0.00000000000E+00  0.16154455104E+02  0.50709427746E+03  0.50683689666E+03 0.  0.
        1    1    3    3  502    0 -0.37155153334E+02 -0.29355235355E+02 -0.24100436229E+03  0.24561216975E+03  0.50400001928E-02 0.  1.
       -1    1    3    3    0  502  0.37155153334E+02  0.29355235355E+02  0.25715881740E+03  0.26148210771E+03  0.50400001928E-02 0. -1.
</event>
<event>
 5   0  0.1147245E-01  0.5016101E+03  0.7818609E-02  0.1013360E+00
        1   -1    0    0  501    0  0.00000000000E+00  0.00000000000E+00  0.84076648152E+02  0.84076648303E+02  0.50400001928E-02 0. -1.
       -1   -1    0    0    0  501  0.00000000000E+00  0.00000000000E+00 -0.74816452779E+03  0.74816452781E+03  0.50400001928E-02 0.  1.
    10030    2    1    2    0    0  0.00000000000E+00  0.00000000000E+00 -0.66408787964E+03  0.83224117611E+03  0.50161007100E+03 0.  0.
        1    1    3    3  502    0 -0.16149339456E+03  0.84156342205E+01 -0.13972424021E+02  0.16231502716E+03  0.50400001928E-02 0. -1.
       -1    1    3    3    0  502  0.16149339456E+03 -0.84156342205E+01 -0.65011545562E+03  0.66992614895E+03  0.50400001928E-02 0.  1.
</event>
<event>
 5   0  0.1123271E-01  0.5025697E+03  0.7818609E-02  0.1013110E+00
        1   -1    0    0  501    0  0.00000000000E+00  0.00000000000E+00  0.15708550645E+03  0.15708550653E+03  0.50400001928E-02 0.  1.
       -1   -1    0    0    0  501  0.00000000000E+00  0.00000000000E+00 -0.40197259109E+03  0.40197259113E+03  0.50400001928E-02 0. -1.
    10030    2    1    2    0    0  0.00000000000E+00  0.00000000000E+00 -0.24488708464E+03  0.55905809766E+03  0.50256966913E+03 0.  0.
        5    1    3    3  502    0  0.62336670363E+02  0.94069986145E+02  0.12725713818E+03  0.17015137961E+03  0.46999998093E+01 0.  1.
       -5    1    3    3    0  502 -0.62336670363E+02 -0.94069986145E+02 -0.37214422282E+03  0.38890671805E+03  0.46999998093E+01 0. -1.
</event>
<event>
 5   0  0.7220250E-02  0.4906274E+03  0.7818609E-02  0.1016255E+00
       -4   -1    0    0    0  501  0.00000000000E+00  0.00000000000E+00  0.33626256054E+03  0.33626495881E+03  0.12699999809E+01 0.  1.
        4   -1    0    0  501    0  0.00000000000E+00  0.00000000000E+00 -0.17895848194E+03  0.17896298823E+03  0.12699999809E+01 0. -1.
    10030    2    1    2    0    0  0.00000000000E+00  0.00000000000E+00  0.15730407860E+03  0.51522794704E+03  0.49062741899E+03 0.  0.
        5    1    3    3  502    0 -0.20183645449E+02  0.24428536350E+03  0.69617914936E+02  0.25485576792E+03  0.46999998093E+01 0. -1.
       -5    1    3    3    0  502  0.20183645449E+02 -0.24428536350E+03  0.87686163667E+02  0.26037217912E+03  0.46999998093E+01 0.  1.
</event>
<event>
 5   0  0.1123271E-01  0.5049219E+03  0.7818609E-02  0.1012502E+00
        1   -1    0    0  501    0  0.00000000000E+00  0.00000000000E+00  0.32127676988E+03  0.32127676992E+03  0.50400001928E-02 0. -1.
       -1   -1    0    0    0  501  0.00000000000E+00  0.00000000000E+00 -0.19838514017E+03  0.19838514023E+03  0.50400001928E-02 0.  1.
    10030    2    1    2    0    0  0.00000000000E+00  0.00000000000E+00  0.12289162971E+03  0.51966191015E+03  0.50492192288E+03 0.  0.
        5    1    3    3  502    0 -0.19088177830E+03 -0.15872408451E+03  0.10844351820E+03  0.27094515114E+03  0.46999998093E+01 0. -1.
       -5    1    3    3    0  502  0.19088177830E+03  0.15872408451E+03  0.14448111511E+02  0.24871675901E+03  0.46999998093E+01 0.  1.
</event>
<event>
 5   0  0.1827698E-01  0.4962459E+03  0.7818609E-02  0.1014763E+00
        2   -1    0    0  501    0  0.00000000000E+00  0.00000000000E+00  0.99567343284E+03  0.99567343284E+03  0.25500000920E-02 0.  1.
       -2   -1    0    0    0  501  0.00000000000E+00  0.00000000000E+00 -0.61832512526E+02  0.61832512579E+02  0.25500000920E-02 0. -1.
    10030    2    1    2    0    0  0.00000000000E+00  0.00000000000E+00  0.93384092032E+03  0.10575059454E+04  0.49624586663E+03 0.  0.
        1    1    3    3  502    0  0.10548319060E+03  0.92493187378E+02  0.30800117156E+02  0.14363265803E+03  0.50400001928E-02 0. -1.
       -1    1    3    3    0  502 -0.10548319060E+03 -0.92493187378E+02  0.90304080316E+03  0.91387328739E+03  0.50400001928E-02 0.  1.
</event>
<event>
 5   0  0.1709372E-01  0.5409845E+03  0.7818609E-02  0.1003602E+00
        2   -1    0    0  501    0  0.00000000000E+00  0.00000000000E+00  0.10066555225E+04  0.10066555225E+04  0.25500000920E-02 0. -1.
       -2   -1    0    0    0  501  0.00000000000E+00  0.00000000000E+00 -0.72682331088E+02  0.72682331133E+02  0.25500000920E-02 0.  1.
    10030    2    1    2    0    0  0.00000000000E+00  0.00000000000E+00  0.93397319146E+03  0.10793378537E+04  0.54098454694E+03 0.  0.
        4    1    3    3  502    0 -0.23379725082E+03  0.91767585799E+02  0.66731667886E+03  0.71301865830E+03  0.12699999809E+01 0.  1.
       -4    1    3    3    0  502  0.23379725082E+03 -0.91767585799E+02  0.26665651259E+03  0.36631919538E+03  0.12699999809E+01 0. -1.
</event>
<event>
 5   0  0.1074281E-01  0.5021442E+03  0.7818609E-02  0.1013221E+00
        1   -1    0    0  501    0  0.00000000000E+00  0.00000000000E+00  0.72566038772E+03  0.72566038774E+03  0.50400001928E-02 0. -1.
       -1   -1    0    0    0  501  0.00000000000E+00  0.00000000000E+00 -0.86868742348E+02  0.86868742494E+02  0.50400001928E-02 0.  1.
    10030    2    1    2    0    0  0.00000000000E+00  0.00000000000E+00  0.63879164537E+03  0.81252913023E+03  0.50214422358E+03 0.  0.
        4    1    3    3  502    0  0.24526520993E+03  0.48237922864E+02  0.35747054600E+03  0.43619803365E+03  0.12699999809E+01 0. -1.
       -4    1    3    3    0  502 -0.24526520993E+03 -0.48237922864E+02  0.28132109937E+03  0.37633109658E+03  0.12699999809E+01 0.  1.
</event>
<event>
 5   0  0.1068522E-01  0.4943667E+03  0.7818609E-02  0.1015260E+00
        1   -1    0    0  501    0  0.00000000000E+00  0.00000000000E+00  0.76582460470E+03  0.76582460472E+03  0.50400001928E-02 0.  1.
       -1   -1    0    0    0  501  0.00000000000E+00  0.00000000000E+00 -0.79782785156E+02  0.79782785315E+02  0.50400001928E-02 0. -1.
    10030    2    1    2    0    0  0.00000000000E+00  0.00000000000E+00  0.68604181955E+03  0.84560739003E+03  0.49436674637E+03 0.  0.
        2    1    3    3  502    0  0.15734182714E+03  0.18352575278E+03  0.43126387655E+03  0.49439527073E+03  0.25500000920E-02 0.  1.
       -2    1    3    3    0  502 -0.15734182714E+03 -0.18352575278E+03  0.25477794300E+03  0.35121211930E+03  0.25500000920E-02 0. -1.
</event>
<event>
 5   0  0.1068522E-01  0.4627075E+03  0.7818609E-02  0.1023999E+00
        1   -1    0    0  501    0  0.00000000000E+00  0.00000000000E+00  0.25580526162E+03  0.25580526167E+03  0.50400001928E-02 0. -1.
       -1   -1    0    0    0  501  0.00000000000E+00  0.00000000000E+00 -0.20923950394E+03  0.20923950400E+03  0.50400001928E-02 0.  1.
    10030    2    1    2    0    0  0.00000000000E+00  0.00000000000E+00  0.46565757684E+02  0.46504476567E+03  0.46270753646E+03 0.  0.
        2    1    3    3  502    0  0.53386108412E+02  0.22448720257E+03  0.64655947176E+01  0.23083843833E+03  0.25500000920E-02 0.  1.
       -2    1    3    3    0  502 -0.53386108412E+02 -0.22448720257E+03  0.40100162967E+02  0.23420632734E+03  0.25500000920E-02 0. -1.
</event>
<event>
 5   0  0.1683148E-01  0.4946745E+03  0.7818609E-02  0.1015178E+00
        2   -1    0    0  501    0  0.00000000000E+00  0.00000000000E+00  0.13423416787E+04  0.13423416787E+04  0.25500000920E-02 0.  1.
       -2   -1    0    0    0  501  0.00000000000E+00  0.00000000000E+00 -0.45573873766E+02  0.45573873838E+02  0.25500000920E-02 0. -1.
    10030    2    1    2    0    0  0.00000000000E+00  0.00000000000E+00  0.12967678049E+04  0.13879155525E+04  0.49467447990E+03 0.  0.
        2    1    3    3  502    0  0.24181195966E+03  0.32858201185E+02  0.53535067027E+03  0.58834770789E+03  0.25500000920E-02 0. -1.
       -2    1    3    3    0  502 -0.24181195966E+03 -0.32858201185E+02  0.76141713466E+03  0.79956784464E+03  0.25500000920E-02 0.  1.
</event>
<event>
 5   0  0.1074281E-01  0.5032001E+03  0.7818609E-02  0.1012947E+00
       -1   -1    0    0    0  501  0.00000000000E+00  0.00000000000E+00  0.60702633920E+02  0.60702634130E+02  0.50400001928E-02 0.  1.
        1   -1    0    0  501    0  0.00000000000E+00  0.00000000000E+00 -0.10428307711E+04  0.10428307712E+04  0.50400001928E-02 0. -1.
    10030    2    1    2    0    0  0.00000000000E+00  0.00000000000E+00 -0.98212813723E+03  0.11035334053E+04  0.50320005828E+03 0.  0.
        4    1    3    3  502    0  0.64212724339E+02  0.89446462815E+02  0.50508539166E+01  0.11023188151E+03  0.12699999809E+01 0.  1.
       -4    1    3    3    0  502 -0.64212724339E+02 -0.89446462815E+02 -0.98717899114E+03  0.99330152377E+03  0.12699999809E+01 0. -1.
</event>
<event>
 5   0  0.1068522E-01  0.4987675E+03  0.7818609E-02  0.1014101E+00
       -1   -1    0    0    0  501  0.00000000000E+00  0.00000000000E+00  0.12969064158E+03  0.12969064168E+03  0.50400001928E-02 0. -1.
        1   -1    0    0  501    0  0.00000000000E+00  0.00000000000E+00 -0.47954308659E+03  0.47954308662E+03  0.50400001928E-02 0.  1.
    10030    2    1    2    0    0  0.00000000000E+00  0.00000000000E+00 -0.34985244502E+03  0.60923372830E+03  0.49876748331E+03 0.  0.
        2    1    3    3  502    0 -0.51365623277E+02  0.23951640401E+03 -0.23203233906E+03  0.33741004938E+03  0.25500000920E-02 0.  1.
       -2    1    3    3    0  502  0.51365623277E+02 -0.23951640401E+03 -0.11782010596E+03  0.27182367892E+03  0.25500000920E-02 0. -1.
</event>
<event>
 5   0  0.1141970E-01  0.5047469E+03  0.7818609E-02  0.1012547E+00
       -1   -1    0    0    0  501  0.00000000000E+00  0.00000000000E+00  0.11479776462E+03  0.11479776473E+03  0.50400001928E-02 0.  1.
        1   -1    0    0  501    0  0.00000000000E+00  0.00000000000E+00 -0.55482238556E+03  0.55482238558E+03  0.50400001928E-02 0. -1.
    10030    2    1    2    0    0  0.00000000000E+00  0.00000000000E+00 -0.44002462094E+03  0.66962015031E+03  0.50474694518E+03 0.  0.
        3    1    3    3  502    0 -0.34418735324E+02  0.15295503853E+03 -0.48238124757E+03  0.50721945089E+03  0.10100000352E+00 0. -1.
       -3    1    3    3    0  502  0.34418735324E+02 -0.15295503853E+03  0.42356626629E+02  0.16240069942E+03  0.10100000352E+00 0.  1.
</event>
<event>
 5   0  0.1074281E-01  0.4819908E+03  0.7818609E-02  0.1018589E+00
       -1   -1    0    0    0  501  0.00000000000E+00  0.00000000000E+00  0.45196608817E+03  0.45196608819E+03  0.50400001928E-02 0.  1.
        1   -1    0    0  501    0  0.00000000000E+00  0.00000000000E+00 -0.12850251832E+03  0.12850251842E+03  0.50400001928E-02 0. -1.
    10030    2    1    2    0    0  0.00000000000E+00  0.00000000000E+00  0.32346356984E+03  0.58046860662E+03  0.48199079063E+03 0.  0.
        4    1    3    3  502    0 -0.16057710361E+03 -0.65655274628E+02  0.36318576515E+03  0.40249364492E+03  0.12699999809E+01 0.  1.
       -4    1    3    3    0  502  0.16057710361E+03  0.65655274628E+02 -0.39722195311E+02  0.17797496170E+03  0.12699999809E+01 0. -1.
</event>
<event>
 5   0  0.1709372E-01  0.4937039E+03  0.7818609E-02  0.1015435E+00
        2   -1    0    0  501    0  0.00000000000E+00  0.00000000000E+00  0.28936547593E+03  0.28936547594E+03  0.25500000920E-02 0.  1.
       -2   -1    0    0    0  501  0.00000000000E+00  0.00000000000E+00 -0.21058448196E+03  0.21058448197E+03  0.25500000920E-02 0. -1.
    10030    2    1    2    0    0  0.00000000000E+00  0.00000000000E+00  0.78780993975E+02  0.49994995791E+03  0.49370387421E+03 0.  0.
        4    1    3    3  502    0  0.80075505725E+02 -0.70771677184E+02 -0.18594106612E+03  0.21446773621E+03  0.12699999809E+01 0. -1.
       -4    1    3    3    0  502 -0.80075505725E+02  0.70771677184E+02  0.26472206009E+03  0.28548222170E+03  0.12699999809E+01 0.  1.
</event>
<event>
 5   0  0.1683148E-01  0.5100167E+03  0.7818609E-02  0.1011197E+00
        2   -1    0    0  501    0  0.00000000000E+00  0.00000000000E+00  0.10215042378E+04  0.10215042378E+04  0.25500000920E-02 0. -1.
       -2   -1    0    0    0  501  0.00000000000E+00  0.00000000000E+00 -0.63660289783E+02  0.63660289834E+02  0.25500000920E-02 0.  1.
    10030    2    1    2    0    0  0.00000000000E+00  0.00000000000E+00  0.95784394802E+03  0.10851645276E+04  0.51001668922E+03 0.  0.
        2    1    3    3  502    0 -0.16304088525E+03  0.11222809661E+03  0.82102461422E+03  0.84454656065E+03  0.25500000920E-02 0. -1.
       -2    1    3    3    0  502  0.16304088525E+03 -0.11222809661E+03  0.13681933379E+03  0.24061796699E+03  0.25500000920E-02 0.  1.
</event>
<event>
 5   0  0.1760649E-01  0.5006309E+03  0.7818609E-02  0.1013614E+00
        2   -1    0    0  501    0  0.00000000000E+00  0.00000000000E+00  0.55134824461E+03  0.55134824461E+03  0.25500000920E-02 0. -1.
       -2   -1    0    0    0  501  0.00000000000E+00  0.00000000000E+00 -0.11364471180E+03  0.11364471182E+03  0.25500000920E-02 0.  1.
    10030    2    1    2    0    0  0.00000000000E+00  0.00000000000E+00  0.43770353281E+03  0.66499295644E+03  0.50063085150E+03 0.  0.
        5    1    3    3  502    0  0.11737868497E+02  0.14736768157E+03  0.48709380046E+03  0.50905547003E+03  0.46999998093E+01 0. -1.
       -5    1    3    3    0  502 -0.11737868497E+02 -0.14736768157E+03 -0.49390267649E+02  0.15593748640E+03  0.46999998093E+01 0.  1.
</event>
<event>
 5   0  0.1782124E-01  0.4970516E+03  0.7818609E-02  0.1014551E+00
       -2   -1    0    0    0  501  0.00000000000E+00  0.00000000000E+00  0.14750933234E+03  0.14750933236E+03  0.25500000920E-02 0.  1.
        2   -1    0    0  501    0  0.00000000000E+00  0.00000000000E+00 -0.41871979149E+03  0.41871979150E+03  0.25500000920E-02 0. -1.
    10030    2    1    2    0    0  0.00000000000E+00  0.00000000000E+00 -0.27121045916E+03  0.56622912386E+03  0.49705161458E+03 0.  0.
        3    1    3    3  502    0 -0.61200604817E+02 -0.17181360276E+03 -0.32791900362E+03  0.37522834549E+03  0.10100000352E+00 0. -1.
       -3    1    3    3    0  502  0.61200604817E+02  0.17181360276E+03  0.56708544465E+02  0.19100077837E+03  0.10100000352E+00 0.  1.
</event>
<event>
 5   0  0.1827698E-01  0.6098299E+03  0.7818609E-02  0.9885220E-01
        2   -1    0    0  501    0  0.00000000000E+00  0.00000000000E+00  0.11198534562E+04  0.11198534562E+04  0.25500000920E-02 0. -1.
       -2   -1    0    0    0  501  0.00000000000E+00  0.00000000000E+00 -0.83022570819E+02  0.83022570858E+02  0.25500000920E-02 0.  1.
    10030    2    1    2    0    0  0.00000000000E+00  0.00000000000E+00  0.10368308854E+04  0.12028760271E+04  0.60982985463E+03 0.  0.
        1    1    3    3  502    0 -0.79161924394E+02 -0.12889742091E+03 -0.37958779193E+01  0.15131280219E+03  0.50400001928E-02 0.  1.
       -1    1    3    3    0  502  0.79161924394E+02  0.12889742091E+03  0.10406267633E+04  0.10515632249E+04  0.50400001928E-02 0. -1.
</event>
<event>
 5   0  0.1141970E-01  0.4982868E+03  0.7818609E-02  0.1014227E+00
       -1   -1    0    0    0  501  0.00000000000E+00  0.00000000000E+00  0.89491327854E+02  0.89491327996E+02  0.50400001928E-02 0. -1.
        1   -1    0    0  501    0  0.00000000000E+00  0.00000000000E+00 -0.69361406819E+03  0.69361406821E+03  0.50400001928E-02 0.  1.
    10030    2    1    2    0    0  0.00000000000E+00  0.00000000000E+00 -0.60412274034E+03  0.78310539621E+03  0.49828684126E+03 0.  0.
        3    1    3    3  502    0 -0.36069043736E+02  0.22709762406E+03 -0.45278817769E+03  0.50783013974E+03  0.10100000352E+00 0.  1.
       -3    1    3    3    0  502  0.36069043736E+02 -0.22709762406E+03 -0.15133456265E+03  0.27527525647E+03  0.10100000352E+00 0. -1.
</event>
<event>
 5   0  0.1147245E-01  0.5108117E+03  0.7818609E-02  0.1010995E+00
        1   -1    0    0  501    0  0.00000000000E+00  0.00000000000E+00  0.93373365111E+03  0.93373365113E+03  0.50400001928E-02 0. -1.
       -1   -1    0    0    0  501  0.00000000000E+00  0.00000000000E+00 -0.69861632807E+02  0.69861632988E+02  0.50400001928E-02 0.  1.
    10030    2    1    2    0    0  0.00000000000E+00  0.00000000000E+00  0.86387201831E+03  0.10035952841E+04  0.51081173664E+03 0.  0.
        1    1    3    3  502    0  0.19401010764E+03  0.83416769001E+01  0.75787992960E+03  0.78236276315E+03  0.50400001928E-02 0. -1.
       -1    1    3    3    0  502 -0.19401010764E+03 -0.83416769001E+01  0.10599208870E+03  0.22123252097E+03  0.50400001928E-02 0.  1.
</event>
<event>
 5   0  0.1782124E-01  0.5035743E+03  0.7818609E-02  0.1012850E+00
        2   -1    0    0  501    0  0.00000000000E+00  0.00000000000E+00  0.78557443573E+02  0.78557443615E+02  0.25500000920E-02 0.  1.
       -2   -1    0    0    0  501  0.00000000000E+00  0.00000000000E+00 -0.80701171110E+03  0.80701171110E+03  0.25500000920E-02 0. -1.
    10030    2    1    2    0    0  0.00000000000E+00  0.00000000000E+00 -0.72845426753E+03  0.88556915472E+03  0.50357433206E+03 0.  0.
        3    1    3    3  502    0  0.18289782973E+03  0.91263274156E+02 -0.10567494197E+03  0.23010390021E+03  0.10100000352E+00 0.  1.
       -3    1    3    3    0  502 -0.18289782973E+03 -0.91263274156E+02 -0.62277932556E+03  0.65546525451E+03  0.10100000352E+00 0. -1.
</event>
<event>
 5   0  0.1068522E-01  0.4891760E+03  0.7818609E-02  0.1016643E+00
        1   -1    0    0  501    0  0.00000000000E+00  0.00000000000E+00  0.31974860968E+03  0.31974860972E+03  0.50400001928E-02 0.  1.
       -1   -1    0    0    0  501  0.00000000000E+00  0.00000000000E+00 -0.18709474811E+03  0.18709474818E+03  0.50400001928E-02 0. -1.
    10030    2    1    2    0    0  0.00000000000E+00  0.00000000000E+00  0.13265386157E+03  0.50684335790E+03  0.48917598312E+03 0.  0.
        2    1    3    3  502    0 -0.22336134436E+03  0.42147624807E+02  0.15990250513E+03  0.27791279853E+03  0.25500000920E-02 0.  1.
       -2    1    3    3    0  502  0.22336134436E+03 -0.42147624807E+02 -0.27248643563E+02  0.22893055937E+03  0.25500000920E-02 0. -1.
</event>
<event>
 5   0  0.1827698E-01  0.4948432E+03  0.7818609E-02  0.1015134E+00
        2   -1    0    0  501    0  0.00000000000E+00  0.00000000000E+00  0.12635441387E+04  0.12635441387E+04  0.25500000920E-02 0.  1.
       -2   -1    0    0    0  501  0.00000000000E+00  0.00000000000E+00 -0.48449003466E+02  0.48449003533E+02  0.25500000920E-02 0. -1.
    10030    2    1    2    0    0  0.00000000000E+00  0.00000000000E+00  0.12150951352E+04  0.13119931422E+04  0.49484322528E+03 0.  0.
        1    1    3    3  502    0  0.22280170909E+03 -0.18372929568E+02  0.88862976572E+03  0.91631928205E+03  0.50400001928E-02 0.  1.
       -1    1    3    3    0  502 -0.22280170909E+03  0.18372929568E+02  0.32646536951E+03  0.39567386018E+03  0.50400001928E-02 0. -1.
</event>
<event>
 5   0  0.7220250E-02  0.4977876E+03  0.7818609E-02  0.1014358E+00
       -3   -1    0    0    0  501  0.00000000000E+00  0.00000000000E+00  0.16333800605E+03  0.16333803728E+03  0.10100000352E+00 0. -1.
        3   -1    0    0  501    0  0.00000000000E+00  0.00000000000E+00 -0.37926337820E+03  0.37926339164E+03  0.10100000352E+00 0.  1.
    10030    2    1    2    0    0  0.00000000000E+00  0.00000000000E+00 -0.21592537215E+03  0.54260142892E+03  0.49778764984E+03 0.  0.
        1    1    3    3  502    0 -0.94083950639E+02 -0.10193651750E+03  0.11729398776E+03  0.18166101111E+03  0.50400001928E-02 0. -1.
       -1    1    3    3    0  502  0.94083950639E+02  0.10193651750E+03 -0.33321935991E+03  0.36094041781E+03  0.50400001928E-02 0.  1.
</event>
<event>
 5   0  0.1782124E-01  0.4980319E+03  0.7818609E-02  0.1014294E+00
        2   -1    0    0  501    0  0.00000000000E+00  0.00000000000E+00  0.10488900310E+04  0.10488900310E+04  0.25500000920E-02 0. -1.
       -2   -1    0    0    0  501  0.00000000000E+00  0.00000000000E+00 -0.59118625843E+02  0.59118625898E+02  0.25500000920E-02 0.  1.
    10030    2    1    2    0    0  0.00000000000E+00  0.00000000000E+00  0.98977140513E+03  0.11080086569E+04  0.49803187578E+03 0.  0.
        3    1    3    3  502    0  0.15517959832E+03 -0.80354931303E+02  0.88956412659E+03  0.90656603082E+03  0.10100000352E+00 0.  1.
       -3    1    3    3    0  502 -0.15517959832E+03  0.80354931303E+02  0.10020727854E+03  0.20144262606E+03  0.10100000352E+00 0. -1.
</event>
<event>
 5   0  0.7220250E-02  0.4933086E+03  0.7818609E-02  0.1015540E+00
        3   -1    0    0  501    0  0.00000000000E+00  0.00000000000E+00  0.23521837707E+03  0.23521839875E+03  0.10100000352E+00 0.  1.
       -3   -1    0    0    0  501  0.00000000000E+00  0.00000000000E+00 -0.25864619259E+03  0.25864621231E+03  0.10100000352E+00 0. -1.
    10030    2    1    2    0    0  0.00000000000E+00  0.00000000000E+00 -0.23427815526E+02  0.49386461106E+03  0.49330861691E+03 0.  0.
        4    1    3    3  502    0 -0.19888953635E+03 -0.85883194472E+02  0.10633321399E+03  0.24133241817E+03  0.12699999809E+01 0.  1.
       -4    1    3    3    0  502  0.19888953635E+03  0.85883194472E+02 -0.12976102952E+03  0.25253219289E+03  0.12699999809E+01 0. -1.
</event>
<event>
 5   0  0.1147245E-01  0.4935243E+03  0.7818609E-02  0.1015483E+00
       -1   -1    0    0    0  501  0.00000000000E+00  0.00000000000E+00  0.20303019616E+03  0.20303019622E+03  0.50400001928E-02 0. -1.
        1   -1    0    0  501    0  0.00000000000E+00  0.00000000000E+00 -0.29991383017E+03  0.29991383021E+03  0.50400001928E-02 0.  1.
    10030    2    1    2    0    0  0.00000000000E+00  0.00000000000E+00 -0.96883634006E+02  0.50294402643E+03  0.49352432076E+03 0.  0.
        1    1    3    3  502    0 -0.44683589003E+02 -0.17144708503E+03 -0.22347817520E+03  0.28518979805E+03  0.50400001928E-02 0.  1.
       -1    1    3    3    0  502  0.44683589003E+02  0.17144708503E+03  0.12659454120E+03  0.21775422838E+03  0.50400001928E-02 0. -1.
</event>
<event>
 5   0  0.1782124E-01  0.4983544E+03  0.7818609E-02  0.1014209E+00
        2   -1    0    0  501    0  0.00000000000E+00  0.00000000000E+00  0.22009849435E+04  0.22009849435E+04  0.25500000920E-02 0. -1.
       -2   -1    0    0    0  501  0.00000000000E+00  0.00000000000E+00 -0.28209771549E+02  0.28209771665E+02  0.25500000920E-02 0.  1.
    10030    2    1    2    0    0  0.00000000000E+00  0.00000000000E+00  0.21727751720E+04  0.22291947152E+04  0.49835442235E+03 0.  0.
        3    1    3    3  502    0  0.11518293588E+03 -0.10671364526E+03  0.19518434077E+04  0.19581490263E+04  0.10100000352E+00 0. -1.
       -3    1    3    3    0  502 -0.11518293588E+03  0.10671364526E+03  0.22093176427E+03  0.27104568889E+03  0.10100000352E+00 0.  1.
</event>
<event>
 5   0  0.1827698E-01  0.5440898E+03  0.7818609E-02  0.1002871E+00
       -2   -1    0    0    0  501  0.00000000000E+00  0.00000000000E+00  0.73518551414E+03  0.73518551414E+03  0.25500000920E-02 0.  1.
        2   -1    0    0  501    0  0.00000000000E+00  0.00000000000E+00 -0.10066633760E+03  0.10066633763E+03  0.25500000920E-02 0. -1.
    10030    2    1    2    0    0  0.00000000000E+00  0.00000000000E+00  0.63451917654E+03  0.83585185178E+03  0.54408982046E+03 0.  0.
        1    1    3    3  502    0  0.12851230000E+03 -0.12116978092E+03 -0.60044039091E+00  0.17662923771E+03  0.50400001928E-02 0. -1.
       -1    1    3    3    0  502 -0.12851230000E+03  0.12116978092E+03  0.63511961693E+03  0.65922261406E+03  0.50400001928E-02 0.  1.
</event>
<event>
 5   0  0.1068522E-01  0.4800803E+03  0.7818609E-02  0.1019113E+00
        1   -1    0    0  501    0  0.00000000000E+00  0.00000000000E+00  0.18308826845E+04  0.18308826845E+04  0.50400001928E-02 0.  1.
       -1   -1    0    0    0  501  0.00000000000E+00  0.00000000000E+00 -0.31470766996E+02  0.31470767399E+02  0.50400001928E-02 0. -1.
    10030    2    1    2    0    0  0.00000000000E+00  0.00000000000E+00  0.17994119175E+04  0.18623534519E+04  0.48008033803E+03 0.  0.
        2    1    3    3  502    0  0.36324545415E+02 -0.19610508593E+03  0.38152992292E+03  0.43051336730E+03  0.25500000920E-02 0. -1.
       -2    1    3    3    0  502 -0.36324545415E+02  0.19610508593E+03  0.14178819946E+04  0.14318400846E+04  0.25500000920E-02 0.  1.
</event>
<event>
 5   0  0.1709372E-01  0.5027470E+03  0.7818609E-02  0.1013064E+00
       -2   -1    0    0    0  501  0.00000000000E+00  0.00000000000E+00  0.34430012552E+02  0.34430012646E+02  0.25500000920E-02 0.  1.
        2   -1    0    0  501    0  0.00000000000E+00  0.00000000000E+00 -0.18352779017E+04  0.18352779017E+04  0.25500000920E-02 0. -1.
    10030    2    1    2    0    0  0.00000000000E+00  0.00000000000E+00 -0.18008478891E+04  0.18697079143E+04  0.50274701901E+03 0.  0.
        4    1    3    3  502    0  0.92451817400E+02  0.18959758652E+03 -0.14088845594E+04  0.14245883257E+04  0.12699999809E+01 0. -1.
       -4    1    3    3    0  502 -0.92451817400E+02 -0.18959758652E+03 -0.39196332975E+03  0.44511958856E+03  0.12699999809E+01 0.  1.
</event>
<event>
 5   0  0.1683148E-01  0.4976807E+03  0.7818609E-02  0.1014386E+00
        2   -1    0    0  501    0  0.00000000000E+00  0.00000000000E+00  0.15417175787E+04  0.15417175787E+04  0.25500000920E-02 0.  1.
       -2   -1    0    0    0  501  0.00000000000E+00  0.00000000000E+00 -0.40163984072E+02  0.40163984153E+02  0.25500000920E-02 0. -1.
    10030    2    1    2    0    0  0.00000000000E+00  0.00000000000E+00  0.15015535946E+04  0.15818815629E+04  0.49768070222E+03 0.  0.
        2    1    3    3  502    0 -0.10556663611E+03 -0.25986442501E+02  0.14622364999E+04  0.14662725503E+04  0.25500000920E-02 0.  1.
       -2    1    3    3    0  502  0.10556663611E+03  0.25986442501E+02  0.39317094690E+02  0.11560901261E+03  0.25500000920E-02 0. -1.
</event>
<event>
 5   0  0.1141970E-01  0.5038193E+03  0.7818609E-02  0.1012787E+00
        1   -1    0    0  501    0  0.00000000000E+00  0.00000000000E+00  0.44066111625E+03  0.44066111628E+03  0.50400001928E-02 0.  1.
       -1   -1    0    0    0  501  0.00000000000E+00  0.00000000000E+00 -0.14400741867E+03  0.14400741876E+03  0.50400001928E-02 0. -1.
    10030    2    1    2    0    0  0.00000000000E+00  0.00000000000E+00  0.29665369758E+03  0.58466853504E+03  0.50381929258E+03 0.  0.
        3    1    3    3  502    0  0.22994430945E+03  0.90996178572E+02  0.20402675478E+03  0.32059572179E+03  0.10100000352E+00 0.  1.
       -3    1    3    3    0  502 -0.22994430945E+03 -0.90996178572E+02  0.92626942803E+02  0.26407281325E+03  0.10100000352E+00 0. -1.
</event>
<event>
 5   0  0.1068522E-01  0.5002231E+03  0.7818609E-02  0.1013721E+00
       -1   -1    0    0    0  501  0.00000000000E+00  0.00000000000E+00  0.60834186357E+02  0.60834186566E+02  0.50400001928E-02 0.  1.
        1   -1    0    0  501    0  0.00000000000E+00  0.00000000000E+00 -0.10282999459E+04  0.10282999459E+04  0.50400001928E-02 0. -1.
    10030    2    1    2    0    0  0.00000000000E+00  0.00000000000E+00 -0.96746575955E+03  0.10891341325E+04  0.50022311286E+03 0.  0.
        2    1    3    3  502    0 -0.23765995841E+03  0.37058050357E+02 -0.63300456430E+03  0.67716344656E+03  0.25500000920E-02 0. -1.
       -2    1    3    3    0  502  0.23765995841E+03 -0.37058050357E+02 -0.33446119525E+03  0.41197068592E+03  0.25500000920E-02 0.  1.
</event>
<event>
 5   0  0.1123271E-01  0.5138491E+03  0.7818609E-02  0.1010226E+00
       -1   -1    0    0    0  501  0.00000000000E+00  0.00000000000E+00  0.25790846849E+02  0.25790847341E+02  0.50400001928E-02 0. -1.
        1   -1    0    0  501    0  0.00000000000E+00  0.00000000000E+00 -0.25594434949E+04  0.25594434949E+04  0.50400001928E-02 0.  1.
    10030    2    1    2    0    0  0.00000000000E+00  0.00000000000E+00 -0.25336526480E+04  0.25852343422E+04  0.51384906670E+03 0.  0.
        5    1    3    3  502    0  0.19153244150E+03  0.12358886917E+03 -0.18627373676E+04  0.18766383444E+04  0.46999998093E+01 0.  1.
       -5    1    3    3    0  502 -0.19153244150E+03 -0.12358886917E+03 -0.67091528040E+03  0.70859599787E+03  0.46999998093E+01 0. -1.
</event>
<event>
 5   0  0.1074281E-01  0.4819199E+03  0.7818609E-02  0.1018609E+00
        1   -1    0    0  501    0  0.00000000000E+00  0.00000000000E+00  0.55242458326E+03  0.55242458328E+03  0.50400001928E-02 0.  1.
       -1   -1    0    0    0  501  0.00000000000E+00  0.00000000000E+00 -0.10510341241E+03  0.10510341253E+03  0.50400001928E-02 0. -1.
    10030    2    1    2    0    0  0.00000000000E+00  0.00000000000E+00  0.44732117084E+03  0.65752799581E+03  0.48191994708E+03 0.  0.
        4    1    3    3  502    0 -0.41098014134E+02 -0.72339174949E+02  0.53220068140E+03  0.53866611290E+03  0.12699999809E+01 0.  1.
       -4    1    3    3    0  502  0.41098014134E+02  0.72339174949E+02 -0.84879510559E+02  0.11886188292E+03  0.12699999809E+01 0. -1.
</event>
<event>
 5   0  0.1147245E-01  0.5025686E+03  0.7818609E-02  0.1013111E+00
        1   -1    0    0  501    0  0.00000000000E+00  0.00000000000E+00  0.34758073897E+03  0.34758073901E+03  0.50400001928E-02 0.  1.
       -1   -1    0    0    0  501  0.00000000000E+00  0.00000000000E+00 -0.18166653302E+03  0.18166653309E+03  0.50400001928E-02 0. -1.
    10030    2    1    2    0    0  0.00000000000E+00  0.00000000000E+00  0.16591420595E+03  0.52924727210E+03  0.50256855382E+03 0.  0.
        1    1    3    3  502    0 -0.21886732981E+03 -0.65696657222E+02 -0.27113321331E+02  0.23011755919E+03  0.50400001928E-02 0. -1.
       -1    1    3    3    0  502  0.21886732981E+03  0.65696657222E+02  0.19302752728E+03  0.29912971291E+03  0.50400001928E-02 0.  1.
</event>
<event>
 5   0  0.1760649E-01  0.5012225E+03  0.7818609E-02  0.1013460E+00
       -2   -1    0    0    0  501  0.00000000000E+00  0.00000000000E+00  0.58696095240E+03  0.58696095241E+03  0.25500000920E-02 0. -1.
        2   -1    0    0  501    0  0.00000000000E+00  0.00000000000E+00 -0.10700199879E+03  0.10700199883E+03  0.25500000920E-02 0.  1.
    10030    2    1    2    0    0  0.00000000000E+00  0.00000000000E+00  0.47995895361E+03  0.69396295124E+03  0.50122248607E+03 0.  0.
        5    1    3    3  502    0  0.81761746191E+02  0.85395228638E+02  0.54585513270E+03  0.55853132778E+03  0.46999998093E+01 0. -1.
       -5    1    3    3    0  502 -0.81761746191E+02 -0.85395228638E+02 -0.65896179094E+02  0.13543162346E+03  0.46999998093E+01 0.  1.
</event>
<event>
 5   0  0.1074281E-01  0.5003866E+03  0.7818609E-02  0.1013678E+00
       -1   -1    0    0    0  501  0.00000000000E+00  0.00000000000E+00  0.38094681799E+02  0.38094682132E+02  0.50400001928E-02 0.  1.
        1   -1    0    0  501    0  0.00000000000E+00  0.00000000000E+00 -0.16431870952E+04  0.16431870952E+04  0.50400001928E-02 0. -1.
    10030    2    1    2    0    0  0.00000000000E+00  0.00000000000E+00 -0.16050924134E+04  0.16812817773E+04  0.50038660978E+03 0.  0.
        4    1    3    3  502    0 -0.16590636092E+03 -0.17417657806E+03 -0.57139923291E+03  0.61996862599E+03  0.12699999809E+01 0. -1.
       -4    1    3    3    0  502  0.16590636092E+03  0.17417657806E+03 -0.10336931805E+04  0.10613131513E+04  0.12699999809E+01 0.  1.
</event>
<event>
 5   0  0.1760649E-01  0.4931090E+03  0.7818609E-02  0.1015593E+00
       -2   -1    0    0    0  501  0.00000000000E+00  0.00000000000E+00  0.41157731540E+02  0.41157731619E+02  0.25500000920E-02 0. -1.
        2   -1    0    0  501    0  0.00000000000E+00  0.00000000000E+00 -0.14769790999E+04  0.14769790999E+04  0.25500000920E-02 0.  1.
    10030    2    1    2    0    0  0.00000000000E+00  0.00000000000E+00 -0.14358213684E+04  0.15181368316E+04  0.49310895083E+03 0.  0.
        5    1    3    3  502    0  0.20417948412E+03  0.14261603452E+02 -0.11408754563E+04  0.11590994573E+04  0.46999998093E+01 0.  1.
       -5    1    3    3    0  502 -0.20417948412E+03 -0.14261603452E+02 -0.29494591209E+03  0.35903737427E+03  0.46999998093E+01 0. -1.
</event>
<event>
 5   0  0.1782124E-01  0.4964259E+03  0.7818609E-02  0.1014716E+00
       -2   -1    0    0    0  501  0.00000000000E+00  0.00000000000E+00  0.34339671001E+02  0.34339671095E+02  0.25500000920E-02 0. -1.
        2   -1    0    0  501    0  0.00000000000E+00  0.00000000000E+00 -0.17941253365E+04  0.17941253365E+04  0.25500000920E-02 0.  1.
    10030    2    1    2    0    0  0.00000000000E+00  0.00000000000E+00 -0.17597856655E+04  0.18284650076E+04  0.49642592147E+03 0.  0.
        3    1    3    3  502    0 -0.17377006152E+03  0.17406662318E+03 -0.10028519018E+04  0.10325730825E+04  0.10100000352E+00 0.  1.
       -3    1    3    3    0  502  0.17377006152E+03 -0.17406662318E+03 -0.75693376369E+03  0.79589192508E+03  0.10100000352E+00 0. -1.
</event>
<event>
 5   0  0.1782124E-01  0.5095489E+03  0.7818609E-02  0.1011316E+00
       -2   -1    0    0    0  501  0.00000000000E+00  0.00000000000E+00  0.25291055042E+03  0.25291055044E+03  0.25500000920E-02 0. -1.
        2   -1    0    0  501    0  0.00000000000E+00  0.00000000000E+00 -0.25665203915E+03  0.25665203916E+03  0.25500000920E-02 0.  1.
    10030    2    1    2    0    0  0.00000000000E+00  0.00000000000E+00 -0.37414887273E+01  0.50956258960E+03  0.50954885338E+03 0.  0.
        3    1    3    3  502    0  0.78955575157E+02  0.20541662105E+03 -0.13024876342E+03  0.25572391681E+03  0.10100000352E+00 0.  1.
       -3    1    3    3    0  502 -0.78955575157E+02 -0.20541662105E+03  0.12650727469E+03  0.25383867279E+03  0.10100000352E+00 0. -1.
</event>
<event>
 5   0  0.1123271E-01  0.5072734E+03  0.7818609E-02  0.1011898E+00
       -1   -1    0    0    0  501  0.00000000000E+00  0.00000000000E+00  0.74796928444E+02  0.74796928614E+02  0.50400001928E-02 0.  1.
        1   -1    0    0  501    0  0.00000000000E+00  0.00000000000E+00 -0.86008315481E+03  0.86008315482E+03  0.50400001928E-02 0. -1.
    10030    2    1    2    0    0  0.00000000000E+00  0.00000000000E+00 -0.78528622636E+03  0.93488008343E+03  0.50727341059E+03 0.  0.
        5    1    3    3  502    0  0.16866683175E+03 -0.70403045808E+02 -0.68658815510E+02  0.19529775200E+03  0.46999998093E+01 0.  1.
       -5    1    3    3    0  502 -0.16866683175E+03  0.70403045808E+02 -0.71662741085E+03  0.73958233144E+03  0.46999998093E+01 0. -1.
</event>
<event>
 5   0  0.1760649E-01  0.4909787E+03  0.7818609E-02  0.1016161E+00
        2   -1    0    0  501    0  0.00000000000E+00  0.00000000000E+00  0.11337748626E+03  0.11337748629E+03  0.25500000920E-02 0. -1.
       -2   -1    0    0    0  501  0.00000000000E+00  0.00000000000E+00 -0.53154306621E+03  0.53154306622E+03  0.25500000920E-02 0.  1.
    10030    2    1    2    0    0  0.00000000000E+00  0.00000000000E+00 -0.41816557995E+03  0.64492055251E+03  0.49097868263E+03 0.  0.
        5    1    3    3  502    0 -0.66989072975E+02  0.82996836886E+02 -0.49945232308E+03  0.51073547347E+03  0.46999998093E+01 0.  1.
       -5    1    3    3    0  502  0.66989072975E+02 -0.82996836886E+02  0.81286743128E+02  0.13418507904E+03  0.46999998093E+01 0. -1.
</event>
<event>
 5   0  0.1782124E-01  0.4980728E+03  0.7818609E-02  0.1014283E+00
       -2   -1    0    0    0  501  0.00000000000E+00  0.00000000000E+00  0.11367865565E+03  0.11367865568E+03  0.25500000920E-02 0. -1.
        2   -1    0    0  501    0  0.00000000000E+00  0.00000000000E+00 -0.54556522278E+03  0.54556522279E+03  0.25500000920E-02 0.  1.
    10030    2    1    2    0    0  0.00000000000E+00  0.00000000000E+00 -0.43188656713E+03  0.65924387847E+03  0.49807277022E+03 0.  0.
        3    1    3    3  502    0  0.96293443604E+02 -0.10121661785E+03  0.56927712530E+02  0.15085756748E+03  0.10100000352E+00 0. -1.
       -3    1    3    3    0  502 -0.96293443604E+02  0.10121661785E+03 -0.48881427966E+03  0.50838631100E+03  0.10100000352E+00 0.  1.
</event>
<event>
 5   0  0.1147245E-01  0.5045453E+03  0.7818609E-02  0.1012599E+00
       -1   -1    0    0    0  501  0.00000000000E+00  0.00000000000E+00  0.99194516196E+02  0.99194516324E+02  0.50400001928E-02 0.  1.
        1   -1    0    0  501    0  0.00000000000E+00  0.00000000000E+00 -0.64158272322E+03  0.64158272324E+03  0.50400001928E-02 0. -1.
    10030    2    1    2    0    0  0.00000000000E+00  0.00000000000E+00 -0.54238820702E+03  0.74077723956E+03  0.50454529186E+03 0.  0.
        1    1    3    3  502    0 -0.10996701084E+03 -0.22578767451E+03 -0.23618203316E+03  0.34475320194E+03  0.50400001928E-02 0. -1.
       -1    1    3    3    0  502  0.10996701084E+03  0.22578767451E+03 -0.30620617386E+03  0.39602403762E+03  0.50400001928E-02 0.  1.
</event>
<event>
 5   0  0.1141970E-01  0.3970739E+03  0.7818609E-02  0.1044798E+00
       -1   -1    0    0    0  501  0.00000000000E+00  0.00000000000E+00  0.23487487818E+02  0.23487488358E+02  0.50400001928E-02 0.  1.
        1   -1    0    0  501    0  0.00000000000E+00  0.00000000000E+00 -0.16782095899E+04  0.16782095899E+04  0.50400001928E-02 0. -1.
    10030    2    1    2    0    0  0.00000000000E+00  0.00000000000E+00 -0.16547221021E+04  0.17016970783E+04  0.39707393652E+03 0.  0.
        3    1    3    3  502    0 -0.11349977899E+03 -0.83896902184E+02 -0.14257505129E+04  0.14327195906E+04  0.10100000352E+00 0. -1.
       -3    1    3    3    0  502  0.11349977899E+03  0.83896902184E+02 -0.22897158925E+03  0.26897748774E+03  0.10100000352E+00 0.  1.
</event>
<event>
 5   0  0.1068522E-01  0.4990431E+03  0.7818609E-02  0.1014029E+00
        1   -1    0    0  501    0  0.00000000000E+00  0.00000000000E+00  0.27117427200E+03  0.27117427205E+03  0.50400001928E-02 0.  1.
       -1   -1    0    0    0  501  0.00000000000E+00  0.00000000000E+00 -0.22959774341E+03  0.22959774346E+03  0.50400001928E-02 0. -1.
    10030    2    1    2    0    0  0.00000000000E+00  0.00000000000E+00  0.41576528589E+02  0.50077201551E+03  0.49904308811E+03 0.  0.
        2    1    3    3  502    0  0.17288834666E+02  0.15505231418E+03  0.21619574826E+03  0.26660968758E+03  0.25500000920E-02 0.  1.
       -2    1    3    3    0  502 -0.17288834666E+02 -0.15505231418E+03 -0.17461921967E+03  0.23416232793E+03  0.25500000920E-02 0. -1.
</event>
<event>
 5   0  0.7220250E-02  0.5005569E+03  0.7818609E-02  0.1013634E+00
       -3   -1    0    0    0  501  0.00000000000E+00  0.00000000000E+00  0.11337579816E+03  0.11337584315E+03  0.10100000352E+00 0.  1.
        3   -1    0    0  501    0  0.00000000000E+00  0.00000000000E+00 -0.55249264331E+03  0.55249265254E+03  0.10100000352E+00 0. -1.
    10030    2    1    2    0    0  0.00000000000E+00  0.00000000000E+00 -0.43911684515E+03  0.66586849569E+03  0.50055693968E+03 0.  0.
        4    1    3    3  502    0 -0.13875236146E+03 -0.10840567004E+03 -0.45615579917E+03  0.48896189332E+03  0.12699999809E+01 0. -1.
       -4    1    3    3    0  502  0.13875236146E+03  0.10840567004E+03  0.17038954018E+02  0.17690660237E+03  0.12699999809E+01 0.  1.
</event>
<event>
 5   0  0.1827698E-01  0.5013321E+03  0.7818609E-02  0.1013432E+00
       -2   -1    0    0    0  501  0.00000000000E+00  0.00000000000E+00  0.10789798935E+03  0.10789798938E+03  0.25500000920E-02 0.  1.
        2   -1    0    0  501    0  0.00000000000E+00  0.00000000000E+00 -0.58234141447E+03  0.58234141448E+03  0.25500000920E-02 0. -1.
    10030    2    1    2    0    0  0.00000000000E+00  0.00000000000E+00 -0.47444342512E+03  0.69023940386E+03  0.50133209652E+03 0.  0.
        1    1    3    3  502    0 -0.20820163035E+03 -0.44206270076E+02 -0.54923682999E+02  0.21981520460E+03  0.50400001928E-02 0.  1.
       -1    1    3    3    0  502  0.20820163035E+03  0.44206270076E+02 -0.41951974212E+03  0.47042419926E+03  0.50400001928E-02 0. -1.
</event>
<event>
 5   0  0.1760649E-01  0.4979725E+03  0.7818609E-02  0.1014309E+00
        2   -1    0    0  501    0  0.00000000000E+00  0.00000000000E+00  0.77861614154E+03  0.77861614155E+03  0.25500000920E-02 0.  1.
       -2   -1    0    0    0  501  0.00000000000E+00  0.00000000000E+00 -0.79620959645E+02  0.79620959685E+02  0.25500000920E-02 0. -1.
    10030    2    1    2    0    0  0.00000000000E+00  0.00000000000E+00  0.69899518190E+03  0.85823710123E+03  0.49797254705E+03 0.  0.
        5    1    3    3  502    0 -0.61814056366E+02 -0.34137211301E+02  0.76091722091E+03  0.76420117367E+03  0.46999998093E+01 0.  1.
       -5    1    3    3    0  502  0.61814056366E+02  0.34137211301E+02 -0.61922039010E+02  0.94035927566E+02  0.46999998093E+01 0. -1.
</event>
<event>
 5   0  0.1683148E-01  0.5104000E+03  0.7818609E-02  0.1011099E+00
        2   -1    0    0  501    0  0.00000000000E+00  0.00000000000E+00  0.42957696203E+03  0.42957696204E+03  0.25500000920E-02 0.  1.
       -2   -1    0    0    0  501  0.00000000000E+00  0.00000000000E+00 -0.15160737517E+03  0.15160737519E+03  0.25500000920E-02 0. -1.
    10030    2    1    2    0    0  0.00000000000E+00  0.00000000000E+00  0.27796958687E+03  0.58118433723E+03  0.51039998297E+03 0.  0.
        2    1    3    3  502    0 -0.16896598863E+03  0.18921819141E+02 -0.77722958231E+02  0.18694490845E+03  0.25500000920E-02 0. -1.
       -2    1    3    3    0  502  0.16896598863E+03 -0.18921819141E+02  0.35569254510E+03  0.39423942877E+03  0.25500000920E-02 0.  1.
</event>
<event>
 5   0  0.1782124E-01  0.4983877E+03  0.7818609E-02  0.1014201E+00
       -2   -1    0    0    0  501  0.00000000000E+00  0.00000000000E+00  0.81679865868E+02  0.81679865908E+02  0.25500000920E-02 0.  1.
        2   -1    0    0  501    0  0.00000000000E+00  0.00000000000E+00 -0.76025552959E+03  0.76025552960E+03  0.25500000920E-02 0. -1.
    10030    2    1    2    0    0  0.00000000000E+00  0.00000000000E+00 -0.67857566373E+03  0.84193539551E+03  0.49838767923E+03 0.  0.
        3    1    3    3  502    0  0.98177490146E+02  0.18966370526E+03 -0.55619536484E+03  0.59578891794E+03  0.10100000352E+00 0. -1.
       -3    1    3    3    0  502 -0.98177490146E+02 -0.18966370526E+03 -0.12238029888E+03  0.24614647757E+03  0.10100000352E+00 0.  1.
</event>
<event>
 5   0  0.1068522E-01  0.5005424E+03  0.7818609E-02  0.1013637E+00
       -1   -1    0    0    0  501  0.00000000000E+00  0.00000000000E+00  0.50034244534E+02  0.50034244788E+02  0.50400001928E-02 0. -1.
        1   -1    0    0  501    0  0.00000000000E+00  0.00000000000E+00 -0.12518560289E+04  0.12518560289E+04  0.50400001928E-02 0.  1.
    10030    2    1    2    0    0  0.00000000000E+00  0.00000000000E+00 -0.12018217844E+04  0.13018902737E+04  0.50054238919E+03 0.  0.
        2    1    3    3  502    0 -0.11847038544E+03  0.21546057887E+03 -0.72227225510E+03  0.76297818040E+03  0.25500000920E-02 0.  1.
       -2    1    3    3    0  502  0.11847038544E+03 -0.21546057887E+03 -0.47954952925E+03  0.53891209328E+03  0.25500000920E-02 0. -1.
</event>
<event>
 5   0  0.1147245E-01  0.4703886E+03  0.7818609E-02  0.1021811E+00
       -1   -1    0    0    0  501  0.00000000000E+00  0.00000000000E+00  0.16156313069E+03  0.16156313076E+03  0.50400001928E-02 0. -1.
        1   -1    0    0  501    0  0.00000000000E+00  0.00000000000E+00 -0.34238237318E+03  0.34238237321E+03  0.50400001928E-02 0.  1.
    10030    2    1    2    0    0  0.00000000000E+00  0.00000000000E+00 -0.18081924249E+03  0.50394550398E+03  0.47038863988E+03 0.  0.
        1    1    3    3  502    0  0.37458010181E+02 -0.22630565217E+03 -0.34751365712E+02  0.23200217278E+03  0.50400001928E-02 0.  1.
       -1    1    3    3    0  502 -0.37458010181E+02  0.22630565217E+03 -0.14606787678E+03  0.27194333120E+03  0.50400001928E-02 0. -1.
</event>
<event>
 5   0  0.1782124E-01  0.4967312E+03  0.7818609E-02  0.1014636E+00
        2   -1    0    0  501    0  0.00000000000E+00  0.00000000000E+00  0.85027283030E+02  0.85027283068E+02  0.25500000920E-02 0. -1.
       -2   -1    0    0    0  501  0.00000000000E+00  0.00000000000E+00 -0.72547864389E+03  0.72547864390E+03  0.25500000920E-02 0.  1.
    10030    2    1    2    0    0  0.00000000000E+00  0.00000000000E+00 -0.64045136086E+03  0.81050592697E+03  0.49673122714E+03 0.  0.
        3    1    3    3  502    0 -0.77134317968E+02 -0.19979148744E+03 -0.11500270524E+03  0.24308840753E+03  0.10100000352E+00 0. -1.
       -3    1    3    3    0  502  0.77134317968E+02  0.19979148744E+03 -0.52544865562E+03  0.56741751943E+03  0.10100000352E+00 0.  1.
</event>
<event>
 5   0  0.1760649E-01  0.5035543E+03  0.7818609E-02  0.1012855E+00
       -2   -1    0    0    0  501  0.00000000000E+00  0.00000000000E+00  0.36260613158E+02  0.36260613248E+02  0.25500000920E-02 0. -1.
        2   -1    0    0  501    0  0.00000000000E+00  0.00000000000E+00 -0.17482259732E+04  0.17482259732E+04  0.25500000920E-02 0.  1.
    10030    2    1    2    0    0  0.00000000000E+00  0.00000000000E+00 -0.17119653601E+04  0.17844865865E+04  0.50355434984E+03 0.  0.
        5    1    3    3  502    0 -0.12554924076E+03  0.22077155414E+02 -0.86731922839E+02  0.15425475384E+03  0.46999998093E+01 0. -1.
       -5    1    3    3    0  502  0.12554924076E+03 -0.22077155414E+02 -0.16252334372E+04  0.16302318326E+04  0.46999998093E+01 0.  1.
</event>
<event>
 5   0  0.1141970E-01  0.5081405E+03  0.7818609E-02  0.1011676E+00
        1   -1    0    0  501    0  0.00000000000E+00  0.00000000000E+00  0.90220358050E+03  0.90220358051E+03  0.50400001928E-02 0. -1.
       -1   -1    0    0    0  501  0.00000000000E+00  0.00000000000E+00 -0.71548929856E+02  0.71548930033E+02  0.50400001928E-02 0.  1.
    10030    2    1    2    0    0  0.00000000000E+00  0.00000000000E+00  0.83065465064E+03  0.97375251054E+03  0.50814053485E+03 0.  0.
        3    1    3    3  502    0 -0.46101021724E+02 -0.83989794476E+02  0.86625848919E+03  0.87154080231E+03  0.10100000352E+00 0. -1.
       -3    1    3    3    0  502  0.46101021724E+02  0.83989794476E+02 -0.35603838554E+02  0.10221170824E+03  0.10100000352E+00 0.  1.
</event>
<event>
 5   0  0.1068522E-01  0.5026221E+03  0.7818609E-02  0.1013097E+00
       -1   -1    0    0    0  501  0.00000000000E+00  0.00000000000E+00  0.97056285299E+02  0.97056285430E+02  0.50400001928E-02 0. -1.
        1   -1    0    0  501    0  0.00000000000E+00  0.00000000000E+00 -0.65072794497E+03  0.65072794499E+03  0.50400001928E-02 0.  1.
    10030    2    1    2    0    0  0.00000000000E+00  0.00000000000E+00 -0.55367165967E+03  0.74778423042E+03  0.50262207327E+03 0.  0.
        2    1    3    3  502    0 -0.95265827075E+02 -0.86940231843E+02  0.44063536671E+02  0.13629298218E+03  0.25500000920E-02 0. -1.
       -2    1    3    3    0  502  0.95265827075E+02  0.86940231843E+02 -0.59773519634E+03  0.61149124824E+03  0.25500000920E-02 0.  1.
</event>
<event>
 5   0  0.1068522E-01  0.4968195E+03  0.7818609E-02  0.1014612E+00
        1   -1    0    0  501    0  0.00000000000E+00  0.00000000000E+00  0.63980450098E+03  0.63980450099E+03  0.50400001928E-02 0.  1.
       -1   -1    0    0    0  501  0.00000000000E+00  0.00000000000E+00 -0.96447267108E+02  0.96447267239E+02  0.50400001928E-02 0. -1.
    10030    2    1    2    0    0  0.00000000000E+00  0.00000000000E+00  0.54335723387E+03  0.73625176823E+03  0.49681946684E+03 0.  0.
        2    1    3    3  502    0 -0.21456339270E+03  0.11289203498E+02  0.45643020710E+03  0.50447341810E+03  0.25500000920E-02 0.  1.
       -2    1    3    3    0  502  0.21456339270E+03 -0.11289203498E+02  0.86927026765E+02  0.23177835014E+03  0.25500000920E-02 0. -1.
</event>
<event>
 5   0  0.7220250E-02  0.5028521E+03  0.7818609E-02  0.1013037E+00
       -3   -1    0    0    0  501  0.00000000000E+00  0.00000000000E+00  0.19607467416E+03  0.19607470017E+03  0.10100000352E+00 0. -1.
        3   -1    0    0  501    0  0.00000000000E+00  0.00000000000E+00 -0.32240292705E+03  0.32240294287E+03  0.10100000352E+00 0.  1.
    10030    2    1    2    0    0  0.00000000000E+00  0.00000000000E+00 -0.12632825290E+03  0.51847764304E+03  0.50285210435E+03 0.  0.
        5    1    3    3  502    0 -0.24378296637E+03 -0.17376281493E+01  0.58573592699E-01  0.24383446736E+03  0.46999998093E+01 0. -1.
       -5    1    3    3    0  502  0.24378296637E+03  0.17376281493E+01 -0.12638682649E+03  0.27464317568E+03  0.46999998093E+01 0.  1.
</event>
<event>
 5   0  0.1709372E-01  0.4902356E+03  0.7818609E-02  0.1016359E+00
       -2   -1    0    0    0  501  0.00000000000E+00  0.00000000000E+00  0.22007493157E+02  0.22007493304E+02  0.25500000920E-02 0. -1.
        2   -1    0    0  501    0  0.00000000000E+00  0.00000000000E+00 -0.27301032542E+04  0.27301032542E+04  0.25500000920E-02 0.  1.
    10030    2    1    2    0    0  0.00000000000E+00  0.00000000000E+00 -0.27080957610E+04  0.27521107475E+04  0.49023557149E+03 0.  0.
        4    1    3    3  502    0 -0.20398006305E+03 -0.10212087429E+03 -0.85053255973E+03  0.88059286117E+03  0.12699999809E+01 0.  1.
       -4    1    3    3    0  502  0.20398006305E+03  0.10212087429E+03 -0.18575632013E+04  0.18715178863E+04  0.12699999809E+01 0. -1.
</event>
<event>
 5   0  0.7220250E-02  0.5004119E+03  0.7818609E-02  0.1013671E+00
       -3   -1    0    0    0  501  0.00000000000E+00  0.00000000000E+00  0.22020980805E+03  0.22020983121E+03  0.10100000352E+00 0. -1.
        3   -1    0    0  501    0  0.00000000000E+00  0.00000000000E+00 -0.28428799656E+03  0.28428801450E+03  0.10100000352E+00 0.  1.
    10030    2    1    2    0    0  0.00000000000E+00  0.00000000000E+00 -0.64078188509E+02  0.50449784571E+03  0.50041189242E+03 0.  0.
        1    1    3    3  502    0 -0.14065411264E+03 -0.44753072157E+01 -0.24060848538E+03  0.27874011380E+03  0.50400001928E-02 0.  1.
       -1    1    3    3    0  502  0.14065411264E+03  0.44753072157E+01  0.17653029687E+03  0.22575773191E+03  0.50400001928E-02 0. -1.
</event>
<event>
 5   0  0.1123271E-01  0.4965722E+03  0.7818609E-02  0.1014678E+00
        1   -1    0    0  501    0  0.00000000000E+00  0.00000000000E+00  0.10016030178E+04  0.10016030178E+04  0.50400001928E-02 0.  1.
       -1   -1    0    0    0  501  0.00000000000E+00  0.00000000000E+00 -0.61547332224E+02  0.61547332431E+02  0.50400001928E-02 0. -1.
    10030    2    1    2    0    0  0.00000000000E+00  0.00000000000E+00  0.94005568555E+03  0.10631503502E+04  0.49657222560E+03 0.  0.
        5    1    3    3  502    0  0.16918276443E+03  0.17694346619E+03  0.55809744181E+03  0.60944781775E+03  0.46999998093E+01 0. -1.
       -5    1    3    3    0  502 -0.16918276443E+03 -0.17694346619E+03  0.38195824374E+03  0.45370253247E+03  0.46999998093E+01 0.  1.
</event>
<event>
 5   0  0.1760649E-01  0.4942901E+03  0.7818609E-02  0.1015280E+00
       -2   -1    0    0    0  501  0.00000000000E+00  0.00000000000E+00  0.33333677981E+02  0.33333678079E+02  0.25500000920E-02 0.  1.
        2   -1    0    0  501    0  0.00000000000E+00  0.00000000000E+00 -0.18324016778E+04  0.18324016778E+04  0.25500000920E-02 0. -1.
    10030    2    1    2    0    0  0.00000000000E+00  0.00000000000E+00 -0.17990679999E+04  0.18657353559E+04  0.49429014781E+03 0.  0.
        5    1    3    3  502    0  0.69528353436E+02 -0.94420537245E+01 -0.52284406241E+01  0.70517876454E+02  0.46999998093E+01 0.  1.
       -5    1    3    3    0  502 -0.69528353436E+02  0.94420537245E+01 -0.17938395592E+04  0.17952174795E+04  0.46999998093E+01 0. -1.
</event>
<event>
 5   0  0.7220250E-02  0.5019324E+03  0.7818609E-02  0.1013276E+00
        4   -1    0    0  501    0  0.00000000000E+00  0.00000000000E+00  0.13888339295E+04  0.13888345101E+04  0.12699999809E+01 0.  1.
       -4   -1    0    0    0  501  0.00000000000E+00  0.00000000000E+00 -0.45340812236E+02  0.45358595152E+02  0.12699999809E+01 0. -1.
    10030    2    1    2    0    0  0.00000000000E+00  0.00000000000E+00  0.13434931172E+04  0.14341931053E+04  0.50193237314E+03 0.  0.
        3    1    3    3  502    0  0.23998748689E+03  0.46922378716E+01  0.46239851597E+03  0.52098791611E+03  0.10100000352E+00 0. -1.
       -3    1    3    3    0  502 -0.23998748689E+03 -0.46922378716E+01  0.88109460127E+03  0.91320518919E+03  0.10100000352E+00 0.  1.
</event>
<event>
 5   0  0.7220250E-02  0.4978856E+03  0.7818609E-02  0.1014332E+00
       -3   -1    0    0    0  501  0.00000000000E+00  0.00000000000E+00  0.17671106284E+03  0.17671109171E+03  0.10100000352E+00 0.  1.
        3   -1    0    0  501    0  0.00000000000E+00  0.00000000000E+00 -0.35069960535E+03  0.35069961989E+03  0.10100000352E+00 0. -1.
    10030    2    1    2    0    0  0.00000000000E+00  0.00000000000E+00 -0.17398854251E+03  0.52741071160E+03  0.49788557499E+03 0.  0.
        3    1    3    3  502    0 -0.10632946491E+03  0.17428613726E+03  0.63899021004E+02  0.21392687498E+03  0.10100000352E+00 0.  1.
       -3    1    3    3    0  502  0.10632946491E+03 -0.17428613726E+03 -0.23788756351E+03  0.31348383662E+03  0.10100000352E+00 0. -1.
</event>
<event>
 5   0  0.7220250E-02  0.4920111E+03  0.7818609E-02  0.1015885E+00
       -3   -1    0    0    0  501  0.00000000000E+00  0.00000000000E+00  0.20879364657E+03  0.20879367099E+03  0.10100000352E+00 0. -1.
        3   -1    0    0  501    0  0.00000000000E+00  0.00000000000E+00 -0.28984945671E+03  0.28984947430E+03  0.10100000352E+00 0.  1.
    10030    2    1    2    0    0  0.00000000000E+00  0.00000000000E+00 -0.81055810139E+02  0.49864314530E+03  0.49201111979E+03 0.  0.
        1    1    3    3  502    0  0.16178671218E+03  0.53691208373E+02 -0.22029141419E+03  0.27854262382E+03  0.50400001928E-02 0.  1.
       -1    1    3    3    0  502 -0.16178671218E+03 -0.53691208373E+02  0.13923560405E+03  0.22010052148E+03  0.50400001928E-02 0. -1.
</event>
<event>
 5   0  0.1827698E-01  0.4865681E+03  0.7818609E-02  0.1017346E+00
        2   -1    0    0  501    0  0.00000000000E+00  0.00000000000E+00  0.17438265302E+04  0.17438265302E+04  0.25500000920E-02 0.  1.
       -2   -1    0    0    0  501  0.00000000000E+00  0.00000000000E+00 -0.33940952934E+02  0.33940953030E+02  0.25500000920E-02 0. -1.
    10030    2    1    2    0    0  0.00000000000E+00  0.00000000000E+00  0.17098855772E+04  0.17777674832E+04  0.48656812173E+03 0.  0.
        1    1    3    3  502    0 -0.20722373700E+03  0.10114422371E+03  0.11383168296E+04  0.11614374868E+04  0.50400001928E-02 0.  1.
       -1    1    3    3    0  502  0.20722373700E+03 -0.10114422371E+03  0.57156874765E+03  0.61632999642E+03  0.50400001928E-02 0. -1.
</event>
<event>
 5   0  0.1141970E-01  0.4769131E+03  0.7818609E-02  0.1019987E+00
       -1   -1    0    0    0  501  0.00000000000E+00  0.00000000000E+00  0.25680249313E+02  0.25680249807E+02  0.50400001928E-02 0. -1.
        1   -1    0    0  501    0  0.00000000000E+00  0.00000000000E+00 -0.22142120709E+04  0.22142120709E+04  0.50400001928E-02 0.  1.
    10030    2    1    2    0    0  0.00000000000E+00  0.00000000000E+00 -0.21885318216E+04  0.22398923207E+04  0.47691306786E+03 0.  0.
        3    1    3    3  502    0  0.59205248922E+02  0.20722615449E+03 -0.15735441289E+04  0.15882345785E+04  0.10100000352E+00 0.  1.
       -3    1    3    3    0  502 -0.59205248922E+02 -0.20722615449E+03 -0.61498769270E+03  0.65165774221E+03  0.10100000352E+00 0. -1.
</event>
<event>
 5   0  0.7220250E-02  0.5018450E+03  0.7818609E-02  0.1013298E+00
        4   -1    0    0  501    0  0.00000000000E+00  0.00000000000E+00  0.25917963312E+03  0.25918274465E+03  0.12699999809E+01 0. -1.
       -4   -1    0    0    0  501  0.00000000000E+00  0.00000000000E+00 -0.24292217783E+03  0.24292549759E+03  0.12699999809E+01 0.  1.
    10030    2    1    2    0    0  0.00000000000E+00  0.00000000000E+00  0.16257455293E+02  0.50210824224E+03  0.50184497813E+03 0.  0.
        2    1    3    3  502    0  0.22941757687E+03  0.10146046017E+03  0.21719534792E+01  0.25086125038E+03  0.25500000920E-02 0. -1.
       -2    1    3    3    0  502 -0.22941757687E+03 -0.10146046017E+03  0.14085501814E+02  0.25124699186E+03  0.25500000920E-02 0.  1.
</event>
<event>
 5   0  0.1683148E-01  0.5017273E+03  0.7818609E-02  0.1013329E+00
        2   -1    0    0  501    0  0.00000000000E+00  0.00000000000E+00  0.81574610550E+03  0.81574610551E+03  0.25500000920E-02 0. -1.
       -2   -1    0    0    0  501  0.00000000000E+00  0.00000000000E+00 -0.77147250926E+02  0.77147250968E+02  0.25500000920E-02 0.  1.
    10030    2    1    2    0    0  0.00000000000E+00  0.00000000000E+00  0.73859885458E+03  0.89289335647E+03  0.50172729451E+03 0.  0.
        2    1    3    3  502    0 -0.22206525337E+03  0.64776888299E+02  0.54205778854E+03  0.58935190518E+03  0.25500000920E-02 0. -1.
       -2    1    3    3    0  502  0.22206525337E+03 -0.64776888299E+02  0.19654106603E+03  0.30354145129E+03  0.25500000920E-02 0.  1.
</event>
<event>
 5   0  0.1683148E-01  0.4956803E+03  0.7818609E-02  0.1014913E+00
       -2   -1    0    0    0  501  0.00000000000E+00  0.00000000000E+00  0.44519296717E+02  0.44519296790E+02  0.25500000920E-02 0.  1.
        2   -1    0    0  501    0  0.00000000000E+00  0.00000000000E+00 -0.13797327306E+04  0.13797327306E+04  0.25500000920E-02 0. -1.
    10030    2    1    2    0    0  0.00000000000E+00  0.00000000000E+00 -0.13352134339E+04  0.14242520274E+04  0.49568026339E+03 0.  0.
        2    1    3    3  502    0 -0.20846447273E+03 -0.12194557978E+03 -0.82749832649E+03  0.86202183335E+03  0.25500000920E-02 0.  1.
       -2    1    3    3    0  502  0.20846447273E+03  0.12194557978E+03 -0.50771510743E+03  0.56223019408E+03  0.25500000920E-02 0. -1.
</event>
<event>
 5   0  0.1709372E-01  0.4990742E+03  0.7818609E-02  0.1014021E+00
       -2   -1    0    0    0  501  0.00000000000E+00  0.00000000000E+00  0.63832195263E+02  0.63832195313E+02  0.25500000920E-02 0.  1.
        2   -1    0    0  501    0  0.00000000000E+00  0.00000000000E+00 -0.97550715613E+03  0.97550715613E+03  0.25500000920E-02 0. -1.
    10030    2    1    2    0    0  0.00000000000E+00  0.00000000000E+00 -0.91167496087E+03  0.10393393514E+04  0.49907419608E+03 0.  0.
        4    1    3    3  502    0  0.17986505376E+03  0.11609489692E+03 -0.72283831450E+03  0.75387419671E+03  0.12699999809E+01 0. -1.
       -4    1    3    3    0  502 -0.17986505376E+03 -0.11609489692E+03 -0.18883664637E+03  0.28546515474E+03  0.12699999809E+01 0.  1.
</event>
<event>
 5   0  0.1683148E-01  0.5004013E+03  0.7818609E-02  0.1013674E+00
       -2   -1    0    0    0  501  0.00000000000E+00  0.00000000000E+00  0.44586740892E+03  0.44586740893E+03  0.25500000920E-02 0.  1.
        2   -1    0    0  501    0  0.00000000000E+00  0.00000000000E+00 -0.14040128132E+03  0.14040128134E+03  0.25500000920E-02 0. -1.
    10030    2    1    2    0    0  0.00000000000E+00  0.00000000000E+00  0.30546612760E+03  0.58626869027E+03  0.50040126107E+03 0.  0.
        2    1    3    3  502    0 -0.22868317550E+02 -0.64055833485E+02 -0.12936224203E+03  0.14615300004E+03  0.25500000920E-02 0. -1.
       -2    1    3    3    0  502  0.22868317550E+02  0.64055833485E+02  0.43482836963E+03  0.44011569023E+03  0.25500000920E-02 0.  1.
</event>
<event>
 5   0  0.1683148E-01  0.4847612E+03  0.7818609E-02  0.1017835E+00
        2   -1    0    0  501    0  0.00000000000E+00  0.00000000000E+00  0.38535827073E+03  0.38535827074E+03  0.25500000920E-02 0.  1.
       -2   -1    0    0    0  501  0.00000000000E+00  0.00000000000E+00 -0.15245124838E+03  0.15245124840E+03  0.25500000920E-02 0. -1.
    10030    2    1    2    0    0  0.00000000000E+00  0.00000000000E+00  0.23290702235E+03  0.53780951914E+03  0.48476117606E+03 0.  0.
        2    1    3    3  502    0  0.11096086841E+03 -0.21458379867E+03  0.94548804913E+02  0.25941857584E+03  0.25500000920E-02 0. -1.
       -2    1    3    3    0  502 -0.11096086841E+03  0.21458379867E+03  0.13835821744E+03  0.27839094330E+03  0.25500000920E-02 0.  1.
</event>
<event>
 5   0  0.1782124E-01  0.4976772E+03  0.7818609E-02  0.1014387E+00
        2   -1    0    0  501    0  0.00000000000E+00  0.00000000000E+00  0.19647087310E+04  0.19647087310E+04  0.25500000920E-02 0.  1.
       -2   -1    0    0    0  501  0.00000000000E+00  0.00000000000E+00 -0.31516455247E+02  0.31516455350E+02  0.25500000920E-02 0. -1.
    10030    2    1    2    0    0  0.00000000000E+00  0.00000000000E+00  0.19331922758E+04  0.19962251864E+04  0.49767722431E+03 0.  0.
        3    1    3    3  502    0  0.16162232740E+03  0.14832335463E+03  0.49541666068E+03  0.54181110373E+03  0.10100000352E+00 0. -1.
       -3    1    3    3    0  502 -0.16162232740E+03 -0.14832335463E+03  0.14377756151E+04  0.14544140827E+04  0.10100000352E+00 0.  1.
</event>
<event>
 5   0  0.1068522E-01  0.5030216E+03  0.7818609E-02  0.1012993E+00
        1   -1    0    0  501    0  0.00000000000E+00  0.00000000000E+00  0.94503164935E+03  0.94503164937E+03  0.50400001928E-02 0.  1.
       -1   -1    0    0    0  501  0.00000000000E+00  0.00000000000E+00 -0.66937106094E+02  0.66937106284E+02  0.50400001928E-02 0. -1.
    10030    2    1    2    0    0  0.00000000000E+00  0.00000000000E+00  0.87809454326E+03  0.10119687557E+04  0.50302160541E+03 0.  0.
        2    1    3    3  502    0 -0.60865388097E+02  0.11315820231E+03  0.87402139451E+03  0.88341540188E+03  0.25500000920E-02 0.  1.
       -2    1    3    3    0  502  0.60865388097E+02 -0.11315820231E+03  0.40731487505E+01  0.12855335377E+03  0.25500000920E-02 0. -1.
</event>
<event>
 5   0  0.1074281E-01  0.4935218E+03  0.7818609E-02  0.1015484E+00
        1   -1    0    0  501    0  0.00000000000E+00  0.00000000000E+00  0.47917769662E+03  0.47917769665E+03  0.50400001928E-02 0. -1.
       -1   -1    0    0    0  501  0.00000000000E+00  0.00000000000E+00 -0.12707382909E+03  0.12707382919E+03  0.50400001928E-02 0.  1.
    10030    2    1    2    0    0  0.00000000000E+00  0.00000000000E+00  0.35210386753E+03  0.60625152584E+03  0.49352181213E+03 0.  0.
        4    1    3    3  502    0  0.24215966997E+03 -0.40542632020E+02  0.20625008590E+03  0.32066450007E+03  0.12699999809E+01 0. -1.
       -4    1    3    3    0  502 -0.24215966997E+03  0.40542632020E+02  0.14585378163E+03  0.28558702577E+03  0.12699999809E+01 0.  1.
</event>
<event>
 5   0  0.1141970E-01  0.5265279E+03  0.7818609E-02  0.1007078E+00
       -1   -1    0    0    0  501  0.00000000000E+00  0.00000000000E+00  0.61792080464E+02  0.61792080670E+02  0.50400001928E-02 0. -1.
        1   -1    0    0  501    0  0.00000000000E+00  0.00000000000E+00 -0.11216308706E+04  0.11216308706E+04  0.50400001928E-02 0.  1.
    10030    2    1    2    0    0  0.00000000000E+00  0.00000000000E+00 -0.10598387901E+04  0.11834229512E+04  0.52652789151E+03 0.  0.
        3    1    3    3  502    0 -0.44123122864E+02  0.22840633060E+03 -0.25289356444E+03  0.34361528919E+03  0.10100000352E+00 0. -1.
       -3    1    3    3    0  502  0.44123122864E+02 -0.22840633060E+03 -0.80694522566E+03  0.83980766206E+03  0.10100000352E+00 0.  1.
</event>
<event>
 5   0  0.7220250E-02  0.5053684E+03  0.7818609E-02  0.1012387E+00
       -3   -1    0    0    0  501  0.00000000000E+00  0.00000000000E+00  0.68479169493E+03  0.68479170238E+03  0.10100000352E+00 0.  1.
        3   -1    0    0  501    0  0.00000000000E+00  0.00000000000E+00 -0.93239000672E+02  0.93239055376E+02  0.10100000352E+00 0. -1.
    10030    2    1    2    0    0  0.00000000000E+00  0.00000000000E+00  0.59155269426E+03  0.77803075775E+03  0.50536844968E+03 0.  0.
        4    1    3    3  502    0  0.22690965926E+03  0.10665106966E+03  0.24745220341E+03  0.35227354427E+03  0.12699999809E+01 0. -1.
       -4    1    3    3    0  502 -0.22690965926E+03 -0.10665106966E+03  0.34410049085E+03  0.42575721348E+03  0.12699999809E+01 0.  1.
</event>
<event>
 5   0  0.1068522E-01  0.4967941E+03  0.7818609E-02  0.1014619E+00
        1   -1    0    0  501    0  0.00000000000E+00  0.00000000000E+00  0.42554915392E+03  0.42554915395E+03  0.50400001928E-02 0.  1.
       -1   -1    0    0    0  501  0.00000000000E+00  0.00000000000E+00 -0.14499171699E+03  0.14499171708E+03  0.50400001928E-02 0. -1.
    10030    2    1    2    0    0  0.00000000000E+00  0.00000000000E+00  0.28055743693E+03  0.57054087103E+03  0.49679413251E+03 0.  0.
        2    1    3    3  502    0 -0.37332355339E+02  0.13656468908E+03  0.37467829254E+03  0.40053394609E+03  0.25500000920E-02 0.  1.
       -2    1    3    3    0  502  0.37332355339E+02 -0.13656468908E+03 -0.94120855615E+02  0.17000692494E+03  0.25500000920E-02 0. -1.
</event>
<event>
 5   0  0.1147245E-01  0.5077200E+03  0.7818609E-02  0.1011783E+00
       -1   -1    0    0    0  501  0.00000000000E+00  0.00000000000E+00  0.56838781580E+02  0.56838781804E+02  0.50400001928E-02 0. -1.
        1   -1    0    0  501    0  0.00000000000E+00  0.00000000000E+00 -0.11338193538E+04  0.11338193538E+04  0.50400001928E-02 0.  1.
    10030    2    1    2    0    0  0.00000000000E+00  0.00000000000E+00 -0.10769805722E+04  0.11906581356E+04  0.50772004390E+03 0.  0.
        1    1    3    3  502    0  0.17474157774E+03 -0.18412146166E+03 -0.53123215621E+03  0.58876390468E+03  0.50400001928E-02 0.  1.
       -1    1    3    3    0  502 -0.17474157774E+03  0.18412146166E+03 -0.54574841603E+03  0.60189423096E+03  0.50400001928E-02 0. -1.
</event>
<event>
 5   0  0.1709372E-01  0.4982771E+03  0.7818609E-02  0.1014230E+00
       -2   -1    0    0    0  501  0.00000000000E+00  0.00000000000E+00  0.76825789157E+02  0.76825789200E+02  0.25500000920E-02 0. -1.
        2   -1    0    0  501    0  0.00000000000E+00  0.00000000000E+00 -0.80793207386E+03  0.80793207386E+03  0.25500000920E-02 0.  1.
    10030    2    1    2    0    0  0.00000000000E+00  0.00000000000E+00 -0.73110628470E+03  0.88475786306E+03  0.49827710837E+03 0.  0.
        4    1    3    3  502    0 -0.34911457452E+02 -0.57717711611E+02 -0.79140286978E+03  0.79427341596E+03  0.12699999809E+01 0.  1.
       -4    1    3    3    0  502  0.34911457452E+02  0.57717711611E+02  0.60296585084E+02  0.90484447104E+02  0.12699999809E+01 0. -1.
</event>
<event>
 5   0  0.1709372E-01  0.5013231E+03  0.7818609E-02  0.1013434E+00
       -2   -1    0    0    0  501  0.00000000000E+00  0.00000000000E+00  0.73524517973E+02  0.73524518017E+02  0.25500000920E-02 0. -1.
        2   -1    0    0  501    0  0.00000000000E+00  0.00000000000E+00 -0.85456132462E+03  0.85456132463E+03  0.25500000920E-02 0.  1.
    10030    2    1    2    0    0  0.00000000000E+00  0.00000000000E+00 -0.78103680665E+03  0.92808584264E+03  0.50132308741E+03 0.  0.
        4    1    3    3  502    0 -0.23239648619E+03  0.40896013724E+02 -0.23399017802E+03  0.33231555342E+03  0.12699999809E+01 0. -1.
       -4    1    3    3    0  502  0.23239648619E+03 -0.40896013724E+02 -0.54704662863E+03  0.59577028923E+03  0.12699999809E+01 0.  1.
</event>
<event>
 5   0  0.1683148E-01  0.4954648E+03  0.7818609E-02  0.1014969E+00
        2   -1    0    0  501    0  0.00000000000E+00  0.00000000000E+00  0.71089308765E+03  0.71089308765E+03  0.25500000920E-02 0. -1.
       -2   -1    0    0    0  501  0.00000000000E+00  0.00000000000E+00 -0.86329930773E+02  0.86329930810E+02  0.25500000920E-02 0.  1.
    10030    2    1    2    0    0  0.00000000000E+00  0.00000000000E+00  0.62456315687E+03  0.79722301846E+03  0.49546483653E+03 0.  0.
        2    1    3    3  502    0 -0.22903351941E+03  0.91405958586E+02  0.35035668629E+03  0.42844043916E+03  0.25500000920E-02 0. -1.
       -2    1    3    3    0  502  0.22903351941E+03 -0.91405958586E+02  0.27420647059E+03  0.36878257930E+03  0.25500000920E-02 0.  1.
</event>
<event>
 5   0  0.1123271E-01  0.5048502E+03  0.7818609E-02  0.1012521E+00
        1   -1    0    0  501    0  0.00000000000E+00  0.00000000000E+00  0.14493995169E+03  0.14493995178E+03  0.50400001928E-02 0.  1.
       -1   -1    0    0    0  501  0.00000000000E+00  0.00000000000E+00 -0.43961958657E+03  0.43961958660E+03  0.50400001928E-02 0. -1.
    10030    2    1    2    0    0  0.00000000000E+00  0.00000000000E+00 -0.29467963488E+03  0.58455953838E+03  0.50485024185E+03 0.  0.
        5    1    3    3  502    0 -0.14639900029E+03  0.17220572598E+03 -0.27735806448E+03  0.35782267295E+03  0.46999998093E+01 0. -1.
       -5    1    3    3    0  502  0.14639900029E+03 -0.17220572598E+03 -0.17321570402E+02  0.22673686543E+03  0.46999998093E+01 0.  1.
</event>
<event>
 5   0  0.1074281E-01  0.4882040E+03  0.7818609E-02  0.1016905E+00
       -1   -1    0    0    0  501  0.00000000000E+00  0.00000000000E+00  0.93764908831E+02  0.93764908966E+02  0.50400001928E-02 0.  1.
        1   -1    0    0  501    0  0.00000000000E+00  0.00000000000E+00 -0.63548053564E+03  0.63548053566E+03  0.50400001928E-02 0. -1.
    10030    2    1    2    0    0  0.00000000000E+00  0.00000000000E+00 -0.54171562681E+03  0.72924544463E+03  0.48820395142E+03 0.  0.
        4    1    3    3  502    0 -0.18241010667E+03  0.18963873128E+02 -0.30227573310E+02  0.18587198441E+03  0.12699999809E+01 0.  1.
       -4    1    3    3    0  502  0.18241010667E+03 -0.18963873128E+02 -0.51148805350E+03  0.54337346022E+03  0.12699999809E+01 0. -1.
</event>
<event>
 5   0  0.1141970E-01  0.4980269E+03  0.7818609E-02  0.1014295E+00
        1   -1    0    0  501    0  0.00000000000E+00  0.00000000000E+00  0.37686278875E+03  0.37686278878E+03  0.50400001928E-02 0.  1.
       -1   -1    0    0    0  501  0.00000000000E+00  0.00000000000E+00 -0.16453656526E+03  0.16453656534E+03  0.50400001928E-02 0. -1.
    10030    2    1    2    0    0  0.00000000000E+00  0.00000000000E+00  0.21232622348E+03  0.54139935412E+03  0.49802694251E+03 0.  0.
        3    1    3    3  502    0  0.23049645298E+03  0.92370178454E+02  0.12640848100E+03  0.27863951438E+03  0.10100000352E+00 0.  1.
       -3    1    3    3    0  502 -0.23049645298E+03 -0.92370178454E+02  0.85917742479E+02  0.26275983974E+03  0.10100000352E+00 0. -1.
</event>
<event>
 5   0  0.7220250E-02  0.5043453E+03  0.7818609E-02  0.1012651E+00
        3   -1    0    0  501    0  0.00000000000E+00  0.00000000000E+00  0.91437875741E+03  0.91437876299E+03  0.10100000352E+00 0.  1.
       -3   -1    0    0    0  501  0.00000000000E+00  0.00000000000E+00 -0.69545590235E+02  0.69545663575E+02  0.10100000352E+00 0. -1.
    10030    2    1    2    0    0  0.00000000000E+00  0.00000000000E+00  0.84483316718E+03  0.98392442657E+03  0.50434531507E+03 0.  0.
        2    1    3    3  502    0 -0.90631295885E+02  0.15619557020E+02  0.88049491453E+03  0.88528486764E+03  0.25500000920E-02 0.  1.
       -2    1    3    3    0  502  0.90631295885E+02 -0.15619557020E+02 -0.35661747348E+02  0.98639558929E+02  0.25500000920E-02 0. -1.
</event>
<event>
 5   0  0.1074281E-01  0.4967161E+03  0.7818609E-02  0.1014640E+00
        1   -1    0    0  501    0  0.00000000000E+00  0.00000000000E+00  0.52705134364E+03  0.52705134367E+03  0.50400001928E-02 0. -1.
       -1   -1    0    0    0  501  0.00000000000E+00  0.00000000000E+00 -0.11703168926E+03  0.11703168937E+03  0.50400001928E-02 0.  1.
    10030    2    1    2    0    0  0.00000000000E+00  0.00000000000E+00  0.41001965438E+03  0.64408303304E+03  0.49671605215E+03 0.  0.
        4    1    3    3  502    0  0.11515813604E+03 -0.98994555077E+02  0.45982948447E+03  0.48425828431E+03  0.12699999809E+01 0. -1.
       -4    1    3    3    0  502 -0.11515813604E+03  0.98994555077E+02 -0.49809830093E+02  0.15982474873E+03  0.12699999809E+01 0.  1.
</event>
<event>
 5   0  0.1068522E-01  0.5086003E+03  0.7818609E-02  0.1011558E+00
       -1   -1    0    0    0  501  0.00000000000E+00  0.00000000000E+00  0.17445070637E+03  0.17445070644E+03  0.50400001928E-02 0. -1.
        1   -1    0    0  501    0  0.00000000000E+00  0.00000000000E+00 -0.37069822717E+03  0.37069822720E+03  0.50400001928E-02 0.  1.
    10030    2    1    2    0    0  0.00000000000E+00  0.00000000000E+00 -0.19624752080E+03  0.54514893365E+03  0.50860030519E+03 0.  0.
        2    1    3    3  502    0 -0.39939005548E+02 -0.11185831740E+03 -0.33914042178E+03  0.35933777011E+03  0.25500000920E-02 0.  1.
       -2    1    3    3    0  502  0.39939005548E+02  0.11185831740E+03  0.14289290098E+03  0.18581116353E+03  0.25500000920E-02 0. -1.
</event>
<event>
 5   0  0.1827698E-01  0.4755576E+03  0.7818609E-02  0.1020363E+00
        2   -1    0    0  501    0  0.00000000000E+00  0.00000000000E+00  0.72667064226E+03  0.72667064227E+03  0.25500000920E-02 0.  1.
       -2   -1    0    0    0  501  0.00000000000E+00  0.00000000000E+00 -0.77805217904E+02  0.77805217946E+02  0.25500000920E-02 0. -1.
    10030    2    1    2    0    0  0.00000000000E+00  0.00000000000E+00  0.64886542436E+03  0.80447586021E+03  0.47555764187E+03 0.  0.
        1    1    3    3  502    0  0.34235209962E+02 -0.15932351474E+03  0.61735032103E+03  0.63849624185E+03  0.50400001928E-02 0.  1.
       -1    1    3    3    0  502 -0.34235209962E+02  0.15932351474E+03  0.31515103330E+02  0.16597961837E+03  0.50400001928E-02 0. -1.
</event>
<event>
 5   0  0.1683148E-01  0.5136911E+03  0.7818609E-02  0.1010266E+00
        2   -1    0    0  501    0  0.00000000000E+00  0.00000000000E+00  0.77508128497E+03  0.77508128497E+03  0.25500000920E-02 0. -1.
       -2   -1    0    0    0  501  0.00000000000E+00  0.00000000000E+00 -0.85113171894E+02  0.85113171932E+02  0.25500000920E-02 0.  1.
    10030    2    1    2    0    0  0.00000000000E+00  0.00000000000E+00  0.68996811307E+03  0.86019445690E+03  0.51369106146E+03 0.  0.
        2    1    3    3  502    0  0.24406191274E+03 -0.79978467439E+02  0.34936806472E+03  0.43361367270E+03  0.25500000920E-02 0. -1.
       -2    1    3    3    0  502 -0.24406191274E+03  0.79978467439E+02  0.34060004835E+03  0.42658078420E+03  0.25500000920E-02 0.  1.
</event>
<event>
 5   0  0.1782124E-01  0.4928725E+03  0.7818609E-02  0.1015656E+00
        2   -1    0    0  501    0  0.00000000000E+00  0.00000000000E+00  0.11555072625E+04  0.11555072625E+04  0.25500000920E-02 0. -1.
       -2   -1    0    0    0  501  0.00000000000E+00  0.00000000000E+00 -0.52557714289E+02  0.52557714351E+02  0.25500000920E-02 0.  1.
    10030    2    1    2    0    0  0.00000000000E+00  0.00000000000E+00  0.11029495482E+04  0.12080649768E+04  0.49287248086E+03 0.  0.
        3    1    3    3  502    0  0.69945355260E+02  0.15558029658E+03  0.98741554319E+03  0.10020414395E+04  0.10100000352E+00 0.  1.
       -3    1    3    3    0  502 -0.69945355260E+02 -0.15558029658E+03  0.11553400498E+03  0.20602353728E+03  0.10100000352E+00 0. -1.
</event>
<event>
 5   0  0.1760649E-01  0.4901622E+03  0.7818609E-02  0.1016379E+00
        2   -1    0    0  501    0  0.00000000000E+00  0.00000000000E+00  0.12692404310E+04  0.12692404310E+04  0.25500000920E-02 0.  1.
       -2   -1    0    0    0  501  0.00000000000E+00  0.00000000000E+00 -0.47323381928E+02  0.47323381997E+02  0.25500000920E-02 0. -1.
    10030    2    1    2    0    0  0.00000000000E+00  0.00000000000E+00  0.12219170491E+04  0.13165638130E+04  0.49016221691E+03 0.  0.
        5    1    3    3  502    0  0.60219947682E+02  0.22872430955E+03  0.78297441233E+03  0.81793170389E+03  0.46999998093E+01 0. -1.
       -5    1    3    3    0  502 -0.60219947682E+02 -0.22872430955E+03  0.43894263672E+03  0.49863210908E+03  0.46999998093E+01 0.  1.
</event>
<event>
 5   0  0.7220250E-02  0.4675783E+03  0.7818609E-02  0.1022606E+00
        3   -1    0    0  501    0  0.00000000000E+00  0.00000000000E+00  0.25968753185E+03  0.25968755149E+03  0.10100000352E+00 0.  1.
       -3   -1    0    0    0  501  0.00000000000E+00  0.00000000000E+00 -0.21047356200E+03  0.21047358623E+03  0.10100000352E+00 0. -1.
    10030    2    1    2    0    0  0.00000000000E+00  0.00000000000E+00  0.49213969850E+02  0.47016113772E+03  0.46757831493E+03 0.  0.
        4    1    3    3  502    0 -0.12365683793E+03  0.72193432764E+02  0.21043271805E+03  0.25453181928E+03  0.12699999809E+01 0.  1.
       -4    1    3    3    0  502  0.12365683793E+03 -0.72193432764E+02 -0.16121874820E+03  0.21562931844E+03  0.12699999809E+01 0. -1.
</event>
<event>
 5   0  0.1141970E-01  0.4987471E+03  0.7818609E-02  0.1014106E+00
        1   -1    0    0  501    0  0.00000000000E+00  0.00000000000E+00  0.36517327582E+03  0.36517327585E+03  0.50400001928E-02 0. -1.
       -1   -1    0    0    0  501  0.00000000000E+00  0.00000000000E+00 -0.17029496435E+03  0.17029496443E+03  0.50400001928E-02 0.  1.
    10030    2    1    2    0    0  0.00000000000E+00  0.00000000000E+00  0.19487831146E+03  0.53546824028E+03  0.49874711034E+03 0.  0.
        3    1    3    3  502    0  0.16640737330E+03  0.12144531494E+03  0.24830866714E+03  0.32264157015E+03  0.10100000352E+00 0. -1.
       -3    1    3    3    0  502 -0.16640737330E+03 -0.12144531494E+03 -0.53430355679E+02  0.21282667013E+03  0.10100000352E+00 0.  1.
</event>
<event>
 5   0  0.7220250E-02  0.4756946E+03  0.7818609E-02  0.1020325E+00
       -3   -1    0    0    0  501  0.00000000000E+00  0.00000000000E+00  0.80365592062E+03  0.80365592697E+03  0.10100000352E+00 0.  1.
        3   -1    0    0  501    0  0.00000000000E+00  0.00000000000E+00 -0.70392438891E+02  0.70392511349E+02  0.10100000352E+00 0. -1.
    10030    2    1    2    0    0  0.00000000000E+00  0.00000000000E+00  0.73326348173E+03  0.87404843832E+03  0.47569458572E+03 0.  0.
        3    1    3    3  502    0 -0.11217394163E+03 -0.19120022201E+03  0.20824264955E+03  0.30414721661E+03  0.10100000352E+00 0.  1.
       -3    1    3    3    0  502  0.11217394163E+03  0.19120022201E+03  0.52502083219E+03  0.56990122171E+03  0.10100000352E+00 0. -1.
</event>
<event>
 5   0  0.1068522E-01  0.4902766E+03  0.7818609E-02  0.1016348E+00
       -1   -1    0    0    0  501  0.00000000000E+00  0.00000000000E+00  0.70094052662E+02  0.70094052843E+02  0.50400001928E-02 0. -1.
        1   -1    0    0  501    0  0.00000000000E+00  0.00000000000E+00 -0.85731630866E+03  0.85731630868E+03  0.50400001928E-02 0.  1.
    10030    2    1    2    0    0  0.00000000000E+00  0.00000000000E+00 -0.78722225600E+03  0.92741036152E+03  0.49027655289E+03 0.  0.
        2    1    3    3  502    0 -0.18959829509E+03 -0.78900528040E+02 -0.14039029586E+03  0.24876141582E+03  0.25500000920E-02 0.  1.
       -2    1    3    3    0  502  0.18959829509E+03  0.78900528040E+02 -0.64683196014E+03  0.67864894570E+03  0.25500000920E-02 0. -1.
</event>
<event>
 5   0  0.1141970E-01  0.4835899E+03  0.7818609E-02  0.1018153E+00
        1   -1    0    0  501    0  0.00000000000E+00  0.00000000000E+00  0.97178761252E+03  0.97178761254E+03  0.50400001928E-02 0.  1.
       -1   -1    0    0    0  501  0.00000000000E+00  0.00000000000E+00 -0.60162121428E+02  0.60162121639E+02  0.50400001928E-02 0. -1.
    10030    2    1    2    0    0  0.00000000000E+00  0.00000000000E+00  0.91162549110E+03  0.10319497342E+04  0.48358992737E+03 0.  0.
        3    1    3    3  502    0  0.69335645051E+02 -0.12181677137E+03  0.35378502418E+02  0.14456281021E+03  0.10100000352E+00 0. -1.
       -3    1    3    3    0  502 -0.69335645051E+02  0.12181677137E+03  0.87624698868E+03  0.88738692397E+03  0.10100000352E+00 0.  1.
</event>
<event>
 5   0  0.1683148E-01  0.5032688E+03  0.7818609E-02  0.1012929E+00
        2   -1    0    0  501    0  0.00000000000E+00  0.00000000000E+00  0.12920634379E+03  0.12920634381E+03  0.25500000920E-02 0.  1.
       -2   -1    0    0    0  501  0.00000000000E+00  0.00000000000E+00 -0.49006773566E+03  0.49006773566E+03  0.25500000920E-02 0. -1.
    10030    2    1    2    0    0  0.00000000000E+00  0.00000000000E+00 -0.36086139187E+03  0.61927407948E+03  0.50326875660E+03 0.  0.
        2    1    3    3  502    0 -0.22717830897E+02  0.15212786148E+03  0.64624589664E+02  0.16683921503E+03  0.25500000920E-02 0.  1.
       -2    1    3    3    0  502  0.22717830897E+02 -0.15212786148E+03 -0.42548598153E+03  0.45243486444E+03  0.25500000920E-02 0. -1.
</event>
<event>
 5   0  0.1827698E-01  0.4751137E+03  0.7818609E-02  0.1020487E+00
       -2   -1    0    0    0  501  0.00000000000E+00  0.00000000000E+00  0.81903327491E+02  0.81903327531E+02  0.25500000920E-02 0.  1.
        2   -1    0    0  501    0  0.00000000000E+00  0.00000000000E+00 -0.68902289513E+03  0.68902289513E+03  0.25500000920E-02 0. -1.
    10030    2    1    2    0    0  0.00000000000E+00  0.00000000000E+00 -0.60711956764E+03  0.77092622266E+03  0.47511374573E+03 0.  0.
        1    1    3    3  502    0 -0.19749921983E+03 -0.32827365048E+02 -0.96082771557E+02  0.22207088225E+03  0.50400001928E-02 0.  1.
       -1    1    3    3    0  502  0.19749921983E+03  0.32827365048E+02 -0.51103679608E+03  0.54885534041E+03  0.50400001928E-02 0. -1.
</event>
<event>
 5   0  0.1827698E-01  0.5064488E+03  0.7818609E-02  0.1012109E+00
        2   -1    0    0  501    0  0.00000000000E+00  0.00000000000E+00  0.18252951599E+03  0.18252951601E+03  0.25500000920E-02 0.  1.
       -2   -1    0    0    0  501  0.00000000000E+00  0.00000000000E+00 -0.35129984047E+03  0.35129984048E+03  0.25500000920E-02 0. -1.
    10030    2    1    2    0    0  0.00000000000E+00  0.00000000000E+00 -0.16877032448E+03  0.53382935649E+03  0.50644877275E+03 0.  0.
        1    1    3    3  502    0  0.20801151906E+03 -0.14389063162E+03 -0.71506421092E+02  0.26284306005E+03  0.50400001928E-02 0.  1.
       -1    1    3    3    0  502 -0.20801151906E+03  0.14389063162E+03 -0.97263903387E+02  0.27098629644E+03  0.50400001928E-02 0. -1.
</event>
<event>
 5   0  0.1782124E-01  0.4996331E+03  0.7818609E-02  0.1013875E+00
        2   -1    0    0  501    0  0.00000000000E+00  0.00000000000E+00  0.62192428784E+03  0.62192428785E+03  0.25500000920E-02 0.  1.
       -2   -1    0    0    0  501  0.00000000000E+00  0.00000000000E+00 -0.10034711258E+03  0.10034711261E+03  0.25500000920E-02 0. -1.
    10030    2    1    2    0    0  0.00000000000E+00  0.00000000000E+00  0.52157717526E+03  0.72227140046E+03  0.49963309154E+03 0.  0.
        3    1    3    3  502    0  0.12535130804E+03  0.15197576530E+02  0.57239708720E+03  0.58615898218E+03  0.10100000352E+00 0.  1.
       -3    1    3    3    0  502 -0.12535130804E+03 -0.15197576530E+02 -0.50819911935E+02  0.13611241828E+03  0.10100000352E+00 0. -1.
</event>
<event>
 5   0  0.1068522E-01  0.4819526E+03  0.7818609E-02  0.1018600E+00
        1   -1    0    0  501    0  0.00000000000E+00  0.00000000000E+00  0.77772442261E+03  0.77772442263E+03  0.50400001928E-02 0.  1.
       -1   -1    0    0    0  501  0.00000000000E+00  0.00000000000E+00 -0.74666005256E+02  0.74666005426E+02  0.50400001928E-02 0. -1.
    10030    2    1    2    0    0  0.00000000000E+00  0.00000000000E+00  0.70305841735E+03  0.85239042805E+03  0.48195259479E+03 0.  0.
        2    1    3    3  502    0  0.23843865529E+03 -0.21117981471E+02  0.30243245158E+03  0.38569981754E+03  0.25500000920E-02 0.  1.
       -2    1    3    3    0  502 -0.23843865529E+03  0.21117981471E+02  0.40062596578E+03  0.46669061051E+03  0.25500000920E-02 0. -1.
</event>
<event>
 5   0  0.1827698E-01  0.5050946E+03  0.7818609E-02  0.1012458E+00
        2   -1    0    0  501    0  0.00000000000E+00  0.00000000000E+00  0.47673076697E+03  0.47673076698E+03  0.25500000920E-02 0.  1.
       -2   -1    0    0    0  501  0.00000000000E+00  0.00000000000E+00 -0.13378650644E+03  0.13378650647E+03  0.25500000920E-02 0. -1.
    10030    2    1    2    0    0  0.00000000000E+00  0.00000000000E+00  0.34294426053E+03  0.61051727345E+03  0.50509462019E+03 0.  0.
        1    1    3    3  502    0  0.16720237700E+03 -0.18765000635E+03  0.20134934793E+03  0.32204148754E+03  0.50400001928E-02 0.  1.
       -1    1    3    3    0  502 -0.16720237700E+03  0.18765000635E+03  0.14159491260E+03  0.28847578591E+03  0.50400001928E-02 0. -1.
</event>
<event>
 5   0  0.1068522E-01  0.5466809E+03  0.7818609E-02  0.1002265E+00
       -1   -1    0    0    0  501  0.00000000000E+00  0.00000000000E+00  0.85373051036E+02  0.85373051185E+02  0.50400001928E-02 0.  1.
        1   -1    0    0  501    0  0.00000000000E+00  0.00000000000E+00 -0.87515893756E+03  0.87515893757E+03  0.50400001928E-02 0. -1.
    10030    2    1    2    0    0  0.00000000000E+00  0.00000000000E+00 -0.78978588652E+03  0.96053198876E+03  0.54668085285E+03 0.  0.
        2    1    3    3  502    0  0.50287821323E+02  0.80583871713E+02  0.55441757209E+02  0.10998369790E+03  0.25500000920E-02 0.  1.
       -2    1    3    3    0  502 -0.50287821323E+02 -0.80583871713E+02 -0.84522764373E+03  0.85054829086E+03  0.25500000920E-02 0. -1.
</event>
<event>
 5   0  0.1760649E-01  0.5046940E+03  0.7818609E-02  0.1012561E+00
       -2   -1    0    0    0  501  0.00000000000E+00  0.00000000000E+00  0.95956715014E+02  0.95956715048E+02  0.25500000920E-02 0.  1.
        2   -1    0    0  501    0  0.00000000000E+00  0.00000000000E+00 -0.66362227862E+03  0.66362227863E+03  0.25500000920E-02 0. -1.
    10030    2    1    2    0    0  0.00000000000E+00  0.00000000000E+00 -0.56766556361E+03  0.75957899367E+03  0.50469402169E+03 0.  0.
        5    1    3    3  502    0 -0.29004460159E+02  0.10442621652E+02  0.93045811685E+02  0.98132156434E+02  0.46999998093E+01 0.  1.
       -5    1    3    3    0  502  0.29004460159E+02 -0.10442621652E+02 -0.66071137529E+03  0.66144683724E+03  0.46999998093E+01 0. -1.
</event>
<event>
 5   0  0.1782124E-01  0.5031488E+03  0.7818609E-02  0.1012960E+00
       -2   -1    0    0    0  501  0.00000000000E+00  0.00000000000E+00  0.15524539366E+03  0.15524539368E+03  0.25500000920E-02 0. -1.
        2   -1    0    0  501    0  0.00000000000E+00  0.00000000000E+00 -0.40767508291E+03  0.40767508292E+03  0.25500000920E-02 0.  1.
    10030    2    1    2    0    0  0.00000000000E+00  0.00000000000E+00 -0.25242968926E+03  0.56292047660E+03  0.50314880002E+03 0.  0.
        3    1    3    3  502    0 -0.16465580968E+03 -0.18605546740E+03 -0.17042489741E+03  0.30128529415E+03  0.10100000352E+00 0. -1.
       -3    1    3    3    0  502  0.16465580968E+03  0.18605546740E+03 -0.82004791843E+02  0.26163518245E+03  0.10100000352E+00 0.  1.
</event>
<event>
 5   0  0.1068522E-01  0.4998458E+03  0.7818609E-02  0.1013819E+00
        1   -1    0    0  501    0  0.00000000000E+00  0.00000000000E+00  0.22117142349E+03  0.22117142355E+03  0.50400001928E-02 0.  1.
       -1   -1    0    0    0  501  0.00000000000E+00  0.00000000000E+00 -0.28241191680E+03  0.28241191685E+03  0.50400001928E-02 0. -1.
    10030    2    1    2    0    0  0.00000000000E+00  0.00000000000E+00 -0.61240493313E+02  0.50358334039E+03  0.49984575891E+03 0.  0.
        2    1    3    3  502    0 -0.11445689544E+03  0.21600521674E+03 -0.82997556572E+02  0.25816124607E+03  0.25500000920E-02 0. -1.
       -2    1    3    3    0  502  0.11445689544E+03 -0.21600521674E+03  0.21757063260E+02  0.24542209432E+03  0.25500000920E-02 0.  1.
</event>
<event>
 5   0  0.7220250E-02  0.4951530E+03  0.7818609E-02  0.1015052E+00
       -4   -1    0    0    0  501  0.00000000000E+00  0.00000000000E+00  0.20802192910E+03  0.20802580581E+03  0.12699999809E+01 0. -1.
        4   -1    0    0  501    0  0.00000000000E+00  0.00000000000E+00 -0.29464422185E+03  0.29464695887E+03  0.12699999809E+01 0.  1.
    10030    2    1    2    0    0  0.00000000000E+00  0.00000000000E+00 -0.86622292754E+02  0.50267276468E+03  0.49515299328E+03 0.  0.
        5    1    3    3  502    0 -0.63658360336E+02  0.20500138284E+03  0.81825099159E+02  0.22977247585E+03  0.46999998093E+01 0. -1.
       -5    1    3    3    0  502  0.63658360336E+02 -0.20500138284E+03 -0.16844739191E+03  0.27290028884E+03  0.46999998093E+01 0.  1.
</event>
<event>
 5   0  0.7220250E-02  0.5011075E+03  0.7818609E-02  0.1013490E+00
        3   -1    0    0  501    0  0.00000000000E+00  0.00000000000E+00  0.20353630287E+03  0.20353632793E+03  0.10100000352E+00 0. -1.
       -3   -1    0    0    0  501  0.00000000000E+00  0.00000000000E+00 -0.30843224598E+03  0.30843226252E+03  0.10100000352E+00 0.  1.
    10030    2    1    2    0    0  0.00000000000E+00  0.00000000000E+00 -0.10489594311E+03  0.51196859045E+03  0.50110745228E+03 0.  0.
        4    1    3    3  502    0 -0.15650529040E+02  0.29503199353E+02  0.20124874506E+03  0.20400501984E+03  0.12699999809E+01 0. -1.
       -4    1    3    3    0  502  0.15650529040E+02 -0.29503199353E+02 -0.30614468817E+03  0.30796357062E+03  0.12699999809E+01 0.  1.
</event>
<event>
 5   0  0.1123271E-01  0.4965069E+03  0.7818609E-02  0.1014695E+00
        1   -1    0    0  501    0  0.00000000000E+00  0.00000000000E+00  0.29653834157E+03  0.29653834161E+03  0.50400001928E-02 0.  1.
       -1   -1    0    0    0  501  0.00000000000E+00  0.00000000000E+00 -0.20783068067E+03  0.20783068073E+03  0.50400001928E-02 0. -1.
    10030    2    1    2    0    0  0.00000000000E+00  0.00000000000E+00  0.88707660904E+02  0.50436902234E+03  0.49650685956E+03 0.  0.
        5    1    3    3  502    0 -0.63827359345E+02 -0.97048889209E+02  0.26717915902E+03  0.29137469299E+03  0.46999998093E+01 0.  1.
       -5    1    3    3    0  502  0.63827359345E+02  0.97048889209E+02 -0.17847149812E+03  0.21299432936E+03  0.46999998093E+01 0. -1.
</event>
<event>
 5   0  0.1683148E-01  0.5026809E+03  0.7818609E-02  0.1013082E+00
       -2   -1    0    0    0  501  0.00000000000E+00  0.00000000000E+00  0.60423484861E+02  0.60423484915E+02  0.25500000920E-02 0.  1.
        2   -1    0    0  501    0  0.00000000000E+00  0.00000000000E+00 -0.10454879859E+04  0.10454879859E+04  0.25500000920E-02 0. -1.
    10030    2    1    2    0    0  0.00000000000E+00  0.00000000000E+00 -0.98506450101E+03  0.11059114708E+04  0.50268092273E+03 0.  0.
        2    1    3    3  502    0  0.24306085147E+03 -0.55538681213E+02 -0.42265222229E+03  0.49071175209E+03  0.25500000920E-02 0. -1.
       -2    1    3    3    0  502 -0.24306085147E+03  0.55538681213E+02 -0.56241227872E+03  0.61519971870E+03  0.25500000920E-02 0.  1.
</event>
<event>
 5   0  0.1683148E-01  0.5062728E+03  0.7818609E-02  0.1012154E+00
       -2   -1    0    0    0  501  0.00000000000E+00  0.00000000000E+00  0.88862324218E+02  0.88862324254E+02  0.25500000920E-02 0.  1.
        2   -1    0    0  501    0  0.00000000000E+00  0.00000000000E+00 -0.72109352399E+03  0.72109352400E+03  0.25500000920E-02 0. -1.
    10030    2    1    2    0    0  0.00000000000E+00  0.00000000000E+00 -0.63223119978E+03  0.80995584825E+03  0.50627283766E+03 0.  0.
        2    1    3    3  502    0 -0.43874182092E+02  0.24682811789E+03 -0.37220097606E+03  0.44875676064E+03  0.25500000920E-02 0. -1.
       -2    1    3    3    0  502  0.43874182092E+02 -0.24682811789E+03 -0.26003022372E+03  0.36119908761E+03  0.25500000920E-02 0.  1.
</event>
<event>
 5   0  0.1141970E-01  0.5063508E+03  0.7818609E-02  0.1012134E+00
        1   -1    0    0  501    0  0.00000000000E+00  0.00000000000E+00  0.19734102716E+04  0.19734102716E+04  0.50400001928E-02 0.  1.
       -1   -1    0    0    0  501  0.00000000000E+00  0.00000000000E+00 -0.32480713556E+02  0.32480713947E+02  0.50400001928E-02 0. -1.
    10030    2    1    2    0    0  0.00000000000E+00  0.00000000000E+00  0.19409295580E+04  0.20058909855E+04  0.50635076443E+03 0.  0.
        3    1    3    3  502    0 -0.61052887625E+01  0.23891192335E+03  0.13014684324E+04  0.13232294859E+04  0.10100000352E+00 0. -1.
       -3    1    3    3    0  502  0.61052887625E+01 -0.23891192335E+03  0.63946112563E+03  0.68266149963E+03  0.10100000352E+00 0.  1.
</event>
<event>
 5   0  0.1709372E-01  0.5117682E+03  0.7818609E-02  0.1010752E+00
       -2   -1    0    0    0  501  0.00000000000E+00  0.00000000000E+00  0.57517570943E+02  0.57517571000E+02  0.25500000920E-02 0. -1.
        2   -1    0    0  501    0  0.00000000000E+00  0.00000000000E+00 -0.11383767234E+04  0.11383767234E+04  0.25500000920E-02 0.  1.
    10030    2    1    2    0    0  0.00000000000E+00  0.00000000000E+00 -0.10808591525E+04  0.11958942944E+04  0.51176816620E+03 0.  0.
        4    1    3    3  502    0  0.11291124830E+02  0.19982552627E+03 -0.91297944087E+03  0.93466079558E+03  0.12699999809E+01 0.  1.
       -4    1    3    3    0  502 -0.11291124830E+02 -0.19982552627E+03 -0.16787971161E+03  0.26123349884E+03  0.12699999809E+01 0. -1.
</event>
<event>
 5   0  0.1074281E-01  0.4936554E+03  0.7818609E-02  0.1015448E+00
       -1   -1    0    0    0  501  0.00000000000E+00  0.00000000000E+00  0.93640233635E+02  0.93640233771E+02  0.50400001928E-02 0.  1.
        1   -1    0    0  501    0  0.00000000000E+00  0.00000000000E+00 -0.65061691579E+03  0.65061691580E+03  0.50400001928E-02 0. -1.
    10030    2    1    2    0    0  0.00000000000E+00  0.00000000000E+00 -0.55697668215E+03  0.74425714958E+03  0.49365542662E+03 0.  0.
        4    1    3    3  502    0  0.46029781702E+02 -0.16136293141E+01  0.87099141619E+02  0.98535364077E+02  0.12699999809E+01 0.  1.
       -4    1    3    3    0  502 -0.46029781702E+02  0.16136293141E+01 -0.64407582377E+03  0.64572178550E+03  0.12699999809E+01 0. -1.
</event>
<event>
 5   0  0.1683148E-01  0.5035800E+03  0.7818609E-02  0.1012849E+00
       -2   -1    0    0    0  501  0.00000000000E+00  0.00000000000E+00  0.39608937439E+03  0.39608937440E+03  0.25500000920E-02 0. -1.
        2   -1    0    0  501    0  0.00000000000E+00  0.00000000000E+00 -0.16006035792E+03  0.16006035794E+03  0.25500000920E-02 0.  1.
    10030    2    1    2    0    0  0.00000000000E+00  0.00000000000E+00  0.23602901648E+03  0.55614973234E+03  0.50358001168E+03 0.  0.
        2    1    3    3  502    0  0.59569993800E+02 -0.23149360080E+03  0.20539652396E+03  0.31515964753E+03  0.25500000920E-02 0.  1.
       -2    1    3    3    0  502 -0.59569993800E+02  0.23149360080E+03  0.30632492520E+02  0.24099008481E+03  0.25500000920E-02 0. -1.
</event>
<event>
 5   0  0.1141970E-01  0.4983495E+03  0.7818609E-02  0.1014211E+00
        1   -1    0    0  501    0  0.00000000000E+00  0.00000000000E+00  0.42861662305E+03  0.42861662308E+03  0.50400001928E-02 0.  1.
       -1   -1    0    0    0  501  0.00000000000E+00  0.00000000000E+00 -0.14485687692E+03  0.14485687701E+03  0.50400001928E-02 0. -1.
    10030    2    1    2    0    0  0.00000000000E+00  0.00000000000E+00  0.28375974613E+03  0.57347350009E+03  0.49834953776E+03 0.  0.
        3    1    3    3  502    0  0.40333827995E+02  0.14246735164E+03 -0.88741391100E+02  0.17262331436E+03  0.10100000352E+00 0. -1.
       -3    1    3    3    0  502 -0.40333827995E+02 -0.14246735164E+03  0.37250113723E+03  0.40085018574E+03  0.10100000352E+00 0.  1.
</event>
<event>
 5   0  0.7220250E-02  0.4968311E+03  0.7818609E-02  0.1014609E+00
       -3   -1    0    0    0  501  0.00000000000E+00  0.00000000000E+00  0.38895757526E+03  0.38895758837E+03  0.10100000352E+00 0. -1.
        3   -1    0    0  501    0  0.00000000000E+00  0.00000000000E+00 -0.15865552353E+03  0.15865555568E+03  0.10100000352E+00 0.  1.
    10030    2    1    2    0    0  0.00000000000E+00  0.00000000000E+00  0.23030205173E+03  0.54761314405E+03  0.49683107845E+03 0.  0.
        4    1    3    3  502    0 -0.68196536710E+02 -0.42774847429E+02  0.37417836299E+03  0.38274210040E+03  0.12699999809E+01 0. -1.
       -4    1    3    3    0  502  0.68196536710E+02  0.42774847429E+02 -0.14387631126E+03  0.16487104365E+03  0.12699999809E+01 0.  1.
</event>
<event>
 5   0  0.1827698E-01  0.4995977E+03  0.7818609E-02  0.1013884E+00
       -2   -1    0    0    0  501  0.00000000000E+00  0.00000000000E+00  0.22466650140E+03  0.22466650141E+03  0.25500000920E-02 0. -1.
        2   -1    0    0  501    0  0.00000000000E+00  0.00000000000E+00 -0.27774265793E+03  0.27774265794E+03  0.25500000920E-02 0.  1.
    10030    2    1    2    0    0  0.00000000000E+00  0.00000000000E+00 -0.53076156532E+02  0.50240915935E+03  0.49959772318E+03 0.  0.
        1    1    3    3  502    0  0.24964347611E+03 -0.78485929406E+01 -0.30561297890E+02  0.25162960583E+03  0.50400001928E-02 0.  1.
       -1    1    3    3    0  502 -0.24964347611E+03  0.78485929406E+01 -0.22514858641E+02  0.25077955352E+03  0.50400001928E-02 0. -1.
</event>
<event>
 5   0  0.1760649E-01  0.4705884E+03  0.7818609E-02  0.1021754E+00
        2   -1    0    0  501    0  0.00000000000E+00  0.00000000000E+00  0.69958096207E+03  0.69958096207E+03  0.25500000920E-02 0.  1.
       -2   -1    0    0    0  501  0.00000000000E+00  0.00000000000E+00 -0.79137883647E+02  0.79137883688E+02  0.25500000920E-02 0. -1.
    10030    2    1    2    0    0  0.00000000000E+00  0.00000000000E+00  0.62044307842E+03  0.77871884576E+03  0.47058838403E+03 0.  0.
        5    1    3    3  502    0 -0.37248983142E+02  0.21245576108E+03  0.46559734437E+03  0.51315486380E+03  0.46999998093E+01 0.  1.
       -5    1    3    3    0  502  0.37248983142E+02 -0.21245576108E+03  0.15484573405E+03  0.26556398196E+03  0.46999998093E+01 0. -1.
</event>
<event>
 5   0  0.1147245E-01  0.4974324E+03  0.7818609E-02  0.1014451E+00
       -1   -1    0    0    0  501  0.00000000000E+00  0.00000000000E+00  0.53193477802E+03  0.53193477804E+03  0.50400001928E-02 0.  1.
        1   -1    0    0  501    0  0.00000000000E+00  0.00000000000E+00 -0.11629195849E+03  0.11629195860E+03  0.50400001928E-02 0. -1.
    10030    2    1    2    0    0  0.00000000000E+00  0.00000000000E+00  0.41564281953E+03  0.64822673664E+03  0.49743235588E+03 0.  0.
        1    1    3    3  502    0  0.10120549106E+03 -0.13584393101E+03  0.44513566278E+03  0.47627920731E+03  0.50400001928E-02 0.  1.
       -1    1    3    3    0  502 -0.10120549106E+03  0.13584393101E+03 -0.29492843255E+02  0.17194752933E+03  0.50400001928E-02 0. -1.
</event>
<event>
 5   0  0.1068522E-01  0.5204082E+03  0.7818609E-02  0.1008585E+00
        1   -1    0    0  501    0  0.00000000000E+00  0.00000000000E+00  0.50225950495E+03  0.50225950498E+03  0.50400001928E-02 0. -1.
       -1   -1    0    0    0  501  0.00000000000E+00  0.00000000000E+00 -0.13480318509E+03  0.13480318519E+03  0.50400001928E-02 0.  1.
    10030    2    1    2    0    0  0.00000000000E+00  0.00000000000E+00  0.36745631986E+03  0.63706269017E+03  0.52040822841E+03 0.  0.
        2    1    3    3  502    0  0.44355357754E+02 -0.96107907606E+02 -0.10725652507E+03  0.15069203643E+03  0.25500000920E-02 0.  1.
       -2    1    3    3    0  502 -0.44355357754E+02  0.96107907606E+02  0.47471284493E+03  0.48637065374E+03  0.25500000920E-02 0. -1.
</event>
<event>
 5   0  0.1074281E-01  0.4967687E+03  0.7818609E-02  0.1014626E+00
       -1   -1    0    0    0  501  0.00000000000E+00  0.00000000000E+00  0.26235797178E+03  0.26235797183E+03  0.50400001928E-02 0. -1.
        1   -1    0    0  501    0  0.00000000000E+00  0.00000000000E+00 -0.23515503153E+03  0.23515503158E+03  0.50400001928E-02 0.  1.
    10030    2    1    2    0    0  0.00000000000E+00  0.00000000000E+00  0.27202940248E+02  0.49751300341E+03  0.49676874761E+03 0.  0.
        4    1    3    3  502    0 -0.21375771254E+03  0.30327952524E+02  0.13659034101E+03  0.25548126846E+03  0.12699999809E+01 0. -1.
       -4    1    3    3    0  502  0.21375771254E+03 -0.30327952524E+02 -0.10938740076E+03  0.24203173495E+03  0.12699999809E+01 0.  1.
</event>
<event>
 5   0  0.1683148E-01  0.4891969E+03  0.7818609E-02  0.1016638E+00
        2   -1    0    0  501    0  0.00000000000E+00  0.00000000000E+00  0.60727833100E+03  0.60727833100E+03  0.25500000920E-02 0. -1.
       -2   -1    0    0    0  501  0.00000000000E+00  0.00000000000E+00 -0.98518909380E+02  0.98518909413E+02  0.25500000920E-02 0.  1.
    10030    2    1    2    0    0  0.00000000000E+00  0.00000000000E+00  0.50875942162E+03  0.70579724042E+03  0.48919688827E+03 0.  0.
        2    1    3    3  502    0 -0.20203454595E+02 -0.22620804016E+03  0.38542667907E+03  0.44736113148E+03  0.25500000920E-02 0. -1.
       -2    1    3    3    0  502  0.20203454595E+02  0.22620804016E+03  0.12333274255E+03  0.25843610894E+03  0.25500000920E-02 0.  1.
</event>
<event>
 5   0  0.1683148E-01  0.5095667E+03  0.7818609E-02  0.1011312E+00
       -2   -1    0    0    0  501  0.00000000000E+00  0.00000000000E+00  0.46117893192E+03  0.46117893193E+03  0.25500000920E-02 0. -1.
        2   -1    0    0  501    0  0.00000000000E+00  0.00000000000E+00 -0.14075784801E+03  0.14075784803E+03  0.25500000920E-02 0.  1.
    10030    2    1    2    0    0  0.00000000000E+00  0.00000000000E+00  0.32042108391E+03  0.60193677996E+03  0.50956669441E+03 0.  0.
        2    1    3    3  502    0 -0.72351891465E+02 -0.44081846922E+02  0.44405162518E+03  0.45206177814E+03  0.25500000920E-02 0. -1.
       -2    1    3    3    0  502  0.72351891465E+02  0.44081846922E+02 -0.12363054127E+03  0.14987500181E+03  0.25500000920E-02 0.  1.
</event>
<event>
 5   0  0.1709372E-01  0.5001377E+03  0.7818609E-02  0.1013743E+00
       -2   -1    0    0    0  501  0.00000000000E+00  0.00000000000E+00  0.11180605619E+03  0.11180605622E+03  0.25500000920E-02 0. -1.
        2   -1    0    0  501    0  0.00000000000E+00  0.00000000000E+00 -0.55931162688E+03  0.55931162689E+03  0.25500000920E-02 0.  1.
    10030    2    1    2    0    0  0.00000000000E+00  0.00000000000E+00 -0.44750557069E+03  0.67111768311E+03  0.50013768982E+03 0.  0.
        4    1    3    3  502    0 -0.17179678762E+03 -0.18116524726E+03 -0.24262646340E+03  0.34814393100E+03  0.12699999809E+01 0. -1.
       -4    1    3    3    0  502  0.17179678762E+03  0.18116524726E+03 -0.20487910728E+03  0.32297375211E+03  0.12699999809E+01 0.  1.
</event>
<event>
 5   0  0.7220250E-02  0.4210249E+03  0.7818609E-02  0.1036733E+00
       -3   -1    0    0    0  501  0.00000000000E+00  0.00000000000E+00  0.22605631156E+04  0.22605631179E+04  0.10100000352E+00 0.  1.
        3   -1    0    0  501    0  0.00000000000E+00  0.00000000000E+00 -0.19603609439E+02  0.19603869619E+02  0.10100000352E+00 0. -1.
    10030    2    1    2    0    0  0.00000000000E+00  0.00000000000E+00  0.22409595062E+04  0.22801669875E+04  0.42102491912E+03 0.  0.
        1    1    3    3  502    0  0.37404480544E+02 -0.12361404213E+03  0.22016119728E+03  0.25524591944E+03  0.50400001928E-02 0. -1.
       -1    1    3    3    0  502 -0.37404480544E+02  0.12361404213E+03  0.20207983089E+04  0.20249210681E+04  0.50400001928E-02 0.  1.
</event>
<event>
 5   0  0.1760649E-01  0.5019047E+03  0.7818609E-02  0.1013283E+00
        2   -1    0    0  501    0  0.00000000000E+00  0.00000000000E+00  0.15132944330E+04  0.15132944330E+04  0.25500000920E-02 0. -1.
       -2   -1    0    0    0  501  0.00000000000E+00  0.00000000000E+00 -0.41615885065E+02  0.41615885143E+02  0.25500000920E-02 0.  1.
    10030    2    1    2    0    0  0.00000000000E+00  0.00000000000E+00  0.14716785479E+04  0.15549103181E+04  0.50190472105E+03 0.  0.
        5    1    3    3  502    0 -0.40320893622E+02 -0.36601421796E+02  0.14946297973E+04  0.14956288843E+04  0.46999998093E+01 0. -1.
       -5    1    3    3    0  502  0.40320893622E+02  0.36601421796E+02 -0.22951249454E+02  0.59281433769E+02  0.46999998093E+01 0.  1.
</event>
<event>
 5   0  0.1683148E-01  0.4932956E+03  0.7818609E-02  0.1015544E+00
       -2   -1    0    0    0  501  0.00000000000E+00  0.00000000000E+00  0.73662014714E+02  0.73662014758E+02  0.25500000920E-02 0. -1.
        2   -1    0    0  501    0  0.00000000000E+00  0.00000000000E+00 -0.82586859080E+03  0.82586859081E+03  0.25500000920E-02 0.  1.
    10030    2    1    2    0    0  0.00000000000E+00  0.00000000000E+00 -0.75220657609E+03  0.89953060556E+03  0.49329562864E+03 0.  0.
        2    1    3    3  502    0  0.63835544089E+02  0.15941884488E+03 -0.69895147595E+03  0.71973780679E+03  0.25500000920E-02 0.  1.
       -2    1    3    3    0  502 -0.63835544089E+02 -0.15941884488E+03 -0.53255100140E+02  0.17979279877E+03  0.25500000920E-02 0. -1.
</event>
<event>
 5   0  0.1709372E-01  0.5041171E+03  0.7818609E-02  0.1012710E+00
        2   -1    0    0  501    0  0.00000000000E+00  0.00000000000E+00  0.14271604507E+04  0.14271604507E+04  0.25500000920E-02 0.  1.
       -2   -1    0    0    0  501  0.00000000000E+00  0.00000000000E+00 -0.44517433743E+02  0.44517433816E+02  0.25500000920E-02 0. -1.
    10030    2    1    2    0    0  0.00000000000E+00  0.00000000000E+00  0.13826430170E+04  0.14716778846E+04  0.50411713267E+03 0.  0.
        4    1    3    3  502    0 -0.30931829355E+02 -0.20380620381E+03  0.11147549899E+04  0.11336551712E+04  0.12699999809E+01 0.  1.
       -4    1    3    3    0  502  0.30931829355E+02  0.20380620381E+03  0.26788802706E+03  0.33802271332E+03  0.12699999809E+01 0. -1.
</event>
<event>
 5   0  0.1709372E-01  0.5084571E+03  0.7818609E-02  0.1011595E+00
        2   -1    0    0  501    0  0.00000000000E+00  0.00000000000E+00  0.46601194282E+03  0.46601194283E+03  0.25500000920E-02 0.  1.
       -2   -1    0    0    0  501  0.00000000000E+00  0.00000000000E+00 -0.13869207990E+03  0.13869207993E+03  0.25500000920E-02 0. -1.
    10030    2    1    2    0    0  0.00000000000E+00  0.00000000000E+00  0.32731986292E+03  0.60470402275E+03  0.50845713927E+03 0.  0.
        4    1    3    3  502    0 -0.11702278343E+03 -0.10642023255E+01  0.43206891041E+03  0.44763894001E+03  0.12699999809E+01 0.  1.
       -4    1    3    3    0  502  0.11702278343E+03  0.10642023255E+01 -0.10474904749E+03  0.15706508275E+03  0.12699999809E+01 0. -1.
</event>
<event>
 5   0  0.1709372E-01  0.4975492E+03  0.7818609E-02  0.1014421E+00
        2   -1    0    0  501    0  0.00000000000E+00  0.00000000000E+00  0.97225518436E+03  0.97225518436E+03  0.25500000920E-02 0. -1.
       -2   -1    0    0    0  501  0.00000000000E+00  0.00000000000E+00 -0.63654894500E+02  0.63654894551E+02  0.25500000920E-02 0.  1.
    10030    2    1    2    0    0  0.00000000000E+00  0.00000000000E+00  0.90860028986E+03  0.10359100789E+04  0.49754919843E+03 0.  0.
        4    1    3    3  502    0  0.10946691751E+03 -0.13504011440E+03  0.82480912993E+03  0.84292974336E+03  0.12699999809E+01 0. -1.
       -4    1    3    3    0  502 -0.10946691751E+03  0.13504011440E+03  0.83791159928E+02  0.19298033555E+03  0.12699999809E+01 0.  1.
</event>
<event>
 5   0  0.1760649E-01  0.5130720E+03  0.7818609E-02  0.1010422E+00
       -2   -1    0    0    0  501  0.00000000000E+00  0.00000000000E+00  0.71692555144E+02  0.71692555189E+02  0.25500000920E-02 0.  1.
        2   -1    0    0  501    0  0.00000000000E+00  0.00000000000E+00 -0.91795761963E+03  0.91795761963E+03  0.25500000920E-02 0. -1.
    10030    2    1    2    0    0  0.00000000000E+00  0.00000000000E+00 -0.84626506448E+03  0.98965017482E+03  0.51307203116E+03 0.  0.
        5    1    3    3  502    0  0.21313864095E+03  0.92740566241E+02 -0.63230393364E+03  0.67369076540E+03  0.46999998093E+01 0. -1.
       -5    1    3    3    0  502 -0.21313864095E+03 -0.92740566241E+02 -0.21396113084E+03  0.31595940942E+03  0.46999998093E+01 0.  1.
</event>
<event>
 5   0  0.1068522E-01  0.4726247E+03  0.7818609E-02  0.1021182E+00
        1   -1    0    0  501    0  0.00000000000E+00  0.00000000000E+00  0.46358754587E+03  0.46358754589E+03  0.50400001928E-02 0. -1.
       -1   -1    0    0    0  501  0.00000000000E+00  0.00000000000E+00 -0.12045950697E+03  0.12045950708E+03  0.50400001928E-02 0.  1.
    10030    2    1    2    0    0  0.00000000000E+00  0.00000000000E+00  0.34312803889E+03  0.58404705297E+03  0.47262470208E+03 0.  0.
        2    1    3    3  502    0  0.23347835565E+03 -0.88241436926E+01  0.21531591887E+03  0.31772779701E+03  0.25500000920E-02 0.  1.
       -2    1    3    3    0  502 -0.23347835565E+03  0.88241436926E+01  0.12781212002E+03  0.26631925597E+03  0.25500000920E-02 0. -1.
</event>
<event>
 5   0  0.1760649E-01  0.4936661E+03  0.7818609E-02  0.1015446E+00
       -2   -1    0    0    0  501  0.00000000000E+00  0.00000000000E+00  0.81293124056E+02  0.81293124096E+02  0.25500000920E-02 0. -1.
        2   -1    0    0  501    0  0.00000000000E+00  0.00000000000E+00 -0.74946747774E+03  0.74946747774E+03  0.25500000920E-02 0.  1.
    10030    2    1    2    0    0  0.00000000000E+00  0.00000000000E+00 -0.66817435368E+03  0.83076060184E+03  0.49366609226E+03 0.  0.
        5    1    3    3  502    0  0.13353990421E+03 -0.18756074560E+03 -0.48359039171E+03  0.53562458519E+03  0.46999998093E+01 0.  1.
       -5    1    3    3    0  502 -0.13353990421E+03  0.18756074560E+03 -0.18458396197E+03  0.29513601664E+03  0.46999998093E+01 0. -1.
</event>
<event>
 5   0  0.1782124E-01  0.4896348E+03  0.7818609E-02  0.1016520E+00
        2   -1    0    0  501    0  0.00000000000E+00  0.00000000000E+00  0.13069499687E+04  0.13069499687E+04  0.25500000920E-02 0.  1.
       -2   -1    0    0    0  501  0.00000000000E+00  0.00000000000E+00 -0.45859101445E+02  0.45859101516E+02  0.25500000920E-02 0. -1.
    10030    2    1    2    0    0  0.00000000000E+00  0.00000000000E+00  0.12610908672E+04  0.13528090702E+04  0.48963476693E+03 0.  0.
        3    1    3    3  502    0  0.21096627444E+03 -0.12340380734E+03  0.59144560600E+03  0.63995561070E+03  0.10100000352E+00 0.  1.
       -3    1    3    3    0  502 -0.21096627444E+03  0.12340380734E+03  0.66964526123E+03  0.71285345949E+03  0.10100000352E+00 0. -1.
</event>
<event>
 5   0  0.1760649E-01  0.5034848E+03  0.7818609E-02  0.1012873E+00
       -2   -1    0    0    0  501  0.00000000000E+00  0.00000000000E+00  0.14408260701E+03  0.14408260703E+03  0.25500000920E-02 0. -1.
        2   -1    0    0  501    0  0.00000000000E+00  0.00000000000E+00 -0.43984651043E+03  0.43984651043E+03  0.25500000920E-02 0.  1.
    10030    2    1    2    0    0  0.00000000000E+00  0.00000000000E+00 -0.29576390342E+03  0.58392911747E+03  0.50348478394E+03 0.  0.
        5    1    3    3  502    0 -0.39923918974E+02  0.24183121897E+03 -0.21426207408E+03  0.32558652331E+03  0.46999998093E+01 0. -1.
       -5    1    3    3    0  502  0.39923918974E+02 -0.24183121897E+03 -0.81501829333E+02  0.25834259416E+03  0.46999998093E+01 0.  1.
</event>
<event>
 5   0  0.1074281E-01  0.5014822E+03  0.7818609E-02  0.1013393E+00
        1   -1    0    0  501    0  0.00000000000E+00  0.00000000000E+00  0.29530195799E+03  0.29530195803E+03  0.50400001928E-02 0. -1.
       -1   -1    0    0    0  501  0.00000000000E+00  0.00000000000E+00 -0.21290442252E+03  0.21290442258E+03  0.50400001928E-02 0.  1.
    10030    2    1    2    0    0  0.00000000000E+00  0.00000000000E+00  0.82397535467E+02  0.50820638061E+03  0.50148217460E+03 0.  0.
        4    1    3    3  502    0  0.11809416118E+03 -0.22065346512E+03  0.25653680457E+02  0.25158280306E+03  0.12699999809E+01 0.  1.
       -4    1    3    3    0  502 -0.11809416118E+03  0.22065346512E+03  0.56743855010E+02  0.25662357755E+03  0.12699999809E+01 0. -1.
</event>
<event>
 5   0  0.1123271E-01  0.4909420E+03  0.7818609E-02  0.1016171E+00
       -1   -1    0    0    0  501  0.00000000000E+00  0.00000000000E+00  0.47155354260E+02  0.47155354530E+02  0.50400001928E-02 0.  1.
        1   -1    0    0  501    0  0.00000000000E+00  0.00000000000E+00 -0.12778188705E+04  0.12778188705E+04  0.50400001928E-02 0. -1.
    10030    2    1    2    0    0  0.00000000000E+00  0.00000000000E+00 -0.12306635163E+04  0.13249742251E+04  0.49094195871E+03 0.  0.
        5    1    3    3  502    0  0.22070995014E+03  0.90166893808E+02 -0.45817297102E+03  0.51651477443E+03  0.46999998093E+01 0.  1.
       -5    1    3    3    0  502 -0.22070995014E+03 -0.90166893808E+02 -0.77249054523E+03  0.80845945062E+03  0.46999998093E+01 0. -1.
</event>
<event>
 5   0  0.1141970E-01  0.5263186E+03  0.7818609E-02  0.1007129E+00
        1   -1    0    0  501    0  0.00000000000E+00  0.00000000000E+00  0.82970194335E+03  0.82970194336E+03  0.50400001928E-02 0. -1.
       -1   -1    0    0    0  501  0.00000000000E+00  0.00000000000E+00 -0.83467108839E+02  0.83467108991E+02  0.50400001928E-02 0.  1.
    10030    2    1    2    0    0  0.00000000000E+00  0.00000000000E+00  0.74623483451E+03  0.91316905235E+03  0.52631862017E+03 0.  0.
        3    1    3    3  502    0 -0.18761656685E+02  0.79014031440E+02 -0.61182065086E+02  0.10167827799E+03  0.10100000352E+00 0.  1.
       -3    1    3    3    0  502  0.18761656685E+02 -0.79014031440E+02  0.80741689959E+03  0.81149077436E+03  0.10100000352E+00 0. -1.
</event>
<event>
 5   0  0.7220250E-02  0.4988778E+03  0.7818609E-02  0.1014072E+00
       -3   -1    0    0    0  501  0.00000000000E+00  0.00000000000E+00  0.45418674240E+03  0.45418675363E+03  0.10100000352E+00 0.  1.
        3   -1    0    0  501    0  0.00000000000E+00  0.00000000000E+00 -0.13699155630E+03  0.13699159353E+03  0.10100000352E+00 0. -1.
    10030    2    1    2    0    0  0.00000000000E+00  0.00000000000E+00  0.31719518611E+03  0.59117834716E+03  0.49887779271E+03 0.  0.
        3    1    3    3  502    0 -0.17263235652E+03  0.13364981830E+03  0.15629661848E+02  0.21888010640E+03  0.10100000352E+00 0. -1.
       -3    1    3    3    0  502  0.17263235652E+03 -0.13364981830E+03  0.30156552426E+03  0.37229824076E+03  0.10100000352E+00 0.  1.
</event>
<event>
 5   0  0.7220250E-02  0.4975604E+03  0.7818609E-02  0.1014418E+00
       -3   -1    0    0    0  501  0.00000000000E+00  0.00000000000E+00  0.37720543118E+03  0.37720544470E+03  0.10100000352E+00 0. -1.
        3   -1    0    0  501    0  0.00000000000E+00  0.00000000000E+00 -0.16407921303E+03  0.16407924411E+03  0.10100000352E+00 0.  1.
    10030    2    1    2    0    0  0.00000000000E+00  0.00000000000E+00  0.21312621815E+03  0.54128468881E+03  0.49756037772E+03 0.  0.
        2    1    3    3  502    0 -0.25929452537E+02 -0.10669556069E+03  0.34941892364E+03  0.36626474493E+03  0.25500000920E-02 0. -1.
       -2    1    3    3    0  502  0.25929452537E+02  0.10669556069E+03 -0.13629270549E+03  0.17501994388E+03  0.25500000920E-02 0.  1.
</event>
<event>
 5   0  0.1827698E-01  0.4988070E+03  0.7818609E-02  0.1014091E+00
        2   -1    0    0  501    0  0.00000000000E+00  0.00000000000E+00  0.17979372124E+03  0.17979372126E+03  0.25500000920E-02 0.  1.
       -2   -1    0    0    0  501  0.00000000000E+00  0.00000000000E+00 -0.34596374549E+03  0.34596374550E+03  0.25500000920E-02 0. -1.
    10030    2    1    2    0    0  0.00000000000E+00  0.00000000000E+00 -0.16617002425E+03  0.52575746676E+03  0.49880701368E+03 0.  0.
        1    1    3    3  502    0 -0.15273662284E+03  0.14929273535E+03  0.52657138647E+02  0.21997629659E+03  0.50400001928E-02 0.  1.
       -1    1    3    3    0  502  0.15273662284E+03 -0.14929273535E+03 -0.21882716290E+03  0.30578117017E+03  0.50400001928E-02 0. -1.
</event>
<event>
 5   0  0.1827698E-01  0.5009021E+03  0.7818609E-02  0.1013544E+00
       -2   -1    0    0    0  501  0.00000000000E+00  0.00000000000E+00  0.54533804764E+02  0.54533804824E+02  0.25500000920E-02 0.  1.
        2   -1    0    0  501    0  0.00000000000E+00  0.00000000000E+00 -0.11502174000E+04  0.11502174000E+04  0.25500000920E-02 0. -1.
    10030    2    1    2    0    0  0.00000000000E+00  0.00000000000E+00 -0.10956835953E+04  0.12047512049E+04  0.50090211087E+03 0.  0.
        1    1    3    3  502    0 -0.14007934016E+03  0.17509611856E+03 -0.81615342621E+03  0.84639664899E+03  0.50400001928E-02 0. -1.
       -1    1    3    3    0  502  0.14007934016E+03 -0.17509611856E+03 -0.27953016905E+03  0.35835455587E+03  0.50400001928E-02 0.  1.
</event>
<event>
 5   0  0.1074281E-01  0.4965230E+03  0.7818609E-02  0.1014690E+00
       -1   -1    0    0    0  501  0.00000000000E+00  0.00000000000E+00  0.53734023181E+02  0.53734023418E+02  0.50400001928E-02 0.  1.
        1   -1    0    0  501    0  0.00000000000E+00  0.00000000000E+00 -0.11470156548E+04  0.11470156548E+04  0.50400001928E-02 0. -1.
    10030    2    1    2    0    0  0.00000000000E+00  0.00000000000E+00 -0.10932816316E+04  0.12007496782E+04  0.49652297402E+03 0.  0.
        4    1    3    3  502    0  0.96676790328E+02 -0.58093407997E+02 -0.11810532567E+02  0.11341228955E+03  0.12699999809E+01 0.  1.
       -4    1    3    3    0  502 -0.96676790328E+02  0.58093407997E+02 -0.10814710991E+04  0.10873373887E+04  0.12699999809E+01 0. -1.
</event>
<event>
 5   0  0.1683148E-01  0.5158679E+03  0.7818609E-02  0.1009718E+00
        2   -1    0    0  501    0  0.00000000000E+00  0.00000000000E+00  0.53702500087E+03  0.53702500088E+03  0.25500000920E-02 0.  1.
       -2   -1    0    0    0  501  0.00000000000E+00  0.00000000000E+00 -0.12388606371E+03  0.12388606373E+03  0.25500000920E-02 0. -1.
    10030    2    1    2    0    0  0.00000000000E+00  0.00000000000E+00  0.41313893717E+03  0.66091106461E+03  0.51586786479E+03 0.  0.
        2    1    3    3  502    0  0.25886082134E+02 -0.35907057327E+02 -0.11898349068E+03  0.12695068758E+03  0.25500000920E-02 0. -1.
       -2    1    3    3    0  502 -0.25886082134E+02  0.35907057327E+02  0.53212242785E+03  0.53396037703E+03  0.25500000920E-02 0.  1.
</event>
<event>
 5   0  0.1123271E-01  0.4954488E+03  0.7818609E-02  0.1014974E+00
        1   -1    0    0  501    0  0.00000000000E+00  0.00000000000E+00  0.62020924375E+03  0.62020924377E+03  0.50400001928E-02 0. -1.
       -1   -1    0    0    0  501  0.00000000000E+00  0.00000000000E+00 -0.98946239942E+02  0.98946240071E+02  0.50400001928E-02 0.  1.
    10030    2    1    2    0    0  0.00000000000E+00  0.00000000000E+00  0.52126300381E+03  0.71915548384E+03  0.49544877717E+03 0.  0.
        5    1    3    3  502    0 -0.14605668485E+03 -0.16661735727E+03  0.42129477401E+03  0.47603075063E+03  0.46999998093E+01 0. -1.
       -5    1    3    3    0  502  0.14605668485E+03  0.16661735727E+03  0.99968229794E+02  0.24312473321E+03  0.46999998093E+01 0.  1.
</event>
<event>
 5   0  0.1760649E-01  0.5076812E+03  0.7818609E-02  0.1011793E+00
       -2   -1    0    0    0  501  0.00000000000E+00  0.00000000000E+00  0.38058763896E+03  0.38058763897E+03  0.25500000920E-02 0.  1.
        2   -1    0    0  501    0  0.00000000000E+00  0.00000000000E+00 -0.16930412834E+03  0.16930412836E+03  0.25500000920E-02 0. -1.
    10030    2    1    2    0    0  0.00000000000E+00  0.00000000000E+00  0.21128351062E+03  0.54989176733E+03  0.50768123258E+03 0.  0.
        5    1    3    3  502    0 -0.17787487432E+03 -0.77440833852E+02 -0.71598481764E+02  0.20684531963E+03  0.46999998093E+01 0. -1.
       -5    1    3    3    0  502  0.17787487432E+03  0.77440833852E+02  0.28288199239E+03  0.34304644770E+03  0.46999998093E+01 0.  1.
</event>
<event>
 5   0  0.1760649E-01  0.5105494E+03  0.7818609E-02  0.1011061E+00
       -2   -1    0    0    0  501  0.00000000000E+00  0.00000000000E+00  0.66000213730E+02  0.66000213779E+02  0.25500000920E-02 0.  1.
        2   -1    0    0  501    0  0.00000000000E+00  0.00000000000E+00 -0.98734780781E+03  0.98734780781E+03  0.25500000920E-02 0. -1.
    10030    2    1    2    0    0  0.00000000000E+00  0.00000000000E+00 -0.92134759408E+03  0.10533480216E+04  0.51054937614E+03 0.  0.
        5    1    3    3  502    0  0.44248720839E+02  0.10148114404E+03  0.13794705192E+02  0.11166358306E+03  0.46999998093E+01 0.  1.
       -5    1    3    3    0  502 -0.44248720839E+02 -0.10148114404E+03 -0.93514229927E+03  0.94168443854E+03  0.46999998093E+01 0. -1.
</event>
<event>
 5   0  0.1147245E-01  0.5004054E+03  0.7818609E-02  0.1013673E+00
        1   -1    0    0  501    0  0.00000000000E+00  0.00000000000E+00  0.88383983458E+03  0.88383983460E+03  0.50400001928E-02 0.  1.
       -1   -1    0    0    0  501  0.00000000000E+00  0.00000000000E+00 -0.70828893573E+02  0.70828893752E+02  0.50400001928E-02 0. -1.
    10030    2    1    2    0    0  0.00000000000E+00  0.00000000000E+00  0.81301094101E+03  0.95466872835E+03  0.50040542631E+03 0.  0.
        1    1    3    3  502    0 -0.74516057833E+02 -0.87801595869E+02  0.83027395034E+03  0.83822228302E+03  0.50400001928E-02 0.  1.
       -1    1    3    3    0  502  0.74516057833E+02  0.87801595869E+02 -0.17263009334E+02  0.11644644533E+03  0.50400001928E-02 0. -1.
</event>
<event>
 5   0  0.1068522E-01  0.5093111E+03  0.7818609E-02  0.1011377E+00
       -1   -1    0    0    0  501  0.00000000000E+00  0.00000000000E+00  0.34360130984E+02  0.34360131354E+02  0.50400001928E-02 0. -1.
        1   -1    0    0  501    0  0.00000000000E+00  0.00000000000E+00 -0.18873456082E+04  0.18873456082E+04  0.50400001928E-02 0.  1.
    10030    2    1    2    0    0  0.00000000000E+00  0.00000000000E+00 -0.18529854772E+04  0.19217057396E+04  0.50931107458E+03 0.  0.
        2    1    3    3  502    0  0.10215174093E+03 -0.12934646786E+03 -0.16589495299E+04  0.16671169814E+04  0.25500000920E-02 0.  1.
       -2    1    3    3    0  502 -0.10215174093E+03  0.12934646786E+03 -0.19403594730E+03  0.25458875814E+03  0.25500000920E-02 0. -1.
</event>
<event>
 5   0  0.1782124E-01  0.5019286E+03  0.7818609E-02  0.1013277E+00
        2   -1    0    0  501    0  0.00000000000E+00  0.00000000000E+00  0.19297428152E+03  0.19297428153E+03  0.25500000920E-02 0. -1.
       -2   -1    0    0    0  501  0.00000000000E+00  0.00000000000E+00 -0.32638074662E+03  0.32638074663E+03  0.25500000920E-02 0.  1.
    10030    2    1    2    0    0  0.00000000000E+00  0.00000000000E+00 -0.13340646510E+03  0.51935502816E+03  0.50192864069E+03 0.  0.
        3    1    3    3  502    0 -0.19003994031E+03  0.68603657851E+01  0.10275338017E+03  0.21614927913E+03  0.10100000352E+00 0. -1.
       -3    1    3    3    0  502  0.19003994031E+03 -0.68603657851E+01 -0.23615984526E+03  0.30320574903E+03  0.10100000352E+00 0.  1.
</event>
<event>
 5   0  0.1827698E-01  0.4993590E+03  0.7818609E-02  0.1013946E+00
       -2   -1    0    0    0  501  0.00000000000E+00  0.00000000000E+00  0.13520583204E+03  0.13520583206E+03  0.25500000920E-02 0. -1.
        2   -1    0    0  501    0  0.00000000000E+00  0.00000000000E+00 -0.46107366488E+03  0.46107366489E+03  0.25500000920E-02 0.  1.
    10030    2    1    2    0    0  0.00000000000E+00  0.00000000000E+00 -0.32586783284E+03  0.59627949695E+03  0.49935898310E+03 0.  0.
        1    1    3    3  502    0 -0.13977883550E+03  0.17471327878E+02  0.83223814708E+02  0.16361409936E+03  0.50400001928E-02 0. -1.
       -1    1    3    3    0  502  0.13977883550E+03 -0.17471327878E+02 -0.40909164755E+03  0.43266539759E+03  0.50400001928E-02 0.  1.
</event>
<event>
 5   0  0.1760649E-01  0.5084545E+03  0.7818609E-02  0.1011595E+00
        2   -1    0    0  501    0  0.00000000000E+00  0.00000000000E+00  0.68277176712E+03  0.68277176712E+03  0.25500000920E-02 0. -1.
       -2   -1    0    0    0  501  0.00000000000E+00  0.00000000000E+00 -0.94660466165E+02  0.94660466199E+02  0.25500000920E-02 0.  1.
    10030    2    1    2    0    0  0.00000000000E+00  0.00000000000E+00  0.58811130096E+03  0.77743223332E+03  0.50845449659E+03 0.  0.
        5    1    3    3  502    0 -0.60878282401E+02 -0.14058652309E+03  0.60417978391E+03  0.62331856785E+03  0.46999998093E+01 0. -1.
       -5    1    3    3    0  502  0.60878282401E+02  0.14058652309E+03 -0.16068482957E+02  0.15411366547E+03  0.46999998093E+01 0.  1.
</event>
<event>
 5   0  0.1760649E-01  0.4718290E+03  0.7818609E-02  0.1021405E+00
       -2   -1    0    0    0  501  0.00000000000E+00  0.00000000000E+00  0.71107962337E+02  0.71107962383E+02  0.25500000920E-02 0. -1.
        2   -1    0    0  501    0  0.00000000000E+00  0.00000000000E+00 -0.78269217443E+03  0.78269217444E+03  0.25500000920E-02 0.  1.
    10030    2    1    2    0    0  0.00000000000E+00  0.00000000000E+00 -0.71158421210E+03  0.85380013682E+03  0.47182897615E+03 0.  0.
        5    1    3    3  502    0 -0.15487589158E+03 -0.14993955103E+03 -0.52902935566E+03  0.57128150670E+03  0.46999998093E+01 0.  1.
       -5    1    3    3    0  502  0.15487589158E+03  0.14993955103E+03 -0.18255485644E+03  0.28251863012E+03  0.46999998093E+01 0. -1.
</event>
<event>
 5   0  0.1782124E-01  0.5028021E+03  0.7818609E-02  0.1013050E+00
       -2   -1    0    0    0  501  0.00000000000E+00  0.00000000000E+00  0.17252808173E+03  0.17252808175E+03  0.25500000920E-02 0.  1.
        2   -1    0    0  501    0  0.00000000000E+00  0.00000000000E+00 -0.36633165236E+03  0.36633165237E+03  0.25500000920E-02 0. -1.
    10030    2    1    2    0    0  0.00000000000E+00  0.00000000000E+00 -0.19380357063E+03  0.53885973412E+03  0.50280213710E+03 0.  0.
        3    1    3    3  502    0 -0.16620210775E+03 -0.72504332996E+02 -0.28352294840E+03  0.33654909211E+03  0.10100000352E+00 0. -1.
       -3    1    3    3    0  502  0.16620210775E+03  0.72504332996E+02  0.89719377776E+02  0.20231064202E+03  0.10100000352E+00 0.  1.
</event>
<event>
 5   0  0.1709372E-01  0.4912688E+03  0.7818609E-02  0.1016083E+00
       -2   -1    0    0    0  501  0.00000000000E+00  0.00000000000E+00  0.12746015652E+03  0.12746015654E+03  0.25500000920E-02 0. -1.
        2   -1    0    0  501    0  0.00000000000E+00  0.00000000000E+00 -0.47337351590E+03  0.47337351590E+03  0.25500000920E-02 0.  1.
    10030    2    1    2    0    0  0.00000000000E+00  0.00000000000E+00 -0.34591335938E+03  0.60083367245E+03  0.49126881618E+03 0.  0.
        4    1    3    3  502    0 -0.18022237700E+03  0.14161166855E+03 -0.64937397005E+02  0.23822772356E+03  0.12699999809E+01 0.  1.
       -4    1    3    3    0  502  0.18022237700E+03 -0.14161166855E+03 -0.28097596237E+03  0.36260594889E+03  0.12699999809E+01 0. -1.
</event>
<event>
 5   0  0.1123271E-01  0.5067670E+03  0.7818609E-02  0.1012028E+00
        1   -1    0    0  501    0  0.00000000000E+00  0.00000000000E+00  0.20846130174E+04  0.20846130174E+04  0.50400001928E-02 0. -1.
       -1   -1    0    0    0  501  0.00000000000E+00  0.00000000000E+00 -0.30798617135E+02  0.30798617547E+02  0.50400001928E-02 0.  1.
    10030    2    1    2    0    0  0.00000000000E+00  0.00000000000E+00  0.20538144002E+04  0.21154116349E+04  0.50676700223E+03 0.  0.
        5    1    3    3  502    0 -0.24814015053E+03  0.22988807850E+02  0.12172441500E+04  0.12425004750E+04  0.46999998093E+01 0. -1.
       -5    1    3    3    0  502  0.24814015053E+03 -0.22988807850E+02  0.83657025023E+03  0.87291115994E+03  0.46999998093E+01 0.  1.
</event>
<event>
 5   0  0.1782124E-01  0.5064412E+03  0.7818609E-02  0.1012111E+00
        2   -1    0    0  501    0  0.00000000000E+00  0.00000000000E+00  0.68831211911E+03  0.68831211912E+03  0.25500000920E-02 0.  1.
       -2   -1    0    0    0  501  0.00000000000E+00  0.00000000000E+00 -0.93156374310E+02  0.93156374345E+02  0.25500000920E-02 0. -1.
    10030    2    1    2    0    0  0.00000000000E+00  0.00000000000E+00  0.59515574480E+03  0.78146849346E+03  0.50644115720E+03 0.  0.
        3    1    3    3  502    0 -0.20407947145E+02  0.24946119160E+03  0.23835012084E+03  0.34562719905E+03  0.10100000352E+00 0. -1.
       -3    1    3    3    0  502  0.20407947145E+02 -0.24946119160E+03  0.35680562396E+03  0.43584129441E+03  0.10100000352E+00 0.  1.
</event>
<event>
 5   0  0.1709372E-01  0.4968565E+03  0.7818609E-02  0.1014603E+00
        2   -1    0    0  501    0  0.00000000000E+00  0.00000000000E+00  0.14998913190E+03  0.14998913192E+03  0.25500000920E-02 0.  1.
       -2   -1    0    0    0  501  0.00000000000E+00  0.00000000000E+00 -0.41147381161E+03  0.41147381162E+03  0.25500000920E-02 0. -1.
    10030    2    1    2    0    0  0.00000000000E+00  0.00000000000E+00 -0.26148467971E+03  0.56146294354E+03  0.49685651776E+03 0.  0.
        4    1    3    3  502    0 -0.26791622466E+02 -0.20579983716E+03 -0.28503855105E+03  0.35259034657E+03  0.12699999809E+01 0. -1.
       -4    1    3    3    0  502  0.26791622466E+02  0.20579983716E+03  0.23553871336E+02  0.20887259697E+03  0.12699999809E+01 0.  1.
</event>
<event>
 5   0  0.1827698E-01  0.4918069E+03  0.7818609E-02  0.1015940E+00
        2   -1    0    0  501    0  0.00000000000E+00  0.00000000000E+00  0.24864958459E+03  0.24864958461E+03  0.25500000920E-02 0. -1.
       -2   -1    0    0    0  501  0.00000000000E+00  0.00000000000E+00 -0.24318768954E+03  0.24318768956E+03  0.25500000920E-02 0.  1.
    10030    2    1    2    0    0  0.00000000000E+00  0.00000000000E+00  0.54618950485E+01  0.49183727416E+03  0.49180694582E+03 0.  0.
        1    1    3    3  502    0  0.88907018534E+02  0.19566684746E+03 -0.11676928643E+03  0.24459157675E+03  0.50400001928E-02 0.  1.
       -1    1    3    3    0  502 -0.88907018534E+02 -0.19566684746E+03  0.12223118148E+03  0.24724569741E+03  0.50400001928E-02 0. -1.
</event>
<event>
 5   0  0.1074281E-01  0.5208591E+03  0.7818609E-02  0.1008473E+00
        1   -1    0    0  501    0  0.00000000000E+00  0.00000000000E+00  0.62624724530E+03  0.62624724532E+03  0.50400001928E-02 0. -1.
       -1   -1    0    0    0  501  0.00000000000E+00  0.00000000000E+00 -0.10830154351E+03  0.10830154363E+03  0.50400001928E-02 0.  1.
    10030    2    1    2    0    0  0.00000000000E+00  0.00000000000E+00  0.51794570178E+03  0.73454878895E+03  0.52085907244E+03 0.  0.
        4    1    3    3  502    0 -0.14280674439E+02 -0.17628712933E+03 -0.10608398642E+02  0.17718702168E+03  0.12699999809E+01 0.  1.
       -4    1    3    3    0  502  0.14280674439E+02  0.17628712933E+03  0.52855410042E+03  0.55736176726E+03  0.12699999809E+01 0. -1.
</event>
<event>
 5   0  0.1782124E-01  0.5039651E+03  0.7818609E-02  0.1012749E+00
       -2   -1    0    0    0  501  0.00000000000E+00  0.00000000000E+00  0.12791254193E+03  0.12791254195E+03  0.25500000920E-02 0. -1.
        2   -1    0    0  501    0  0.00000000000E+00  0.00000000000E+00 -0.49639554448E+03  0.49639554449E+03  0.25500000920E-02 0.  1.
    10030    2    1    2    0    0  0.00000000000E+00  0.00000000000E+00 -0.36848300256E+03  0.62430808644E+03  0.50396514128E+03 0.  0.
        3    1    3    3  502    0  0.24702438924E+02 -0.15657419005E+03 -0.42689783719E+03  0.45537617535E+03  0.10100000352E+00 0.  1.
       -3    1    3    3    0  502 -0.24702438924E+02  0.15657419005E+03  0.58414834630E+02  0.16893191109E+03  0.10100000352E+00 0. -1.
</event>
<event>
 5   0  0.1760649E-01  0.4983506E+03  0.7818609E-02  0.1014210E+00
       -2   -1    0    0    0  501  0.00000000000E+00  0.00000000000E+00  0.16965523436E+03  0.16965523438E+03  0.25500000920E-02 0. -1.
        2   -1    0    0  501    0  0.00000000000E+00  0.00000000000E+00 -0.36596761033E+03  0.36596761034E+03  0.25500000920E-02 0.  1.
    10030    2    1    2    0    0  0.00000000000E+00  0.00000000000E+00 -0.19631237597E+03  0.53562284472E+03  0.49835056218E+03 0.  0.
        5    1    3    3  502    0  0.18845384437E+03 -0.29249522967E+02  0.74132033665E+02  0.20466566508E+03  0.46999998093E+01 0. -1.
       -5    1    3    3    0  502 -0.18845384437E+03  0.29249522967E+02 -0.27044440964E+03  0.33095717964E+03  0.46999998093E+01 0.  1.
</event>
<event>
 5   0  0.1147245E-01  0.5036577E+03  0.7818609E-02  0.1012829E+00
        1   -1    0    0  501    0  0.00000000000E+00  0.00000000000E+00  0.64222084037E+03  0.64222084039E+03  0.50400001928E-02 0.  1.
       -1   -1    0    0    0  501  0.00000000000E+00  0.00000000000E+00 -0.98747600954E+02  0.98747601082E+02  0.50400001928E-02 0. -1.
    10030    2    1    2    0    0  0.00000000000E+00  0.00000000000E+00  0.54347323941E+03  0.74096844147E+03  0.50365769059E+03 0.  0.
        1    1    3    3  502    0 -0.11089918266E+03  0.22203928537E+03  0.33445930865E+03  0.41648901802E+03  0.50400001928E-02 0. -1.
       -1    1    3    3    0  502  0.11089918266E+03 -0.22203928537E+03  0.20901393076E+03  0.32447942345E+03  0.50400001928E-02 0.  1.
</event>
<event>
 5   0  0.7220250E-02  0.4999906E+03  0.7818609E-02  0.1013781E+00
        3   -1    0    0  501    0  0.00000000000E+00  0.00000000000E+00  0.15568441903E+03  0.15568445179E+03  0.10100000352E+00 0. -1.
       -3   -1    0    0    0  501  0.00000000000E+00  0.00000000000E+00 -0.40143791115E+03  0.40143792385E+03  0.10100000352E+00 0.  1.
    10030    2    1    2    0    0  0.00000000000E+00  0.00000000000E+00 -0.24575349212E+03  0.55712237565E+03  0.49999056247E+03 0.  0.
        2    1    3    3  502    0 -0.10465258783E+03 -0.17760640820E+03  0.34709906042E+02  0.20904778869E+03  0.25500000920E-02 0. -1.
       -2    1    3    3    0  502  0.10465258783E+03  0.17760640820E+03 -0.28046339816E+03  0.34807458696E+03  0.25500000920E-02 0.  1.
</event>
<event>
 5   0  0.1068522E-01  0.4886840E+03  0.7818609E-02  0.1016775E+00
        1   -1    0    0  501    0  0.00000000000E+00  0.00000000000E+00  0.33960884346E+03  0.33960884350E+03  0.50400001928E-02 0.  1.
       -1   -1    0    0    0  501  0.00000000000E+00  0.00000000000E+00 -0.17579932783E+03  0.17579932790E+03  0.50400001928E-02 0. -1.
    10030    2    1    2    0    0  0.00000000000E+00  0.00000000000E+00  0.16380951563E+03  0.51540817140E+03  0.48868397328E+03 0.  0.
        2    1    3    3  502    0  0.22933764022E+03  0.84258027929E+02  0.84857489484E+02  0.25864253715E+03  0.25500000920E-02 0.  1.
       -2    1    3    3    0  502 -0.22933764022E+03 -0.84258027929E+02  0.78952026146E+02  0.25676563425E+03  0.25500000920E-02 0. -1.
</event>
<event>
 5   0  0.1709372E-01  0.5019062E+03  0.7818609E-02  0.1013283E+00
       -2   -1    0    0    0  501  0.00000000000E+00  0.00000000000E+00  0.79624888497E+02  0.79624888538E+02  0.25500000920E-02 0.  1.
        2   -1    0    0  501    0  0.00000000000E+00  0.00000000000E+00 -0.79092675657E+03  0.79092675658E+03  0.25500000920E-02 0. -1.
    10030    2    1    2    0    0  0.00000000000E+00  0.00000000000E+00 -0.71130186808E+03  0.87055164512E+03  0.50190618574E+03 0.  0.
        4    1    3    3  502    0 -0.20419483397E+02  0.24666274645E+03 -0.42750944698E+03  0.49398927716E+03  0.12699999809E+01 0. -1.
       -4    1    3    3    0  502  0.20419483397E+02 -0.24666274645E+03 -0.28379242110E+03  0.37656236796E+03  0.12699999809E+01 0.  1.
</event>
<event>
 5   0  0.1141970E-01  0.4978696E+03  0.7818609E-02  0.1014336E+00
        1   -1    0    0  501    0  0.00000000000E+00  0.00000000000E+00  0.10101119409E+04  0.10101119409E+04  0.50400001928E-02 0.  1.
       -1   -1    0    0    0  501  0.00000000000E+00  0.00000000000E+00 -0.61348182483E+02  0.61348182690E+02  0.50400001928E-02 0. -1.
    10030    2    1    2    0    0  0.00000000000E+00  0.00000000000E+00  0.94876375843E+03  0.10714601236E+04  0.49786958853E+03 0.  0.
        3    1    3    3  502    0  0.64284058890E+02 -0.30412627813E+02  0.98778571308E+03  0.99034236167E+03  0.10100000352E+00 0.  1.
       -3    1    3    3    0  502 -0.64284058890E+02  0.30412627813E+02 -0.39021954646E+02  0.81117761947E+02  0.10100000352E+00 0. -1.
</event>
<event>
 5   0  0.1760649E-01  0.5112959E+03  0.7818609E-02  0.1010872E+00
       -2   -1    0    0    0  501  0.00000000000E+00  0.00000000000E+00  0.68133121876E+02  0.68133121924E+02  0.25500000920E-02 0.  1.
        2   -1    0    0  501    0  0.00000000000E+00  0.00000000000E+00 -0.95923792754E+03  0.95923792754E+03  0.25500000920E-02 0. -1.
    10030    2    1    2    0    0  0.00000000000E+00  0.00000000000E+00 -0.89110480567E+03  0.10273710495E+04  0.51129590122E+03 0.  0.
        5    1    3    3  502    0  0.59869231041E+02 -0.49940059447E+02  0.43571811824E+02  0.89436721467E+02  0.46999998093E+01 0.  1.
       -5    1    3    3    0  502 -0.59869231041E+02  0.49940059447E+02 -0.93467661749E+03  0.93793432800E+03  0.46999998093E+01 0. -1.
</event>
<event>
 5   0  0.1683148E-01  0.4955787E+03  0.7818609E-02  0.1014939E+00
        2   -1    0    0  501    0  0.00000000000E+00  0.00000000000E+00  0.27365366421E+03  0.27365366422E+03  0.25500000920E-02 0. -1.
       -2   -1    0    0    0  501  0.00000000000E+00  0.00000000000E+00 -0.22436956441E+03  0.22436956442E+03  0.25500000920E-02 0.  1.
    10030    2    1    2    0    0  0.00000000000E+00  0.00000000000E+00  0.49284099802E+02  0.49802322864E+03  0.49557866557E+03 0.  0.
        2    1    3    3  502    0 -0.24134241564E+02 -0.21548917524E+03 -0.95872421069E+02  0.23708556976E+03  0.25500000920E-02 0.  1.
       -2    1    3    3    0  502  0.24134241564E+02  0.21548917524E+03  0.14515652087E+03  0.26093765888E+03  0.25500000920E-02 0. -1.
</event>
<event>
 5   0  0.1760649E-01  0.5026790E+03  0.7818609E-02  0.1013082E+00
        2   -1    0    0  501    0  0.00000000000E+00  0.00000000000E+00  0.35161933603E+03  0.35161933604E+03  0.25500000920E-02 0. -1.
       -2   -1    0    0    0  501  0.00000000000E+00  0.00000000000E+00 -0.17965892322E+03  0.17965892324E+03  0.25500000920E-02 0.  1.
    10030    2    1    2    0    0  0.00000000000E+00  0.00000000000E+00  0.17196041282E+03  0.53127825928E+03  0.50267902801E+03 0.  0.
        5    1    3    3  502    0 -0.94106434174E+02 -0.17436570145E+03  0.24933795483E+03  0.31851361747E+03  0.46999998093E+01 0. -1.
       -5    1    3    3    0  502  0.94106434174E+02  0.17436570145E+03 -0.77377542016E+02  0.21276464181E+03  0.46999998093E+01 0.  1.
</event>
<event>
 5   0  0.1141970E-01  0.4912593E+03  0.7818609E-02  0.1016086E+00
        1   -1    0    0  501    0  0.00000000000E+00  0.00000000000E+00  0.26262034614E+03  0.26262034619E+03  0.50400001928E-02 0. -1.
       -1   -1    0    0    0  501  0.00000000000E+00  0.00000000000E+00 -0.22973821394E+03  0.22973821400E+03  0.50400001928E-02 0.  1.
    10030    2    1    2    0    0  0.00000000000E+00  0.00000000000E+00  0.32882132198E+02  0.49235856019E+03  0.49125931764E+03 0.  0.
        3    1    3    3  502    0  0.49588525517E+02  0.21350848101E+03 -0.94662863519E+02  0.23875921188E+03  0.10100000352E+00 0.  1.
       -3    1    3    3    0  502 -0.49588525517E+02 -0.21350848101E+03  0.12754499572E+03  0.25359934831E+03  0.10100000352E+00 0. -1.
</event>
<event>
 5   0  0.1068522E-01  0.5045152E+03  0.7818609E-02  0.1012607E+00
       -1   -1    0    0    0  501  0.00000000000E+00  0.00000000000E+00  0.14093921769E+03  0.14093921778E+03  0.50400001928E-02 0.  1.
        1   -1    0    0  501    0  0.00000000000E+00  0.00000000000E+00 -0.45149883060E+03  0.45149883063E+03  0.50400001928E-02 0. -1.
    10030    2    1    2    0    0  0.00000000000E+00  0.00000000000E+00 -0.31055961291E+03  0.59243804840E+03  0.50451518116E+03 0.  0.
        2    1    3    3  502    0 -0.82441974753E+02  0.94884675281E+01 -0.43501097063E+03  0.44285579458E+03  0.25500000920E-02 0. -1.
       -2    1    3    3    0  502  0.82441974753E+02 -0.94884675281E+01  0.12445135771E+03  0.14958225383E+03  0.25500000920E-02 0.  1.
</event>
<event>
 5   0  0.1782124E-01  0.5019364E+03  0.7818609E-02  0.1013275E+00
       -2   -1    0    0    0  501  0.00000000000E+00  0.00000000000E+00  0.33079831845E+02  0.33079831943E+02  0.25500000920E-02 0.  1.
        2   -1    0    0  501    0  0.00000000000E+00  0.00000000000E+00 -0.19040313786E+04  0.19040313786E+04  0.25500000920E-02 0. -1.
    10030    2    1    2    0    0  0.00000000000E+00  0.00000000000E+00 -0.18709515468E+04  0.19371112106E+04  0.50193640206E+03 0.  0.
        3    1    3    3  502    0 -0.25335593632E+02 -0.19284615720E+03 -0.32340022461E+03  0.37738474814E+03  0.10100000352E+00 0.  1.
       -3    1    3    3    0  502  0.25335593632E+02  0.19284615720E+03 -0.15475513222E+04  0.15597264624E+04  0.10100000352E+00 0. -1.
</event>
<event>
 5   0  0.7220250E-02  0.4974598E+03  0.7818609E-02  0.1014444E+00
        4   -1    0    0  501    0  0.00000000000E+00  0.00000000000E+00  0.23642311298E+03  0.23642652400E+03  0.12699999809E+01 0. -1.
       -4   -1    0    0    0  501  0.00000000000E+00  0.00000000000E+00 -0.26167048613E+03  0.26167356805E+03  0.12699999809E+01 0.  1.
    10030    2    1    2    0    0  0.00000000000E+00  0.00000000000E+00 -0.25247373155E+02  0.49810009205E+03  0.49745981933E+03 0.  0.
        5    1    3    3  502    0 -0.89177818937E+02 -0.35007536826E+02  0.21716301024E+03  0.23740276755E+03  0.46999998093E+01 0. -1.
       -5    1    3    3    0  502  0.89177818937E+02  0.35007536826E+02 -0.24241038339E+03  0.26069732450E+03  0.46999998093E+01 0.  1.
</event>
<event>
 5   0  0.1709372E-01  0.4977459E+03  0.7818609E-02  0.1014369E+00
       -2   -1    0    0    0  501  0.00000000000E+00  0.00000000000E+00  0.37645735172E+02  0.37645735259E+02  0.25500000920E-02 0.  1.
        2   -1    0    0  501    0  0.00000000000E+00  0.00000000000E+00 -0.16452791064E+04  0.16452791064E+04  0.25500000920E-02 0. -1.
    10030    2    1    2    0    0  0.00000000000E+00  0.00000000000E+00 -0.16076333713E+04  0.16829248417E+04  0.49774588536E+03 0.  0.
        4    1    3    3  502    0  0.84507790647E+01 -0.47909577463E+02 -0.16290345143E+04  0.16297612724E+04  0.12699999809E+01 0. -1.
       -4    1    3    3    0  502 -0.84507790647E+01  0.47909577463E+02  0.21401143032E+02  0.53163569317E+02  0.12699999809E+01 0.  1.
</event>
<event>
 5   0  0.7220250E-02  0.4957077E+03  0.7818609E-02  0.1014905E+00
        3   -1    0    0  501    0  0.00000000000E+00  0.00000000000E+00  0.36987865448E+02  0.36988003344E+02  0.10100000352E+00 0.  1.
       -3   -1    0    0    0  501  0.00000000000E+00  0.00000000000E+00 -0.16608529932E+04  0.16608529963E+04  0.10100000352E+00 0. -1.
    10030    2    1    2    0    0  0.00000000000E+00  0.00000000000E+00 -0.16238651278E+04  0.16978409996E+04  0.49570768286E+03 0.  0.
        3    1    3    3  502    0 -0.27945024769E+02  0.24213158007E+03 -0.65788405317E+03  0.70158396796E+03  0.10100000352E+00 0.  1.
       -3    1    3    3    0  502  0.27945024769E+02 -0.24213158007E+03 -0.96598107460E+03  0.99625703168E+03  0.10100000352E+00 0. -1.
</event>
<event>
 5   0  0.1074281E-01  0.4845612E+03  0.7818609E-02  0.1017889E+00
       -1   -1    0    0    0  501  0.00000000000E+00  0.00000000000E+00  0.47996496614E+03  0.47996496616E+03  0.50400001928E-02 0.  1.
        1   -1    0    0  501    0  0.00000000000E+00  0.00000000000E+00 -0.12230037245E+03  0.12230037256E+03  0.50400001928E-02 0. -1.
    10030    2    1    2    0    0  0.00000000000E+00  0.00000000000E+00  0.35766459369E+03  0.60226533872E+03  0.48456122074E+03 0.  0.
        4    1    3    3  502    0 -0.70659353824E+02 -0.22525166130E+03  0.11112826501E+03  0.26092558209E+03  0.12699999809E+01 0. -1.
       -4    1    3    3    0  502  0.70659353824E+02  0.22525166130E+03  0.24653632868E+03  0.34133975663E+03  0.12699999809E+01 0.  1.
</event>
<event>
 5   0  0.1074281E-01  0.5026979E+03  0.7818609E-02  0.1013077E+00
       -1   -1    0    0    0  501  0.00000000000E+00  0.00000000000E+00  0.63774151293E+03  0.63774151295E+03  0.50400001928E-02 0. -1.
        1   -1    0    0  501    0  0.00000000000E+00  0.00000000000E+00 -0.99062542126E+02  0.99062542254E+02  0.50400001928E-02 0.  1.
    10030    2    1    2    0    0  0.00000000000E+00  0.00000000000E+00  0.53867897081E+03  0.73680405521E+03  0.50269790350E+03 0.  0.
        4    1    3    3  502    0  0.10664910704E+03 -0.16775939225E+03  0.49477834501E+03  0.53322084478E+03  0.12699999809E+01 0.  1.
       -4    1    3    3    0  502 -0.10664910704E+03  0.16775939225E+03  0.43900625796E+02  0.20358321042E+03  0.12699999809E+01 0. -1.
</event>
<event>
 5   0  0.1141970E-01  0.4973616E+03  0.7818609E-02  0.1014470E+00
        1   -1    0    0  501    0  0.00000000000E+00  0.00000000000E+00  0.49393180796E+02  0.49393181053E+02  0.50400001928E-02 0. -1.
       -1   -1    0    0    0  501  0.00000000000E+00  0.00000000000E+00 -0.12520378924E+04  0.12520378924E+04  0.50400001928E-02 0.  1.
    10030    2    1    2    0    0  0.00000000000E+00  0.00000000000E+00 -0.12026447116E+04  0.13014310734E+04  0.49736157534E+03 0.  0.
        3    1    3    3  502    0  0.78306314628E+02 -0.22708034273E+03 -0.43286158148E+03  0.49504193751E+03  0.10100000352E+00 0. -1.
       -3    1    3    3    0  502 -0.78306314628E+02  0.22708034273E+03 -0.76978313010E+03  0.80638913593E+03  0.10100000352E+00 0.  1.
</event>
<event>
 5   0  0.1147245E-01  0.4817942E+03  0.7818609E-02  0.1018643E+00
       -1   -1    0    0    0  501  0.00000000000E+00  0.00000000000E+00  0.66100389413E+02  0.66100389605E+02  0.50400001928E-02 0.  1.
        1   -1    0    0  501    0  0.00000000000E+00  0.00000000000E+00 -0.87792842590E+03  0.87792842591E+03  0.50400001928E-02 0. -1.
    10030    2    1    2    0    0  0.00000000000E+00  0.00000000000E+00 -0.81182803648E+03  0.94402881551E+03  0.48179419227E+03 0.  0.
        1    1    3    3  502    0  0.22036542689E+03 -0.87133645561E+02 -0.32099663290E+03  0.39898876164E+03  0.50400001928E-02 0.  1.
       -1    1    3    3    0  502 -0.22036542689E+03  0.87133645561E+02 -0.49083140358E+03  0.54504005387E+03  0.50400001928E-02 0. -1.
</event>
<event>
 5   0  0.1683148E-01  0.4617805E+03  0.7818609E-02  0.1024266E+00
        2   -1    0    0  501    0  0.00000000000E+00  0.00000000000E+00  0.37021145624E+03  0.37021145625E+03  0.25500000920E-02 0.  1.
       -2   -1    0    0    0  501  0.00000000000E+00  0.00000000000E+00 -0.14399959559E+03  0.14399959561E+03  0.25500000920E-02 0. -1.
    10030    2    1    2    0    0  0.00000000000E+00  0.00000000000E+00  0.22621186065E+03  0.51421105186E+03  0.46178046728E+03 0.  0.
        2    1    3    3  502    0  0.12786323966E+02  0.22955779765E+03  0.13672840252E+03  0.26749753009E+03  0.25500000920E-02 0. -1.
       -2    1    3    3    0  502 -0.12786323966E+02 -0.22955779765E+03  0.89483458133E+02  0.24671352178E+03  0.25500000920E-02 0.  1.
</event>
<event>
 5   0  0.1074281E-01  0.5002767E+03  0.7818609E-02  0.1013707E+00
        1   -1    0    0  501    0  0.00000000000E+00  0.00000000000E+00  0.77305708842E+03  0.77305708843E+03  0.50400001928E-02 0. -1.
       -1   -1    0    0    0  501  0.00000000000E+00  0.00000000000E+00 -0.80937353871E+02  0.80937354028E+02  0.50400001928E-02 0.  1.
    10030    2    1    2    0    0  0.00000000000E+00  0.00000000000E+00  0.69211973455E+03  0.85399444246E+03  0.50027670424E+03 0.  0.
        4    1    3    3  502    0 -0.87568801859E+02 -0.55896179191E+02 -0.42362666684E+02  0.11220020649E+03  0.12699999809E+01 0.  1.
       -4    1    3    3    0  502  0.87568801859E+02  0.55896179191E+02  0.73448240123E+03  0.74179423597E+03  0.12699999809E+01 0. -1.
</event>
<event>
 5   0  0.1782124E-01  0.4934780E+03  0.7818609E-02  0.1015495E+00
       -2   -1    0    0    0  501  0.00000000000E+00  0.00000000000E+00  0.46921202596E+02  0.46921202666E+02  0.25500000920E-02 0. -1.
        2   -1    0    0  501    0  0.00000000000E+00  0.00000000000E+00 -0.12974971314E+04  0.12974971314E+04  0.25500000920E-02 0.  1.
    10030    2    1    2    0    0  0.00000000000E+00  0.00000000000E+00 -0.12505759288E+04  0.13444183341E+04  0.49347796636E+03 0.  0.
        3    1    3    3  502    0 -0.77670321464E+02 -0.11642134874E+03 -0.71673356807E+02  0.15723768491E+03  0.10100000352E+00 0. -1.
       -3    1    3    3    0  502  0.77670321464E+02  0.11642134874E+03 -0.11789025720E+04  0.11871806492E+04  0.10100000352E+00 0.  1.
</event>
<event>
 5   0  0.7220250E-02  0.4983587E+03  0.7818609E-02  0.1014208E+00
       -3   -1    0    0    0  501  0.00000000000E+00  0.00000000000E+00  0.45286080794E+03  0.45286081920E+03  0.10100000352E+00 0. -1.
        3   -1    0    0  501    0  0.00000000000E+00  0.00000000000E+00 -0.13710687106E+03  0.13710690826E+03  0.10100000352E+00 0.  1.
    10030    2    1    2    0    0  0.00000000000E+00  0.00000000000E+00  0.31575393688E+03  0.58996772747E+03  0.49835867685E+03 0.  0.
        2    1    3    3  502    0 -0.10256479957E+03 -0.12044718857E+03  0.38578422472E+03  0.41696106700E+03  0.25500000920E-02 0. -1.
       -2    1    3    3    0  502  0.10256479957E+03  0.12044718857E+03 -0.70030287837E+02  0.17300666047E+03  0.25500000920E-02 0.  1.
</event>
<event>
 5   0  0.1683148E-01  0.5089825E+03  0.7818609E-02  0.1011461E+00
        2   -1    0    0  501    0  0.00000000000E+00  0.00000000000E+00  0.16695973342E+04  0.16695973342E+04  0.25500000920E-02 0.  1.
       -2   -1    0    0    0  501  0.00000000000E+00  0.00000000000E+00 -0.38791268957E+02  0.38791269041E+02  0.25500000920E-02 0. -1.
    10030    2    1    2    0    0  0.00000000000E+00  0.00000000000E+00  0.16308060652E+04  0.17083886032E+04  0.50898251174E+03 0.  0.
        2    1    3    3  502    0  0.64986613109E+02 -0.20171190571E+02  0.16384978268E+04  0.16399101394E+04  0.25500000920E-02 0.  1.
       -2    1    3    3    0  502 -0.64986613109E+02  0.20171190571E+02 -0.76917615440E+01  0.68478463874E+02  0.25500000920E-02 0. -1.
</event>
<event>
 5   0  0.1147245E-01  0.5007511E+03  0.7818609E-02  0.1013583E+00
        1   -1    0    0  501    0  0.00000000000E+00  0.00000000000E+00  0.34764596083E+03  0.34764596086E+03  0.50400001928E-02 0.  1.
       -1   -1    0    0    0  501  0.00000000000E+00  0.00000000000E+00 -0.18032117392E+03  0.18032117399E+03  0.50400001928E-02 0. -1.
    10030    2    1    2    0    0  0.00000000000E+00  0.00000000000E+00  0.16732478690E+03  0.52796713485E+03  0.50075114695E+03 0.  0.
        1    1    3    3  502    0  0.18114737735E+03 -0.16301599897E+03  0.23100639912E+02  0.24479017103E+03  0.50400001928E-02 0. -1.
       -1    1    3    3    0  502 -0.18114737735E+03  0.16301599897E+03  0.14422414699E+03  0.28317696383E+03  0.50400001928E-02 0.  1.
</event>
<event>
 5   0  0.1760649E-01  0.4998493E+03  0.7818609E-02  0.1013818E+00
        2   -1    0    0  501    0  0.00000000000E+00  0.00000000000E+00  0.10522402555E+04  0.10522402555E+04  0.25500000920E-02 0.  1.
       -2   -1    0    0    0  501  0.00000000000E+00  0.00000000000E+00 -0.59361278300E+02  0.59361278355E+02  0.25500000920E-02 0. -1.
    10030    2    1    2    0    0  0.00000000000E+00  0.00000000000E+00  0.99287897717E+03  0.11116015338E+04  0.49984928399E+03 0.  0.
        5    1    3    3  502    0  0.15347770528E+03 -0.12047234380E+01  0.57916804205E+02  0.16411369103E+03  0.46999998093E+01 0. -1.
       -5    1    3    3    0  502 -0.15347770528E+03  0.12047234380E+01  0.93496217297E+03  0.94748784280E+03  0.46999998093E+01 0.  1.
</event>
<event>
 5   0  0.1123271E-01  0.4981987E+03  0.7818609E-02  0.1014250E+00
       -1   -1    0    0    0  501  0.00000000000E+00  0.00000000000E+00  0.31853104655E+02  0.31853105054E+02  0.50400001928E-02 0. -1.
        1   -1    0    0  501    0  0.00000000000E+00  0.00000000000E+00 -0.19480202032E+04  0.19480202032E+04  0.50400001928E-02 0.  1.
    10030    2    1    2    0    0  0.00000000000E+00  0.00000000000E+00 -0.19161670985E+04  0.19798733082E+04  0.49819872261E+03 0.  0.
        5    1    3    3  502    0  0.68385746951E+02 -0.23842238985E+03 -0.10475269457E+04  0.10765020382E+04  0.46999998093E+01 0.  1.
       -5    1    3    3    0  502 -0.68385746951E+02  0.23842238985E+03 -0.86864015285E+03  0.90337127003E+03  0.46999998093E+01 0. -1.
</event>
<event>
 5   0  0.1827698E-01  0.5122585E+03  0.7818609E-02  0.1010628E+00
        2   -1    0    0  501    0  0.00000000000E+00  0.00000000000E+00  0.10500844455E+03  0.10500844459E+03  0.25500000920E-02 0.  1.
       -2   -1    0    0    0  501  0.00000000000E+00  0.00000000000E+00 -0.62473247451E+03  0.62473247451E+03  0.25500000920E-02 0. -1.
    10030    2    1    2    0    0  0.00000000000E+00  0.00000000000E+00 -0.51972402995E+03  0.72974091910E+03  0.51225847157E+03 0.  0.
        1    1    3    3  502    0 -0.88191748111E+02  0.18089468382E+03 -0.34163079230E+02  0.20412688964E+03  0.50400001928E-02 0.  1.
       -1    1    3    3    0  502  0.88191748111E+02 -0.18089468382E+03 -0.48556095072E+03  0.52561402946E+03  0.50400001928E-02 0. -1.
</event>
<event>
 5   0  0.1782124E-01  0.5007643E+03  0.7818609E-02  0.1013580E+00
        2   -1    0    0  501    0  0.00000000000E+00  0.00000000000E+00  0.30611621555E+03  0.30611621556E+03  0.25500000920E-02 0. -1.
       -2   -1    0    0    0  501  0.00000000000E+00  0.00000000000E+00 -0.20479545729E+03  0.20479545730E+03  0.25500000920E-02 0.  1.
    10030    2    1    2    0    0  0.00000000000E+00  0.00000000000E+00  0.10132075827E+03  0.51091167287E+03  0.50076425733E+03 0.  0.
        3    1    3    3  502    0  0.36798180341E+02  0.19553340603E+03 -0.10441899289E+03  0.22470148025E+03  0.10100000352E+00 0.  1.
       -3    1    3    3    0  502 -0.36798180341E+02 -0.19553340603E+03  0.20573975116E+03  0.28621019262E+03  0.10100000352E+00 0. -1.
</event>
<event>
 5   0  0.1074281E-01  0.5036697E+03  0.7818609E-02  0.1012825E+00
       -1   -1    0    0    0  501  0.00000000000E+00  0.00000000000E+00  0.12772912137E+03  0.12772912147E+03  0.50400001928E-02 0. -1.
        1   -1    0    0  501    0  0.00000000000E+00  0.00000000000E+00 -0.49652573838E+03  0.49652573841E+03  0.50400001928E-02 0.  1.
    10030    2    1    2    0    0  0.00000000000E+00  0.00000000000E+00 -0.36879661701E+03  0.62425485988E+03  0.50366971854E+03 0.  0.
        4    1    3    3  502    0  0.89536266431E+02  0.16379094641E+03 -0.39391033350E+03  0.43590271950E+03  0.12699999809E+01 0.  1.
       -4    1    3    3    0  502 -0.89536266431E+02 -0.16379094641E+03  0.25113716490E+02  0.18835214038E+03  0.12699999809E+01 0. -1.
</event>
<event>
 5   0  0.7220250E-02  0.4995719E+03  0.7818609E-02  0.1013891E+00
        4   -1    0    0  501    0  0.00000000000E+00  0.00000000000E+00  0.25103709198E+03  0.25104030443E+03  0.12699999809E+01 0.  1.
       -4   -1    0    0    0  501  0.00000000000E+00  0.00000000000E+00 -0.24853457175E+03  0.24853781655E+03  0.12699999809E+01 0. -1.
    10030    2    1    2    0    0  0.00000000000E+00  0.00000000000E+00  0.25025202270E+01  0.49957812098E+03  0.49957185304E+03 0.  0.
        4    1    3    3  502    0  0.11016650687E+02  0.23095187468E+03  0.95757795829E+02  0.25026246896E+03  0.12699999809E+01 0.  1.
       -4    1    3    3    0  502 -0.11016650687E+02 -0.23095187468E+03 -0.93255275602E+02  0.24931565201E+03  0.12699999809E+01 0. -1.
</event>
<event>
 5   0  0.1827698E-01  0.4837028E+03  0.7818609E-02  0.1018122E+00
       -2   -1    0    0    0  501  0.00000000000E+00  0.00000000000E+00  0.70094077772E+02  0.70094077819E+02  0.25500000920E-02 0. -1.
        2   -1    0    0  501    0  0.00000000000E+00  0.00000000000E+00 -0.83447979034E+03  0.83447979035E+03  0.25500000920E-02 0.  1.
    10030    2    1    2    0    0  0.00000000000E+00  0.00000000000E+00 -0.76438571257E+03  0.90457386817E+03  0.48370276553E+03 0.  0.
        1    1    3    3  502    0  0.47615022464E+02 -0.19572532823E+03 -0.63251081911E+03  0.66381136687E+03  0.50400001928E-02 0.  1.
       -1    1    3    3    0  502 -0.47615022464E+02  0.19572532823E+03 -0.13187489346E+03  0.24076250129E+03  0.50400001928E-02 0. -1.
</event>
<event>
 5   0  0.1782124E-01  0.4977594E+03  0.7818609E-02  0.1014365E+00
       -2   -1    0    0    0  501  0.00000000000E+00  0.00000000000E+00  0.51149998461E+03  0.51149998462E+03  0.25500000920E-02 0. -1.
        2   -1    0    0  501    0  0.00000000000E+00  0.00000000000E+00 -0.12109698523E+03  0.12109698525E+03  0.25500000920E-02 0.  1.
    10030    2    1    2    0    0  0.00000000000E+00  0.00000000000E+00  0.39040299938E+03  0.63259696987E+03  0.49775940409E+03 0.  0.
        3    1    3    3  502    0 -0.97987269348E+01  0.15217922092E+03  0.44517140272E+03  0.47056574283E+03  0.10100000352E+00 0. -1.
       -3    1    3    3    0  502  0.97987269348E+01 -0.15217922092E+03 -0.54768403333E+02  0.16203122704E+03  0.10100000352E+00 0.  1.
</event>
<event>
 5   0  0.1123271E-01  0.5051555E+03  0.7818609E-02  0.1012442E+00
        1   -1    0    0  501    0  0.00000000000E+00  0.00000000000E+00  0.17642557994E+03  0.17642558001E+03  0.50400001928E-02 0. -1.
       -1   -1    0    0    0  501  0.00000000000E+00  0.00000000000E+00 -0.36160018726E+03  0.36160018730E+03  0.50400001928E-02 0.  1.
    10030    2    1    2    0    0  0.00000000000E+00  0.00000000000E+00 -0.18517460732E+03  0.53802576731E+03  0.50515551179E+03 0.  0.
        5    1    3    3  502    0  0.23137163197E+03 -0.71485241760E+02 -0.16887529337E+03  0.29526924422E+03  0.46999998093E+01 0.  1.
       -5    1    3    3    0  502 -0.23137163197E+03  0.71485241760E+02 -0.16299313955E+02  0.24275652309E+03  0.46999998093E+01 0. -1.
</event>
<event>
 5   0  0.1782124E-01  0.5115858E+03  0.7818609E-02  0.1010798E+00
       -2   -1    0    0    0  501  0.00000000000E+00  0.00000000000E+00  0.81552214481E+02  0.81552214521E+02  0.25500000920E-02 0.  1.
        2   -1    0    0  501    0  0.00000000000E+00  0.00000000000E+00 -0.80230818134E+03  0.80230818135E+03  0.25500000920E-02 0. -1.
    10030    2    1    2    0    0  0.00000000000E+00  0.00000000000E+00 -0.72075596686E+03  0.88386039587E+03  0.51158580474E+03 0.  0.
        3    1    3    3  502    0  0.70727520736E+02 -0.16572697493E+03 -0.67404813504E+03  0.69771678420E+03  0.10100000352E+00 0. -1.
       -3    1    3    3    0  502 -0.70727520736E+02  0.16572697493E+03 -0.46707831823E+02  0.18614361166E+03  0.10100000352E+00 0.  1.
</event>
<event>
 5   0  0.1068522E-01  0.4831032E+03  0.7818609E-02  0.1018286E+00
       -1   -1    0    0    0  501  0.00000000000E+00  0.00000000000E+00  0.39497775447E+02  0.39497775768E+02  0.50400001928E-02 0. -1.
        1   -1    0    0  501    0  0.00000000000E+00  0.00000000000E+00 -0.14772267352E+04  0.14772267352E+04  0.50400001928E-02 0.  1.
    10030    2    1    2    0    0  0.00000000000E+00  0.00000000000E+00 -0.14377289598E+04  0.15167245110E+04  0.48310317789E+03 0.  0.
        2    1    3    3  502    0 -0.11325409779E+03 -0.21328246787E+03 -0.70130873440E+03  0.74172086577E+03  0.25500000920E-02 0.  1.
       -2    1    3    3    0  502  0.11325409779E+03  0.21328246787E+03 -0.73642022538E+03  0.77500364523E+03  0.25500000920E-02 0. -1.
</event>
<event>
 5   0  0.1074281E-01  0.5003615E+03  0.7818609E-02  0.1013685E+00
        1   -1    0    0  501    0  0.00000000000E+00  0.00000000000E+00  0.47892805572E+03  0.47892805575E+03  0.50400001928E-02 0. -1.
       -1   -1    0    0    0  501  0.00000000000E+00  0.00000000000E+00 -0.13068854023E+03  0.13068854033E+03  0.50400001928E-02 0.  1.
    10030    2    1    2    0    0  0.00000000000E+00  0.00000000000E+00  0.34823951549E+03  0.60961659608E+03  0.50036150338E+03 0.  0.
        4    1    3    3  502    0 -0.16050947703E+02 -0.10133506874E+03 -0.10387387296E+03  0.14600624460E+03  0.12699999809E+01 0.  1.
       -4    1    3    3    0  502  0.16050947703E+02  0.10133506874E+03  0.45211338845E+03  0.46361035148E+03  0.12699999809E+01 0. -1.
</event>
<event>
 5   0  0.1782124E-01  0.4941250E+03  0.7818609E-02  0.1015324E+00
        2   -1    0    0  501    0  0.00000000000E+00  0.00000000000E+00  0.17525745402E+04  0.17525745402E+04  0.25500000920E-02 0. -1.
       -2   -1    0    0    0  501  0.00000000000E+00  0.00000000000E+00 -0.34828691805E+02  0.34828691898E+02  0.25500000920E-02 0.  1.
    10030    2    1    2    0    0  0.00000000000E+00  0.00000000000E+00  0.17177458484E+04  0.17874032321E+04  0.49412499880E+03 0.  0.
        3    1    3    3  502    0 -0.25650944955E+02 -0.20711326910E+03  0.13372064711E+04  0.13533938946E+04  0.10100000352E+00 0.  1.
       -3    1    3    3    0  502  0.25650944955E+02  0.20711326910E+03  0.38053937723E+03  0.43400933750E+03  0.10100000352E+00 0. -1.
</event>
<event>
 5   0  0.1141970E-01  0.4907752E+03  0.7818609E-02  0.1016215E+00
       -1   -1    0    0    0  501  0.00000000000E+00  0.00000000000E+00  0.74527744228E+02  0.74527744398E+02  0.50400001928E-02 0. -1.
        1   -1    0    0  501    0  0.00000000000E+00  0.00000000000E+00 -0.80795505555E+03  0.80795505556E+03  0.50400001928E-02 0.  1.
    10030    2    1    2    0    0  0.00000000000E+00  0.00000000000E+00 -0.73342731132E+03  0.88248279996E+03  0.49077517382E+03 0.  0.
        3    1    3    3  502    0  0.10382663426E+03 -0.20021575967E+03 -0.19285346965E+03  0.29674701576E+03  0.10100000352E+00 0. -1.
       -3    1    3    3    0  502 -0.10382663426E+03  0.20021575967E+03 -0.54057384166E+03  0.58573578420E+03  0.10100000352E+00 0.  1.
</event>
<event>
 5   0  0.1074281E-01  0.4981109E+03  0.7818609E-02  0.1014273E+00
        1   -1    0    0  501    0  0.00000000000E+00  0.00000000000E+00  0.68980541421E+03  0.68980541423E+03  0.50400001928E-02 0. -1.
       -1   -1    0    0    0  501  0.00000000000E+00  0.00000000000E+00 -0.89921922457E+02  0.89921922599E+02  0.50400001928E-02 0.  1.
    10030    2    1    2    0    0  0.00000000000E+00  0.00000000000E+00  0.59988349175E+03  0.77972733682E+03  0.49811094760E+03 0.  0.
        4    1    3    3  502    0  0.25994151253E+02  0.16345468348E+03  0.59125972566E+03  0.61398925523E+03  0.12699999809E+01 0. -1.
       -4    1    3    3    0  502 -0.25994151253E+02 -0.16345468348E+03  0.86237660934E+01  0.16573808160E+03  0.12699999809E+01 0.  1.
</event>
<event>
 5   0  0.1068522E-01  0.5036132E+03  0.7818609E-02  0.1012840E+00
        1   -1    0    0  501    0  0.00000000000E+00  0.00000000000E+00  0.10417388555E+04  0.10417388556E+04  0.50400001928E-02 0.  1.
       -1   -1    0    0    0  501  0.00000000000E+00  0.00000000000E+00 -0.60866072185E+02  0.60866072393E+02  0.50400001928E-02 0. -1.
    10030    2    1    2    0    0  0.00000000000E+00  0.00000000000E+00  0.98087278335E+03  0.11026049279E+04  0.50361315511E+03 0.  0.
        2    1    3    3  502    0  0.66616507864E+02  0.22986672209E+03  0.31901853664E+03  0.39880984914E+03  0.25500000920E-02 0. -1.
       -2    1    3    3    0  502 -0.66616507864E+02 -0.22986672209E+03  0.66185424671E+03  0.70379507880E+03  0.25500000920E-02 0.  1.
</event>
<event>
 5   0  0.1683148E-01  0.5210496E+03  0.7818609E-02  0.1008426E+00
        2   -1    0    0  501    0  0.00000000000E+00  0.00000000000E+00  0.49742960478E+03  0.49742960478E+03  0.25500000920E-02 0.  1.
       -2   -1    0    0    0  501  0.00000000000E+00  0.00000000000E+00 -0.13644778072E+03  0.13644778074E+03  0.25500000920E-02 0. -1.
    10030    2    1    2    0    0  0.00000000000E+00  0.00000000000E+00  0.36098182405E+03  0.63387738553E+03  0.52104957786E+03 0.  0.
        2    1    3    3  502    0 -0.20439890011E+03 -0.72761014850E+02  0.50387126878E+01  0.21702180600E+03  0.25500000920E-02 0. -1.
       -2    1    3    3    0  502  0.20439890011E+03  0.72761014850E+02  0.35594311137E+03  0.41685557953E+03  0.25500000920E-02 0.  1.
</event>
<event>
 5   0  0.1683148E-01  0.4942357E+03  0.7818609E-02  0.1015295E+00
        2   -1    0    0  501    0  0.00000000000E+00  0.00000000000E+00  0.44297336704E+03  0.44297336705E+03  0.25500000920E-02 0.  1.
       -2   -1    0    0    0  501  0.00000000000E+00  0.00000000000E+00 -0.13785755180E+03  0.13785755183E+03  0.25500000920E-02 0. -1.
    10030    2    1    2    0    0  0.00000000000E+00  0.00000000000E+00  0.30511581524E+03  0.58083091888E+03  0.49423566809E+03 0.  0.
        2    1    3    3  502    0 -0.14139926642E+03 -0.20148886715E+03  0.17819010051E+03  0.30388028574E+03  0.25500000920E-02 0.  1.
       -2    1    3    3    0  502  0.14139926642E+03  0.20148886715E+03  0.12692571473E+03  0.27695063314E+03  0.25500000920E-02 0. -1.
</event>
<event>
 5   0  0.1683148E-01  0.5104383E+03  0.7818609E-02  0.1011090E+00
        2   -1    0    0  501    0  0.00000000000E+00  0.00000000000E+00  0.20204662126E+03  0.20204662128E+03  0.25500000920E-02 0. -1.
       -2   -1    0    0    0  501  0.00000000000E+00  0.00000000000E+00 -0.32238512785E+03  0.32238512786E+03  0.25500000920E-02 0.  1.
    10030    2    1    2    0    0  0.00000000000E+00  0.00000000000E+00 -0.12033850658E+03  0.52443174914E+03  0.51043834430E+03 0.  0.
        2    1    3    3  502    0 -0.20319939804E+03 -0.15281001359E+03 -0.37289256082E+02  0.25696572581E+03  0.25500000920E-02 0.  1.
       -2    1    3    3    0  502  0.20319939804E+03  0.15281001359E+03 -0.83049250500E+02  0.26746602332E+03  0.25500000920E-02 0. -1.
</event>
<event>
 5   0  0.7220250E-02  0.5028529E+03  0.7818609E-02  0.1013037E+00
       -4   -1    0    0    0  501  0.00000000000E+00  0.00000000000E+00  0.12345745730E+03  0.12346398933E+03  0.12699999809E+01 0. -1.
        4   -1    0    0  501    0  0.00000000000E+00  0.00000000000E+00 -0.51201993538E+03  0.51202151042E+03  0.12699999809E+01 0.  1.
    10030    2    1    2    0    0  0.00000000000E+00  0.00000000000E+00 -0.38856247809E+03  0.63548549975E+03  0.50285288208E+03 0.  0.
        4    1    3    3  502    0 -0.16218308799E+03  0.11301978181E+03  0.20569147322E+01  0.19769337093E+03  0.12699999809E+01 0. -1.
       -4    1    3    3    0  502  0.16218308799E+03 -0.11301978181E+03 -0.39061939282E+03  0.43779212882E+03  0.12699999809E+01 0.  1.
</event>
<event>
 5   0  0.1074281E-01  0.5154151E+03  0.7818609E-02  0.1009832E+00
        1   -1    0    0  501    0  0.00000000000E+00  0.00000000000E+00  0.15523672620E+03  0.15523672628E+03  0.50400001928E-02 0. -1.
       -1   -1    0    0    0  501  0.00000000000E+00  0.00000000000E+00 -0.42781866368E+03  0.42781866371E+03  0.50400001928E-02 0.  1.
    10030    2    1    2    0    0  0.00000000000E+00  0.00000000000E+00 -0.27258193748E+03  0.58305539000E+03  0.51541505135E+03 0.  0.
        4    1    3    3  502    0  0.17352127904E+03 -0.13116241598E+03  0.20041992207E+02  0.21844108587E+03  0.12699999809E+01 0. -1.
       -4    1    3    3    0  502 -0.17352127904E+03  0.13116241598E+03 -0.29262392969E+03  0.36461430412E+03  0.12699999809E+01 0.  1.
</event>
<event>
 5   0  0.1141970E-01  0.4953312E+03  0.7818609E-02  0.1015005E+00
        1   -1    0    0  501    0  0.00000000000E+00  0.00000000000E+00  0.99356965983E+03  0.99356965984E+03  0.50400001928E-02 0. -1.
       -1   -1    0    0    0  501  0.00000000000E+00  0.00000000000E+00 -0.61735227327E+02  0.61735227533E+02  0.50400001928E-02 0.  1.
    10030    2    1    2    0    0  0.00000000000E+00  0.00000000000E+00  0.93183443250E+03  0.10553048874E+04  0.49533119801E+03 0.  0.
        3    1    3    3  502    0  0.54401411562E+02 -0.69320282794E+02  0.95904215557E+03  0.96308186648E+03  0.10100000352E+00 0. -1.
       -3    1    3    3    0  502 -0.54401411562E+02  0.69320282794E+02 -0.27207723070E+02  0.92223020891E+02  0.10100000352E+00 0.  1.
</event>
<event>
 5   0  0.1760649E-01  0.4852792E+03  0.7818609E-02  0.1017694E+00
        2   -1    0    0  501    0  0.00000000000E+00  0.00000000000E+00  0.56748298311E+03  0.56748298311E+03  0.25500000920E-02 0. -1.
       -2   -1    0    0    0  501  0.00000000000E+00  0.00000000000E+00 -0.10374580222E+03  0.10374580225E+03  0.25500000920E-02 0.  1.
    10030    2    1    2    0    0  0.00000000000E+00  0.00000000000E+00  0.46373718089E+03  0.67122878537E+03  0.48527920764E+03 0.  0.
        5    1    3    3  502    0 -0.10823826516E+03 -0.19129576898E+03  0.89849589885E+02  0.23749659382E+03  0.46999998093E+01 0.  1.
       -5    1    3    3    0  502  0.10823826516E+03  0.19129576898E+03  0.37388759100E+03  0.43373219154E+03  0.46999998093E+01 0. -1.
</event>
<event>
 5   0  0.1068522E-01  0.4977401E+03  0.7818609E-02  0.1014370E+00
       -1   -1    0    0    0  501  0.00000000000E+00  0.00000000000E+00  0.28364120846E+03  0.28364120850E+03  0.50400001928E-02 0.  1.
        1   -1    0    0  501    0  0.00000000000E+00  0.00000000000E+00 -0.21836141724E+03  0.21836141729E+03  0.50400001928E-02 0. -1.
    10030    2    1    2    0    0  0.00000000000E+00  0.00000000000E+00  0.65279791223E+02  0.50200262580E+03  0.49774007792E+03 0.  0.
        2    1    3    3  502    0 -0.18240108322E+03 -0.50305885264E+01 -0.13804543973E+03  0.22880560618E+03  0.25500000920E-02 0. -1.
       -2    1    3    3    0  502  0.18240108322E+03  0.50305885264E+01  0.20332523096E+03  0.27319701962E+03  0.25500000920E-02 0.  1.
</event>
<event>
 5   0  0.1760649E-01  0.5073051E+03  0.7818609E-02  0.1011890E+00
       -2   -1    0    0    0  501  0.00000000000E+00  0.00000000000E+00  0.98508820906E+02  0.98508820939E+02  0.25500000920E-02 0. -1.
        2   -1    0    0  501    0  0.00000000000E+00  0.00000000000E+00 -0.65313558099E+03  0.65313558099E+03  0.25500000920E-02 0.  1.
    10030    2    1    2    0    0  0.00000000000E+00  0.00000000000E+00 -0.55462676008E+03  0.75164440193E+03  0.50730509948E+03 0.  0.
        5    1    3    3  502    0  0.29411105414E+01 -0.25215288347E+03 -0.23734201394E+03  0.34632794914E+03  0.46999998093E+01 0.  1.
       -5    1    3    3    0  502 -0.29411105414E+01  0.25215288347E+03 -0.31728474614E+03  0.40531645279E+03  0.46999998093E+01 0. -1.
</event>
<event>
 5   0  0.1074281E-01  0.5008544E+03  0.7818609E-02  0.1013556E+00
        1   -1    0    0  501    0  0.00000000000E+00  0.00000000000E+00  0.21847482144E+03  0.21847482150E+03  0.50400001928E-02 0.  1.
       -1   -1    0    0    0  501  0.00000000000E+00  0.00000000000E+00 -0.28705262950E+03  0.28705262954E+03  0.50400001928E-02 0. -1.
    10030    2    1    2    0    0  0.00000000000E+00  0.00000000000E+00 -0.68577808057E+02  0.50552745104E+03  0.50085435806E+03 0.  0.
        4    1    3    3  502    0  0.12806057824E+03  0.21205016777E+03 -0.71337975418E+02  0.25778965260E+03  0.12699999809E+01 0.  1.
       -4    1    3    3    0  502 -0.12806057824E+03 -0.21205016777E+03  0.27601673609E+01  0.24773779844E+03  0.12699999809E+01 0. -1.
</event>
<event>
 5   0  0.1123271E-01  0.4917312E+03  0.7818609E-02  0.1015960E+00
       -1   -1    0    0    0  501  0.00000000000E+00  0.00000000000E+00  0.25723442748E+03  0.25723442753E+03  0.50400001928E-02 0. -1.
        1   -1    0    0  501    0  0.00000000000E+00  0.00000000000E+00 -0.23499919021E+03  0.23499919026E+03  0.50400001928E-02 0.  1.
    10030    2    1    2    0    0  0.00000000000E+00  0.00000000000E+00  0.22235237276E+02  0.49223361780E+03  0.49173115491E+03 0.  0.
        5    1    3    3  502    0 -0.11755874960E+03  0.91162695826E+02  0.20701402304E+03  0.25496586527E+03  0.46999998093E+01 0. -1.
       -5    1    3    3    0  502  0.11755874960E+03 -0.91162695826E+02 -0.18477878577E+03  0.23726775252E+03  0.46999998093E+01 0.  1.
</event>
<event>
 5   0  0.1141970E-01  0.5007168E+03  0.7818609E-02  0.1013592E+00
        1   -1    0    0  501    0  0.00000000000E+00  0.00000000000E+00  0.12894491734E+04  0.12894491734E+04  0.50400001928E-02 0.  1.
       -1   -1    0    0    0  501  0.00000000000E+00  0.00000000000E+00 -0.48609374514E+02  0.48609374775E+02  0.50400001928E-02 0. -1.
    10030    2    1    2    0    0  0.00000000000E+00  0.00000000000E+00  0.12408397988E+04  0.13380585481E+04  0.50071675812E+03 0.  0.
        3    1    3    3  502    0  0.92983765030E+02 -0.13898821426E+03  0.12251620369E+03  0.20730155482E+03  0.10100000352E+00 0. -1.
       -3    1    3    3    0  502 -0.92983765030E+02  0.13898821426E+03  0.11183235952E+04  0.11307569933E+04  0.10100000352E+00 0.  1.
</event>
<event>
 5   0  0.1147245E-01  0.5011227E+03  0.7818609E-02  0.1013486E+00
        1   -1    0    0  501    0  0.00000000000E+00  0.00000000000E+00  0.27965330979E+03  0.27965330984E+03  0.50400001928E-02 0. -1.
       -1   -1    0    0    0  501  0.00000000000E+00  0.00000000000E+00 -0.22449579306E+03  0.22449579312E+03  0.50400001928E-02 0.  1.
    10030    2    1    2    0    0  0.00000000000E+00  0.00000000000E+00  0.55157516732E+02  0.50414910296E+03  0.50112270589E+03 0.  0.
        1    1    3    3  502    0  0.19615481516E+03 -0.97764649776E+02 -0.94589177229E+02  0.23870850578E+03  0.50400001928E-02 0.  1.
       -1    1    3    3    0  502 -0.19615481516E+03  0.97764649776E+02  0.14974669396E+03  0.26544059718E+03  0.50400001928E-02 0. -1.
</event>
<event>
 5   0  0.1709372E-01  0.5024206E+03  0.7818609E-02  0.1013149E+00
        2   -1    0    0  501    0  0.00000000000E+00  0.00000000000E+00  0.20950635779E+03  0.20950635780E+03  0.25500000920E-02 0. -1.
       -2   -1    0    0    0  501  0.00000000000E+00  0.00000000000E+00 -0.30121577587E+03  0.30121577588E+03  0.25500000920E-02 0.  1.
    10030    2    1    2    0    0  0.00000000000E+00  0.00000000000E+00 -0.91709418077E+02  0.51072213368E+03  0.50242062106E+03 0.  0.
        4    1    3    3  502    0  0.11585427064E+02  0.13469342485E+03  0.16937100859E+03  0.21671338737E+03  0.12699999809E+01 0. -1.
       -4    1    3    3    0  502 -0.11585427064E+02 -0.13469342485E+03 -0.26108042666E+03  0.29400874631E+03  0.12699999809E+01 0.  1.
</event>
<event>
 5   0  0.1683148E-01  0.4976923E+03  0.7818609E-02  0.1014383E+00
       -2   -1    0    0    0  501  0.00000000000E+00  0.00000000000E+00  0.14486602784E+03  0.14486602786E+03  0.25500000920E-02 0.  1.
        2   -1    0    0  501    0  0.00000000000E+00  0.00000000000E+00 -0.42745981452E+03  0.42745981452E+03  0.25500000920E-02 0. -1.
    10030    2    1    2    0    0  0.00000000000E+00  0.00000000000E+00 -0.28259378667E+03  0.57232584239E+03  0.49769229610E+03 0.  0.
        2    1    3    3  502    0 -0.16691782636E+03  0.82174868033E+02  0.48742820147E+02  0.19232818882E+03  0.25500000920E-02 0.  1.
       -2    1    3    3    0  502  0.16691782636E+03 -0.82174868033E+02 -0.33133660682E+03  0.37999765357E+03  0.25500000920E-02 0. -1.
</event>
<event>
 5   0  0.1141970E-01  0.5190415E+03  0.7818609E-02  0.1008925E+00
       -1   -1    0    0    0  501  0.00000000000E+00  0.00000000000E+00  0.49914701918E+03  0.49914701921E+03  0.50400001928E-02 0.  1.
        1   -1    0    0  501    0  0.00000000000E+00  0.00000000000E+00 -0.13493220673E+03  0.13493220683E+03  0.50400001928E-02 0. -1.
    10030    2    1    2    0    0  0.00000000000E+00  0.00000000000E+00  0.36421481245E+03  0.63407922604E+03  0.51904145815E+03 0.  0.
        3    1    3    3  502    0 -0.24135136843E+03  0.45577260401E+02  0.79728640703E+02  0.25823329773E+03  0.10100000352E+00 0. -1.
       -3    1    3    3    0  502  0.24135136843E+03 -0.45577260401E+02  0.28448617175E+03  0.37584592830E+03  0.10100000352E+00 0.  1.
</event>
<event>
 5   0  0.1782124E-01  0.4998840E+03  0.7818609E-02  0.1013809E+00
       -2   -1    0    0    0  501  0.00000000000E+00  0.00000000000E+00  0.49968195667E+02  0.49968195732E+02  0.25500000920E-02 0.  1.
        2   -1    0    0  501    0  0.00000000000E+00  0.00000000000E+00 -0.12502154706E+04  0.12502154706E+04  0.25500000920E-02 0. -1.
    10030    2    1    2    0    0  0.00000000000E+00  0.00000000000E+00 -0.12002472749E+04  0.13001836663E+04  0.49988403177E+03 0.  0.
        3    1    3    3  502    0 -0.21068826410E+03 -0.43698050249E+02 -0.26936098901E+03  0.34475268936E+03  0.10100000352E+00 0.  1.
       -3    1    3    3    0  502  0.21068826410E+03  0.43698050249E+02 -0.93088628593E+03  0.95543097697E+03  0.10100000352E+00 0. -1.
</event>
<event>
 5   0  0.1074281E-01  0.4271051E+03  0.7818609E-02  0.1034778E+00
       -1   -1    0    0    0  501  0.00000000000E+00  0.00000000000E+00  0.43436091180E+02  0.43436091472E+02  0.50400001928E-02 0.  1.
        1   -1    0    0  501    0  0.00000000000E+00  0.00000000000E+00 -0.10499262202E+04  0.10499262202E+04  0.50400001928E-02 0. -1.
    10030    2    1    2    0    0  0.00000000000E+00  0.00000000000E+00 -0.10064901291E+04  0.10933623117E+04  0.42710509807E+03 0.  0.
        4    1    3    3  502    0 -0.52900628671E+02 -0.14763560278E+03 -0.13220131872E+03  0.20511837873E+03  0.12699999809E+01 0.  1.
       -4    1    3    3    0  502  0.52900628671E+02  0.14763560278E+03 -0.87428881033E+03  0.88824393298E+03  0.12699999809E+01 0. -1.
</event>
<event>
 5   0  0.1074281E-01  0.4905185E+03  0.7818609E-02  0.1016284E+00
        1   -1    0    0  501    0  0.00000000000E+00  0.00000000000E+00  0.20810949163E+03  0.20810949169E+03  0.50400001928E-02 0.  1.
       -1   -1    0    0    0  501  0.00000000000E+00  0.00000000000E+00 -0.28904067580E+03  0.28904067585E+03  0.50400001928E-02 0. -1.
    10030    2    1    2    0    0  0.00000000000E+00  0.00000000000E+00 -0.80931184177E+02  0.49715016753E+03  0.49051853432E+03 0.  0.
        4    1    3    3  502    0  0.20606950768E+03 -0.23582077410E+02  0.92184494945E+02  0.22698094717E+03  0.12699999809E+01 0.  1.
       -4    1    3    3    0  502 -0.20606950768E+03  0.23582077410E+02 -0.17311567912E+03  0.27016922036E+03  0.12699999809E+01 0. -1.
</event>
<event>
 5   0  0.1123271E-01  0.4759328E+03  0.7818609E-02  0.1020259E+00
        1   -1    0    0  501    0  0.00000000000E+00  0.00000000000E+00  0.97044626283E+03  0.97044626284E+03  0.50400001928E-02 0. -1.
       -1   -1    0    0    0  501  0.00000000000E+00  0.00000000000E+00 -0.58352547710E+02  0.58352547928E+02  0.50400001928E-02 0.  1.
    10030    2    1    2    0    0  0.00000000000E+00  0.00000000000E+00  0.91209371512E+03  0.10287988108E+04  0.47593281866E+03 0.  0.
        5    1    3    3  502    0  0.34280957118E+02 -0.20292614281E+03  0.19798820913E+03  0.28561446814E+03  0.46999998093E+01 0.  1.
       -5    1    3    3    0  502 -0.34280957118E+02  0.20292614281E+03  0.71410550598E+03  0.74318434263E+03  0.46999998093E+01 0. -1.
</event>
<event>
 5   0  0.1782124E-01  0.4983739E+03  0.7818609E-02  0.1014204E+00
        2   -1    0    0  501    0  0.00000000000E+00  0.00000000000E+00  0.85773799492E+03  0.85773799492E+03  0.25500000920E-02 0. -1.
       -2   -1    0    0    0  501  0.00000000000E+00  0.00000000000E+00 -0.72392889921E+02  0.72392889966E+02  0.25500000920E-02 0.  1.
    10030    2    1    2    0    0  0.00000000000E+00  0.00000000000E+00  0.78534510500E+03  0.93013088489E+03  0.49837388483E+03 0.  0.
        3    1    3    3  502    0  0.52098916409E+01 -0.12783368388E+03  0.79176007953E+03  0.80203031579E+03  0.10100000352E+00 0. -1.
       -3    1    3    3    0  502 -0.52098916409E+01  0.12783368388E+03 -0.64149745306E+01  0.12810056910E+03  0.10100000352E+00 0.  1.
</event>
<event>
 5   0  0.1074281E-01  0.4984839E+03  0.7818609E-02  0.1014175E+00
       -1   -1    0    0    0  501  0.00000000000E+00  0.00000000000E+00  0.13511940581E+04  0.13511940582E+04  0.50400001928E-02 0.  1.
        1   -1    0    0  501    0  0.00000000000E+00  0.00000000000E+00 -0.45975293659E+02  0.45975293936E+02  0.50400001928E-02 0. -1.
    10030    2    1    2    0    0  0.00000000000E+00  0.00000000000E+00  0.13052187645E+04  0.13971693521E+04  0.49848387662E+03 0.  0.
        4    1    3    3  502    0  0.23034320060E+02  0.31754571574E+02  0.13424776156E+04  0.13430512626E+04  0.12699999809E+01 0.  1.
       -4    1    3    3    0  502 -0.23034320060E+02 -0.31754571574E+02 -0.37258851147E+02  0.54118089445E+02  0.12699999809E+01 0. -1.
</event>
<event>
 5   0  0.1827698E-01  0.4873998E+03  0.7818609E-02  0.1017121E+00
        2   -1    0    0  501    0  0.00000000000E+00  0.00000000000E+00  0.20913433365E+04  0.20913433365E+04  0.25500000920E-02 0. -1.
       -2   -1    0    0    0  501  0.00000000000E+00  0.00000000000E+00 -0.28397845313E+02  0.28397845428E+02  0.25500000920E-02 0.  1.
    10030    2    1    2    0    0  0.00000000000E+00  0.00000000000E+00  0.20629454912E+04  0.21197411820E+04  0.48739981408E+03 0.  0.
        1    1    3    3  502    0 -0.95759893296E+02 -0.20366641555E+03  0.14380519962E+04  0.14555560826E+04  0.50400001928E-02 0.  1.
       -1    1    3    3    0  502  0.95759893296E+02  0.20366641555E+03  0.62489349506E+03  0.66418509934E+03  0.50400001928E-02 0. -1.
</event>
<event>
 5   0  0.1074281E-01  0.5091583E+03  0.7818609E-02  0.1011416E+00
       -1   -1    0    0    0  501  0.00000000000E+00  0.00000000000E+00  0.19560863771E+03  0.19560863778E+03  0.50400001928E-02 0.  1.
        1   -1    0    0  501    0  0.00000000000E+00  0.00000000000E+00 -0.33132763116E+03  0.33132763120E+03  0.50400001928E-02 0. -1.
    10030    2    1    2    0    0  0.00000000000E+00  0.00000000000E+00 -0.13571899344E+03  0.52693626897E+03  0.50915831171E+03 0.  0.
        4    1    3    3  502    0 -0.18028612335E+03 -0.87064411117E+01 -0.25365521970E+03  0.31132213504E+03  0.12699999809E+01 0. -1.
       -4    1    3    3    0  502  0.18028612335E+03  0.87064411117E+01  0.11793622626E+03  0.21561413393E+03  0.12699999809E+01 0.  1.
</event>
<event>
 5   0  0.1123271E-01  0.5042844E+03  0.7818609E-02  0.1012667E+00
        1   -1    0    0  501    0  0.00000000000E+00  0.00000000000E+00  0.38806105882E+03  0.38806105886E+03  0.50400001928E-02 0. -1.
       -1   -1    0    0    0  501  0.00000000000E+00  0.00000000000E+00 -0.16382907639E+03  0.16382907646E+03  0.50400001928E-02 0.  1.
    10030    2    1    2    0    0  0.00000000000E+00  0.00000000000E+00  0.22423198244E+03  0.55189013532E+03  0.50428438357E+03 0.  0.
        5    1    3    3  502    0  0.39556522759E+02 -0.22585649499E+03  0.22678160178E+03  0.32253350171E+03  0.46999998093E+01 0. -1.
       -5    1    3    3    0  502 -0.39556522759E+02  0.22585649499E+03 -0.25496193466E+01  0.22935663361E+03  0.46999998093E+01 0.  1.
</event>
<event>
 5   0  0.7220250E-02  0.5006119E+03  0.7818609E-02  0.1013619E+00
        3   -1    0    0  501    0  0.00000000000E+00  0.00000000000E+00  0.40904076391E+03  0.40904077638E+03  0.10100000352E+00 0. -1.
       -3   -1    0    0    0  501  0.00000000000E+00  0.00000000000E+00 -0.15317069596E+03  0.15317072926E+03  0.10100000352E+00 0.  1.
    10030    2    1    2    0    0  0.00000000000E+00  0.00000000000E+00  0.25587006795E+03  0.56221150564E+03  0.50061191097E+03 0.  0.
        4    1    3    3  502    0 -0.13713780249E+03 -0.11710100106E+03 -0.67010278841E+02  0.19238350161E+03  0.12699999809E+01 0.  1.
       -4    1    3    3    0  502  0.13713780249E+03  0.11710100106E+03  0.32288034679E+03  0.36982800403E+03  0.12699999809E+01 0. -1.
</event>
<event>
 5   0  0.7220250E-02  0.4950938E+03  0.7818609E-02  0.1015067E+00
       -3   -1    0    0    0  501  0.00000000000E+00  0.00000000000E+00  0.15948902686E+04  0.15948902718E+04  0.10100000352E+00 0.  1.
        3   -1    0    0  501    0  0.00000000000E+00  0.00000000000E+00 -0.38422303433E+02  0.38422436181E+02  0.10100000352E+00 0. -1.
    10030    2    1    2    0    0  0.00000000000E+00  0.00000000000E+00  0.15564679652E+04  0.16333127080E+04  0.49509380470E+03 0.  0.
        3    1    3    3  502    0  0.15847844658E+03  0.66077121175E+02  0.13665094796E+04  0.13772544326E+04  0.10100000352E+00 0.  1.
       -3    1    3    3    0  502 -0.15847844658E+03 -0.66077121175E+02  0.18995848558E+03  0.25605827543E+03  0.10100000352E+00 0. -1.
</event>
<event>
 5   0  0.7220250E-02  0.5013701E+03  0.7818609E-02  0.1013422E+00
       -4   -1    0    0    0  501  0.00000000000E+00  0.00000000000E+00  0.18490402958E+03  0.18490839098E+03  0.12699999809E+01 0.  1.
        4   -1    0    0  501    0  0.00000000000E+00  0.00000000000E+00 -0.33985859374E+03  0.33986096663E+03  0.12699999809E+01 0. -1.
    10030    2    1    2    0    0  0.00000000000E+00  0.00000000000E+00 -0.15495456416E+03  0.52476935761E+03  0.50137008460E+03 0.  0.
        3    1    3    3  502    0 -0.68420570117E+02  0.15015722208E+02 -0.32941013583E+03  0.33677573267E+03  0.10100000352E+00 0. -1.
       -3    1    3    3    0  502  0.68420570117E+02 -0.15015722208E+02  0.17445557167E+03  0.18799362494E+03  0.10100000352E+00 0.  1.
</event>
<event>
 5   0  0.7220250E-02  0.5798594E+03  0.7818609E-02  0.9948096E-01
        3   -1    0    0  501    0  0.00000000000E+00  0.00000000000E+00  0.72577347277E+03  0.72577347980E+03  0.10100000352E+00 0. -1.
       -3   -1    0    0    0  501  0.00000000000E+00  0.00000000000E+00 -0.11582016163E+03  0.11582020567E+03  0.10100000352E+00 0.  1.
    10030    2    1    2    0    0  0.00000000000E+00  0.00000000000E+00  0.60995331114E+03  0.84159368547E+03  0.57985937059E+03 0.  0.
        1    1    3    3  502    0 -0.24844877010E+01 -0.16082829521E+03  0.65507811849E+03  0.67453632561E+03  0.50400001928E-02 0. -1.
       -1    1    3    3    0  502  0.24844877010E+01  0.16082829521E+03 -0.45124807353E+02  0.16705735986E+03  0.50400001928E-02 0.  1.
</event>
<event>
 5   0  0.1068522E-01  0.4923948E+03  0.7818609E-02  0.1015783E+00
        1   -1    0    0  501    0  0.00000000000E+00  0.00000000000E+00  0.38423030865E+03  0.38423030869E+03  0.50400001928E-02 0.  1.
       -1   -1    0    0    0  501  0.00000000000E+00  0.00000000000E+00 -0.15775212682E+03  0.15775212690E+03  0.50400001928E-02 0. -1.
    10030    2    1    2    0    0  0.00000000000E+00  0.00000000000E+00  0.22647818183E+03  0.54198243558E+03  0.49239475387E+03 0.  0.
        2    1    3    3  502    0 -0.16772157018E+03 -0.16736942528E+03  0.39647133371E+02  0.24023934901E+03  0.25500000920E-02 0. -1.
       -2    1    3    3    0  502  0.16772157018E+03  0.16736942528E+03  0.18683104846E+03  0.30174308658E+03  0.25500000920E-02 0.  1.
</event>
<event>
 5   0  0.7220250E-02  0.5009329E+03  0.7818609E-02  0.1013536E+00
       -3   -1    0    0    0  501  0.00000000000E+00  0.00000000000E+00  0.14136033693E+03  0.14136037301E+03  0.10100000352E+00 0.  1.
        3   -1    0    0  501    0  0.00000000000E+00  0.00000000000E+00 -0.44378383999E+03  0.44378385148E+03  0.10100000352E+00 0. -1.
    10030    2    1    2    0    0  0.00000000000E+00  0.00000000000E+00 -0.30242350306E+03  0.58514422449E+03  0.50093291792E+03 0.  0.
        4    1    3    3  502    0 -0.17449427408E+03 -0.53461753761E+02 -0.35158729408E+03  0.39613337282E+03  0.12699999809E+01 0. -1.
       -4    1    3    3    0  502  0.17449427408E+03  0.53461753761E+02  0.49163791020E+02  0.18901085167E+03  0.12699999809E+01 0.  1.
</event>
<event>
 5   0  0.1123271E-01  0.5067346E+03  0.7818609E-02  0.1012036E+00
        1   -1    0    0  501    0  0.00000000000E+00  0.00000000000E+00  0.44696216935E+03  0.44696216938E+03  0.50400001928E-02 0. -1.
       -1   -1    0    0    0  501  0.00000000000E+00  0.00000000000E+00 -0.14362512684E+03  0.14362512692E+03  0.50400001928E-02 0.  1.
    10030    2    1    2    0    0  0.00000000000E+00  0.00000000000E+00  0.30333704252E+03  0.59058729630E+03  0.50673463785E+03 0.  0.
        5    1    3    3  502    0  0.23892934115E+02 -0.18675702226E+03  0.34919478057E+03  0.39674695014E+03  0.46999998093E+01 0. -1.
       -5    1    3    3    0  502 -0.23892934115E+02  0.18675702226E+03 -0.45857738058E+02  0.19384034617E+03  0.46999998093E+01 0.  1.
</event>
<event>
 5   0  0.7220250E-02  0.4867344E+03  0.7818609E-02  0.1017301E+00
       -3   -1    0    0    0  501  0.00000000000E+00  0.00000000000E+00  0.21670255571E+03  0.21670257925E+03  0.10100000352E+00 0.  1.
        3   -1    0    0  501    0  0.00000000000E+00  0.00000000000E+00 -0.27331275825E+03  0.27331277691E+03  0.10100000352E+00 0. -1.
    10030    2    1    2    0    0  0.00000000000E+00  0.00000000000E+00 -0.56610202542E+02  0.49001535616E+03  0.48673435695E+03 0.  0.
        5    1    3    3  502    0  0.95977625090E+02  0.13245669865E+03  0.15304526067E+03  0.22405674136E+03  0.46999998093E+01 0.  1.
       -5    1    3    3    0  502 -0.95977625090E+02 -0.13245669865E+03 -0.20965546321E+03  0.26595861480E+03  0.46999998093E+01 0. -1.
</event>
<event>
 5   0  0.1683148E-01  0.5049001E+03  0.7818609E-02  0.1012508E+00
       -2   -1    0    0    0  501  0.00000000000E+00  0.00000000000E+00  0.55886869416E+02  0.55886869474E+02  0.25500000920E-02 0.  1.
        2   -1    0    0  501    0  0.00000000000E+00  0.00000000000E+00 -0.11403575853E+04  0.11403575853E+04  0.25500000920E-02 0. -1.
    10030    2    1    2    0    0  0.00000000000E+00  0.00000000000E+00 -0.10844707159E+04  0.11962444548E+04  0.50490005147E+03 0.  0.
        2    1    3    3  502    0 -0.91505691589E+02  0.20708565214E+03 -0.80684425988E+03  0.83800681299E+03  0.25500000920E-02 0. -1.
       -2    1    3    3    0  502  0.91505691589E+02 -0.20708565214E+03 -0.27762645601E+03  0.35823764180E+03  0.25500000920E-02 0.  1.
</event>
<event>
 5   0  0.1074281E-01  0.5107166E+03  0.7818609E-02  0.1011019E+00
        1   -1    0    0  501    0  0.00000000000E+00  0.00000000000E+00  0.13711191248E+04  0.13711191248E+04  0.50400001928E-02 0.  1.
       -1   -1    0    0    0  501  0.00000000000E+00  0.00000000000E+00 -0.47558125961E+02  0.47558126228E+02  0.50400001928E-02 0. -1.
    10030    2    1    2    0    0  0.00000000000E+00  0.00000000000E+00  0.13235609988E+04  0.14186772510E+04  0.51071657987E+03 0.  0.
        4    1    3    3  502    0  0.14106326076E+03 -0.19424734766E+03  0.42000877534E+03  0.48377666321E+03  0.12699999809E+01 0. -1.
       -4    1    3    3    0  502 -0.14106326076E+03  0.19424734766E+03  0.90355222346E+03  0.93490058778E+03  0.12699999809E+01 0.  1.
</event>
<event>
 5   0  0.1074281E-01  0.4956756E+03  0.7818609E-02  0.1014914E+00
        1   -1    0    0  501    0  0.00000000000E+00  0.00000000000E+00  0.68399751610E+03  0.68399751612E+03  0.50400001928E-02 0.  1.
       -1   -1    0    0    0  501  0.00000000000E+00  0.00000000000E+00 -0.89800879515E+02  0.89800879656E+02  0.50400001928E-02 0. -1.
    10030    2    1    2    0    0  0.00000000000E+00  0.00000000000E+00  0.59419663658E+03  0.77379839577E+03  0.49567561406E+03 0.  0.
        4    1    3    3  502    0 -0.13084063255E+03 -0.95599367748E+02  0.43623786757E+01  0.16210846211E+03  0.12699999809E+01 0. -1.
       -4    1    3    3    0  502  0.13084063255E+03  0.95599367748E+02  0.58983425791E+03  0.61168993366E+03  0.12699999809E+01 0.  1.
</event>
<event>
 5   0  0.1147245E-01  0.4977981E+03  0.7818609E-02  0.1014355E+00
       -1   -1    0    0    0  501  0.00000000000E+00  0.00000000000E+00  0.21382419707E+03  0.21382419713E+03  0.50400001928E-02 0.  1.
        1   -1    0    0  501    0  0.00000000000E+00  0.00000000000E+00 -0.28972748731E+03  0.28972748736E+03  0.50400001928E-02 0. -1.
    10030    2    1    2    0    0  0.00000000000E+00  0.00000000000E+00 -0.75903290244E+02  0.50355168448E+03  0.49779814130E+03 0.  0.
        1    1    3    3  502    0  0.63967458678E+02 -0.47843569115E+02 -0.27640893705E+03  0.28771990439E+03  0.50400001928E-02 0. -1.
       -1    1    3    3    0  502 -0.63967458678E+02  0.47843569115E+02  0.20050564680E+03  0.21583178010E+03  0.50400001928E-02 0.  1.
</event>
<event>
 5   0  0.7220250E-02  0.5768860E+03  0.7818609E-02  0.9954556E-01
       -3   -1    0    0    0  501  0.00000000000E+00  0.00000000000E+00  0.69473632588E+03  0.69473633322E+03  0.10100000352E+00 0.  1.
        3   -1    0    0  501    0  0.00000000000E+00  0.00000000000E+00 -0.11975672829E+03  0.11975677088E+03  0.10100000352E+00 0. -1.
    10030    2    1    2    0    0  0.00000000000E+00  0.00000000000E+00  0.57497959760E+03  0.81449310410E+03  0.57688601905E+03 0.  0.
        2    1    3    3  502    0 -0.28383659227E+03  0.35227203059E+02  0.34022687715E+03  0.44447552788E+03  0.25500000920E-02 0.  1.
       -2    1    3    3    0  502  0.28383659227E+03 -0.35227203059E+02  0.23475272045E+03  0.37001757622E+03  0.25500000920E-02 0. -1.
</event>
<event>
 5   0  0.1709372E-01  0.5054911E+03  0.7818609E-02  0.1012356E+00
       -2   -1    0    0    0  501  0.00000000000E+00  0.00000000000E+00  0.20224769265E+02  0.20224769426E+02  0.25500000920E-02 0. -1.
        2   -1    0    0  501    0  0.00000000000E+00  0.00000000000E+00 -0.31585189047E+04  0.31585189047E+04  0.25500000920E-02 0.  1.
    10030    2    1    2    0    0  0.00000000000E+00  0.00000000000E+00 -0.31382941354E+04  0.31787436741E+04  0.50549111298E+03 0.  0.
        4    1    3    3  502    0  0.12327032851E+03 -0.21169180753E+03 -0.19603310745E+04  0.19755780243E+04  0.12699999809E+01 0. -1.
       -4    1    3    3    0  502 -0.12327032851E+03  0.21169180753E+03 -0.11779630609E+04  0.12031656498E+04  0.12699999809E+01 0.  1.
</event>
<event>
 5   0  0.1147245E-01  0.5062872E+03  0.7818609E-02  0.1012151E+00
        1   -1    0    0  501    0  0.00000000000E+00  0.00000000000E+00  0.25922120366E+03  0.25922120371E+03  0.50400001928E-02 0.  1.
       -1   -1    0    0    0  501  0.00000000000E+00  0.00000000000E+00 -0.24720845986E+03  0.24720845991E+03  0.50400001928E-02 0. -1.
    10030    2    1    2    0    0  0.00000000000E+00  0.00000000000E+00  0.12012743803E+02  0.50642966363E+03  0.50628716968E+03 0.  0.
        1    1    3    3  502    0  0.17415018254E+03 -0.18358368256E+03 -0.10963266264E+01  0.25304635255E+03  0.50400001928E-02 0. -1.
       -1    1    3    3    0  502 -0.17415018254E+03  0.18358368256E+03  0.13109070429E+02  0.25338331108E+03  0.50400001928E-02 0.  1.
</event>
<event>
 5   0  0.1709372E-01  0.5110833E+03  0.7818609E-02  0.1010926E+00
       -2   -1    0    0    0  501  0.00000000000E+00  0.00000000000E+00  0.15449892598E+03  0.15449892600E+03  0.25500000920E-02 0. -1.
        2   -1    0    0  501    0  0.00000000000E+00  0.00000000000E+00 -0.42266667418E+03  0.42266667419E+03  0.25500000920E-02 0.  1.
    10030    2    1    2    0    0  0.00000000000E+00  0.00000000000E+00 -0.26816774821E+03  0.57716560019E+03  0.51108334825E+03 0.  0.
        4    1    3    3  502    0  0.30922663602E+02  0.11457024523E+03 -0.38965830097E+03  0.40733003404E+03  0.12699999809E+01 0.  1.
       -4    1    3    3    0  502 -0.30922663602E+02 -0.11457024523E+03  0.12149055276E+03  0.16983556614E+03  0.12699999809E+01 0. -1.
</event>
<event>
 5   0  0.1782124E-01  0.4968085E+03  0.7818609E-02  0.1014615E+00
        2   -1    0    0  501    0  0.00000000000E+00  0.00000000000E+00  0.55966741487E+03  0.55966741488E+03  0.25500000920E-02 0.  1.
       -2   -1    0    0    0  501  0.00000000000E+00  0.00000000000E+00 -0.11025240757E+03  0.11025240760E+03  0.25500000920E-02 0. -1.
    10030    2    1    2    0    0  0.00000000000E+00  0.00000000000E+00  0.44941500730E+03  0.66991982248E+03  0.49680853431E+03 0.  0.
        3    1    3    3  502    0  0.12227418795E+03 -0.20993180414E+03  0.29454520065E+03  0.38181045672E+03  0.10100000352E+00 0. -1.
       -3    1    3    3    0  502 -0.12227418795E+03  0.20993180414E+03  0.15486980664E+03  0.28810936576E+03  0.10100000352E+00 0.  1.
</event>
<event>
 5   0  0.1827698E-01  0.5465278E+03  0.7818609E-02  0.1002301E+00
        2   -1    0    0  501    0  0.00000000000E+00  0.00000000000E+00  0.11933885898E+03  0.11933885901E+03  0.25500000920E-02 0. -1.
       -2   -1    0    0    0  501  0.00000000000E+00  0.00000000000E+00 -0.62572384715E+03  0.62572384715E+03  0.25500000920E-02 0.  1.
    10030    2    1    2    0    0  0.00000000000E+00  0.00000000000E+00 -0.50638498817E+03  0.74506270617E+03  0.54652783999E+03 0.  0.
        1    1    3    3  502    0 -0.43997508355E+02  0.73426319515E+02 -0.60697497679E+03  0.61298109891E+03  0.50400001928E-02 0.  1.
       -1    1    3    3    0  502  0.43997508355E+02 -0.73426319515E+02  0.10058998863E+03  0.13208160726E+03  0.50400001928E-02 0. -1.
</event>
<event>
 5   0  0.1709372E-01  0.5317039E+03  0.7818609E-02  0.1005820E+00
        2   -1    0    0  501    0  0.00000000000E+00  0.00000000000E+00  0.31800032183E+03  0.31800032184E+03  0.25500000920E-02 0. -1.
       -2   -1    0    0    0  501  0.00000000000E+00  0.00000000000E+00 -0.22225529441E+03  0.22225529442E+03  0.25500000920E-02 0.  1.
    10030    2    1    2    0    0  0.00000000000E+00  0.00000000000E+00  0.95745027421E+02  0.54025561626E+03  0.53170388435E+03 0.  0.
        4    1    3    3  502    0  0.20781699062E+03 -0.16402823756E+03  0.72395265467E+02  0.27447377228E+03  0.12699999809E+01 0. -1.
       -4    1    3    3    0  502 -0.20781699062E+03  0.16402823756E+03  0.23349761954E+02  0.26578184398E+03  0.12699999809E+01 0.  1.
</event>
<event>
 5   0  0.1147245E-01  0.4954322E+03  0.7818609E-02  0.1014978E+00
       -1   -1    0    0    0  501  0.00000000000E+00  0.00000000000E+00  0.85214244117E+02  0.85214244266E+02  0.50400001928E-02 0.  1.
        1   -1    0    0  501    0  0.00000000000E+00  0.00000000000E+00 -0.72010567575E+03  0.72010567577E+03  0.50400001928E-02 0. -1.
    10030    2    1    2    0    0  0.00000000000E+00  0.00000000000E+00 -0.63489143164E+03  0.80531992004E+03  0.49543217865E+03 0.  0.
        1    1    3    3  502    0 -0.28189234492E+02  0.16094265388E+03 -0.14798514901E+02  0.16406147277E+03  0.50400001928E-02 0.  1.
       -1    1    3    3    0  502  0.28189234492E+02 -0.16094265388E+03 -0.62009291673E+03  0.64125844727E+03  0.50400001928E-02 0. -1.
</event>
<event>
 5   0  0.1782124E-01  0.4981944E+03  0.7818609E-02  0.1014251E+00
       -2   -1    0    0    0  501  0.00000000000E+00  0.00000000000E+00  0.13091807263E+03  0.13091807266E+03  0.25500000920E-02 0. -1.
        2   -1    0    0  501    0  0.00000000000E+00  0.00000000000E+00 -0.47395600339E+03  0.47395600339E+03  0.25500000920E-02 0.  1.
    10030    2    1    2    0    0  0.00000000000E+00  0.00000000000E+00 -0.34303793075E+03  0.60487407605E+03  0.49819436563E+03 0.  0.
        3    1    3    3  502    0 -0.71889884922E+02 -0.23837274501E+03 -0.18089810452E+03  0.30775616247E+03  0.10100000352E+00 0.  1.
       -3    1    3    3    0  502  0.71889884922E+02  0.23837274501E+03 -0.16213982624E+03  0.29711791358E+03  0.10100000352E+00 0. -1.
</event>
<event>
 5   0  0.1147245E-01  0.4984120E+03  0.7818609E-02  0.1014194E+00
        1   -1    0    0  501    0  0.00000000000E+00  0.00000000000E+00  0.10575238980E+04  0.10575238980E+04  0.50400001928E-02 0.  1.
       -1   -1    0    0    0  501  0.00000000000E+00  0.00000000000E+00 -0.58725519711E+02  0.58725519928E+02  0.50400001928E-02 0. -1.
    10030    2    1    2    0    0  0.00000000000E+00  0.00000000000E+00  0.99879837826E+03  0.11162494179E+04  0.49841204096E+03 0.  0.
        1    1    3    3  502    0  0.12838196782E+03  0.14592771511E+03  0.84871265460E+03  0.87068363818E+03  0.50400001928E-02 0.  1.
       -1    1    3    3    0  502 -0.12838196782E+03 -0.14592771511E+03  0.15008572366E+03  0.24556577972E+03  0.50400001928E-02 0. -1.
</event>
<event>
 5   0  0.7220250E-02  0.4687302E+03  0.7818609E-02  0.1022279E+00
       -3   -1    0    0    0  501  0.00000000000E+00  0.00000000000E+00  0.15811473204E+03  0.15811476430E+03  0.10100000352E+00 0. -1.
        3   -1    0    0  501    0  0.00000000000E+00  0.00000000000E+00 -0.34738687647E+03  0.34738689115E+03  0.10100000352E+00 0.  1.
    10030    2    1    2    0    0  0.00000000000E+00  0.00000000000E+00 -0.18927214443E+03  0.50550165545E+03  0.46873017718E+03 0.  0.
        5    1    3    3  502    0 -0.88932357058E+02 -0.79209915284E+02 -0.31226307320E+03  0.33423568285E+03  0.46999998093E+01 0.  1.
       -5    1    3    3    0  502  0.88932357058E+02  0.79209915284E+02  0.12299092877E+03  0.17126597259E+03  0.46999998093E+01 0. -1.
</event>
<event>
 5   0  0.1709372E-01  0.5001846E+03  0.7818609E-02  0.1013731E+00
       -2   -1    0    0    0  501  0.00000000000E+00  0.00000000000E+00  0.19156758218E+03  0.19156758219E+03  0.25500000920E-02 0. -1.
        2   -1    0    0  501    0  0.00000000000E+00  0.00000000000E+00 -0.32649654764E+03  0.32649654765E+03  0.25500000920E-02 0.  1.
    10030    2    1    2    0    0  0.00000000000E+00  0.00000000000E+00 -0.13492896546E+03  0.51806412984E+03  0.50018458284E+03 0.  0.
        4    1    3    3  502    0  0.13629512382E+03  0.66604345633E+02  0.13846941726E+03  0.20539691344E+03  0.12699999809E+01 0. -1.
       -4    1    3    3    0  502 -0.13629512382E+03 -0.66604345633E+02 -0.27339838273E+03  0.31266721640E+03  0.12699999809E+01 0.  1.
</event>
<event>
 5   0  0.1683148E-01  0.4983285E+03  0.7818609E-02  0.1014216E+00
        2   -1    0    0  501    0  0.00000000000E+00  0.00000000000E+00  0.65469345792E+03  0.65469345792E+03  0.25500000920E-02 0. -1.
       -2   -1    0    0    0  501  0.00000000000E+00  0.00000000000E+00 -0.94827320152E+02  0.94827320186E+02  0.25500000920E-02 0.  1.
    10030    2    1    2    0    0  0.00000000000E+00  0.00000000000E+00  0.55986613777E+03  0.74952077811E+03  0.49832851072E+03 0.  0.
        2    1    3    3  502    0 -0.20144308212E+03  0.14663464122E+03  0.27791918573E+03  0.37325608788E+03  0.25500000920E-02 0. -1.
       -2    1    3    3    0  502  0.20144308212E+03 -0.14663464122E+03  0.28194695204E+03  0.37626469022E+03  0.25500000920E-02 0.  1.
</event>
<event>
 5   0  0.1827698E-01  0.5041483E+03  0.7818609E-02  0.1012702E+00
        2   -1    0    0  501    0  0.00000000000E+00  0.00000000000E+00  0.36873022353E+03  0.36873022354E+03  0.25500000920E-02 0.  1.
       -2   -1    0    0    0  501  0.00000000000E+00  0.00000000000E+00 -0.17232484325E+03  0.17232484327E+03  0.25500000920E-02 0. -1.
    10030    2    1    2    0    0  0.00000000000E+00  0.00000000000E+00  0.19640538028E+03  0.54105506680E+03  0.50414830349E+03 0.  0.
        1    1    3    3  502    0 -0.24196741215E+03 -0.68972143550E+02  0.11468934539E+03  0.27651226212E+03  0.50400001928E-02 0. -1.
       -1    1    3    3    0  502  0.24196741215E+03  0.68972143550E+02  0.81716034889E+02  0.26454280469E+03  0.50400001928E-02 0.  1.
</event>
<event>
 5   0  0.1782124E-01  0.4966646E+03  0.7818609E-02  0.1014653E+00
       -2   -1    0    0    0  501  0.00000000000E+00  0.00000000000E+00  0.74373657819E+03  0.74373657820E+03  0.25500000920E-02 0. -1.
        2   -1    0    0  501    0  0.00000000000E+00  0.00000000000E+00 -0.82917706581E+02  0.82917706621E+02  0.25500000920E-02 0.  1.
    10030    2    1    2    0    0  0.00000000000E+00  0.00000000000E+00  0.66081887161E+03  0.82665428482E+03  0.49666460064E+03 0.  0.
        3    1    3    3  502    0  0.22074637230E+02 -0.51125874436E+02  0.73321001138E+03  0.73532174974E+03  0.10100000352E+00 0. -1.
       -3    1    3    3    0  502 -0.22074637230E+02  0.51125874436E+02 -0.72391139771E+02  0.91332535079E+02  0.10100000352E+00 0.  1.
</event>
<event>
 5   0  0.7220250E-02  0.5003690E+03  0.7818609E-02  0.1013683E+00
       -3   -1    0    0    0  501  0.00000000000E+00  0.00000000000E+00  0.11962304802E+03  0.11962309066E+03  0.10100000352E+00 0.  1.
        3   -1    0    0  501    0  0.00000000000E+00  0.00000000000E+00 -0.52324583536E+03  0.52324584510E+03  0.10100000352E+00 0. -1.
    10030    2    1    2    0    0  0.00000000000E+00  0.00000000000E+00 -0.40362278734E+03  0.64286893576E+03  0.50036897797E+03 0.  0.
        2    1    3    3  502    0  0.11204813934E+03 -0.55879413202E+02  0.76472359094E+02  0.14671508464E+03  0.25500000920E-02 0.  1.
       -2    1    3    3    0  502 -0.11204813934E+03  0.55879413202E+02 -0.48009514643E+03  0.49615385112E+03  0.25500000920E-02 0. -1.
</event>
<event>
 5   0  0.1683148E-01  0.4831724E+03  0.7818609E-02  0.1018267E+00
       -2   -1    0    0    0  501  0.00000000000E+00  0.00000000000E+00  0.79829058436E+02  0.79829058476E+02  0.25500000920E-02 0.  1.
        2   -1    0    0  501    0  0.00000000000E+00  0.00000000000E+00 -0.73111090156E+03  0.73111090156E+03  0.25500000920E-02 0. -1.
    10030    2    1    2    0    0  0.00000000000E+00  0.00000000000E+00 -0.65128184312E+03  0.81093996004E+03  0.48317241189E+03 0.  0.
        2    1    3    3  502    0  0.46731471377E+02  0.20974069068E+03 -0.51093816420E+03  0.55428584267E+03  0.25500000920E-02 0. -1.
       -2    1    3    3    0  502 -0.46731471377E+02 -0.20974069068E+03 -0.14034367892E+03  0.25665411737E+03  0.25500000920E-02 0.  1.
</event>
<event>
 5   0  0.1068522E-01  0.5050311E+03  0.7818609E-02  0.1012474E+00
       -1   -1    0    0    0  501  0.00000000000E+00  0.00000000000E+00  0.14885407843E+03  0.14885407852E+03  0.50400001928E-02 0.  1.
        1   -1    0    0  501    0  0.00000000000E+00  0.00000000000E+00 -0.42836654663E+03  0.42836654666E+03  0.50400001928E-02 0. -1.
    10030    2    1    2    0    0  0.00000000000E+00  0.00000000000E+00 -0.27951246820E+03  0.57722062518E+03  0.50503111810E+03 0.  0.
        2    1    3    3  502    0 -0.14394081218E+03  0.15805137711E+03  0.13861597866E+02  0.21422263914E+03  0.25500000920E-02 0.  1.
       -2    1    3    3    0  502  0.14394081218E+03 -0.15805137711E+03 -0.29337406607E+03  0.36299798603E+03  0.25500000920E-02 0. -1.
</event>
<event>
 5   0  0.1068522E-01  0.4587561E+03  0.7818609E-02  0.1025143E+00
       -1   -1    0    0    0  501  0.00000000000E+00  0.00000000000E+00  0.16072160449E+03  0.16072160457E+03  0.50400001928E-02 0.  1.
        1   -1    0    0  501    0  0.00000000000E+00  0.00000000000E+00 -0.32736295893E+03  0.32736295896E+03  0.50400001928E-02 0. -1.
    10030    2    1    2    0    0  0.00000000000E+00  0.00000000000E+00 -0.16664135443E+03  0.48808456353E+03  0.45875614454E+03 0.  0.
        2    1    3    3  502    0  0.49478869620E+02  0.10369822234E+03  0.12789781317E+03  0.17192827131E+03  0.25500000920E-02 0.  1.
       -2    1    3    3    0  502 -0.49478869620E+02 -0.10369822234E+03 -0.29453916760E+03  0.31615629223E+03  0.25500000920E-02 0. -1.
</event>
<event>
 5   0  0.1074281E-01  0.5020373E+03  0.7818609E-02  0.1013249E+00
        1   -1    0    0  501    0  0.00000000000E+00  0.00000000000E+00  0.89702254643E+02  0.89702254785E+02  0.50400001928E-02 0.  1.
       -1   -1    0    0    0  501  0.00000000000E+00  0.00000000000E+00 -0.70243907465E+03  0.70243907467E+03  0.50400001928E-02 0. -1.
    10030    2    1    2    0    0  0.00000000000E+00  0.00000000000E+00 -0.61273682001E+03  0.79214132945E+03  0.50203732454E+03 0.  0.
        4    1    3    3  502    0 -0.50711660033E+02 -0.21748230862E+03 -0.48722737306E+03  0.53596861194E+03  0.12699999809E+01 0. -1.
       -4    1    3    3    0  502  0.50711660033E+02  0.21748230862E+03 -0.12550944694E+03  0.25617271751E+03  0.12699999809E+01 0.  1.
</event>
<event>
 5   0  0.1123271E-01  0.5298030E+03  0.7818609E-02  0.1006280E+00
        1   -1    0    0  501    0  0.00000000000E+00  0.00000000000E+00  0.88300172951E+03  0.88300172953E+03  0.50400001928E-02 0.  1.
       -1   -1    0    0    0  501  0.00000000000E+00  0.00000000000E+00 -0.79470757666E+02  0.79470757826E+02  0.50400001928E-02 0. -1.
    10030    2    1    2    0    0  0.00000000000E+00  0.00000000000E+00  0.80353097185E+03  0.96247248735E+03  0.52980304472E+03 0.  0.
        5    1    3    3  502    0  0.67189042994E+02  0.25435645375E+03  0.34609280161E+03  0.43475727755E+03  0.46999998093E+01 0. -1.
       -5    1    3    3    0  502 -0.67189042994E+02 -0.25435645375E+03  0.45743817024E+03  0.52771520980E+03  0.46999998093E+01 0.  1.
</event>
<event>
 5   0  0.1123271E-01  0.4887473E+03  0.7818609E-02  0.1016758E+00
        1   -1    0    0  501    0  0.00000000000E+00  0.00000000000E+00  0.12488177198E+03  0.12488177208E+03  0.50400001928E-02 0. -1.
       -1   -1    0    0    0  501  0.00000000000E+00  0.00000000000E+00 -0.47820005108E+03  0.47820005111E+03  0.50400001928E-02 0.  1.
    10030    2    1    2    0    0  0.00000000000E+00  0.00000000000E+00 -0.35331827910E+03  0.60308182319E+03  0.48874725484E+03 0.  0.
        5    1    3    3  502    0 -0.19044364406E+03 -0.14408467810E+03 -0.11293264864E+03  0.26420645176E+03  0.46999998093E+01 0. -1.
       -5    1    3    3    0  502  0.19044364406E+03  0.14408467810E+03 -0.24038563046E+03  0.33887537142E+03  0.46999998093E+01 0.  1.
</event>
<event>
 5   0  0.7220250E-02  0.4956230E+03  0.7818609E-02  0.1014928E+00
        3   -1    0    0  501    0  0.00000000000E+00  0.00000000000E+00  0.42190526359E+02  0.42190647251E+02  0.10100000352E+00 0.  1.
       -3   -1    0    0    0  501  0.00000000000E+00  0.00000000000E+00 -0.14555506535E+04  0.14555506570E+04  0.10100000352E+00 0. -1.
    10030    2    1    2    0    0  0.00000000000E+00  0.00000000000E+00 -0.14133601272E+04  0.14977413043E+04  0.49562300742E+03 0.  0.
        5    1    3    3  502    0  0.65737281260E+02  0.10199994970E+03 -0.53892293941E+02  0.13286026204E+03  0.46999998093E+01 0.  1.
       -5    1    3    3    0  502 -0.65737281260E+02 -0.10199994970E+03 -0.13594678332E+04  0.13648810422E+04  0.46999998093E+01 0. -1.
</event>
<event>
 5   0  0.1782124E-01  0.4955581E+03  0.7818609E-02  0.1014945E+00
        2   -1    0    0  501    0  0.00000000000E+00  0.00000000000E+00  0.26678838808E+04  0.26678838808E+04  0.25500000920E-02 0. -1.
       -2   -1    0    0    0  501  0.00000000000E+00  0.00000000000E+00 -0.23012420494E+02  0.23012420636E+02  0.25500000920E-02 0.  1.
    10030    2    1    2    0    0  0.00000000000E+00  0.00000000000E+00  0.26448714603E+04  0.26908963015E+04  0.49555813337E+03 0.  0.
        3    1    3    3  502    0  0.21329685466E+03 -0.11867986843E+03  0.10911650632E+04  0.11181331158E+04  0.10100000352E+00 0.  1.
       -3    1    3    3    0  502 -0.21329685466E+03  0.11867986843E+03  0.15537063972E+04  0.15727631857E+04  0.10100000352E+00 0. -1.
</event>
<event>
 5   0  0.1782124E-01  0.4958104E+03  0.7818609E-02  0.1014878E+00
        2   -1    0    0  501    0  0.00000000000E+00  0.00000000000E+00  0.12246190587E+04  0.12246190587E+04  0.25500000920E-02 0. -1.
       -2   -1    0    0    0  501  0.00000000000E+00  0.00000000000E+00 -0.50184572560E+02  0.50184572625E+02  0.25500000920E-02 0.  1.
    10030    2    1    2    0    0  0.00000000000E+00  0.00000000000E+00  0.11744344861E+04  0.12748036313E+04  0.49581038331E+03 0.  0.
        3    1    3    3  502    0  0.22339274490E+03  0.10736779605E+03  0.60002450660E+03  0.64920072460E+03  0.10100000352E+00 0.  1.
       -3    1    3    3    0  502 -0.22339274490E+03 -0.10736779605E+03  0.57440997951E+03  0.62560290669E+03  0.10100000352E+00 0. -1.
</event>
<event>
 5   0  0.1123271E-01  0.5119492E+03  0.7818609E-02  0.1010706E+00
       -1   -1    0    0    0  501  0.00000000000E+00  0.00000000000E+00  0.20535238261E+03  0.20535238267E+03  0.50400001928E-02 0.  1.
        1   -1    0    0  501    0  0.00000000000E+00  0.00000000000E+00 -0.31907595559E+03  0.31907595563E+03  0.50400001928E-02 0. -1.
    10030    2    1    2    0    0  0.00000000000E+00  0.00000000000E+00 -0.11372357298E+03  0.52442833830E+03  0.51194924647E+03 0.  0.
        5    1    3    3  502    0 -0.19975599859E+03 -0.40902120458E+02 -0.21531079667E+03  0.29657422611E+03  0.46999998093E+01 0. -1.
       -5    1    3    3    0  502  0.19975599859E+03  0.40902120458E+02  0.10158722369E+03  0.22785411220E+03  0.46999998093E+01 0.  1.
</event>
<event>
 5   0  0.1827698E-01  0.4985578E+03  0.7818609E-02  0.1014156E+00
        2   -1    0    0  501    0  0.00000000000E+00  0.00000000000E+00  0.10488600774E+04  0.10488600774E+04  0.25500000920E-02 0.  1.
       -2   -1    0    0    0  501  0.00000000000E+00  0.00000000000E+00 -0.59245235337E+02  0.59245235392E+02  0.25500000920E-02 0. -1.
    10030    2    1    2    0    0  0.00000000000E+00  0.00000000000E+00  0.98961484207E+03  0.11081053128E+04  0.49855776858E+03 0.  0.
        1    1    3    3  502    0 -0.70676720130E+02  0.73437780946E+02  0.10004314135E+04  0.10056099242E+04  0.50400001928E-02 0.  1.
       -1    1    3    3    0  502  0.70676720130E+02 -0.73437780946E+02 -0.10816571476E+02  0.10249538859E+03  0.50400001928E-02 0. -1.
</event>
<event>
 5   0  0.1068522E-01  0.5055719E+03  0.7818609E-02  0.1012335E+00
       -1   -1    0    0    0  501  0.00000000000E+00  0.00000000000E+00  0.12943494971E+03  0.12943494981E+03  0.50400001928E-02 0. -1.
        1   -1    0    0  501    0  0.00000000000E+00  0.00000000000E+00 -0.49368996745E+03  0.49368996748E+03  0.50400001928E-02 0.  1.
    10030    2    1    2    0    0  0.00000000000E+00  0.00000000000E+00 -0.36425501774E+03  0.62312491729E+03  0.50557189854E+03 0.  0.
        2    1    3    3  502    0 -0.24225820021E+03 -0.19516246331E+01 -0.27107284187E+03  0.36355650181E+03  0.25500000920E-02 0.  1.
       -2    1    3    3    0  502  0.24225820021E+03  0.19516246331E+01 -0.93182175875E+02  0.25956841548E+03  0.25500000920E-02 0. -1.
</event>
<event>
 5   0  0.1782124E-01  0.4749742E+03  0.7818609E-02  0.1020526E+00
       -2   -1    0    0    0  501  0.00000000000E+00  0.00000000000E+00  0.21931782761E+03  0.21931782762E+03  0.25500000920E-02 0. -1.
        2   -1    0    0  501    0  0.00000000000E+00  0.00000000000E+00 -0.25716161727E+03  0.25716161728E+03  0.25500000920E-02 0.  1.
    10030    2    1    2    0    0  0.00000000000E+00  0.00000000000E+00 -0.37843789661E+02  0.47647944490E+03  0.47497421930E+03 0.  0.
        3    1    3    3  502    0 -0.50667057836E+02  0.21157902546E+03  0.76602149354E+02  0.23065284358E+03  0.10100000352E+00 0. -1.
       -3    1    3    3    0  502  0.50667057836E+02 -0.21157902546E+03 -0.11444593902E+03  0.24582660133E+03  0.10100000352E+00 0.  1.
</event>
<event>
 5   0  0.1709372E-01  0.4986230E+03  0.7818609E-02  0.1014139E+00
       -2   -1    0    0    0  501  0.00000000000E+00  0.00000000000E+00  0.56678038020E+02  0.56678038077E+02  0.25500000920E-02 0.  1.
        2   -1    0    0  501    0  0.00000000000E+00  0.00000000000E+00 -0.10966544435E+04  0.10966544435E+04  0.25500000920E-02 0. -1.
    10030    2    1    2    0    0  0.00000000000E+00  0.00000000000E+00 -0.10399764055E+04  0.11533324816E+04  0.49862299296E+03 0.  0.
        4    1    3    3  502    0 -0.10887566407E+03  0.19683935801E+03 -0.76862566447E+03  0.80086619861E+03  0.12699999809E+01 0. -1.
       -4    1    3    3    0  502  0.10887566407E+03 -0.19683935801E+03 -0.27135074101E+03  0.35246628297E+03  0.12699999809E+01 0.  1.
</event>
<event>
 5   0  0.1760649E-01  0.5006224E+03  0.7818609E-02  0.1013617E+00
       -2   -1    0    0    0  501  0.00000000000E+00  0.00000000000E+00  0.24049617181E+03  0.24049617183E+03  0.25500000920E-02 0. -1.
        2   -1    0    0  501    0  0.00000000000E+00  0.00000000000E+00 -0.26052683186E+03  0.26052683187E+03  0.25500000920E-02 0.  1.
    10030    2    1    2    0    0  0.00000000000E+00  0.00000000000E+00 -0.20030660046E+02  0.50102300370E+03  0.50062243547E+03 0.  0.
        5    1    3    3  502    0  0.22483515570E+03  0.10497110135E+03 -0.42657932326E+02  0.25181653748E+03  0.46999998093E+01 0.  1.
       -5    1    3    3    0  502 -0.22483515570E+03 -0.10497110135E+03  0.22627272280E+02  0.24920646622E+03  0.46999998093E+01 0. -1.
</event>
<event>
 5   0  0.1147245E-01  0.4914328E+03  0.7818609E-02  0.1016040E+00
       -1   -1    0    0    0  501  0.00000000000E+00  0.00000000000E+00  0.56702907849E+03  0.56702907851E+03  0.50400001928E-02 0.  1.
        1   -1    0    0  501    0  0.00000000000E+00  0.00000000000E+00 -0.10647877387E+03  0.10647877399E+03  0.50400001928E-02 0. -1.
    10030    2    1    2    0    0  0.00000000000E+00  0.00000000000E+00  0.46055030462E+03  0.67350785250E+03  0.49143284820E+03 0.  0.
        1    1    3    3  502    0  0.17707274075E+03 -0.17025620095E+03  0.23834034183E+03  0.34226897033E+03  0.50400001928E-02 0. -1.
       -1    1    3    3    0  502 -0.17707274075E+03  0.17025620095E+03  0.22220996279E+03  0.33123888217E+03  0.50400001928E-02 0.  1.
</event>
<event>
 5   0  0.7220250E-02  0.4993536E+03  0.7818609E-02  0.1013948E+00
       -3   -1    0    0    0  501  0.00000000000E+00  0.00000000000E+00  0.15147650960E+03  0.15147654327E+03  0.10100000352E+00 0.  1.
        3   -1    0    0  501    0  0.00000000000E+00  0.00000000000E+00 -0.41153893382E+03  0.41153894622E+03  0.10100000352E+00 0. -1.
    10030    2    1    2    0    0  0.00000000000E+00  0.00000000000E+00 -0.26006242422E+03  0.56301548949E+03  0.49935355903E+03 0.  0.
        1    1    3    3  502    0 -0.73059815343E+02  0.23795262504E+03 -0.15198992845E+03  0.29165069305E+03  0.50400001928E-02 0.  1.
       -1    1    3    3    0  502  0.73059815343E+02 -0.23795262504E+03 -0.10807249577E+03  0.27136479644E+03  0.50400001928E-02 0. -1.
</event>
<event>
 5   0  0.7220250E-02  0.5172210E+03  0.7818609E-02  0.1009379E+00
        3   -1    0    0  501    0  0.00000000000E+00  0.00000000000E+00  0.19872657508E+03  0.19872660075E+03  0.10100000352E+00 0.  1.
       -3   -1    0    0    0  501  0.00000000000E+00  0.00000000000E+00 -0.33653969527E+03  0.33653971042E+03  0.10100000352E+00 0. -1.
    10030    2    1    2    0    0  0.00000000000E+00  0.00000000000E+00 -0.13781312018E+03  0.53526631117E+03  0.51722100478E+03 0.  0.
        5    1    3    3  502    0 -0.23219888071E+03  0.10492192864E+03 -0.23414147272E+02  0.25592038528E+03  0.46999998093E+01 0.  1.
       -5    1    3    3    0  502  0.23219888071E+03 -0.10492192864E+03 -0.11439897291E+03  0.27934592589E+03  0.46999998093E+01 0. -1.
</event>
<event>
 5   0  0.1147245E-01  0.4938152E+03  0.7818609E-02  0.1015406E+00
       -1   -1    0    0    0  501  0.00000000000E+00  0.00000000000E+00  0.75741825254E+02  0.75741825421E+02  0.50400001928E-02 0. -1.
        1   -1    0    0  501    0  0.00000000000E+00  0.00000000000E+00 -0.80488384213E+03  0.80488384215E+03  0.50400001928E-02 0.  1.
    10030    2    1    2    0    0  0.00000000000E+00  0.00000000000E+00 -0.72914201688E+03  0.88062566757E+03  0.49381523428E+03 0.  0.
        1    1    3    3  502    0 -0.79018156222E+02  0.23352590516E+03 -0.34030527726E+03  0.42022125024E+03  0.50400001928E-02 0.  1.
       -1    1    3    3    0  502  0.79018156222E+02 -0.23352590516E+03 -0.38883673962E+03  0.46040441733E+03  0.50400001928E-02 0. -1.
</event>
<event>
 5   0  0.7220250E-02  0.4905116E+03  0.7818609E-02  0.1016286E+00
        3   -1    0    0  501    0  0.00000000000E+00  0.00000000000E+00  0.37211742829E+03  0.37211744200E+03  0.10100000352E+00 0. -1.
       -3   -1    0    0    0  501  0.00000000000E+00  0.00000000000E+00 -0.16164356336E+03  0.16164359492E+03  0.10100000352E+00 0.  1.
    10030    2    1    2    0    0  0.00000000000E+00  0.00000000000E+00  0.21047386493E+03  0.53376103692E+03  0.49051156634E+03 0.  0.
        5    1    3    3  502    0 -0.42688156498E+02 -0.66542835799E+01  0.36789417590E+03  0.37045211952E+03  0.46999998093E+01 0. -1.
       -5    1    3    3    0  502  0.42688156498E+02  0.66542835799E+01 -0.15742031097E+03  0.16330891739E+03  0.46999998093E+01 0.  1.
</event>
<event>
 5   0  0.1074281E-01  0.4866656E+03  0.7818609E-02  0.1017319E+00
       -1   -1    0    0    0  501  0.00000000000E+00  0.00000000000E+00  0.78425119922E+03  0.78425119924E+03  0.50400001928E-02 0. -1.
        1   -1    0    0  501    0  0.00000000000E+00  0.00000000000E+00 -0.75499853495E+02  0.75499853664E+02  0.50400001928E-02 0.  1.
    10030    2    1    2    0    0  0.00000000000E+00  0.00000000000E+00  0.70875134573E+03  0.85975105290E+03  0.48666559658E+03 0.  0.
        4    1    3    3  502    0 -0.86860019603E+02 -0.19539624593E+03  0.55952289648E+03  0.59899235430E+03  0.12699999809E+01 0. -1.
       -4    1    3    3    0  502  0.86860019603E+02  0.19539624593E+03  0.14922844925E+03  0.26075869860E+03  0.12699999809E+01 0.  1.
</event>
<event>
 5   0  0.1141970E-01  0.4795120E+03  0.7818609E-02  0.1019269E+00
        1   -1    0    0  501    0  0.00000000000E+00  0.00000000000E+00  0.87841212259E+03  0.87841212260E+03  0.50400001928E-02 0.  1.
       -1   -1    0    0    0  501  0.00000000000E+00  0.00000000000E+00 -0.65439607458E+02  0.65439607652E+02  0.50400001928E-02 0. -1.
    10030    2    1    2    0    0  0.00000000000E+00  0.00000000000E+00  0.81297251513E+03  0.94385173025E+03  0.47951202107E+03 0.  0.
        3    1    3    3  502    0  0.55601697202E+02 -0.65328000012E+02  0.84716851944E+03  0.85150091418E+03  0.10100000352E+00 0.  1.
       -3    1    3    3    0  502 -0.55601697202E+02  0.65328000012E+02 -0.34196004313E+02  0.92350816073E+02  0.10100000352E+00 0. -1.
</event>
<event>
 5   0  0.1782124E-01  0.3948624E+03  0.7818609E-02  0.1045573E+00
       -2   -1    0    0    0  501  0.00000000000E+00  0.00000000000E+00  0.10934015652E+03  0.10934015655E+03  0.25500000920E-02 0. -1.
        2   -1    0    0  501    0  0.00000000000E+00  0.00000000000E+00 -0.35649378500E+03  0.35649378501E+03  0.25500000920E-02 0.  1.
    10030    2    1    2    0    0  0.00000000000E+00  0.00000000000E+00 -0.24715362848E+03  0.46583394156E+03  0.39486243812E+03 0.  0.
        3    1    3    3  502    0 -0.98027597008E+02 -0.52005004556E+02 -0.31622161271E+03  0.33512691450E+03  0.10100000352E+00 0.  1.
       -3    1    3    3    0  502  0.98027597008E+02  0.52005004556E+02  0.69067984239E+02  0.13070702706E+03  0.10100000352E+00 0. -1.
</event>
<event>
 5   0  0.1068522E-01  0.4957472E+03  0.7818609E-02  0.1014895E+00
       -1   -1    0    0    0  501  0.00000000000E+00  0.00000000000E+00  0.41424604074E+02  0.41424604381E+02  0.50400001928E-02 0.  1.
        1   -1    0    0  501    0  0.00000000000E+00  0.00000000000E+00 -0.14832085194E+04  0.14832085194E+04  0.50400001928E-02 0. -1.
    10030    2    1    2    0    0  0.00000000000E+00  0.00000000000E+00 -0.14417839154E+04  0.15246331238E+04  0.49574721751E+03 0.  0.
        2    1    3    3  502    0  0.10170823545E+03  0.18777618845E+03 -0.33386638985E+03  0.39632212704E+03  0.25500000920E-02 0.  1.
       -2    1    3    3    0  502 -0.10170823545E+03 -0.18777618845E+03 -0.11079175255E+04  0.11283109968E+04  0.25500000920E-02 0. -1.
</event>
<event>
 5   0  0.1068522E-01  0.5080866E+03  0.7818609E-02  0.1011689E+00
       -1   -1    0    0    0  501  0.00000000000E+00  0.00000000000E+00  0.94210386341E+02  0.94210386476E+02  0.50400001928E-02 0.  1.
        1   -1    0    0  501    0  0.00000000000E+00  0.00000000000E+00 -0.68504120681E+03  0.68504120683E+03  0.50400001928E-02 0. -1.
    10030    2    1    2    0    0  0.00000000000E+00  0.00000000000E+00 -0.59083082047E+03  0.77925159330E+03  0.50808659424E+03 0.  0.
        2    1    3    3  502    0 -0.79189148853E+02 -0.24066978779E+03 -0.26692291163E+03  0.36802270148E+03  0.25500000920E-02 0.  1.
       -2    1    3    3    0  502  0.79189148853E+02  0.24066978779E+03 -0.32390790884E+03  0.41122889182E+03  0.25500000920E-02 0. -1.
</event>
<event>
 5   0  0.1141970E-01  0.5037704E+03  0.7818609E-02  0.1012799E+00
       -1   -1    0    0    0  501  0.00000000000E+00  0.00000000000E+00  0.65280817884E+02  0.65280818078E+02  0.50400001928E-02 0. -1.
        1   -1    0    0  501    0  0.00000000000E+00  0.00000000000E+00 -0.97189600776E+03  0.97189600778E+03  0.50400001928E-02 0.  1.
    10030    2    1    2    0    0  0.00000000000E+00  0.00000000000E+00 -0.90661518988E+03  0.10371768259E+04  0.50377044928E+03 0.  0.
        3    1    3    3  502    0 -0.24460835716E+03  0.23672310413E+02 -0.56705724051E+03  0.61801905382E+03  0.10100000352E+00 0.  1.
       -3    1    3    3    0  502  0.24460835716E+03 -0.23672310413E+02 -0.33955794937E+03  0.41915777203E+03  0.10100000352E+00 0. -1.
</event>
<event>
 5   0  0.1074281E-01  0.5091444E+03  0.7818609E-02  0.1011419E+00
       -1   -1    0    0    0  501  0.00000000000E+00  0.00000000000E+00  0.67972071086E+02  0.67972071272E+02  0.50400001928E-02 0.  1.
        1   -1    0    0  501    0  0.00000000000E+00  0.00000000000E+00 -0.95343578596E+03  0.95343578597E+03  0.50400001928E-02 0. -1.
    10030    2    1    2    0    0  0.00000000000E+00  0.00000000000E+00 -0.88546371487E+03  0.10214078572E+04  0.50914440043E+03 0.  0.
        4    1    3    3  502    0 -0.21187108379E+03 -0.72111201362E+02 -0.19936957478E+03  0.29973191648E+03  0.12699999809E+01 0.  1.
       -4    1    3    3    0  502  0.21187108379E+03  0.72111201362E+02 -0.68609414010E+03  0.72167594077E+03  0.12699999809E+01 0. -1.
</event>
<event>
 5   0  0.1683148E-01  0.4969747E+03  0.7818609E-02  0.1014572E+00
        2   -1    0    0  501    0  0.00000000000E+00  0.00000000000E+00  0.45662932903E+03  0.45662932904E+03  0.25500000920E-02 0.  1.
       -2   -1    0    0    0  501  0.00000000000E+00  0.00000000000E+00 -0.13522119183E+03  0.13522119185E+03  0.25500000920E-02 0. -1.
    10030    2    1    2    0    0  0.00000000000E+00  0.00000000000E+00  0.32140813721E+03  0.59185052089E+03  0.49697469595E+03 0.  0.
        2    1    3    3  502    0 -0.59021029327E+02  0.12053935081E+02  0.44780198103E+03  0.45183558235E+03  0.25500000920E-02 0.  1.
       -2    1    3    3    0  502  0.59021029327E+02 -0.12053935081E+02 -0.12639384382E+03  0.14001493855E+03  0.25500000920E-02 0. -1.
</event>
<event>
 5   0  0.1760649E-01  0.4980990E+03  0.7818609E-02  0.1014276E+00
        2   -1    0    0  501    0  0.00000000000E+00  0.00000000000E+00  0.84614208641E+03  0.84614208642E+03  0.25500000920E-02 0. -1.
       -2   -1    0    0    0  501  0.00000000000E+00  0.00000000000E+00 -0.73304057076E+02  0.73304057120E+02  0.25500000920E-02 0.  1.
    10030    2    1    2    0    0  0.00000000000E+00  0.00000000000E+00  0.77283802934E+03  0.91944614354E+03  0.49809897739E+03 0.  0.
        5    1    3    3  502    0  0.11552994059E+03 -0.21448763128E+03  0.29136902059E+03  0.37982905010E+03  0.46999998093E+01 0. -1.
       -5    1    3    3    0  502 -0.11552994059E+03  0.21448763128E+03  0.48146900875E+03  0.53961709344E+03  0.46999998093E+01 0.  1.
</event>
<event>
 5   0  0.1782124E-01  0.5091706E+03  0.7818609E-02  0.1011413E+00
        2   -1    0    0  501    0  0.00000000000E+00  0.00000000000E+00  0.80568470635E+02  0.80568470675E+02  0.25500000920E-02 0.  1.
       -2   -1    0    0    0  501  0.00000000000E+00  0.00000000000E+00 -0.80445453937E+03  0.80445453937E+03  0.25500000920E-02 0. -1.
    10030    2    1    2    0    0  0.00000000000E+00  0.00000000000E+00 -0.72388606874E+03  0.88502301005E+03  0.50917058812E+03 0.  0.
        3    1    3    3  502    0 -0.12590569150E+01  0.61224015903E+02  0.67576379508E+02  0.91195079999E+02  0.10100000352E+00 0.  1.
       -3    1    3    3    0  502  0.12590569150E+01 -0.61224015903E+02 -0.79146244824E+03  0.79382793005E+03  0.10100000352E+00 0. -1.
</event>
<event>
 5   0  0.1760649E-01  0.4964110E+03  0.7818609E-02  0.1014720E+00
       -2   -1    0    0    0  501  0.00000000000E+00  0.00000000000E+00  0.11423657811E+03  0.11423657814E+03  0.25500000920E-02 0. -1.
        2   -1    0    0  501    0  0.00000000000E+00  0.00000000000E+00 -0.53928419274E+03  0.53928419275E+03  0.25500000920E-02 0.  1.
    10030    2    1    2    0    0  0.00000000000E+00  0.00000000000E+00 -0.42504761463E+03  0.65352077088E+03  0.49641104265E+03 0.  0.
        5    1    3    3  502    0 -0.20821800148E+03 -0.13428813669E+03 -0.23094767825E+03  0.33874320640E+03  0.46999998093E+01 0.  1.
       -5    1    3    3    0  502  0.20821800148E+03  0.13428813669E+03 -0.19409993638E+03  0.31477756448E+03  0.46999998093E+01 0. -1.
</event>
<event>
 5   0  0.1074281E-01  0.5079637E+03  0.7818609E-02  0.1011721E+00
        1   -1    0    0  501    0  0.00000000000E+00  0.00000000000E+00  0.60137448854E+03  0.60137448856E+03  0.50400001928E-02 0.  1.
       -1   -1    0    0    0  501  0.00000000000E+00  0.00000000000E+00 -0.10726558186E+03  0.10726558198E+03  0.50400001928E-02 0. -1.
    10030    2    1    2    0    0  0.00000000000E+00  0.00000000000E+00  0.49410890668E+03  0.70864007054E+03  0.50796371712E+03 0.  0.
        4    1    3    3  502    0  0.24444735678E+03  0.68640737281E+02  0.25577893913E+03  0.36040330139E+03  0.12699999809E+01 0.  1.
       -4    1    3    3    0  502 -0.24444735678E+03 -0.68640737281E+02  0.23832996754E+03  0.34823676914E+03  0.12699999809E+01 0. -1.
</event>
<event>
 5   0  0.1141970E-01  0.5003924E+03  0.7818609E-02  0.1013677E+00
       -1   -1    0    0    0  501  0.00000000000E+00  0.00000000000E+00  0.22363241614E+03  0.22363241620E+03  0.50400001928E-02 0. -1.
        1   -1    0    0  501    0  0.00000000000E+00  0.00000000000E+00 -0.27991531419E+03  0.27991531424E+03  0.50400001928E-02 0.  1.
    10030    2    1    2    0    0  0.00000000000E+00  0.00000000000E+00 -0.56282898051E+02  0.50354773044E+03  0.50039239824E+03 0.  0.
        3    1    3    3  502    0 -0.20287923994E+03 -0.10386384236E+03  0.75710295941E+02  0.24016607350E+03  0.10100000352E+00 0. -1.
       -3    1    3    3    0  502  0.20287923994E+03  0.10386384236E+03 -0.13199319399E+03  0.26338165694E+03  0.10100000352E+00 0.  1.
</event>
<event>
 5   0  0.1141970E-01  0.5044220E+03  0.7818609E-02  0.1012631E+00
       -1   -1    0    0    0  501  0.00000000000E+00  0.00000000000E+00  0.10824645736E+03  0.10824645748E+03  0.50400001928E-02 0. -1.
        1   -1    0    0  501    0  0.00000000000E+00  0.00000000000E+00 -0.58764398134E+03  0.58764398136E+03  0.50400001928E-02 0.  1.
    10030    2    1    2    0    0  0.00000000000E+00  0.00000000000E+00 -0.47939752398E+03  0.69589043884E+03  0.50442196311E+03 0.  0.
        3    1    3    3  502    0 -0.27582867308E+02 -0.16322353846E+03 -0.50220941755E+03  0.52878828216E+03  0.10100000352E+00 0.  1.
       -3    1    3    3    0  502  0.27582867308E+02  0.16322353846E+03  0.22811893574E+02  0.16710215667E+03  0.10100000352E+00 0. -1.
</event>
<event>
 5   0  0.1123271E-01  0.4976668E+03  0.7818609E-02  0.1014390E+00
       -1   -1    0    0    0  501  0.00000000000E+00  0.00000000000E+00  0.30186259553E+03  0.30186259557E+03  0.50400001928E-02 0. -1.
        1   -1    0    0  501    0  0.00000000000E+00  0.00000000000E+00 -0.20512000213E+03  0.20512000219E+03  0.50400001928E-02 0.  1.
    10030    2    1    2    0    0  0.00000000000E+00  0.00000000000E+00  0.96742593396E+02  0.50698259776E+03  0.49766678114E+03 0.  0.
        5    1    3    3  502    0  0.27758408240E+02 -0.22763070875E+03 -0.49921611260E+02  0.23473501243E+03  0.46999998093E+01 0.  1.
       -5    1    3    3    0  502 -0.27758408240E+02  0.22763070875E+03  0.14666420466E+03  0.27224758533E+03  0.46999998093E+01 0. -1.
</event>
<event>
 5   0  0.1683148E-01  0.4987018E+03  0.7818609E-02  0.1014118E+00
        2   -1    0    0  501    0  0.00000000000E+00  0.00000000000E+00  0.12144458581E+04  0.12144458581E+04  0.25500000920E-02 0.  1.
       -2   -1    0    0    0  501  0.00000000000E+00  0.00000000000E+00 -0.51196915093E+02  0.51196915157E+02  0.25500000920E-02 0. -1.
    10030    2    1    2    0    0  0.00000000000E+00  0.00000000000E+00  0.11632489430E+04  0.12656427732E+04  0.49870184088E+03 0.  0.
        2    1    3    3  502    0  0.25579886678E+02 -0.66475449037E+02 -0.24829693423E+02  0.75430959222E+02  0.25500000920E-02 0. -1.
       -2    1    3    3    0  502 -0.25579886678E+02  0.66475449037E+02  0.11880786364E+04  0.11902118140E+04  0.25500000920E-02 0.  1.
</event>
<event>
 5   0  0.1782124E-01  0.4972557E+03  0.7818609E-02  0.1014498E+00
        2   -1    0    0  501    0  0.00000000000E+00  0.00000000000E+00  0.88419050711E+02  0.88419050747E+02  0.25500000920E-02 0.  1.
       -2   -1    0    0    0  501  0.00000000000E+00  0.00000000000E+00 -0.69912304802E+03  0.69912304802E+03  0.25500000920E-02 0. -1.
    10030    2    1    2    0    0  0.00000000000E+00  0.00000000000E+00 -0.61070399731E+03  0.78754209877E+03  0.49725565357E+03 0.  0.
        3    1    3    3  502    0  0.33133618386E+02 -0.24018753296E+03 -0.21820253918E+03  0.32619050563E+03  0.10100000352E+00 0.  1.
       -3    1    3    3    0  502 -0.33133618386E+02  0.24018753296E+03 -0.39250145813E+03  0.46135159314E+03  0.10100000352E+00 0. -1.
</event>
<event>
 5   0  0.1782124E-01  0.4974564E+03  0.7818609E-02  0.1014445E+00
        2   -1    0    0  501    0  0.00000000000E+00  0.00000000000E+00  0.15668954461E+03  0.15668954463E+03  0.25500000920E-02 0. -1.
       -2   -1    0    0    0  501  0.00000000000E+00  0.00000000000E+00 -0.39482997465E+03  0.39482997466E+03  0.25500000920E-02 0.  1.
    10030    2    1    2    0    0  0.00000000000E+00  0.00000000000E+00 -0.23814043004E+03  0.55151951928E+03  0.49745644606E+03 0.  0.
        3    1    3    3  502    0 -0.20422213862E+02 -0.24727314057E+03 -0.99719212525E+02  0.26740419670E+03  0.10100000352E+00 0.  1.
       -3    1    3    3    0  502  0.20422213862E+02  0.24727314057E+03 -0.13842121752E+03  0.28411532258E+03  0.10100000352E+00 0. -1.
</event>
<event>
 5   0  0.1068522E-01  0.5008054E+03  0.7818609E-02  0.1013569E+00
       -1   -1    0    0    0  501  0.00000000000E+00  0.00000000000E+00  0.78043985028E+02  0.78043985191E+02  0.50400001928E-02 0.  1.
        1   -1    0    0  501    0  0.00000000000E+00  0.00000000000E+00 -0.80341252177E+03  0.80341252178E+03  0.50400001928E-02 0. -1.
    10030    2    1    2    0    0  0.00000000000E+00  0.00000000000E+00 -0.72536853674E+03  0.88145650697E+03  0.50080541091E+03 0.  0.
        2    1    3    3  502    0  0.62287918534E+02 -0.23270320271E+03 -0.24239290045E+03  0.34173803351E+03  0.25500000920E-02 0. -1.
       -2    1    3    3    0  502 -0.62287918534E+02  0.23270320271E+03 -0.48297563628E+03  0.53971847346E+03  0.25500000920E-02 0.  1.
</event>
<event>
 5   0  0.1709372E-01  0.5099906E+03  0.7818609E-02  0.1011204E+00
        2   -1    0    0  501    0  0.00000000000E+00  0.00000000000E+00  0.67761957185E+03  0.67761957186E+03  0.25500000920E-02 0.  1.
       -2   -1    0    0    0  501  0.00000000000E+00  0.00000000000E+00 -0.95957404888E+02  0.95957404922E+02  0.25500000920E-02 0. -1.
    10030    2    1    2    0    0  0.00000000000E+00  0.00000000000E+00  0.58166216696E+03  0.77357697678E+03  0.50999064945E+03 0.  0.
        4    1    3    3  502    0 -0.22490167360E+03  0.10470162371E+03  0.20137822066E+03  0.31952776632E+03  0.12699999809E+01 0. -1.
       -4    1    3    3    0  502  0.22490167360E+03 -0.10470162371E+03  0.38028394631E+03  0.45404921045E+03  0.12699999809E+01 0.  1.
</event>
<event>
 5   0  0.1782124E-01  0.4978815E+03  0.7818609E-02  0.1014333E+00
        2   -1    0    0  501    0  0.00000000000E+00  0.00000000000E+00  0.22823992600E+03  0.22823992601E+03  0.25500000920E-02 0.  1.
       -2   -1    0    0    0  501  0.00000000000E+00  0.00000000000E+00 -0.27151903599E+03  0.27151903600E+03  0.25500000920E-02 0. -1.
    10030    2    1    2    0    0  0.00000000000E+00  0.00000000000E+00 -0.43279109994E+02  0.49975896202E+03  0.49788145050E+03 0.  0.
        3    1    3    3  502    0  0.62814571244E+02  0.20107778152E+03  0.11150123716E+03  0.23834949270E+03  0.10100000352E+00 0.  1.
       -3    1    3    3    0  502 -0.62814571244E+02 -0.20107778152E+03 -0.15478034715E+03  0.26140946931E+03  0.10100000352E+00 0. -1.
</event>
<event>
 5   0  0.1782124E-01  0.4919194E+03  0.7818609E-02  0.1015910E+00
        2   -1    0    0  501    0  0.00000000000E+00  0.00000000000E+00  0.46881273026E+03  0.46881273027E+03  0.25500000920E-02 0.  1.
       -2   -1    0    0    0  501  0.00000000000E+00  0.00000000000E+00 -0.12904124685E+03  0.12904124688E+03  0.25500000920E-02 0. -1.
    10030    2    1    2    0    0  0.00000000000E+00  0.00000000000E+00  0.33977148341E+03  0.59785397715E+03  0.49191942130E+03 0.  0.
        3    1    3    3  502    0  0.11748898355E+03  0.75984165057E+02  0.41573177505E+03  0.43864584073E+03  0.10100000352E+00 0.  1.
       -3    1    3    3    0  502 -0.11748898355E+03 -0.75984165057E+02 -0.75960291642E+02  0.15920813642E+03  0.10100000352E+00 0. -1.
</event>
<event>
 5   0  0.7220250E-02  0.4959276E+03  0.7818609E-02  0.1014847E+00
       -3   -1    0    0    0  501  0.00000000000E+00  0.00000000000E+00  0.49860378177E+02  0.49860480473E+02  0.10100000352E+00 0. -1.
        3   -1    0    0  501    0  0.00000000000E+00  0.00000000000E+00 -0.12331629365E+04  0.12331629407E+04  0.10100000352E+00 0.  1.
    10030    2    1    2    0    0  0.00000000000E+00  0.00000000000E+00 -0.11833025584E+04  0.12830234211E+04  0.49592756990E+03 0.  0.
        2    1    3    3  502    0  0.12537229193E+03 -0.62802025862E+02 -0.62563504728E+02  0.15354640395E+03  0.25500000920E-02 0. -1.
       -2    1    3    3    0  502 -0.12537229193E+03  0.62802025862E+02 -0.11207390536E+04  0.11294770172E+04  0.25500000920E-02 0.  1.
</event>
<event>
 5   0  0.1782124E-01  0.5106751E+03  0.7818609E-02  0.1011030E+00
       -2   -1    0    0    0  501  0.00000000000E+00  0.00000000000E+00  0.79988222039E+03  0.79988222040E+03  0.25500000920E-02 0.  1.
        2   -1    0    0  501    0  0.00000000000E+00  0.00000000000E+00 -0.81508586685E+02  0.81508586725E+02  0.25500000920E-02 0. -1.
    10030    2    1    2    0    0  0.00000000000E+00  0.00000000000E+00  0.71837363371E+03  0.88139080712E+03  0.51067511911E+03 0.  0.
        3    1    3    3  502    0 -0.31314493116E+02  0.59410816596E+02 -0.65992090270E+02  0.94155237703E+02  0.10100000352E+00 0. -1.
       -3    1    3    3    0  502  0.31314493116E+02 -0.59410816596E+02  0.78436572398E+03  0.78723556942E+03  0.10100000352E+00 0.  1.
</event>
<event>
 5   0  0.1760649E-01  0.5038684E+03  0.7818609E-02  0.1012774E+00
        2   -1    0    0  501    0  0.00000000000E+00  0.00000000000E+00  0.20648171640E+04  0.20648171640E+04  0.25500000920E-02 0.  1.
       -2   -1    0    0    0  501  0.00000000000E+00  0.00000000000E+00 -0.30739201838E+02  0.30739201943E+02  0.25500000920E-02 0. -1.
    10030    2    1    2    0    0  0.00000000000E+00  0.00000000000E+00  0.20340779621E+04  0.20955563659E+04  0.50386836247E+03 0.  0.
        5    1    3    3  502    0 -0.23308274782E+03 -0.86729812831E+02  0.11833503573E+04  0.12092103977E+04  0.46999998093E+01 0.  1.
       -5    1    3    3    0  502  0.23308274782E+03  0.86729812831E+02  0.85072760486E+03  0.88634596825E+03  0.46999998093E+01 0. -1.
</event>
<event>
 5   0  0.1141970E-01  0.4964403E+03  0.7818609E-02  0.1014712E+00
        1   -1    0    0  501    0  0.00000000000E+00  0.00000000000E+00  0.17381941966E+03  0.17381941973E+03  0.50400001928E-02 0. -1.
       -1   -1    0    0    0  501  0.00000000000E+00  0.00000000000E+00 -0.35446701195E+03  0.35446701199E+03  0.50400001928E-02 0.  1.
    10030    2    1    2    0    0  0.00000000000E+00  0.00000000000E+00 -0.18064759229E+03  0.52828643172E+03  0.49644033009E+03 0.  0.
        3    1    3    3  502    0  0.21185624756E+03  0.64053690912E+01 -0.22779742684E+03  0.31115233610E+03  0.10100000352E+00 0.  1.
       -3    1    3    3    0  502 -0.21185624756E+03 -0.64053690912E+01  0.47149834543E+02  0.21713409562E+03  0.10100000352E+00 0. -1.
</event>
<event>
 5   0  0.7220250E-02  0.4924565E+03  0.7818609E-02  0.1015767E+00
        3   -1    0    0  501    0  0.00000000000E+00  0.00000000000E+00  0.49337913476E+03  0.49337914510E+03  0.10100000352E+00 0.  1.
       -3   -1    0    0    0  501  0.00000000000E+00  0.00000000000E+00 -0.12288384070E+03  0.12288388220E+03  0.10100000352E+00 0. -1.
    10030    2    1    2    0    0  0.00000000000E+00  0.00000000000E+00  0.37049529406E+03  0.61626302730E+03  0.49245645076E+03 0.  0.
        2    1    3    3  502    0  0.20295029515E+03 -0.14909390455E+02  0.35872534061E+03  0.41242572935E+03  0.25500000920E-02 0.  1.
       -2    1    3    3    0  502 -0.20295029515E+03  0.14909390455E+02  0.11769953455E+02  0.20383729795E+03  0.25500000920E-02 0. -1.
</event>
<event>
 5   0  0.1068522E-01  0.4938715E+03  0.7818609E-02  0.1015391E+00
        1   -1    0    0  501    0  0.00000000000E+00  0.00000000000E+00  0.22249452041E+03  0.22249452047E+03  0.50400001928E-02 0. -1.
       -1   -1    0    0    0  501  0.00000000000E+00  0.00000000000E+00 -0.27406188219E+03  0.27406188223E+03  0.50400001928E-02 0.  1.
    10030    2    1    2    0    0  0.00000000000E+00  0.00000000000E+00 -0.51567361772E+02  0.49655640270E+03  0.49387150988E+03 0.  0.
        2    1    3    3  502    0  0.16567820637E+03 -0.17988595528E+03 -0.60160816356E+02  0.25184826544E+03  0.25500000920E-02 0.  1.
       -2    1    3    3    0  502 -0.16567820637E+03  0.17988595528E+03  0.85934545840E+01  0.24470813726E+03  0.25500000920E-02 0. -1.
</event>
<event>
 5   0  0.1074281E-01  0.4897421E+03  0.7818609E-02  0.1016492E+00
        1   -1    0    0  501    0  0.00000000000E+00  0.00000000000E+00  0.85324855492E+03  0.85324855493E+03  0.50400001928E-02 0. -1.
       -1   -1    0    0    0  501  0.00000000000E+00  0.00000000000E+00 -0.70274760327E+02  0.70274760508E+02  0.50400001928E-02 0.  1.
    10030    2    1    2    0    0  0.00000000000E+00  0.00000000000E+00  0.78297379459E+03  0.92352331544E+03  0.48974212719E+03 0.  0.
        4    1    3    3  502    0 -0.85786845813E+02 -0.16814807784E+03  0.97366416890E+02  0.21240289789E+03  0.12699999809E+01 0.  1.
       -4    1    3    3    0  502  0.85786845813E+02  0.16814807784E+03  0.68560737770E+03  0.71112041755E+03  0.12699999809E+01 0. -1.
</event>
<event>
 5   0  0.1782124E-01  0.4934938E+03  0.7818609E-02  0.1015491E+00
        2   -1    0    0  501    0  0.00000000000E+00  0.00000000000E+00  0.92961735679E+02  0.92961735714E+02  0.25500000920E-02 0. -1.
       -2   -1    0    0    0  501  0.00000000000E+00  0.00000000000E+00 -0.65493636593E+03  0.65493636594E+03  0.25500000920E-02 0.  1.
    10030    2    1    2    0    0  0.00000000000E+00  0.00000000000E+00 -0.56197463026E+03  0.74789810165E+03  0.49349375417E+03 0.  0.
        3    1    3    3  502    0 -0.54130262225E+00  0.23819061832E+03 -0.37860527778E+03  0.44729970962E+03  0.10100000352E+00 0.  1.
       -3    1    3    3    0  502  0.54130262225E+00 -0.23819061832E+03 -0.18336935247E+03  0.30059839203E+03  0.10100000352E+00 0. -1.
</event>
<event>
 5   0  0.1782124E-01  0.5116751E+03  0.7818609E-02  0.1010776E+00
       -2   -1    0    0    0  501  0.00000000000E+00  0.00000000000E+00  0.87870963634E+02  0.87870963671E+02  0.25500000920E-02 0.  1.
        2   -1    0    0  501    0  0.00000000000E+00  0.00000000000E+00 -0.74487456168E+03  0.74487456168E+03  0.25500000920E-02 0. -1.
    10030    2    1    2    0    0  0.00000000000E+00  0.00000000000E+00 -0.65700359804E+03  0.83274552535E+03  0.51167507478E+03 0.  0.
        3    1    3    3  502    0 -0.25354205470E+01  0.81486540045E+02 -0.72316820525E+03  0.72774909678E+03  0.10100000352E+00 0. -1.
       -3    1    3    3    0  502  0.25354205470E+01 -0.81486540045E+02  0.66164607210E+02  0.10499642858E+03  0.10100000352E+00 0.  1.
</event>
<event>
 5   0  0.1827698E-01  0.4974263E+03  0.7818609E-02  0.1014453E+00
        2   -1    0    0  501    0  0.00000000000E+00  0.00000000000E+00  0.50026209752E+03  0.50026209753E+03  0.25500000920E-02 0. -1.
       -2   -1    0    0    0  501  0.00000000000E+00  0.00000000000E+00 -0.12365162162E+03  0.12365162164E+03  0.25500000920E-02 0.  1.
    10030    2    1    2    0    0  0.00000000000E+00  0.00000000000E+00  0.37661047591E+03  0.62391371917E+03  0.49742625424E+03 0.  0.
        1    1    3    3  502    0  0.20790192561E+03 -0.13211348150E+03  0.23141022974E+03  0.33797614874E+03  0.50400001928E-02 0. -1.
       -1    1    3    3    0  502 -0.20790192561E+03  0.13211348150E+03  0.14520024617E+03  0.28593757043E+03  0.50400001928E-02 0.  1.
</event>
<event>
 5   0  0.1147245E-01  0.4807765E+03  0.7818609E-02  0.1018922E+00
        1   -1    0    0  501    0  0.00000000000E+00  0.00000000000E+00  0.27913443766E+03  0.27913443771E+03  0.50400001928E-02 0.  1.
       -1   -1    0    0    0  501  0.00000000000E+00  0.00000000000E+00 -0.20702036609E+03  0.20702036615E+03  0.50400001928E-02 0. -1.
    10030    2    1    2    0    0  0.00000000000E+00  0.00000000000E+00  0.72114071572E+02  0.48615480385E+03  0.48077651148E+03 0.  0.
        1    1    3    3  502    0 -0.75630466470E+02  0.18747350466E+03  0.16758996273E+03  0.26258841947E+03  0.50400001928E-02 0.  1.
       -1    1    3    3    0  502  0.75630466470E+02 -0.18747350466E+03 -0.95475891157E+02  0.22356638438E+03  0.50400001928E-02 0. -1.
</event>
<event>
 5   0  0.1683148E-01  0.4872085E+03  0.7818609E-02  0.1017173E+00
       -2   -1    0    0    0  501  0.00000000000E+00  0.00000000000E+00  0.19026588239E+03  0.19026588241E+03  0.25500000920E-02 0. -1.
        2   -1    0    0  501    0  0.00000000000E+00  0.00000000000E+00 -0.31189529076E+03  0.31189529077E+03  0.25500000920E-02 0.  1.
    10030    2    1    2    0    0  0.00000000000E+00  0.00000000000E+00 -0.12162940836E+03  0.50216117318E+03  0.48720850862E+03 0.  0.
        2    1    3    3  502    0 -0.15205753215E+03 -0.12103553386E+03  0.90566815096E+02  0.21441418224E+03  0.25500000920E-02 0. -1.
       -2    1    3    3    0  502  0.15205753215E+03  0.12103553386E+03 -0.21219622346E+03  0.28774699094E+03  0.25500000920E-02 0.  1.
</event>
<event>
 5   0  0.1782124E-01  0.4336701E+03  0.7818609E-02  0.1032707E+00
        2   -1    0    0  501    0  0.00000000000E+00  0.00000000000E+00  0.23964516700E+03  0.23964516702E+03  0.25500000920E-02 0. -1.
       -2   -1    0    0    0  501  0.00000000000E+00  0.00000000000E+00 -0.19619606824E+03  0.19619606825E+03  0.25500000920E-02 0.  1.
    10030    2    1    2    0    0  0.00000000000E+00  0.00000000000E+00  0.43449098769E+02  0.43584123527E+03  0.43367010293E+03 0.  0.
        3    1    3    3  502    0  0.57753632473E+02 -0.17020949861E+03 -0.10017023327E+03  0.20576890269E+03  0.10100000352E+00 0.  1.
       -3    1    3    3    0  502 -0.57753632473E+02  0.17020949861E+03  0.14361933204E+03  0.23007233258E+03  0.10100000352E+00 0. -1.
</event>
<event>
 5   0  0.1147245E-01  0.5017587E+03  0.7818609E-02  0.1013321E+00
        1   -1    0    0  501    0  0.00000000000E+00  0.00000000000E+00  0.12887209570E+04  0.12887209570E+04  0.50400001928E-02 0.  1.
       -1   -1    0    0    0  501  0.00000000000E+00  0.00000000000E+00 -0.48839476797E+02  0.48839477057E+02  0.50400001928E-02 0. -1.
    10030    2    1    2    0    0  0.00000000000E+00  0.00000000000E+00  0.12398814802E+04  0.13375604341E+04  0.50175873667E+03 0.  0.
        1    1    3    3  502    0  0.14022006413E+03 -0.55750469935E+02  0.85655666676E+02  0.17351275037E+03  0.50400001928E-02 0. -1.
       -1    1    3    3    0  502 -0.14022006413E+03  0.55750469935E+02  0.11542258135E+04  0.11640476837E+04  0.50400001928E-02 0.  1.
</event>
<event>
 5   0  0.1709372E-01  0.4930922E+03  0.7818609E-02  0.1015598E+00
       -2   -1    0    0    0  501  0.00000000000E+00  0.00000000000E+00  0.30115093661E+03  0.30115093662E+03  0.25500000920E-02 0.  1.
        2   -1    0    0  501    0  0.00000000000E+00  0.00000000000E+00 -0.20184224367E+03  0.20184224368E+03  0.25500000920E-02 0. -1.
    10030    2    1    2    0    0  0.00000000000E+00  0.00000000000E+00  0.99308692941E+02  0.50299318030E+03  0.49309220531E+03 0.  0.
        4    1    3    3  502    0  0.14022679808E+03 -0.18355023621E+03 -0.38268705517E+02  0.23413746141E+03  0.12699999809E+01 0.  1.
       -4    1    3    3    0  502 -0.14022679808E+03  0.18355023621E+03  0.13757739846E+03  0.26885571889E+03  0.12699999809E+01 0. -1.
</event>
<event>
 5   0  0.1123271E-01  0.4916880E+03  0.7818609E-02  0.1015972E+00
        1   -1    0    0  501    0  0.00000000000E+00  0.00000000000E+00  0.94099002387E+02  0.94099002522E+02  0.50400001928E-02 0.  1.
       -1   -1    0    0    0  501  0.00000000000E+00  0.00000000000E+00 -0.64229459359E+03  0.64229459361E+03  0.50400001928E-02 0. -1.
    10030    2    1    2    0    0  0.00000000000E+00  0.00000000000E+00 -0.54819559120E+03  0.73639359613E+03  0.49168803342E+03 0.  0.
        5    1    3    3  502    0 -0.83116928972E+02  0.18835544713E+03 -0.72989411128E+02  0.21848510815E+03  0.46999998093E+01 0.  1.
       -5    1    3    3    0  502  0.83116928972E+02 -0.18835544713E+03 -0.47520618008E+03  0.51790848799E+03  0.46999998093E+01 0. -1.
</event>
<event>
 5   0  0.7220250E-02  0.4391673E+03  0.7818609E-02  0.1031003E+00
        3   -1    0    0  501    0  0.00000000000E+00  0.00000000000E+00  0.43284639972E+02  0.43284757808E+02  0.10100000352E+00 0.  1.
       -3   -1    0    0    0  501  0.00000000000E+00  0.00000000000E+00 -0.11139496204E+04  0.11139496249E+04  0.10100000352E+00 0. -1.
    10030    2    1    2    0    0  0.00000000000E+00  0.00000000000E+00 -0.10706649804E+04  0.11572343827E+04  0.43916729885E+03 0.  0.
        5    1    3    3  502    0  0.21701806853E+03 -0.32690539243E+02 -0.54961436612E+03  0.59183068091E+03  0.46999998093E+01 0. -1.
       -5    1    3    3    0  502 -0.21701806853E+03  0.32690539243E+02 -0.52105061426E+03  0.56540370183E+03  0.46999998093E+01 0.  1.
</event>
<event>
 5   0  0.1760649E-01  0.4873968E+03  0.7818609E-02  0.1017122E+00
       -2   -1    0    0    0  501  0.00000000000E+00  0.00000000000E+00  0.68741845617E+02  0.68741845664E+02  0.25500000920E-02 0.  1.
        2   -1    0    0  501    0  0.00000000000E+00  0.00000000000E+00 -0.86394106774E+03  0.86394106774E+03  0.25500000920E-02 0. -1.
    10030    2    1    2    0    0  0.00000000000E+00  0.00000000000E+00 -0.79519922212E+03  0.93268291341E+03  0.48739677276E+03 0.  0.
        5    1    3    3  502    0  0.14480976209E+03  0.16135902607E+03 -0.18485218505E+03  0.28495442234E+03  0.46999998093E+01 0.  1.
       -5    1    3    3    0  502 -0.14480976209E+03 -0.16135902607E+03 -0.61034703707E+03  0.64772849107E+03  0.46999998093E+01 0. -1.
</event>
<event>
 5   0  0.1683148E-01  0.5014290E+03  0.7818609E-02  0.1013407E+00
        2   -1    0    0  501    0  0.00000000000E+00  0.00000000000E+00  0.94804030456E+03  0.94804030457E+03  0.25500000920E-02 0.  1.
       -2   -1    0    0    0  501  0.00000000000E+00  0.00000000000E+00 -0.66302832977E+02  0.66302833026E+02  0.25500000920E-02 0. -1.
    10030    2    1    2    0    0  0.00000000000E+00  0.00000000000E+00  0.88173747159E+03  0.10143431376E+04  0.50142898997E+03 0.  0.
        2    1    3    3  502    0 -0.37446024415E+02 -0.24606403839E+03  0.37991104786E+03  0.45418291472E+03  0.25500000920E-02 0.  1.
       -2    1    3    3    0  502  0.37446024415E+02  0.24606403839E+03  0.50182642373E+03  0.56016022288E+03  0.25500000920E-02 0. -1.
</event>
<event>
 5   0  0.1782124E-01  0.5004205E+03  0.7818609E-02  0.1013669E+00
       -2   -1    0    0    0  501  0.00000000000E+00  0.00000000000E+00  0.58135039661E+02  0.58135039717E+02  0.25500000920E-02 0. -1.
        2   -1    0    0  501    0  0.00000000000E+00  0.00000000000E+00 -0.10768921654E+04  0.10768921654E+04  0.25500000920E-02 0.  1.
    10030    2    1    2    0    0  0.00000000000E+00  0.00000000000E+00 -0.10187571257E+04  0.11350272051E+04  0.50042049829E+03 0.  0.
        3    1    3    3  502    0 -0.21700303240E+03 -0.34293007808E+02 -0.23777962317E+03  0.32373675394E+03  0.10100000352E+00 0. -1.
       -3    1    3    3    0  502  0.21700303240E+03  0.34293007808E+02 -0.78097750254E+03  0.81129045115E+03  0.10100000352E+00 0.  1.
</event>
<event>
 5   0  0.1782124E-01  0.4970674E+03  0.7818609E-02  0.1014547E+00
        2   -1    0    0  501    0  0.00000000000E+00  0.00000000000E+00  0.11225901166E+04  0.11225901166E+04  0.25500000920E-02 0.  1.
       -2   -1    0    0    0  501  0.00000000000E+00  0.00000000000E+00 -0.55023639429E+02  0.55023639488E+02  0.25500000920E-02 0. -1.
    10030    2    1    2    0    0  0.00000000000E+00  0.00000000000E+00  0.10675664772E+04  0.11776137561E+04  0.49706737507E+03 0.  0.
        3    1    3    3  502    0 -0.16358988389E+03 -0.10751288096E+03  0.89656330928E+03  0.91768537497E+03  0.10100000352E+00 0.  1.
       -3    1    3    3    0  502  0.16358988389E+03  0.10751288096E+03  0.17100316789E+03  0.25992838112E+03  0.10100000352E+00 0. -1.
</event>
<event>
 5   0  0.7220250E-02  0.5064784E+03  0.7818609E-02  0.1012102E+00
        3   -1    0    0  501    0  0.00000000000E+00  0.00000000000E+00  0.99078587446E+02  0.99078638925E+02  0.10100000352E+00 0. -1.
       -3   -1    0    0    0  501  0.00000000000E+00  0.00000000000E+00 -0.64726460079E+03  0.64726460867E+03  0.10100000352E+00 0.  1.
    10030    2    1    2    0    0  0.00000000000E+00  0.00000000000E+00 -0.54818601334E+03  0.74634324759E+03  0.50647836874E+03 0.  0.
        3    1    3    3  502    0 -0.17348217318E+03 -0.16559589807E+03 -0.39391717009E+03  0.46118197380E+03  0.10100000352E+00 0.  1.
       -3    1    3    3    0  502  0.17348217318E+03  0.16559589807E+03 -0.15426884326E+03  0.28516127379E+03  0.10100000352E+00 0. -1.
</event>
<event>
 5   0  0.1683148E-01  0.5064790E+03  0.7818609E-02  0.1012102E+00
       -2   -1    0    0    0  501  0.00000000000E+00  0.00000000000E+00  0.36550257405E+03  0.36550257406E+03  0.25500000920E-02 0. -1.
        2   -1    0    0  501    0  0.00000000000E+00  0.00000000000E+00 -0.17545770964E+03  0.17545770966E+03  0.25500000920E-02 0.  1.
    10030    2    1    2    0    0  0.00000000000E+00  0.00000000000E+00  0.19004486441E+03  0.54096028372E+03  0.50647900062E+03 0.  0.
        2    1    3    3  502    0 -0.12773563273E+03 -0.13437976823E+03 -0.89220444406E+02  0.20575374039E+03  0.25500000920E-02 0.  1.
       -2    1    3    3    0  502  0.12773563273E+03  0.13437976823E+03  0.27926530882E+03  0.33520654333E+03  0.25500000920E-02 0. -1.
</event>
<event>
 5   0  0.1782124E-01  0.5520664E+03  0.7818609E-02  0.1001017E+00
        2   -1    0    0  501    0  0.00000000000E+00  0.00000000000E+00  0.18406466466E+03  0.18406466467E+03  0.25500000920E-02 0. -1.
       -2   -1    0    0    0  501  0.00000000000E+00  0.00000000000E+00 -0.41395415559E+03  0.41395415559E+03  0.25500000920E-02 0.  1.
    10030    2    1    2    0    0  0.00000000000E+00  0.00000000000E+00 -0.22988949093E+03  0.59801882027E+03  0.55206641933E+03 0.  0.
        3    1    3    3  502    0  0.25054084448E+02 -0.85480220119E+01  0.18268644109E+03  0.18459447930E+03  0.10100000352E+00 0. -1.
       -3    1    3    3    0  502 -0.25054084448E+02  0.85480220119E+01 -0.41257593202E+03  0.41342434097E+03  0.10100000352E+00 0.  1.
</event>
<event>
 5   0  0.7220250E-02  0.5024987E+03  0.7818609E-02  0.1013129E+00
       -3   -1    0    0    0  501  0.00000000000E+00  0.00000000000E+00  0.14064242225E+03  0.14064245852E+03  0.10100000352E+00 0. -1.
        3   -1    0    0  501    0  0.00000000000E+00  0.00000000000E+00 -0.44884197653E+03  0.44884198790E+03  0.10100000352E+00 0.  1.
    10030    2    1    2    0    0  0.00000000000E+00  0.00000000000E+00 -0.30819955428E+03  0.58948444641E+03  0.50249870378E+03 0.  0.
        2    1    3    3  502    0  0.45420598126E+02 -0.13448189003E+03 -0.39729757230E+03  0.42189307939E+03  0.25500000920E-02 0.  1.
       -2    1    3    3    0  502 -0.45420598126E+02  0.13448189003E+03  0.89098018013E+02  0.16759136702E+03  0.25500000920E-02 0. -1.
</event>
<event>
 5   0  0.1141970E-01  0.5067555E+03  0.7818609E-02  0.1012031E+00
        1   -1    0    0  501    0  0.00000000000E+00  0.00000000000E+00  0.31899207406E+03  0.31899207410E+03  0.50400001928E-02 0.  1.
       -1   -1    0    0    0  501  0.00000000000E+00  0.00000000000E+00 -0.20125984477E+03  0.20125984483E+03  0.50400001928E-02 0. -1.
    10030    2    1    2    0    0  0.00000000000E+00  0.00000000000E+00  0.11773222929E+03  0.52025191893E+03  0.50675554397E+03 0.  0.
        3    1    3    3  502    0  0.75310168030E+02 -0.15000886286E+03 -0.13599412546E+03  0.21602937927E+03  0.10100000352E+00 0. -1.
       -3    1    3    3    0  502 -0.75310168030E+02  0.15000886286E+03  0.25372635475E+03  0.30422253967E+03  0.10100000352E+00 0.  1.
</event>
<event>
 5   0  0.1827698E-01  0.5046416E+03  0.7818609E-02  0.1012574E+00
       -2   -1    0    0    0  501  0.00000000000E+00  0.00000000000E+00  0.60311613029E+03  0.60311613029E+03  0.25500000920E-02 0.  1.
        2   -1    0    0  501    0  0.00000000000E+00  0.00000000000E+00 -0.10556140674E+03  0.10556140677E+03  0.25500000920E-02 0. -1.
    10030    2    1    2    0    0  0.00000000000E+00  0.00000000000E+00  0.49755472355E+03  0.70867753706E+03  0.50464160412E+03 0.  0.
        1    1    3    3  502    0 -0.21735568079E+03  0.77427611827E+02  0.10537684446E+03  0.25365883863E+03  0.50400001928E-02 0. -1.
       -1    1    3    3    0  502  0.21735568079E+03 -0.77427611827E+02  0.39217787909E+03  0.45501869843E+03  0.50400001928E-02 0.  1.
</event>
<event>
 5   0  0.1147245E-01  0.5042047E+03  0.7818609E-02  0.1012687E+00
        1   -1    0    0  501    0  0.00000000000E+00  0.00000000000E+00  0.26690219876E+03  0.26690219881E+03  0.50400001928E-02 0.  1.
       -1   -1    0    0    0  501  0.00000000000E+00  0.00000000000E+00 -0.23812317548E+03  0.23812317553E+03  0.50400001928E-02 0. -1.
    10030    2    1    2    0    0  0.00000000000E+00  0.00000000000E+00  0.28779023284E+02  0.50502537434E+03  0.50420471690E+03 0.  0.
        1    1    3    3  502    0  0.96962983436E+02  0.17846453118E+02  0.24679147647E+03  0.26575618323E+03  0.50400001928E-02 0.  1.
       -1    1    3    3    0  502 -0.96962983436E+02 -0.17846453118E+02 -0.21801245318E+03  0.23926919111E+03  0.50400001928E-02 0. -1.
</event>
<event>
 5   0  0.1709372E-01  0.4932402E+03  0.7818609E-02  0.1015559E+00
        2   -1    0    0  501    0  0.00000000000E+00  0.00000000000E+00  0.16079995946E+04  0.16079995946E+04  0.25500000920E-02 0. -1.
       -2   -1    0    0    0  501  0.00000000000E+00  0.00000000000E+00 -0.37824301625E+02  0.37824301711E+02  0.25500000920E-02 0.  1.
    10030    2    1    2    0    0  0.00000000000E+00  0.00000000000E+00  0.15701752929E+04  0.16458238963E+04  0.49324015145E+03 0.  0.
        4    1    3    3  502    0 -0.11488383074E+03  0.20535139578E+03  0.53870101248E+03  0.58785022247E+03  0.12699999809E+01 0.  1.
       -4    1    3    3    0  502  0.11488383074E+03 -0.20535139578E+03  0.10314742804E+04  0.10579736738E+04  0.12699999809E+01 0. -1.
</event>
<event>
 5   0  0.1709372E-01  0.4985239E+03  0.7818609E-02  0.1014165E+00
        2   -1    0    0  501    0  0.00000000000E+00  0.00000000000E+00  0.92940525879E+03  0.92940525880E+03  0.25500000920E-02 0. -1.
       -2   -1    0    0    0  501  0.00000000000E+00  0.00000000000E+00 -0.66850832201E+02  0.66850832250E+02  0.25500000920E-02 0.  1.
    10030    2    1    2    0    0  0.00000000000E+00  0.00000000000E+00  0.86255442659E+03  0.99625609105E+03  0.49852388119E+03 0.  0.
        4    1    3    3  502    0  0.15746799955E+03  0.18295557138E+03  0.55545227056E+03  0.60563829944E+03  0.12699999809E+01 0. -1.
       -4    1    3    3    0  502 -0.15746799955E+03 -0.18295557138E+03  0.30710215603E+03  0.39061779161E+03  0.12699999809E+01 0.  1.
</event>
<event>
 5   0  0.1123271E-01  0.5136132E+03  0.7818609E-02  0.1010286E+00
       -1   -1    0    0    0  501  0.00000000000E+00  0.00000000000E+00  0.67757954139E+02  0.67757954326E+02  0.50400001928E-02 0.  1.
        1   -1    0    0  501    0  0.00000000000E+00  0.00000000000E+00 -0.97331204370E+03  0.97331204371E+03  0.50400001928E-02 0. -1.
    10030    2    1    2    0    0  0.00000000000E+00  0.00000000000E+00 -0.90555408956E+03  0.10410699980E+04  0.51361321215E+03 0.  0.
        5    1    3    3  502    0 -0.69496932506E+02 -0.46030413875E+02  0.39480241222E+02  0.92354762056E+02  0.46999998093E+01 0.  1.
       -5    1    3    3    0  502  0.69496932506E+02  0.46030413875E+02 -0.94503433078E+03  0.94871523598E+03  0.46999998093E+01 0. -1.
</event>
<event>
 5   0  0.1709372E-01  0.4997262E+03  0.7818609E-02  0.1013850E+00
       -2   -1    0    0    0  501  0.00000000000E+00  0.00000000000E+00  0.74456928080E+02  0.74456928124E+02  0.25500000920E-02 0. -1.
        2   -1    0    0  501    0  0.00000000000E+00  0.00000000000E+00 -0.83849242542E+03  0.83849242543E+03  0.25500000920E-02 0.  1.
    10030    2    1    2    0    0  0.00000000000E+00  0.00000000000E+00 -0.76403549734E+03  0.91294935355E+03  0.49972620599E+03 0.  0.
        4    1    3    3  502    0  0.24714175559E+03  0.34317827945E+02 -0.35797498832E+03  0.43635360184E+03  0.12699999809E+01 0.  1.
       -4    1    3    3    0  502 -0.24714175559E+03 -0.34317827945E+02 -0.40606050902E+03  0.47659575172E+03  0.12699999809E+01 0. -1.
</event>
<event>
 5   0  0.1827698E-01  0.5021405E+03  0.7818609E-02  0.1013222E+00
        2   -1    0    0  501    0  0.00000000000E+00  0.00000000000E+00  0.10490726874E+04  0.10490726874E+04  0.25500000920E-02 0. -1.
       -2   -1    0    0    0  501  0.00000000000E+00  0.00000000000E+00 -0.60087613566E+02  0.60087613620E+02  0.25500000920E-02 0.  1.
    10030    2    1    2    0    0  0.00000000000E+00  0.00000000000E+00  0.98898507387E+03  0.11091603011E+04  0.50214051530E+03 0.  0.
        1    1    3    3  502    0  0.18507132920E+02  0.81080620332E+01  0.10472739001E+04  0.10474687950E+04  0.50400001928E-02 0. -1.
       -1    1    3    3    0  502 -0.18507132920E+02 -0.81080620332E+01 -0.58288826199E+02  0.61691506092E+02  0.50400001928E-02 0.  1.
</event>
<event>
 5   0  0.1074281E-01  0.4982332E+03  0.7818609E-02  0.1014241E+00
       -1   -1    0    0    0  501  0.00000000000E+00  0.00000000000E+00  0.22816112673E+03  0.22816112679E+03  0.50400001928E-02 0. -1.
        1   -1    0    0  501    0  0.00000000000E+00  0.00000000000E+00 -0.27199673962E+03  0.27199673966E+03  0.50400001928E-02 0.  1.
    10030    2    1    2    0    0  0.00000000000E+00  0.00000000000E+00 -0.43835612882E+02  0.50015786645E+03  0.49823320886E+03 0.  0.
        4    1    3    3  502    0  0.36228848356E+01  0.19832563723E+03 -0.17320260659E+03  0.26333807075E+03  0.12699999809E+01 0.  1.
       -4    1    3    3    0  502 -0.36228848356E+01 -0.19832563723E+03  0.12936699371E+03  0.23681979570E+03  0.12699999809E+01 0. -1.
</event>
<event>
 5   0  0.1123271E-01  0.4417096E+03  0.7818609E-02  0.1030224E+00
       -1   -1    0    0    0  501  0.00000000000E+00  0.00000000000E+00  0.30187360724E+03  0.30187360728E+03  0.50400001928E-02 0. -1.
        1   -1    0    0  501    0  0.00000000000E+00  0.00000000000E+00 -0.16158036925E+03  0.16158036933E+03  0.50400001928E-02 0.  1.
    10030    2    1    2    0    0  0.00000000000E+00  0.00000000000E+00  0.14029323799E+03  0.46345397661E+03  0.44170962839E+03 0.  0.
        5    1    3    3  502    0  0.11414804082E+03 -0.13177036084E+03  0.21232202740E+03  0.27476523895E+03  0.46999998093E+01 0. -1.
       -5    1    3    3    0  502 -0.11414804082E+03  0.13177036084E+03 -0.72028789416E+02  0.18868873766E+03  0.46999998093E+01 0.  1.
</event>
<event>
 5   0  0.1141970E-01  0.5099276E+03  0.7818609E-02  0.1011220E+00
        1   -1    0    0  501    0  0.00000000000E+00  0.00000000000E+00  0.42468978424E+03  0.42468978427E+03  0.50400001928E-02 0.  1.
       -1   -1    0    0    0  501  0.00000000000E+00  0.00000000000E+00 -0.15306826356E+03  0.15306826364E+03  0.50400001928E-02 0. -1.
    10030    2    1    2    0    0  0.00000000000E+00  0.00000000000E+00  0.27162152068E+03  0.57775804791E+03  0.50992755508E+03 0.  0.
        3    1    3    3  502    0  0.18083106888E+03  0.15043387566E+03  0.24726381828E+03  0.34127647509E+03  0.10100000352E+00 0.  1.
       -3    1    3    3    0  502 -0.18083106888E+03 -0.15043387566E+03  0.24357702409E+02  0.23648157283E+03  0.10100000352E+00 0. -1.
</event>
<event>
 5   0  0.1709372E-01  0.5021419E+03  0.7818609E-02  0.1013221E+00
       -2   -1    0    0    0  501  0.00000000000E+00  0.00000000000E+00  0.11774703545E+03  0.11774703548E+03  0.25500000920E-02 0.  1.
        2   -1    0    0  501    0  0.00000000000E+00  0.00000000000E+00 -0.53535624540E+03  0.53535624541E+03  0.25500000920E-02 0. -1.
    10030    2    1    2    0    0  0.00000000000E+00  0.00000000000E+00 -0.41760920995E+03  0.65310328088E+03  0.50214185572E+03 0.  0.
        4    1    3    3  502    0 -0.11559695227E+03  0.13109251203E+03 -0.44323336315E+03  0.47645076261E+03  0.12699999809E+01 0. -1.
       -4    1    3    3    0  502  0.11559695227E+03 -0.13109251203E+03  0.25624153200E+02  0.17665251827E+03  0.12699999809E+01 0.  1.
</event>
<event>
 5   0  0.1827698E-01  0.4997125E+03  0.7818609E-02  0.1013854E+00
        2   -1    0    0  501    0  0.00000000000E+00  0.00000000000E+00  0.63025537574E+03  0.63025537575E+03  0.25500000920E-02 0. -1.
       -2   -1    0    0    0  501  0.00000000000E+00  0.00000000000E+00 -0.99052155841E+02  0.99052155874E+02  0.25500000920E-02 0.  1.
    10030    2    1    2    0    0  0.00000000000E+00  0.00000000000E+00  0.53120321990E+03  0.72930753162E+03  0.49971253221E+03 0.  0.
        1    1    3    3  502    0 -0.13429854063E+03  0.76930830155E+02  0.55186937784E+03  0.57316163590E+03  0.50400001928E-02 0. -1.
       -1    1    3    3    0  502  0.13429854063E+03 -0.76930830155E+02 -0.20666157936E+02  0.15614589573E+03  0.50400001928E-02 0.  1.
</event>
<event>
 5   0  0.1683148E-01  0.5032819E+03  0.7818609E-02  0.1012926E+00
        2   -1    0    0  501    0  0.00000000000E+00  0.00000000000E+00  0.36082755523E+03  0.36082755524E+03  0.25500000920E-02 0. -1.
       -2   -1    0    0    0  501  0.00000000000E+00  0.00000000000E+00 -0.17549429196E+03  0.17549429198E+03  0.25500000920E-02 0.  1.
    10030    2    1    2    0    0  0.00000000000E+00  0.00000000000E+00  0.18533326328E+03  0.53632184722E+03  0.50328193424E+03 0.  0.
        2    1    3    3  502    0 -0.13274159090E+03 -0.16090780942E+03  0.24266035338E+03  0.31999328149E+03  0.25500000920E-02 0. -1.
       -2    1    3    3    0  502  0.13274159090E+03  0.16090780942E+03 -0.57327090105E+02  0.21632856573E+03  0.25500000920E-02 0.  1.
</event>
<event>
 5   0  0.1760649E-01  0.5056709E+03  0.7818609E-02  0.1012309E+00
        2   -1    0    0  501    0  0.00000000000E+00  0.00000000000E+00  0.40999378952E+03  0.40999378952E+03  0.25500000920E-02 0.  1.
       -2   -1    0    0    0  501  0.00000000000E+00  0.00000000000E+00 -0.15591883739E+03  0.15591883741E+03  0.25500000920E-02 0. -1.
    10030    2    1    2    0    0  0.00000000000E+00  0.00000000000E+00  0.25407495213E+03  0.56591262693E+03  0.50567086135E+03 0.  0.
        5    1    3    3  502    0  0.20847595442E+03  0.13062208034E+03  0.19209472606E+03  0.31216474051E+03  0.46999998093E+01 0. -1.
       -5    1    3    3    0  502 -0.20847595442E+03 -0.13062208034E+03  0.61980226068E+02  0.25374788642E+03  0.46999998093E+01 0.  1.
</event>
<event>
 5   0  0.1683148E-01  0.5171128E+03  0.7818609E-02  0.1009406E+00
        2   -1    0    0  501    0  0.00000000000E+00  0.00000000000E+00  0.88816193088E+03  0.88816193089E+03  0.25500000920E-02 0.  1.
       -2   -1    0    0    0  501  0.00000000000E+00  0.00000000000E+00 -0.75269397178E+02  0.75269397221E+02  0.25500000920E-02 0. -1.
    10030    2    1    2    0    0  0.00000000000E+00  0.00000000000E+00  0.81289253371E+03  0.96343132811E+03  0.51711280455E+03 0.  0.
        2    1    3    3  502    0 -0.17281902556E+03  0.94261323337E+02  0.71875713001E+03  0.74522709601E+03  0.25500000920E-02 0.  1.
       -2    1    3    3    0  502  0.17281902556E+03 -0.94261323337E+02  0.94135403694E+02  0.21820423210E+03  0.25500000920E-02 0. -1.
</event>
<event>
 5   0  0.1141970E-01  0.4988587E+03  0.7818609E-02  0.1014077E+00
        1   -1    0    0  501    0  0.00000000000E+00  0.00000000000E+00  0.44711862871E+03  0.44711862873E+03  0.50400001928E-02 0. -1.
       -1   -1    0    0    0  501  0.00000000000E+00  0.00000000000E+00 -0.13914653688E+03  0.13914653697E+03  0.50400001928E-02 0.  1.
    10030    2    1    2    0    0  0.00000000000E+00  0.00000000000E+00  0.30797209183E+03  0.58626516570E+03  0.49885873268E+03 0.  0.
        3    1    3    3  502    0  0.60495857680E+02 -0.12089994199E+03  0.40032829169E+03  0.42253910600E+03  0.10100000352E+00 0. -1.
       -3    1    3    3    0  502 -0.60495857680E+02  0.12089994199E+03 -0.92356199864E+02  0.16372605970E+03  0.10100000352E+00 0.  1.
</event>
<event>
 5   0  0.1827698E-01  0.5013461E+03  0.7818609E-02  0.1013428E+00
        2   -1    0    0  501    0  0.00000000000E+00  0.00000000000E+00  0.25827986536E+03  0.25827986537E+03  0.25500000920E-02 0.  1.
       -2   -1    0    0    0  501  0.00000000000E+00  0.00000000000E+00 -0.24329030655E+03  0.24329030656E+03  0.25500000920E-02 0. -1.
    10030    2    1    2    0    0  0.00000000000E+00  0.00000000000E+00  0.14989558805E+02  0.50157017193E+03  0.50134613841E+03 0.  0.
        1    1    3    3  502    0 -0.24093781544E+03  0.36055475962E+02 -0.51573617713E+02  0.24901981111E+03  0.50400001928E-02 0.  1.
       -1    1    3    3    0  502  0.24093781544E+03 -0.36055475962E+02  0.66563176518E+02  0.25255036082E+03  0.50400001928E-02 0. -1.
</event>
<event>
 5   0  0.1068522E-01  0.4980739E+03  0.7818609E-02  0.1014283E+00
        1   -1    0    0  501    0  0.00000000000E+00  0.00000000000E+00  0.94757886292E+03  0.94757886294E+03  0.50400001928E-02 0. -1.
       -1   -1    0    0    0  501  0.00000000000E+00  0.00000000000E+00 -0.65450392329E+02  0.65450392523E+02  0.50400001928E-02 0.  1.
    10030    2    1    2    0    0  0.00000000000E+00  0.00000000000E+00  0.88212847059E+03  0.10130292555E+04  0.49807392401E+03 0.  0.
        2    1    3    3  502    0  0.12410156765E+02 -0.24719225212E+03  0.38494252557E+03  0.45764480714E+03  0.25500000920E-02 0.  1.
       -2    1    3    3    0  502 -0.12410156765E+02  0.24719225212E+03  0.49718594502E+03  0.55538444832E+03  0.25500000920E-02 0. -1.
</event>
<event>
 5   0  0.1068522E-01  0.4839183E+03  0.7818609E-02  0.1018064E+00
       -1   -1    0    0    0  501  0.00000000000E+00  0.00000000000E+00  0.12523761840E+03  0.12523761851E+03  0.50400001928E-02 0. -1.
        1   -1    0    0  501    0  0.00000000000E+00  0.00000000000E+00 -0.46746530674E+03  0.46746530676E+03  0.50400001928E-02 0.  1.
    10030    2    1    2    0    0  0.00000000000E+00  0.00000000000E+00 -0.34222768833E+03  0.59270292527E+03  0.48391834741E+03 0.  0.
        2    1    3    3  502    0 -0.13904303963E+03 -0.17347872819E+03 -0.54170150997E+02  0.22882797309E+03  0.25500000920E-02 0. -1.
       -2    1    3    3    0  502  0.13904303963E+03  0.17347872819E+03 -0.28805753734E+03  0.36387495218E+03  0.25500000920E-02 0.  1.
</event>
<event>
 5   0  0.1782124E-01  0.4971692E+03  0.7818609E-02  0.1014520E+00
       -2   -1    0    0    0  501  0.00000000000E+00  0.00000000000E+00  0.86915624622E+02  0.86915624659E+02  0.25500000920E-02 0.  1.
        2   -1    0    0  501    0  0.00000000000E+00  0.00000000000E+00 -0.71096890013E+03  0.71096890014E+03  0.25500000920E-02 0. -1.
    10030    2    1    2    0    0  0.00000000000E+00  0.00000000000E+00 -0.62405327551E+03  0.79788452480E+03  0.49716921087E+03 0.  0.
        3    1    3    3  502    0 -0.23811156650E+03  0.50438626655E+02 -0.39311745174E+03  0.46236621224E+03  0.10100000352E+00 0. -1.
       -3    1    3    3    0  502  0.23811156650E+03 -0.50438626655E+02 -0.23093582377E+03  0.33551831255E+03  0.10100000352E+00 0.  1.
</event>
<event>
 5   0  0.1760649E-01  0.5069220E+03  0.7818609E-02  0.1011988E+00
        2   -1    0    0  501    0  0.00000000000E+00  0.00000000000E+00  0.11047698348E+03  0.11047698351E+03  0.25500000920E-02 0. -1.
       -2   -1    0    0    0  501  0.00000000000E+00  0.00000000000E+00 -0.58150109068E+03  0.58150109068E+03  0.25500000920E-02 0.  1.
    10030    2    1    2    0    0  0.00000000000E+00  0.00000000000E+00 -0.47102410719E+03  0.69197807419E+03  0.50692203109E+03 0.  0.
        5    1    3    3  502    0  0.13289386489E+03  0.15054650749E+03 -0.24499636442E+02  0.20235452163E+03  0.46999998093E+01 0. -1.
       -5    1    3    3    0  502 -0.13289386489E+03 -0.15054650749E+03 -0.44652447075E+03  0.48962355256E+03  0.46999998093E+01 0.  1.
</event>
<event>
 5   0  0.7220250E-02  0.5067187E+03  0.7818609E-02  0.1012040E+00
       -3   -1    0    0    0  501  0.00000000000E+00  0.00000000000E+00  0.11483784036E+03  0.11483788477E+03  0.10100000352E+00 0.  1.
        3   -1    0    0  501    0  0.00000000000E+00  0.00000000000E+00 -0.55897023577E+03  0.55897024490E+03  0.10100000352E+00 0. -1.
    10030    2    1    2    0    0  0.00000000000E+00  0.00000000000E+00 -0.44413239542E+03  0.67380812967E+03  0.50671867042E+03 0.  0.
        2    1    3    3  502    0 -0.77779074833E+02  0.13128473234E+03 -0.49100978113E+03  0.51417494163E+03  0.25500000920E-02 0. -1.
       -2    1    3    3    0  502  0.77779074833E+02 -0.13128473234E+03  0.46877385709E+02  0.15963318804E+03  0.25500000920E-02 0.  1.
</event>
<event>
 5   0  0.1123271E-01  0.4953647E+03  0.7818609E-02  0.1014996E+00
       -1   -1    0    0    0  501  0.00000000000E+00  0.00000000000E+00  0.43370705165E+03  0.43370705168E+03  0.50400001928E-02 0.  1.
        1   -1    0    0  501    0  0.00000000000E+00  0.00000000000E+00 -0.14144695424E+03  0.14144695433E+03  0.50400001928E-02 0. -1.
    10030    2    1    2    0    0  0.00000000000E+00  0.00000000000E+00  0.29226009741E+03  0.57515400601E+03  0.49536467989E+03 0.  0.
        5    1    3    3  502    0  0.38902325776E+02  0.18439775594E+03  0.33265663000E+03  0.38235905486E+03  0.46999998093E+01 0.  1.
       -5    1    3    3    0  502 -0.38902325776E+02 -0.18439775594E+03 -0.40396532594E+02  0.19279495115E+03  0.46999998093E+01 0. -1.
</event>
<event>
 5   0  0.1760649E-01  0.5120820E+03  0.7818609E-02  0.1010673E+00
       -2   -1    0    0    0  501  0.00000000000E+00  0.00000000000E+00  0.77509269954E+03  0.77509269954E+03  0.25500000920E-02 0.  1.
        2   -1    0    0  501    0  0.00000000000E+00  0.00000000000E+00 -0.84579541701E+02  0.84579541740E+02  0.25500000920E-02 0. -1.
    10030    2    1    2    0    0  0.00000000000E+00  0.00000000000E+00  0.69051315784E+03  0.85967224128E+03  0.51208196735E+03 0.  0.
        5    1    3    3  502    0  0.69091289985E+02 -0.20519850289E+03  0.11596428594E+03  0.24566203930E+03  0.46999998093E+01 0. -1.
       -5    1    3    3    0  502 -0.69091289985E+02  0.20519850289E+03  0.57454887190E+03  0.61401020198E+03  0.46999998093E+01 0.  1.
</event>
<event>
 5   0  0.1827698E-01  0.4938838E+03  0.7818609E-02  0.1015388E+00
       -2   -1    0    0    0  501  0.00000000000E+00  0.00000000000E+00  0.44435353150E+02  0.44435353223E+02  0.25500000920E-02 0. -1.
        2   -1    0    0  501    0  0.00000000000E+00  0.00000000000E+00 -0.13723377346E+04  0.13723377346E+04  0.25500000920E-02 0.  1.
    10030    2    1    2    0    0  0.00000000000E+00  0.00000000000E+00 -0.13279023814E+04  0.14167730878E+04  0.49388384032E+03 0.  0.
        1    1    3    3  502    0  0.12096764148E+03 -0.20841429175E+03 -0.81871470437E+03  0.85344212134E+03  0.50400001928E-02 0. -1.
       -1    1    3    3    0  502 -0.12096764148E+03  0.20841429175E+03 -0.50918767707E+03  0.56333096648E+03  0.50400001928E-02 0.  1.
</event>
<event>
 5   0  0.1074281E-01  0.5018855E+03  0.7818609E-02  0.1013288E+00
        1   -1    0    0  501    0  0.00000000000E+00  0.00000000000E+00  0.99437855746E+02  0.99437855874E+02  0.50400001928E-02 0.  1.
       -1   -1    0    0    0  501  0.00000000000E+00  0.00000000000E+00 -0.63328250736E+03  0.63328250738E+03  0.50400001928E-02 0. -1.
    10030    2    1    2    0    0  0.00000000000E+00  0.00000000000E+00 -0.53384465162E+03  0.73272036326E+03  0.50188546370E+03 0.  0.
        4    1    3    3  502    0  0.12308608877E+03  0.12772844184E+03 -0.77852219849E+01  0.17755833600E+03  0.12699999809E+01 0.  1.
       -4    1    3    3    0  502 -0.12308608877E+03 -0.12772844184E+03 -0.52605942963E+03  0.55516202726E+03  0.12699999809E+01 0. -1.
</event>
<event>
 5   0  0.7220250E-02  0.5179593E+03  0.7818609E-02  0.1009195E+00
       -3   -1    0    0    0  501  0.00000000000E+00  0.00000000000E+00  0.88450678400E+03  0.88450678977E+03  0.10100000352E+00 0.  1.
        3   -1    0    0  501    0  0.00000000000E+00  0.00000000000E+00 -0.75828054970E+02  0.75828122234E+02  0.10100000352E+00 0. -1.
    10030    2    1    2    0    0  0.00000000000E+00  0.00000000000E+00  0.80867872903E+03  0.96033491200E+03  0.51795931927E+03 0.  0.
        1    1    3    3  502    0  0.14272831254E+02 -0.47601025879E+02 -0.66905169431E+02  0.83341904819E+02  0.50400001928E-02 0. -1.
       -1    1    3    3    0  502 -0.14272831254E+02  0.47601025879E+02  0.87558389846E+03  0.87699300718E+03  0.50400001928E-02 0.  1.
</event>
<event>
 5   0  0.1123271E-01  0.5027803E+03  0.7818609E-02  0.1013056E+00
       -1   -1    0    0    0  501  0.00000000000E+00  0.00000000000E+00  0.12654223784E+03  0.12654223794E+03  0.50400001928E-02 0.  1.
        1   -1    0    0  501    0  0.00000000000E+00  0.00000000000E+00 -0.49941427919E+03  0.49941427922E+03  0.50400001928E-02 0. -1.
    10030    2    1    2    0    0  0.00000000000E+00  0.00000000000E+00 -0.37287204135E+03  0.62595651715E+03  0.50278027223E+03 0.  0.
        5    1    3    3  502    0  0.13568729506E+03  0.93978238275E+02  0.49560926911E+02  0.17239874357E+03  0.46999998093E+01 0.  1.
       -5    1    3    3    0  502 -0.13568729506E+03 -0.93978238275E+02 -0.42243296826E+03  0.45355777359E+03  0.46999998093E+01 0. -1.
</event>
<event>
 5   0  0.1760649E-01  0.4984807E+03  0.7818609E-02  0.1014176E+00
       -2   -1    0    0    0  501  0.00000000000E+00  0.00000000000E+00  0.30567406956E+02  0.30567407063E+02  0.25500000920E-02 0.  1.
        2   -1    0    0  501    0  0.00000000000E+00  0.00000000000E+00 -0.20322547601E+04  0.20322547601E+04  0.25500000920E-02 0. -1.
    10030    2    1    2    0    0  0.00000000000E+00  0.00000000000E+00 -0.20016873532E+04  0.20628221672E+04  0.49848072542E+03 0.  0.
        5    1    3    3  502    0  0.16655841873E+03 -0.17709588789E+03 -0.12272767707E+04  0.12511334950E+04  0.46999998093E+01 0. -1.
       -5    1    3    3    0  502 -0.16655841873E+03  0.17709588789E+03 -0.77441058246E+03  0.81168867220E+03  0.46999998093E+01 0.  1.
</event>
<event>
 5   0  0.1683148E-01  0.4971075E+03  0.7818609E-02  0.1014537E+00
       -2   -1    0    0    0  501  0.00000000000E+00  0.00000000000E+00  0.47199157566E+02  0.47199157635E+02  0.25500000920E-02 0.  1.
        2   -1    0    0  501    0  0.00000000000E+00  0.00000000000E+00 -0.13089000032E+04  0.13089000032E+04  0.25500000920E-02 0. -1.
    10030    2    1    2    0    0  0.00000000000E+00  0.00000000000E+00 -0.12617008456E+04  0.13560991608E+04  0.49710754384E+03 0.  0.
        2    1    3    3  502    0  0.15587246534E+03  0.17291789270E+03 -0.39331006451E+03  0.45704445070E+03  0.25500000920E-02 0.  1.
       -2    1    3    3    0  502 -0.15587246534E+03 -0.17291789270E+03 -0.86839078107E+03  0.89905471009E+03  0.25500000920E-02 0. -1.
</event>
<event>
 5   0  0.1782124E-01  0.5024604E+03  0.7818609E-02  0.1013139E+00
       -2   -1    0    0    0  501  0.00000000000E+00  0.00000000000E+00  0.11364440369E+03  0.11364440372E+03  0.25500000920E-02 0.  1.
        2   -1    0    0  501    0  0.00000000000E+00  0.00000000000E+00 -0.55538698896E+03  0.55538698897E+03  0.25500000920E-02 0. -1.
    10030    2    1    2    0    0  0.00000000000E+00  0.00000000000E+00 -0.44174258527E+03  0.66903139268E+03  0.50246043899E+03 0.  0.
        3    1    3    3  502    0 -0.24671745500E+03  0.45920477910E+02 -0.23653679021E+03  0.34485918317E+03  0.10100000352E+00 0. -1.
       -3    1    3    3    0  502  0.24671745500E+03 -0.45920477910E+02 -0.20520579506E+03  0.32417220951E+03  0.10100000352E+00 0.  1.
</event>
<event>
 5   0  0.1074281E-01  0.5040636E+03  0.7818609E-02  0.1012724E+00
        1   -1    0    0  501    0  0.00000000000E+00  0.00000000000E+00  0.10660289770E+04  0.10660289770E+04  0.50400001928E-02 0.  1.
       -1   -1    0    0    0  501  0.00000000000E+00  0.00000000000E+00 -0.59585659783E+02  0.59585659996E+02  0.50400001928E-02 0. -1.
    10030    2    1    2    0    0  0.00000000000E+00  0.00000000000E+00  0.10064433172E+04  0.11256146370E+04  0.50406364704E+03 0.  0.
        4    1    3    3  502    0 -0.23289152449E+03 -0.92785978388E+02  0.44538844644E+03  0.51109703686E+03  0.12699999809E+01 0. -1.
       -4    1    3    3    0  502  0.23289152449E+03  0.92785978388E+02  0.56105487074E+03  0.61451760011E+03  0.12699999809E+01 0.  1.
</event>
<event>
 5   0  0.1782124E-01  0.5009650E+03  0.7818609E-02  0.1013527E+00
        2   -1    0    0  501    0  0.00000000000E+00  0.00000000000E+00  0.77850734869E+03  0.77850734869E+03  0.25500000920E-02 0.  1.
       -2   -1    0    0    0  501  0.00000000000E+00  0.00000000000E+00 -0.80592008999E+02  0.80592009039E+02  0.25500000920E-02 0. -1.
    10030    2    1    2    0    0  0.00000000000E+00  0.00000000000E+00  0.69791533969E+03  0.85909935773E+03  0.50096495394E+03 0.  0.
        3    1    3    3  502    0  0.66845432915E+02 -0.14160362009E+03  0.68422425900E+03  0.70191362996E+03  0.10100000352E+00 0.  1.
       -3    1    3    3    0  502 -0.66845432915E+02  0.14160362009E+03  0.13691080692E+02  0.15718572777E+03  0.10100000352E+00 0. -1.
</event>
<event>
 5   0  0.1760649E-01  0.4722307E+03  0.7818609E-02  0.1021292E+00
       -2   -1    0    0    0  501  0.00000000000E+00  0.00000000000E+00  0.26293308998E+02  0.26293309122E+02  0.25500000920E-02 0.  1.
        2   -1    0    0  501    0  0.00000000000E+00  0.00000000000E+00 -0.21203287054E+04  0.21203287054E+04  0.25500000920E-02 0. -1.
    10030    2    1    2    0    0  0.00000000000E+00  0.00000000000E+00 -0.20940353964E+04  0.21466220145E+04  0.47223069770E+03 0.  0.
        5    1    3    3  502    0 -0.53334713470E+02 -0.60021931564E+02 -0.37900159860E+02  0.88914206093E+02  0.46999998093E+01 0.  1.
       -5    1    3    3    0  502  0.53334713470E+02  0.60021931564E+02 -0.20561352365E+04  0.20577078084E+04  0.46999998093E+01 0. -1.
</event>
<event>
 5   0  0.1074281E-01  0.5156378E+03  0.7818609E-02  0.1009776E+00
       -1   -1    0    0    0  501  0.00000000000E+00  0.00000000000E+00  0.62524872703E+02  0.62524872906E+02  0.50400001928E-02 0. -1.
        1   -1    0    0  501    0  0.00000000000E+00  0.00000000000E+00 -0.10631061277E+04  0.10631061278E+04  0.50400001928E-02 0.  1.
    10030    2    1    2    0    0  0.00000000000E+00  0.00000000000E+00 -0.10005812550E+04  0.11256310007E+04  0.51563776211E+03 0.  0.
        4    1    3    3  502    0  0.11709837116E+03  0.24400705529E+02 -0.17201814209E+01  0.11963275004E+03  0.12699999809E+01 0. -1.
       -4    1    3    3    0  502 -0.11709837116E+03 -0.24400705529E+02 -0.99886107362E+03  0.10059982506E+04  0.12699999809E+01 0.  1.
</event>
<event>
 5   0  0.7220250E-02  0.4969455E+03  0.7818609E-02  0.1014579E+00
       -4   -1    0    0    0  501  0.00000000000E+00  0.00000000000E+00  0.14626755199E+03  0.14627306542E+03  0.12699999809E+01 0. -1.
        4   -1    0    0  501    0  0.00000000000E+00  0.00000000000E+00 -0.42207985640E+03  0.42208176706E+03  0.12699999809E+01 0.  1.
    10030    2    1    2    0    0  0.00000000000E+00  0.00000000000E+00 -0.27581230441E+03  0.56835483247E+03  0.49694545810E+03 0.  0.
        3    1    3    3  502    0  0.10150616154E+03 -0.10283561383E+03 -0.36909140780E+03  0.39636743284E+03  0.10100000352E+00 0.  1.
       -3    1    3    3    0  502 -0.10150616154E+03  0.10283561383E+03  0.93279103390E+02  0.17198739963E+03  0.10100000352E+00 0. -1.
</event>
<event>
 5   0  0.1709372E-01  0.5026792E+03  0.7818609E-02  0.1013082E+00
        2   -1    0    0  501    0  0.00000000000E+00  0.00000000000E+00  0.12815911135E+04  0.12815911135E+04  0.25500000920E-02 0. -1.
       -2   -1    0    0    0  501  0.00000000000E+00  0.00000000000E+00 -0.49291531079E+02  0.49291531145E+02  0.25500000920E-02 0.  1.
    10030    2    1    2    0    0  0.00000000000E+00  0.00000000000E+00  0.12322995824E+04  0.13308826447E+04  0.50267917501E+03 0.  0.
        4    1    3    3  502    0 -0.10423679937E+03  0.31683697415E+01  0.12215985602E+04  0.12260424153E+04  0.12699999809E+01 0. -1.
       -4    1    3    3    0  502  0.10423679937E+03 -0.31683697415E+01  0.10701022195E+02  0.10484022933E+03  0.12699999809E+01 0.  1.
</event>
<event>
 5   0  0.1709372E-01  0.4956437E+03  0.7818609E-02  0.1014922E+00
       -2   -1    0    0    0  501  0.00000000000E+00  0.00000000000E+00  0.10625866231E+03  0.10625866234E+03  0.25500000920E-02 0.  1.
        2   -1    0    0  501    0  0.00000000000E+00  0.00000000000E+00 -0.57798274682E+03  0.57798274682E+03  0.25500000920E-02 0. -1.
    10030    2    1    2    0    0  0.00000000000E+00  0.00000000000E+00 -0.47172408450E+03  0.68424140916E+03  0.49564371691E+03 0.  0.
        4    1    3    3  502    0 -0.94083008054E+02 -0.15198898290E+03  0.10948617487E+01  0.17875982477E+03  0.12699999809E+01 0.  1.
       -4    1    3    3    0  502  0.94083008054E+02  0.15198898290E+03 -0.47281894625E+03  0.50548158440E+03  0.12699999809E+01 0. -1.
</event>
<event>
 5   0  0.1683148E-01  0.4691054E+03  0.7818609E-02  0.1022173E+00
       -2   -1    0    0    0  501  0.00000000000E+00  0.00000000000E+00  0.20900375622E+03  0.20900375624E+03  0.25500000920E-02 0.  1.
        2   -1    0    0  501    0  0.00000000000E+00  0.00000000000E+00 -0.26322481043E+03  0.26322481044E+03  0.25500000920E-02 0. -1.
    10030    2    1    2    0    0  0.00000000000E+00  0.00000000000E+00 -0.54221054208E+02  0.47222856668E+03  0.46910542149E+03 0.  0.
        2    1    3    3  502    0  0.79570426131E+02 -0.77897074337E+02  0.18069923247E+03  0.21225366788E+03  0.25500000920E-02 0.  1.
       -2    1    3    3    0  502 -0.79570426131E+02  0.77897074337E+02 -0.23492028668E+03  0.25997489880E+03  0.25500000920E-02 0. -1.
</event>
<event>
 5   0  0.1827698E-01  0.4925744E+03  0.7818609E-02  0.1015735E+00
        2   -1    0    0  501    0  0.00000000000E+00  0.00000000000E+00  0.62207112589E+03  0.62207112589E+03  0.25500000920E-02 0. -1.
       -2   -1    0    0    0  501  0.00000000000E+00  0.00000000000E+00 -0.97508773739E+02  0.97508773772E+02  0.25500000920E-02 0.  1.
    10030    2    1    2    0    0  0.00000000000E+00  0.00000000000E+00  0.52456235215E+03  0.71957989967E+03  0.49257443165E+03 0.  0.
        1    1    3    3  502    0  0.22372001876E+03 -0.76619238518E+02  0.36281771366E+03  0.43307949372E+03  0.50400001928E-02 0.  1.
       -1    1    3    3    0  502 -0.22372001876E+03  0.76619238518E+02  0.16174463849E+03  0.28650040595E+03  0.50400001928E-02 0. -1.
</event>
<event>
 5   0  0.1709372E-01  0.5037362E+03  0.7818609E-02  0.1012808E+00
        2   -1    0    0  501    0  0.00000000000E+00  0.00000000000E+00  0.87725230367E+03  0.87725230367E+03  0.25500000920E-02 0. -1.
       -2   -1    0    0    0  501  0.00000000000E+00  0.00000000000E+00 -0.72313914958E+02  0.72313915002E+02  0.25500000920E-02 0.  1.
    10030    2    1    2    0    0  0.00000000000E+00  0.00000000000E+00  0.80493838871E+03  0.94956621868E+03  0.50373623458E+03 0.  0.
        4    1    3    3  502    0 -0.47523065827E+02  0.14431459883E+03  0.23810365372E+02  0.15379756701E+03  0.12699999809E+01 0.  1.
       -4    1    3    3    0  502  0.47523065827E+02 -0.14431459883E+03  0.78112802334E+03  0.79576865166E+03  0.12699999809E+01 0. -1.
</event>
<event>
 5   0  0.1782124E-01  0.4956451E+03  0.7818609E-02  0.1014922E+00
        2   -1    0    0  501    0  0.00000000000E+00  0.00000000000E+00  0.12302979825E+04  0.12302979825E+04  0.25500000920E-02 0.  1.
       -2   -1    0    0    0  501  0.00000000000E+00  0.00000000000E+00 -0.49919632857E+02  0.49919632922E+02  0.25500000920E-02 0. -1.
    10030    2    1    2    0    0  0.00000000000E+00  0.00000000000E+00  0.11803783496E+04  0.12802176154E+04  0.49564512963E+03 0.  0.
        3    1    3    3  502    0  0.10850680694E+03 -0.70625538607E+02  0.44375146294E+02  0.13686072360E+03  0.10100000352E+00 0. -1.
       -3    1    3    3    0  502 -0.10850680694E+03  0.70625538607E+02  0.11360032033E+04  0.11433568918E+04  0.10100000352E+00 0.  1.
</event>
<event>
 5   0  0.7220250E-02  0.4995635E+03  0.7818609E-02  0.1013893E+00
       -3   -1    0    0    0  501  0.00000000000E+00  0.00000000000E+00  0.21851192363E+03  0.21851194697E+03  0.10100000352E+00 0.  1.
        3   -1    0    0  501    0  0.00000000000E+00  0.00000000000E+00 -0.28552638679E+03  0.28552640465E+03  0.10100000352E+00 0. -1.
    10030    2    1    2    0    0  0.00000000000E+00  0.00000000000E+00 -0.67014463157E+02  0.50403835162E+03  0.49956353113E+03 0.  0.
        1    1    3    3  502    0 -0.88621399912E+02  0.50815389037E+02 -0.26348530009E+03  0.28259593004E+03  0.50400001928E-02 0. -1.
       -1    1    3    3    0  502  0.88621399912E+02 -0.50815389037E+02  0.19647083693E+03  0.22144242158E+03  0.50400001928E-02 0.  1.
</event>
<event>
 5   0  0.1147245E-01  0.5226359E+03  0.7818609E-02  0.1008034E+00
        1   -1    0    0  501    0  0.00000000000E+00  0.00000000000E+00  0.54828718825E+03  0.54828718827E+03  0.50400001928E-02 0.  1.
       -1   -1    0    0    0  501  0.00000000000E+00  0.00000000000E+00 -0.12454619673E+03  0.12454619683E+03  0.50400001928E-02 0. -1.
    10030    2    1    2    0    0  0.00000000000E+00  0.00000000000E+00  0.42374099152E+03  0.67283338511E+03  0.52263594999E+03 0.  0.
        1    1    3    3  502    0  0.20543354024E+03  0.83272788325E+02  0.33718689511E+02  0.22421919360E+03  0.50400001928E-02 0. -1.
       -1    1    3    3    0  502 -0.20543354024E+03 -0.83272788325E+02  0.39002230201E+03  0.44861419151E+03  0.50400001928E-02 0.  1.
</event>
<event>
 5   0  0.1147245E-01  0.4845841E+03  0.7818609E-02  0.1017883E+00
        1   -1    0    0  501    0  0.00000000000E+00  0.00000000000E+00  0.58382835190E+03  0.58382835192E+03  0.50400001928E-02 0.  1.
       -1   -1    0    0    0  501  0.00000000000E+00  0.00000000000E+00 -0.10055255373E+03  0.10055255386E+03  0.50400001928E-02 0. -1.
    10030    2    1    2    0    0  0.00000000000E+00  0.00000000000E+00  0.48327579817E+03  0.68438090578E+03  0.48458407641E+03 0.  0.
        1    1    3    3  502    0 -0.89049577369E+01 -0.18895181286E+03  0.27808335745E+02  0.19119463752E+03  0.50400001928E-02 0. -1.
       -1    1    3    3    0  502  0.89049577369E+01  0.18895181286E+03  0.45546746242E+03  0.49318626827E+03  0.50400001928E-02 0.  1.
</event>
<event>
 5   0  0.1074281E-01  0.5010285E+03  0.7818609E-02  0.1013511E+00
        1   -1    0    0  501    0  0.00000000000E+00  0.00000000000E+00  0.17167890370E+03  0.17167890378E+03  0.50400001928E-02 0.  1.
       -1   -1    0    0    0  501  0.00000000000E+00  0.00000000000E+00 -0.36555097947E+03  0.36555097951E+03  0.50400001928E-02 0. -1.
    10030    2    1    2    0    0  0.00000000000E+00  0.00000000000E+00 -0.19387207577E+03  0.53722988329E+03  0.50102850790E+03 0.  0.
        4    1    3    3  502    0 -0.59220578903E+01  0.20437488660E+03  0.58269231407E+02  0.21260545918E+03  0.12699999809E+01 0.  1.
       -4    1    3    3    0  502  0.59220578903E+01 -0.20437488660E+03 -0.25214130718E+03  0.32462442411E+03  0.12699999809E+01 0. -1.
</event>
<event>
 5   0  0.1147245E-01  0.5026015E+03  0.7818609E-02  0.1013102E+00
       -1   -1    0    0    0  501  0.00000000000E+00  0.00000000000E+00  0.11727088093E+03  0.11727088103E+03  0.50400001928E-02 0. -1.
        1   -1    0    0  501    0  0.00000000000E+00  0.00000000000E+00 -0.53851441233E+03  0.53851441235E+03  0.50400001928E-02 0.  1.
    10030    2    1    2    0    0  0.00000000000E+00  0.00000000000E+00 -0.42124353140E+03  0.65578529338E+03  0.50260147062E+03 0.  0.
        1    1    3    3  502    0  0.20223893017E+03 -0.14881418479E+03 -0.22404346721E+03  0.33651407355E+03  0.50400001928E-02 0. -1.
       -1    1    3    3    0  502 -0.20223893017E+03  0.14881418479E+03 -0.19720006419E+03  0.31927121983E+03  0.50400001928E-02 0.  1.
</event>
<event>
 5   0  0.1827698E-01  0.4990619E+03  0.7818609E-02  0.1014024E+00
        2   -1    0    0  501    0  0.00000000000E+00  0.00000000000E+00  0.84383666556E+03  0.84383666557E+03  0.25500000920E-02 0. -1.
       -2   -1    0    0    0  501  0.00000000000E+00  0.00000000000E+00 -0.73788797334E+02  0.73788797378E+02  0.25500000920E-02 0.  1.
    10030    2    1    2    0    0  0.00000000000E+00  0.00000000000E+00  0.77004786823E+03  0.91762546295E+03  0.49906189083E+03 0.  0.
        1    1    3    3  502    0  0.81844798985E+02  0.12385205466E+03  0.75380968828E+03  0.76828832397E+03  0.50400001928E-02 0. -1.
       -1    1    3    3    0  502 -0.81844798985E+02 -0.12385205466E+03  0.16238179946E+02  0.14933713898E+03  0.50400001928E-02 0.  1.
</event>
<event>
 5   0  0.1709372E-01  0.4999998E+03  0.7818609E-02  0.1013779E+00
       -2   -1    0    0    0  501  0.00000000000E+00  0.00000000000E+00  0.19805072934E+03  0.19805072936E+03  0.25500000920E-02 0. -1.
        2   -1    0    0  501    0  0.00000000000E+00  0.00000000000E+00 -0.31557541350E+03  0.31557541351E+03  0.25500000920E-02 0.  1.
    10030    2    1    2    0    0  0.00000000000E+00  0.00000000000E+00 -0.11752468416E+03  0.51362614287E+03  0.49999976326E+03 0.  0.
        4    1    3    3  502    0  0.15204518864E+03 -0.12331167184E+03 -0.21848221189E+03  0.29335916146E+03  0.12699999809E+01 0.  1.
       -4    1    3    3    0  502 -0.15204518864E+03  0.12331167184E+03  0.10095752773E+03  0.22026698142E+03  0.12699999809E+01 0. -1.
</event>
<event>
 5   0  0.1683148E-01  0.5228031E+03  0.7818609E-02  0.1007993E+00
       -2   -1    0    0    0  501  0.00000000000E+00  0.00000000000E+00  0.33378849568E+03  0.33378849569E+03  0.25500000920E-02 0.  1.
        2   -1    0    0  501    0  0.00000000000E+00  0.00000000000E+00 -0.20471277033E+03  0.20471277034E+03  0.25500000920E-02 0. -1.
    10030    2    1    2    0    0  0.00000000000E+00  0.00000000000E+00  0.12907572535E+03  0.53850126603E+03  0.52280308974E+03 0.  0.
        2    1    3    3  502    0  0.20225130267E+02 -0.19098082314E+03  0.24719866195E+03  0.31303339946E+03  0.25500000920E-02 0.  1.
       -2    1    3    3    0  502 -0.20225130267E+02  0.19098082314E+03 -0.11812293660E+03  0.22546786657E+03  0.25500000920E-02 0. -1.
</event>
<event>
 5   0  0.1123271E-01  0.4953111E+03  0.7818609E-02  0.1015010E+00
       -1   -1    0    0    0  501  0.00000000000E+00  0.00000000000E+00  0.11544893764E+03  0.11544893775E+03  0.50400001928E-02 0. -1.
        1   -1    0    0  501    0  0.00000000000E+00  0.00000000000E+00 -0.53125896020E+03  0.53125896022E+03  0.50400001928E-02 0.  1.
    10030    2    1    2    0    0  0.00000000000E+00  0.00000000000E+00 -0.41581002256E+03  0.64670789797E+03  0.49531114508E+03 0.  0.
        5    1    3    3  502    0 -0.15741294658E+03  0.21621914291E+02  0.40049564848E+02  0.16392803473E+03  0.46999998093E+01 0. -1.
       -5    1    3    3    0  502  0.15741294658E+03 -0.21621914291E+02 -0.45585958740E+03  0.48277986324E+03  0.46999998093E+01 0.  1.
</event>
<event>
 5   0  0.1141970E-01  0.5148704E+03  0.7818609E-02  0.1009969E+00
       -1   -1    0    0    0  501  0.00000000000E+00  0.00000000000E+00  0.17804911258E+03  0.17804911266E+03  0.50400001928E-02 0.  1.
        1   -1    0    0  501    0  0.00000000000E+00  0.00000000000E+00 -0.37221687083E+03  0.37221687087E+03  0.50400001928E-02 0. -1.
    10030    2    1    2    0    0  0.00000000000E+00  0.00000000000E+00 -0.19416775825E+03  0.55026598352E+03  0.51487040533E+03 0.  0.
        3    1    3    3  502    0 -0.45747930389E+02  0.20704024408E+03  0.58947036400E+02  0.22007566677E+03  0.10100000352E+00 0.  1.
       -3    1    3    3    0  502  0.45747930389E+02 -0.20704024408E+03 -0.25311479465E+03  0.33019031675E+03  0.10100000352E+00 0. -1.
</event>
<event>
 5   0  0.1827698E-01  0.5003045E+03  0.7818609E-02  0.1013699E+00
       -2   -1    0    0    0  501  0.00000000000E+00  0.00000000000E+00  0.89723689027E+02  0.89723689063E+02  0.25500000920E-02 0.  1.
        2   -1    0    0  501    0  0.00000000000E+00  0.00000000000E+00 -0.69743180003E+03  0.69743180003E+03  0.25500000920E-02 0. -1.
    10030    2    1    2    0    0  0.00000000000E+00  0.00000000000E+00 -0.60770811100E+03  0.78715548910E+03  0.50030452310E+03 0.  0.
        1    1    3    3  502    0  0.11917159722E+03  0.21075093619E+03 -0.40284191809E+03  0.46999940179E+03  0.50400001928E-02 0.  1.
       -1    1    3    3    0  502 -0.11917159722E+03 -0.21075093619E+03 -0.20486619292E+03  0.31715608731E+03  0.50400001928E-02 0. -1.
</event>
<event>
 5   0  0.7220250E-02  0.4923142E+03  0.7818609E-02  0.1015805E+00
       -3   -1    0    0    0  501  0.00000000000E+00  0.00000000000E+00  0.40239729669E+03  0.40239730936E+03  0.10100000352E+00 0. -1.
        3   -1    0    0  501    0  0.00000000000E+00  0.00000000000E+00 -0.15058077490E+03  0.15058080877E+03  0.10100000352E+00 0.  1.
    10030    2    1    2    0    0  0.00000000000E+00  0.00000000000E+00  0.25181652179E+03  0.55297811813E+03  0.49231416645E+03 0.  0.
        5    1    3    3  502    0  0.13078179737E+03  0.18094964785E+02 -0.10738664053E+03  0.17025065885E+03  0.46999998093E+01 0.  1.
       -5    1    3    3    0  502 -0.13078179737E+03 -0.18094964785E+02  0.35920316232E+03  0.38272745929E+03  0.46999998093E+01 0. -1.
</event>
<event>
 5   0  0.1074281E-01  0.4896353E+03  0.7818609E-02  0.1016520E+00
       -1   -1    0    0    0  501  0.00000000000E+00  0.00000000000E+00  0.18386893122E+03  0.18386893129E+03  0.50400001928E-02 0.  1.
        1   -1    0    0  501    0  0.00000000000E+00  0.00000000000E+00 -0.32596961826E+03  0.32596961830E+03  0.50400001928E-02 0. -1.
    10030    2    1    2    0    0  0.00000000000E+00  0.00000000000E+00 -0.14210068704E+03  0.50983854959E+03  0.48963531469E+03 0.  0.
        4    1    3    3  502    0  0.56730813963E+02 -0.14100660722E+03  0.12878736671E+03  0.19922110143E+03  0.12699999809E+01 0.  1.
       -4    1    3    3    0  502 -0.56730813963E+02  0.14100660722E+03 -0.27088805375E+03  0.31061744815E+03  0.12699999809E+01 0. -1.
</event>
<event>
 5   0  0.1147245E-01  0.5032406E+03  0.7818609E-02  0.1012937E+00
       -1   -1    0    0    0  501  0.00000000000E+00  0.00000000000E+00  0.24118468514E+03  0.24118468519E+03  0.50400001928E-02 0. -1.
        1   -1    0    0  501    0  0.00000000000E+00  0.00000000000E+00 -0.26250748900E+03  0.26250748904E+03  0.50400001928E-02 0.  1.
    10030    2    1    2    0    0  0.00000000000E+00  0.00000000000E+00 -0.21322803855E+02  0.50369217424E+03  0.50324064266E+03 0.  0.
        1    1    3    3  502    0 -0.14634009405E+03  0.12290981126E+03 -0.17448642544E+03  0.25878129283E+03  0.50400001928E-02 0.  1.
       -1    1    3    3    0  502  0.14634009405E+03 -0.12290981126E+03  0.15316362158E+03  0.24491088141E+03  0.50400001928E-02 0. -1.
</event>
<event>
 5   0  0.1074281E-01  0.4273845E+03  0.7818609E-02  0.1034689E+00
        1   -1    0    0  501    0  0.00000000000E+00  0.00000000000E+00  0.18047454479E+04  0.18047454479E+04  0.50400001928E-02 0. -1.
       -1   -1    0    0    0  501  0.00000000000E+00  0.00000000000E+00 -0.25302397858E+02  0.25302398360E+02  0.50400001928E-02 0.  1.
    10030    2    1    2    0    0  0.00000000000E+00  0.00000000000E+00  0.17794430500E+04  0.18300478462E+04  0.42738454731E+03 0.  0.
        4    1    3    3  502    0  0.61138487784E+02 -0.19611075288E+03  0.11417922276E+04  0.11601243235E+04  0.12699999809E+01 0. -1.
       -4    1    3    3    0  502 -0.61138487784E+02  0.19611075288E+03  0.63765082237E+03  0.66992352269E+03  0.12699999809E+01 0.  1.
</event>
<event>
 5   0  0.7220250E-02  0.4965271E+03  0.7818609E-02  0.1014689E+00
        3   -1    0    0  501    0  0.00000000000E+00  0.00000000000E+00  0.20879637949E+03  0.20879640391E+03  0.10100000352E+00 0.  1.
       -3   -1    0    0    0  501  0.00000000000E+00  0.00000000000E+00 -0.29519079276E+03  0.29519081004E+03  0.10100000352E+00 0. -1.
    10030    2    1    2    0    0  0.00000000000E+00  0.00000000000E+00 -0.86394413273E+02  0.50398721395E+03  0.49652705584E+03 0.  0.
        2    1    3    3  502    0  0.24703212355E+03 -0.18511529235E+02 -0.26604346771E+02  0.24914922848E+03  0.25500000920E-02 0. -1.
       -2    1    3    3    0  502 -0.24703212355E+03  0.18511529235E+02 -0.59790066503E+02  0.25483798547E+03  0.25500000920E-02 0.  1.
</event>
<event>
 5   0  0.1123271E-01  0.4855971E+03  0.7818609E-02  0.1017608E+00
       -1   -1    0    0    0  501  0.00000000000E+00  0.00000000000E+00  0.27266316866E+03  0.27266316871E+03  0.50400001928E-02 0. -1.
        1   -1    0    0  501    0  0.00000000000E+00  0.00000000000E+00 -0.21620495605E+03  0.21620495611E+03  0.50400001928E-02 0.  1.
    10030    2    1    2    0    0  0.00000000000E+00  0.00000000000E+00  0.56458212610E+02  0.48886812482E+03  0.48559706928E+03 0.  0.
        5    1    3    3  502    0 -0.18267705207E+03 -0.16433440885E+02  0.18832255145E+03  0.26292287218E+03  0.46999998093E+01 0. -1.
       -5    1    3    3    0  502  0.18267705207E+03  0.16433440885E+02 -0.13186433884E+03  0.22594525264E+03  0.46999998093E+01 0.  1.
</event>
<event>
 5   0  0.1141970E-01  0.4960778E+03  0.7818609E-02  0.1014808E+00
        1   -1    0    0  501    0  0.00000000000E+00  0.00000000000E+00  0.26315446675E+03  0.26315446680E+03  0.50400001928E-02 0.  1.
       -1   -1    0    0    0  501  0.00000000000E+00  0.00000000000E+00 -0.23379156437E+03  0.23379156443E+03  0.50400001928E-02 0. -1.
    10030    2    1    2    0    0  0.00000000000E+00  0.00000000000E+00  0.29362902374E+02  0.49694603122E+03  0.49607779421E+03 0.  0.
        3    1    3    3  502    0 -0.84005440082E+01 -0.13498210136E+03  0.22296974029E+03  0.26078008381E+03  0.10100000352E+00 0.  1.
       -3    1    3    3    0  502  0.84005440082E+01  0.13498210136E+03 -0.19360683792E+03  0.23616594741E+03  0.10100000352E+00 0. -1.
</event>
<event>
 5   0  0.1709372E-01  0.3909019E+03  0.7818609E-02  0.1046976E+00
       -2   -1    0    0    0  501  0.00000000000E+00  0.00000000000E+00  0.22023259800E+03  0.22023259801E+03  0.25500000920E-02 0.  1.
        2   -1    0    0  501    0  0.00000000000E+00  0.00000000000E+00 -0.17345783491E+03  0.17345783493E+03  0.25500000920E-02 0. -1.
    10030    2    1    2    0    0  0.00000000000E+00  0.00000000000E+00  0.46774763086E+02  0.39369043294E+03  0.39090187839E+03 0.  0.
        4    1    3    3  502    0  0.28016440345E+02  0.88826527248E+02  0.19643974115E+03  0.21740574435E+03  0.12699999809E+01 0.  1.
       -4    1    3    3    0  502 -0.28016440345E+02 -0.88826527248E+02 -0.14966497806E+03  0.17628468859E+03  0.12699999809E+01 0. -1.
</event>
<event>
 5   0  0.1827698E-01  0.5029537E+03  0.7818609E-02  0.1013011E+00
       -2   -1    0    0    0  501  0.00000000000E+00  0.00000000000E+00  0.78893335309E+03  0.78893335310E+03  0.25500000920E-02 0.  1.
        2   -1    0    0  501    0  0.00000000000E+00  0.00000000000E+00 -0.80159645660E+02  0.80159645701E+02  0.25500000920E-02 0. -1.
    10030    2    1    2    0    0  0.00000000000E+00  0.00000000000E+00  0.70877370743E+03  0.86909299880E+03  0.50295374759E+03 0.  0.
        1    1    3    3  502    0  0.16114260017E+03 -0.80962105524E+02  0.65724583183E+03  0.68153788127E+03  0.50400001928E-02 0.  1.
       -1    1    3    3    0  502 -0.16114260017E+03  0.80962105524E+02  0.51527875603E+02  0.18755511753E+03  0.50400001928E-02 0. -1.
</event>
<event>
 5   0  0.1074281E-01  0.4977597E+03  0.7818609E-02  0.1014365E+00
       -1   -1    0    0    0  501  0.00000000000E+00  0.00000000000E+00  0.33423723302E+02  0.33423723682E+02  0.50400001928E-02 0.  1.
        1   -1    0    0  501    0  0.00000000000E+00  0.00000000000E+00 -0.18532097367E+04  0.18532097367E+04  0.50400001928E-02 0. -1.
    10030    2    1    2    0    0  0.00000000000E+00  0.00000000000E+00 -0.18197860134E+04  0.18866334604E+04  0.49775966017E+03 0.  0.
        4    1    3    3  502    0 -0.23653030344E+03 -0.72840255035E+02 -0.10092575502E+04  0.10391605760E+04  0.12699999809E+01 0.  1.
       -4    1    3    3    0  502  0.23653030344E+03  0.72840255035E+02 -0.81052846315E+03  0.84747288433E+03  0.12699999809E+01 0. -1.
</event>
<event>
 5   0  0.1760649E-01  0.4973935E+03  0.7818609E-02  0.1014461E+00
        2   -1    0    0  501    0  0.00000000000E+00  0.00000000000E+00  0.62100549566E+03  0.62100549566E+03  0.25500000920E-02 0.  1.
       -2   -1    0    0    0  501  0.00000000000E+00  0.00000000000E+00 -0.99596667760E+02  0.99596667793E+02  0.25500000920E-02 0. -1.
    10030    2    1    2    0    0  0.00000000000E+00  0.00000000000E+00  0.52140882790E+03  0.72060216346E+03  0.49739351842E+03 0.  0.
        5    1    3    3  502    0  0.28789940443E+02 -0.24696219913E+03  0.25640681080E+03  0.35719144879E+03  0.46999998093E+01 0.  1.
       -5    1    3    3    0  502 -0.28789940443E+02  0.24696219913E+03  0.26500201710E+03  0.36341071466E+03  0.46999998093E+01 0. -1.
</event>
<event>
 5   0  0.1068522E-01  0.5079007E+03  0.7818609E-02  0.1011737E+00
        1   -1    0    0  501    0  0.00000000000E+00  0.00000000000E+00  0.22577165537E+03  0.22577165543E+03  0.50400001928E-02 0.  1.
       -1   -1    0    0    0  501  0.00000000000E+00  0.00000000000E+00 -0.28564598995E+03  0.28564598999E+03  0.50400001928E-02 0. -1.
    10030    2    1    2    0    0  0.00000000000E+00  0.00000000000E+00 -0.59874334571E+02  0.51141764542E+03  0.50790065181E+03 0.  0.
        2    1    3    3  502    0 -0.12672591799E+03 -0.59096745865E+02 -0.24339302704E+03  0.28069921496E+03  0.25500000920E-02 0. -1.
       -2    1    3    3    0  502  0.12672591799E+03  0.59096745865E+02  0.18351869247E+03  0.23071843046E+03  0.25500000920E-02 0.  1.
</event>
<event>
 5   0  0.1074281E-01  0.5022454E+03  0.7818609E-02  0.1013194E+00
        1   -1    0    0  501    0  0.00000000000E+00  0.00000000000E+00  0.92614626465E+03  0.92614626467E+03  0.50400001928E-02 0.  1.
       -1   -1    0    0    0  501  0.00000000000E+00  0.00000000000E+00 -0.68091415885E+02  0.68091416071E+02  0.50400001928E-02 0. -1.
    10030    2    1    2    0    0  0.00000000000E+00  0.00000000000E+00  0.85805484877E+03  0.99423768074E+03  0.50224540048E+03 0.  0.
        4    1    3    3  502    0  0.14316637064E+03 -0.81054453430E+01  0.83712312620E+03  0.84931681324E+03  0.12699999809E+01 0.  1.
       -4    1    3    3    0  502 -0.14316637064E+03  0.81054453430E+01  0.20931722563E+02  0.14492086750E+03  0.12699999809E+01 0. -1.
</event>
<event>
 5   0  0.1147245E-01  0.5153757E+03  0.7818609E-02  0.1009842E+00
       -1   -1    0    0    0  501  0.00000000000E+00  0.00000000000E+00  0.91089193072E+02  0.91089193211E+02  0.50400001928E-02 0. -1.
        1   -1    0    0  501    0  0.00000000000E+00  0.00000000000E+00 -0.72898901988E+03  0.72898901989E+03  0.50400001928E-02 0.  1.
    10030    2    1    2    0    0  0.00000000000E+00  0.00000000000E+00 -0.63789982680E+03  0.82007821311E+03  0.51537567519E+03 0.  0.
        1    1    3    3  502    0  0.57767176204E+01 -0.13380627405E+03  0.31356307972E+02  0.13755256274E+03  0.50400001928E-02 0. -1.
       -1    1    3    3    0  502 -0.57767176204E+01  0.13380627405E+03 -0.66925613478E+03  0.68252565036E+03  0.50400001928E-02 0.  1.
</event>
<event>
 5   0  0.1141970E-01  0.5120354E+03  0.7818609E-02  0.1010684E+00
       -1   -1    0    0    0  501  0.00000000000E+00  0.00000000000E+00  0.13300771753E+03  0.13300771762E+03  0.50400001928E-02 0. -1.
        1   -1    0    0  501    0  0.00000000000E+00  0.00000000000E+00 -0.49279147577E+03  0.49279147580E+03  0.50400001928E-02 0.  1.
    10030    2    1    2    0    0  0.00000000000E+00  0.00000000000E+00 -0.35978375825E+03  0.62579919342E+03  0.51203542630E+03 0.  0.
        3    1    3    3  502    0 -0.22432331806E+02  0.22576920355E+03 -0.34919977547E+02  0.22955251647E+03  0.10100000352E+00 0. -1.
       -3    1    3    3    0  502  0.22432331806E+02 -0.22576920355E+03 -0.32486378070E+03  0.39624667695E+03  0.10100000352E+00 0.  1.
</event>
<event>
 5   0  0.7220250E-02  0.5001166E+03  0.7818609E-02  0.1013748E+00
        3   -1    0    0  501    0  0.00000000000E+00  0.00000000000E+00  0.34994955261E+03  0.34994956719E+03  0.10100000352E+00 0. -1.
       -3   -1    0    0    0  501  0.00000000000E+00  0.00000000000E+00 -0.17868046580E+03  0.17868049434E+03  0.10100000352E+00 0.  1.
    10030    2    1    2    0    0  0.00000000000E+00  0.00000000000E+00  0.17126908681E+03  0.52863006153E+03  0.50011662825E+03 0.  0.
        5    1    3    3  502    0  0.22062607728E+03 -0.61799278306E+02  0.19139958558E+03  0.29858149328E+03  0.46999998093E+01 0. -1.
       -5    1    3    3    0  502 -0.22062607728E+03  0.61799278306E+02 -0.20130498768E+02  0.23004856825E+03  0.46999998093E+01 0.  1.
</event>
<event>
 5   0  0.1760649E-01  0.5076747E+03  0.7818609E-02  0.1011795E+00
        2   -1    0    0  501    0  0.00000000000E+00  0.00000000000E+00  0.57523865852E+03  0.57523865852E+03  0.25500000920E-02 0. -1.
       -2   -1    0    0    0  501  0.00000000000E+00  0.00000000000E+00 -0.11201158108E+03  0.11201158110E+03  0.25500000920E-02 0.  1.
    10030    2    1    2    0    0  0.00000000000E+00  0.00000000000E+00  0.46322707744E+03  0.68725023963E+03  0.50767466609E+03 0.  0.
        5    1    3    3  502    0 -0.14337554988E+03  0.10182459759E+02  0.51476822375E+03  0.53447978911E+03  0.46999998093E+01 0. -1.
       -5    1    3    3    0  502  0.14337554988E+03 -0.10182459759E+02 -0.51541146309E+02  0.15277045051E+03  0.46999998093E+01 0.  1.
</event>
<event>
 5   0  0.1827698E-01  0.5023495E+03  0.7818609E-02  0.1013167E+00
        2   -1    0    0  501    0  0.00000000000E+00  0.00000000000E+00  0.70842468215E+03  0.70842468215E+03  0.25500000920E-02 0. -1.
       -2   -1    0    0    0  501  0.00000000000E+00  0.00000000000E+00 -0.89055002826E+02  0.89055002863E+02  0.25500000920E-02 0.  1.
    10030    2    1    2    0    0  0.00000000000E+00  0.00000000000E+00  0.61936967932E+03  0.79747968501E+03  0.50234952807E+03 0.  0.
        1    1    3    3  502    0 -0.15940259362E+02 -0.46692472623E+02  0.70065632426E+03  0.70239131801E+03  0.50400001928E-02 0. -1.
       -1    1    3    3    0  502  0.15940259362E+02  0.46692472623E+02 -0.81286644939E+02  0.95088367002E+02  0.50400001928E-02 0.  1.
</event>
<event>
 5   0  0.1074281E-01  0.4996178E+03  0.7818609E-02  0.1013879E+00
        1   -1    0    0  501    0  0.00000000000E+00  0.00000000000E+00  0.57583178211E+02  0.57583178432E+02  0.50400001928E-02 0. -1.
       -1   -1    0    0    0  501  0.00000000000E+00  0.00000000000E+00 -0.10837278339E+04  0.10837278339E+04  0.50400001928E-02 0.  1.
    10030    2    1    2    0    0  0.00000000000E+00  0.00000000000E+00 -0.10261446557E+04  0.11413110124E+04  0.49961782645E+03 0.  0.
        4    1    3    3  502    0 -0.79355707353E+02 -0.10821892505E+03 -0.31757458745E+02  0.13790871298E+03  0.12699999809E+01 0. -1.
       -4    1    3    3    0  502  0.79355707353E+02  0.10821892505E+03 -0.99438719696E+03  0.10034022994E+04  0.12699999809E+01 0.  1.
</event>
<event>
 5   0  0.1141970E-01  0.5058211E+03  0.7818609E-02  0.1012271E+00
        1   -1    0    0  501    0  0.00000000000E+00  0.00000000000E+00  0.13239657555E+04  0.13239657555E+04  0.50400001928E-02 0. -1.
       -1   -1    0    0    0  501  0.00000000000E+00  0.00000000000E+00 -0.48312241642E+02  0.48312241905E+02  0.50400001928E-02 0.  1.
    10030    2    1    2    0    0  0.00000000000E+00  0.00000000000E+00  0.12756535139E+04  0.13722779974E+04  0.50582112923E+03 0.  0.
        3    1    3    3  502    0  0.72318931878E+02  0.20945476643E+03  0.96856913577E+03  0.99359323068E+03  0.10100000352E+00 0. -1.
       -3    1    3    3    0  502 -0.72318931878E+02 -0.20945476643E+03  0.30708437810E+03  0.37868476674E+03  0.10100000352E+00 0.  1.
</event>
<event>
 5   0  0.1760649E-01  0.4992587E+03  0.7818609E-02  0.1013973E+00
        2   -1    0    0  501    0  0.00000000000E+00  0.00000000000E+00  0.50986710311E+03  0.50986710312E+03  0.25500000920E-02 0.  1.
       -2   -1    0    0    0  501  0.00000000000E+00  0.00000000000E+00 -0.12221776745E+03  0.12221776747E+03  0.25500000920E-02 0. -1.
    10030    2    1    2    0    0  0.00000000000E+00  0.00000000000E+00  0.38764933566E+03  0.63208487059E+03  0.49925872671E+03 0.  0.
        5    1    3    3  502    0  0.20838850440E+03 -0.96233940308E+02  0.69739242582E+02  0.23994247641E+03  0.46999998093E+01 0. -1.
       -5    1    3    3    0  502 -0.20838850440E+03  0.96233940308E+02  0.31791009308E+03  0.39214239418E+03  0.46999998093E+01 0.  1.
</event>
<event>
 5   0  0.1141970E-01  0.5153878E+03  0.7818609E-02  0.1009839E+00
        1   -1    0    0  501    0  0.00000000000E+00  0.00000000000E+00  0.21563212149E+03  0.21563212155E+03  0.50400001928E-02 0.  1.
       -1   -1    0    0    0  501  0.00000000000E+00  0.00000000000E+00 -0.30796035740E+03  0.30796035744E+03  0.50400001928E-02 0. -1.
    10030    2    1    2    0    0  0.00000000000E+00  0.00000000000E+00 -0.92328235903E+02  0.52359247899E+03  0.51538779662E+03 0.  0.
        3    1    3    3  502    0 -0.10038574010E+03 -0.23048450098E+03 -0.10368465654E+03  0.27193918476E+03  0.10100000352E+00 0. -1.
       -3    1    3    3    0  502  0.10038574010E+03  0.23048450098E+03  0.11356420639E+02  0.25165329423E+03  0.10100000352E+00 0.  1.
</event>
<event>
 5   0  0.1147245E-01  0.5109810E+03  0.7818609E-02  0.1010952E+00
        1   -1    0    0  501    0  0.00000000000E+00  0.00000000000E+00  0.63475976724E+03  0.63475976726E+03  0.50400001928E-02 0.  1.
       -1   -1    0    0    0  501  0.00000000000E+00  0.00000000000E+00 -0.10283479852E+03  0.10283479865E+03  0.50400001928E-02 0. -1.
    10030    2    1    2    0    0  0.00000000000E+00  0.00000000000E+00  0.53192496872E+03  0.73759456591E+03  0.51098098919E+03 0.  0.
        1    1    3    3  502    0 -0.17595720553E+03  0.13357063177E+03  0.45123193314E+03  0.50240651803E+03  0.50400001928E-02 0.  1.
       -1    1    3    3    0  502  0.17595720553E+03 -0.13357063177E+03  0.80693035582E+02  0.23518804788E+03  0.50400001928E-02 0. -1.
</event>
<event>
 5   0  0.1709372E-01  0.5027749E+03  0.7818609E-02  0.1013057E+00
       -2   -1    0    0    0  501  0.00000000000E+00  0.00000000000E+00  0.11385491488E+03  0.11385491491E+03  0.25500000920E-02 0.  1.
        2   -1    0    0  501    0  0.00000000000E+00  0.00000000000E+00 -0.55505411216E+03  0.55505411217E+03  0.25500000920E-02 0. -1.
    10030    2    1    2    0    0  0.00000000000E+00  0.00000000000E+00 -0.44119919729E+03  0.66890902708E+03  0.50277485500E+03 0.  0.
        4    1    3    3  502    0  0.14217108557E+03  0.11391491470E+03 -0.45105605457E+03  0.48645904517E+03  0.12699999809E+01 0. -1.
       -4    1    3    3    0  502 -0.14217108557E+03 -0.11391491470E+03  0.98568572854E+01  0.18244998191E+03  0.12699999809E+01 0.  1.
</event>
<event>
 5   0  0.1683148E-01  0.4826846E+03  0.7818609E-02  0.1018400E+00
       -2   -1    0    0    0  501  0.00000000000E+00  0.00000000000E+00  0.66401571663E+02  0.66401571712E+02  0.25500000920E-02 0.  1.
        2   -1    0    0  501    0  0.00000000000E+00  0.00000000000E+00 -0.87717980305E+03  0.87717980305E+03  0.25500000920E-02 0. -1.
    10030    2    1    2    0    0  0.00000000000E+00  0.00000000000E+00 -0.81077823138E+03  0.94358137476E+03  0.48268464893E+03 0.  0.
        2    1    3    3  502    0 -0.23728863759E+02  0.12722974899E+03 -0.71745360896E+01  0.12962230509E+03  0.25500000920E-02 0.  1.
       -2    1    3    3    0  502  0.23728863759E+02 -0.12722974899E+03 -0.80360369529E+03  0.81395906967E+03  0.25500000920E-02 0. -1.
</event>
<event>
 5   0  0.7220250E-02  0.4959941E+03  0.7818609E-02  0.1014830E+00
        4   -1    0    0  501    0  0.00000000000E+00  0.00000000000E+00  0.32552062391E+03  0.32552310132E+03  0.12699999809E+01 0. -1.
       -4   -1    0    0    0  501  0.00000000000E+00  0.00000000000E+00 -0.18893058677E+03  0.18893485523E+03  0.12699999809E+01 0.  1.
    10030    2    1    2    0    0  0.00000000000E+00  0.00000000000E+00  0.13659003713E+03  0.51445795654E+03  0.49599410360E+03 0.  0.
        5    1    3    3  502    0  0.45657778035E+02  0.18474873947E+03 -0.96567530137E+02  0.21345750703E+03  0.46999998093E+01 0.  1.
       -5    1    3    3    0  502 -0.45657778035E+02 -0.18474873947E+03  0.23315756727E+03  0.30100044951E+03  0.46999998093E+01 0. -1.
</event>
<event>
 5   0  0.1683148E-01  0.4959543E+03  0.7818609E-02  0.1014840E+00
        2   -1    0    0  501    0  0.00000000000E+00  0.00000000000E+00  0.49574255265E+03  0.49574255266E+03  0.25500000920E-02 0.  1.
       -2   -1    0    0    0  501  0.00000000000E+00  0.00000000000E+00 -0.12404151386E+03  0.12404151388E+03  0.25500000920E-02 0. -1.
    10030    2    1    2    0    0  0.00000000000E+00  0.00000000000E+00  0.37170103879E+03  0.61978406654E+03  0.49595425888E+03 0.  0.
        2    1    3    3  502    0  0.24562997091E+03  0.61382291147E+01  0.14401150050E+03  0.28480005749E+03  0.25500000920E-02 0.  1.
       -2    1    3    3    0  502 -0.24562997091E+03 -0.61382291147E+01  0.22768953829E+03  0.33498400905E+03  0.25500000920E-02 0. -1.
</event>
<event>
 5   0  0.1068522E-01  0.5040540E+03  0.7818609E-02  0.1012726E+00
        1   -1    0    0  501    0  0.00000000000E+00  0.00000000000E+00  0.21936934754E+03  0.21936934760E+03  0.50400001928E-02 0. -1.
       -1   -1    0    0    0  501  0.00000000000E+00  0.00000000000E+00 -0.28954646770E+03  0.28954646774E+03  0.50400001928E-02 0.  1.
    10030    2    1    2    0    0  0.00000000000E+00  0.00000000000E+00 -0.70177120153E+02  0.50891581534E+03  0.50405404364E+03 0.  0.
        2    1    3    3  502    0 -0.24493773454E+03 -0.56848502535E+02 -0.17854246017E+02  0.25208137605E+03  0.25500000920E-02 0.  1.
       -2    1    3    3    0  502  0.24493773454E+03  0.56848502535E+02 -0.52322874136E+02  0.25683443929E+03  0.25500000920E-02 0. -1.
</event>
<event>
 5   0  0.1123271E-01  0.5048451E+03  0.7818609E-02  0.1012522E+00
       -1   -1    0    0    0  501  0.00000000000E+00  0.00000000000E+00  0.50100779863E+02  0.50100780117E+02  0.50400001928E-02 0. -1.
        1   -1    0    0  501    0  0.00000000000E+00  0.00000000000E+00 -0.12717796958E+04  0.12717796958E+04  0.50400001928E-02 0.  1.
    10030    2    1    2    0    0  0.00000000000E+00  0.00000000000E+00 -0.12216789159E+04  0.13218804759E+04  0.50484514358E+03 0.  0.
        5    1    3    3  502    0 -0.19834357622E+03 -0.21202091768E+02 -0.20600108945E+03  0.28678954265E+03  0.46999998093E+01 0. -1.
       -5    1    3    3    0  502  0.19834357622E+03  0.21202091768E+02 -0.10156778265E+04  0.10350909333E+04  0.46999998093E+01 0.  1.
</event>
<event>
 5   0  0.1147245E-01  0.4994745E+03  0.7818609E-02  0.1013916E+00
       -1   -1    0    0    0  501  0.00000000000E+00  0.00000000000E+00  0.48964959385E+02  0.48964959645E+02  0.50400001928E-02 0.  1.
        1   -1    0    0  501    0  0.00000000000E+00  0.00000000000E+00 -0.12737411809E+04  0.12737411809E+04  0.50400001928E-02 0. -1.
    10030    2    1    2    0    0  0.00000000000E+00  0.00000000000E+00 -0.12247762215E+04  0.13227061406E+04  0.49947446529E+03 0.  0.
        1    1    3    3  502    0  0.12944528527E+02  0.78603105156E+02  0.14416244474E+02  0.80955772426E+02  0.50400001928E-02 0.  1.
       -1    1    3    3    0  502 -0.12944528527E+02 -0.78603105156E+02 -0.12391924660E+04  0.12417503681E+04  0.50400001928E-02 0. -1.
</event>
<event>
 5   0  0.1683148E-01  0.5024304E+03  0.7818609E-02  0.1013146E+00
        2   -1    0    0  501    0  0.00000000000E+00  0.00000000000E+00  0.89781398048E+02  0.89781398084E+02  0.25500000920E-02 0. -1.
       -2   -1    0    0    0  501  0.00000000000E+00  0.00000000000E+00 -0.70291932262E+03  0.70291932262E+03  0.25500000920E-02 0.  1.
    10030    2    1    2    0    0  0.00000000000E+00  0.00000000000E+00 -0.61313792457E+03  0.79270072071E+03  0.50243041116E+03 0.  0.
        2    1    3    3  502    0  0.13610295222E+03 -0.16333339638E+03 -0.95439911337E+02  0.23304632299E+03  0.25500000920E-02 0. -1.
       -2    1    3    3    0  502 -0.13610295222E+03  0.16333339638E+03 -0.51769801323E+03  0.55965439772E+03  0.25500000920E-02 0.  1.
</event>
<event>
 5   0  0.1709372E-01  0.5055078E+03  0.7818609E-02  0.1012351E+00
        2   -1    0    0  501    0  0.00000000000E+00  0.00000000000E+00  0.20008965884E+03  0.20008965886E+03  0.25500000920E-02 0.  1.
       -2   -1    0    0    0  501  0.00000000000E+00  0.00000000000E+00 -0.31927952948E+03  0.31927952949E+03  0.25500000920E-02 0. -1.
    10030    2    1    2    0    0  0.00000000000E+00  0.00000000000E+00 -0.11918987064E+03  0.51936918834E+03  0.50550779275E+03 0.  0.
        4    1    3    3  502    0  0.16344669727E+03  0.13594988779E+03  0.80849098912E+02  0.22745413721E+03  0.12699999809E+01 0.  1.
       -4    1    3    3    0  502 -0.16344669727E+03 -0.13594988779E+03 -0.20003896955E+03  0.29191505113E+03  0.12699999809E+01 0. -1.
</event>
<event>
 5   0  0.1827698E-01  0.4634721E+03  0.7818609E-02  0.1023779E+00
        2   -1    0    0  501    0  0.00000000000E+00  0.00000000000E+00  0.11595677094E+04  0.11595677094E+04  0.25500000920E-02 0. -1.
       -2   -1    0    0    0  501  0.00000000000E+00  0.00000000000E+00 -0.46311729174E+02  0.46311729245E+02  0.25500000920E-02 0.  1.
    10030    2    1    2    0    0  0.00000000000E+00  0.00000000000E+00  0.11132559803E+04  0.12058794387E+04  0.46347205207E+03 0.  0.
        1    1    3    3  502    0 -0.88932666996E+02 -0.11374780143E+03  0.85027233555E+02  0.16756256163E+03  0.50400001928E-02 0.  1.
       -1    1    3    3    0  502  0.88932666996E+02  0.11374780143E+03  0.10282287467E+04  0.10383168770E+04  0.50400001928E-02 0. -1.
</event>
<event>
 5   0  0.1827698E-01  0.4997193E+03  0.7818609E-02  0.1013852E+00
       -2   -1    0    0    0  501  0.00000000000E+00  0.00000000000E+00  0.59504868622E+02  0.59504868677E+02  0.25500000920E-02 0. -1.
        2   -1    0    0  501    0  0.00000000000E+00  0.00000000000E+00 -0.10491552998E+04  0.10491552998E+04  0.25500000920E-02 0.  1.
    10030    2    1    2    0    0  0.00000000000E+00  0.00000000000E+00 -0.98965043113E+03  0.11086601684E+04  0.49971931445E+03 0.  0.
        1    1    3    3  502    0  0.13657448913E+03  0.12823427848E+03 -0.12803498192E+03  0.22691315051E+03  0.50400001928E-02 0. -1.
       -1    1    3    3    0  502 -0.13657448913E+03 -0.12823427848E+03 -0.86161544922E+03  0.88174701792E+03  0.50400001928E-02 0.  1.
</event>
<event>
 5   0  0.7220250E-02  0.5018254E+03  0.7818609E-02  0.1013304E+00
        4   -1    0    0  501    0  0.00000000000E+00  0.00000000000E+00  0.20323027839E+03  0.20323424651E+03  0.12699999809E+01 0.  1.
       -4   -1    0    0    0  501  0.00000000000E+00  0.00000000000E+00 -0.30977419621E+03  0.30977679954E+03  0.12699999809E+01 0. -1.
    10030    2    1    2    0    0  0.00000000000E+00  0.00000000000E+00 -0.10654391782E+03  0.51301104605E+03  0.50182539488E+03 0.  0.
        1    1    3    3  502    0  0.16724118913E+03 -0.14965261108E+03 -0.16798574569E+03  0.28032968113E+03  0.50400001928E-02 0. -1.
       -1    1    3    3    0  502 -0.16724118913E+03  0.14965261108E+03  0.61441827867E+02  0.23268136492E+03  0.50400001928E-02 0.  1.
</event>
<event>
 5   0  0.1760649E-01  0.5014598E+03  0.7818609E-02  0.1013399E+00
       -2   -1    0    0    0  501  0.00000000000E+00  0.00000000000E+00  0.13616673612E+03  0.13616673614E+03  0.25500000920E-02 0.  1.
        2   -1    0    0  501    0  0.00000000000E+00  0.00000000000E+00 -0.46168012676E+03  0.46168012677E+03  0.25500000920E-02 0. -1.
    10030    2    1    2    0    0  0.00000000000E+00  0.00000000000E+00 -0.32551339065E+03  0.59784686291E+03  0.50145977306E+03 0.  0.
        5    1    3    3  502    0 -0.22046484798E+02 -0.20887856582E+03  0.39399866721E+00  0.21009176087E+03  0.46999998093E+01 0.  1.
       -5    1    3    3    0  502  0.22046484798E+02  0.20887856582E+03 -0.32590738932E+03  0.38775510204E+03  0.46999998093E+01 0. -1.
</event>
<event>
 5   0  0.1827698E-01  0.4891426E+03  0.7818609E-02  0.1016652E+00
        2   -1    0    0  501    0  0.00000000000E+00  0.00000000000E+00  0.55893801848E+03  0.55893801848E+03  0.25500000920E-02 0. -1.
       -2   -1    0    0    0  501  0.00000000000E+00  0.00000000000E+00 -0.10701565468E+03  0.10701565471E+03  0.25500000920E-02 0.  1.
    10030    2    1    2    0    0  0.00000000000E+00  0.00000000000E+00  0.45192236380E+03  0.66595367319E+03  0.48914258856E+03 0.  0.
        1    1    3    3  502    0  0.12969431442E+03 -0.54727108550E+02 -0.46331225263E+02  0.14819667359E+03  0.50400001928E-02 0.  1.
       -1    1    3    3    0  502 -0.12969431442E+03  0.54727108550E+02  0.49825358906E+03  0.51775699960E+03  0.50400001928E-02 0. -1.
</event>
<event>
 5   0  0.1760649E-01  0.4781037E+03  0.7818609E-02  0.1019658E+00
        2   -1    0    0  501    0  0.00000000000E+00  0.00000000000E+00  0.60019287236E+03  0.60019287237E+03  0.25500000920E-02 0. -1.
       -2   -1    0    0    0  501  0.00000000000E+00  0.00000000000E+00 -0.95212354441E+02  0.95212354475E+02  0.25500000920E-02 0.  1.
    10030    2    1    2    0    0  0.00000000000E+00  0.00000000000E+00  0.50498051792E+03  0.69540522684E+03  0.47810365617E+03 0.  0.
        5    1    3    3  502    0  0.31285631425E+02 -0.41334393248E+02 -0.86869575507E+02  0.10127060751E+03  0.46999998093E+01 0.  1.
       -5    1    3    3    0  502 -0.31285631425E+02  0.41334393248E+02  0.59185009343E+03  0.59413461933E+03  0.46999998093E+01 0. -1.
</event>
<event>
 5   0  0.1709372E-01  0.4847703E+03  0.7818609E-02  0.1017832E+00
        2   -1    0    0  501    0  0.00000000000E+00  0.00000000000E+00  0.44738844980E+03  0.44738844981E+03  0.25500000920E-02 0.  1.
       -2   -1    0    0    0  501  0.00000000000E+00  0.00000000000E+00 -0.13131891826E+03  0.13131891829E+03  0.25500000920E-02 0. -1.
    10030    2    1    2    0    0  0.00000000000E+00  0.00000000000E+00  0.31606953154E+03  0.57870736810E+03  0.48477032616E+03 0.  0.
        4    1    3    3  502    0  0.23272118867E+03  0.53789035153E+02  0.20720534742E+03  0.31620891964E+03  0.12699999809E+01 0. -1.
       -4    1    3    3    0  502 -0.23272118867E+03 -0.53789035153E+02  0.10886418412E+03  0.26249844846E+03  0.12699999809E+01 0.  1.
</event>
<event>
 5   0  0.1147245E-01  0.4963864E+03  0.7818609E-02  0.1014726E+00
        1   -1    0    0  501    0  0.00000000000E+00  0.00000000000E+00  0.10359102353E+04  0.10359102353E+04  0.50400001928E-02 0.  1.
       -1   -1    0    0    0  501  0.00000000000E+00  0.00000000000E+00 -0.59464472665E+02  0.59464472879E+02  0.50400001928E-02 0. -1.
    10030    2    1    2    0    0  0.00000000000E+00  0.00000000000E+00  0.97644576260E+03  0.10953747082E+04  0.49638636561E+03 0.  0.
        1    1    3    3  502    0  0.18675490219E+03  0.67123432609E+02  0.81713862831E+03  0.84089148325E+03  0.50400001928E-02 0.  1.
       -1    1    3    3    0  502 -0.18675490219E+03 -0.67123432609E+02  0.15930713429E+03  0.25448322491E+03  0.50400001928E-02 0. -1.
</event>
<event>
 5   0  0.1782124E-01  0.5021908E+03  0.7818609E-02  0.1013209E+00
       -2   -1    0    0    0  501  0.00000000000E+00  0.00000000000E+00  0.13890016504E+03  0.13890016506E+03  0.25500000920E-02 0. -1.
        2   -1    0    0  501    0  0.00000000000E+00  0.00000000000E+00 -0.45391518782E+03  0.45391518783E+03  0.25500000920E-02 0.  1.
    10030    2    1    2    0    0  0.00000000000E+00  0.00000000000E+00 -0.31501502278E+03  0.59281535289E+03  0.50219077853E+03 0.  0.
        3    1    3    3  502    0  0.17566972968E+02  0.50284237810E+02  0.13215443610E+03  0.14248476513E+03  0.10100000352E+00 0. -1.
       -3    1    3    3    0  502 -0.17566972968E+02 -0.50284237810E+02 -0.44716945888E+03  0.45033058776E+03  0.10100000352E+00 0.  1.
</event>
<event>
 5   0  0.1827698E-01  0.5011654E+03  0.7818609E-02  0.1013475E+00
        2   -1    0    0  501    0  0.00000000000E+00  0.00000000000E+00  0.92082080499E+03  0.92082080499E+03  0.25500000920E-02 0. -1.
       -2   -1    0    0    0  501  0.00000000000E+00  0.00000000000E+00 -0.68191003952E+02  0.68191004000E+02  0.25500000920E-02 0.  1.
    10030    2    1    2    0    0  0.00000000000E+00  0.00000000000E+00  0.85262980103E+03  0.98901180899E+03  0.50116542250E+03 0.  0.
        1    1    3    3  502    0 -0.69980811081E+02  0.10391874172E+03 -0.19466178753E+01  0.12530047146E+03  0.50400001928E-02 0.  1.
       -1    1    3    3    0  502  0.69980811081E+02 -0.10391874172E+03  0.85457641891E+03  0.86371133753E+03  0.50400001928E-02 0. -1.
</event>
<event>
 5   0  0.1068522E-01  0.5277623E+03  0.7818609E-02  0.1006776E+00
        1   -1    0    0  501    0  0.00000000000E+00  0.00000000000E+00  0.93592252549E+03  0.93592252550E+03  0.50400001928E-02 0.  1.
       -1   -1    0    0    0  501  0.00000000000E+00  0.00000000000E+00 -0.74400678602E+02  0.74400678772E+02  0.50400001928E-02 0. -1.
    10030    2    1    2    0    0  0.00000000000E+00  0.00000000000E+00  0.86152184689E+03  0.10103232043E+04  0.52776233707E+03 0.  0.
        2    1    3    3  502    0 -0.31310203450E+02 -0.24458353784E+03  0.25085419187E+03  0.35175170420E+03  0.25500000920E-02 0. -1.
       -2    1    3    3    0  502  0.31310203450E+02  0.24458353784E+03  0.61066765502E+03  0.65857150008E+03  0.25500000920E-02 0.  1.
</event>
<event>
 5   0  0.1782124E-01  0.4939111E+03  0.7818609E-02  0.1015381E+00
       -2   -1    0    0    0  501  0.00000000000E+00  0.00000000000E+00  0.68590211436E+02  0.68590211483E+02  0.25500000920E-02 0.  1.
        2   -1    0    0  501    0  0.00000000000E+00  0.00000000000E+00 -0.88915098546E+03  0.88915098546E+03  0.25500000920E-02 0. -1.
    10030    2    1    2    0    0  0.00000000000E+00  0.00000000000E+00 -0.82056077402E+03  0.95774119694E+03  0.49391114227E+03 0.  0.
        3    1    3    3  502    0  0.24021197798E+03 -0.44309944238E+02 -0.48078135774E+03  0.53927348319E+03  0.10100000352E+00 0. -1.
       -3    1    3    3    0  502 -0.24021197798E+03  0.44309944238E+02 -0.33977941628E+03  0.41846771375E+03  0.10100000352E+00 0.  1.
</event>
<event>
 5   0  0.1827698E-01  0.5067610E+03  0.7818609E-02  0.1012029E+00
       -2   -1    0    0    0  501  0.00000000000E+00  0.00000000000E+00  0.10329405398E+03  0.10329405401E+03  0.25500000920E-02 0. -1.
        2   -1    0    0  501    0  0.00000000000E+00  0.00000000000E+00 -0.62154280076E+03  0.62154280076E+03  0.25500000920E-02 0.  1.
    10030    2    1    2    0    0  0.00000000000E+00  0.00000000000E+00 -0.51824874678E+03  0.72483685478E+03  0.50676099150E+03 0.  0.
        1    1    3    3  502    0  0.44359877294E+01 -0.21148702853E+03 -0.59618666347E+02  0.21977449039E+03  0.50400001928E-02 0.  1.
       -1    1    3    3    0  502 -0.44359877294E+01  0.21148702853E+03 -0.45863008043E+03  0.50506236439E+03  0.50400001928E-02 0. -1.
</event>
<event>
 5   0  0.1068522E-01  0.4955030E+03  0.7818609E-02  0.1014959E+00
       -1   -1    0    0    0  501  0.00000000000E+00  0.00000000000E+00  0.73616773635E+02  0.73616773807E+02  0.50400001928E-02 0. -1.
        1   -1    0    0  501    0  0.00000000000E+00  0.00000000000E+00 -0.83378837250E+03  0.83378837252E+03  0.50400001928E-02 0.  1.
    10030    2    1    2    0    0  0.00000000000E+00  0.00000000000E+00 -0.76017159887E+03  0.90740514632E+03  0.49550301700E+03 0.  0.
        2    1    3    3  502    0 -0.73912074870E+02  0.92805122214E+02  0.18212608500E+02  0.12003118193E+03  0.25500000920E-02 0. -1.
       -2    1    3    3    0  502  0.73912074870E+02 -0.92805122214E+02 -0.77838420737E+03  0.78737396439E+03  0.25500000920E-02 0.  1.
</event>
<event>
 5   0  0.1760649E-01  0.5046068E+03  0.7818609E-02  0.1012583E+00
        2   -1    0    0  501    0  0.00000000000E+00  0.00000000000E+00  0.70939274824E+03  0.70939274825E+03  0.25500000920E-02 0.  1.
       -2   -1    0    0    0  501  0.00000000000E+00  0.00000000000E+00 -0.89734492319E+02  0.89734492355E+02  0.25500000920E-02 0. -1.
    10030    2    1    2    0    0  0.00000000000E+00  0.00000000000E+00  0.61965825592E+03  0.79912724060E+03  0.50460677021E+03 0.  0.
        5    1    3    3  502    0 -0.14352274141E+03 -0.19022942449E+03  0.17876821883E+03  0.29793653234E+03  0.46999998093E+01 0. -1.
       -5    1    3    3    0  502  0.14352274141E+03  0.19022942449E+03  0.44089003710E+03  0.50119070826E+03  0.46999998093E+01 0.  1.
</event>
<event>
 5   0  0.1147245E-01  0.4837149E+03  0.7818609E-02  0.1018119E+00
        1   -1    0    0  501    0  0.00000000000E+00  0.00000000000E+00  0.92437426483E+03  0.92437426484E+03  0.50400001928E-02 0. -1.
       -1   -1    0    0    0  501  0.00000000000E+00  0.00000000000E+00 -0.63280676893E+02  0.63280677093E+02  0.50400001928E-02 0.  1.
    10030    2    1    2    0    0  0.00000000000E+00  0.00000000000E+00  0.86109358794E+03  0.98765494194E+03  0.48371491309E+03 0.  0.
        1    1    3    3  502    0 -0.17607487872E+03 -0.10459893886E+03  0.69323310333E+03  0.72285229231E+03  0.50400001928E-02 0. -1.
       -1    1    3    3    0  502  0.17607487872E+03  0.10459893886E+03  0.16786048461E+03  0.26480264962E+03  0.50400001928E-02 0.  1.
</event>
<event>
 5   0  0.1827698E-01  0.5122566E+03  0.7818609E-02  0.1010628E+00
        2   -1    0    0  501    0  0.00000000000E+00  0.00000000000E+00  0.10527097836E+03  0.10527097839E+03  0.25500000920E-02 0. -1.
       -2   -1    0    0    0  501  0.00000000000E+00  0.00000000000E+00 -0.62316986591E+03  0.62316986592E+03  0.25500000920E-02 0.  1.
    10030    2    1    2    0    0  0.00000000000E+00  0.00000000000E+00 -0.51789888756E+03  0.72844084431E+03  0.51225658212E+03 0.  0.
        1    1    3    3  502    0  0.24797857917E+03 -0.31692650683E+02 -0.17972472334E+03  0.30789409874E+03  0.50400001928E-02 0. -1.
       -1    1    3    3    0  502 -0.24797857917E+03  0.31692650683E+02 -0.33817416422E+03  0.42054674556E+03  0.50400001928E-02 0.  1.
</event>
<event>
 5   0  0.1683148E-01  0.4894502E+03  0.7818609E-02  0.1016570E+00
       -2   -1    0    0    0  501  0.00000000000E+00  0.00000000000E+00  0.26961144552E+03  0.26961144553E+03  0.25500000920E-02 0. -1.
        2   -1    0    0  501    0  0.00000000000E+00  0.00000000000E+00 -0.22213587905E+03  0.22213587906E+03  0.25500000920E-02 0.  1.
    10030    2    1    2    0    0  0.00000000000E+00  0.00000000000E+00  0.47475566470E+02  0.49174732459E+03  0.48945020363E+03 0.  0.
        2    1    3    3  502    0 -0.72528629103E+02  0.13632109148E+03 -0.16701252345E+03  0.22745774337E+03  0.25500000920E-02 0.  1.
       -2    1    3    3    0  502  0.72528629103E+02 -0.13632109148E+03  0.21448808992E+03  0.26428958123E+03  0.25500000920E-02 0. -1.
</event>
<event>
 5   0  0.1123271E-01  0.4930655E+03  0.7818609E-02  0.1015605E+00
       -1   -1    0    0    0  501  0.00000000000E+00  0.00000000000E+00  0.30608700410E+03  0.30608700414E+03  0.50400001928E-02 0.  1.
        1   -1    0    0  501    0  0.00000000000E+00  0.00000000000E+00 -0.19856576249E+03  0.19856576255E+03  0.50400001928E-02 0. -1.
    10030    2    1    2    0    0  0.00000000000E+00  0.00000000000E+00  0.10752124161E+03  0.50465276670E+03  0.49306551039E+03 0.  0.
        5    1    3    3  502    0 -0.63903318946E+02  0.67660985732E+02 -0.17984573978E+03  0.20255424774E+03  0.46999998093E+01 0. -1.
       -5    1    3    3    0  502  0.63903318946E+02 -0.67660985732E+02  0.28736698139E+03  0.30209851895E+03  0.46999998093E+01 0.  1.
</event>
<event>
 5   0  0.1141970E-01  0.5012545E+03  0.7818609E-02  0.1013452E+00
        1   -1    0    0  501    0  0.00000000000E+00  0.00000000000E+00  0.15338847736E+03  0.15338847744E+03  0.50400001928E-02 0.  1.
       -1   -1    0    0    0  501  0.00000000000E+00  0.00000000000E+00 -0.40950942169E+03  0.40950942172E+03  0.50400001928E-02 0. -1.
    10030    2    1    2    0    0  0.00000000000E+00  0.00000000000E+00 -0.25612094433E+03  0.56289789916E+03  0.50125453290E+03 0.  0.
        3    1    3    3  502    0 -0.63211733701E+02 -0.68632195672E+02 -0.38927763855E+03  0.40030387412E+03  0.10100000352E+00 0. -1.
       -3    1    3    3    0  502  0.63211733701E+02  0.68632195672E+02  0.13315669422E+03  0.16259402504E+03  0.10100000352E+00 0.  1.
</event>
<event>
 5   0  0.1827698E-01  0.4872990E+03  0.7818609E-02  0.1017148E+00
        2   -1    0    0  501    0  0.00000000000E+00  0.00000000000E+00  0.21315679503E+03  0.21315679504E+03  0.25500000920E-02 0.  1.
       -2   -1    0    0    0  501  0.00000000000E+00  0.00000000000E+00 -0.27850429382E+03  0.27850429383E+03  0.25500000920E-02 0. -1.
    10030    2    1    2    0    0  0.00000000000E+00  0.00000000000E+00 -0.65347498789E+02  0.49166108887E+03  0.48729901571E+03 0.  0.
        1    1    3    3  502    0  0.19623935481E+03 -0.14440411839E+03 -0.34315852309E+02  0.24604879908E+03  0.50400001928E-02 0.  1.
       -1    1    3    3    0  502 -0.19623935481E+03  0.14440411839E+03 -0.31031646480E+02  0.24561228979E+03  0.50400001928E-02 0. -1.
</event>
<event>
 5   0  0.1760649E-01  0.5117943E+03  0.7818609E-02  0.1010745E+00
        2   -1    0    0  501    0  0.00000000000E+00  0.00000000000E+00  0.64662801753E+03  0.64662801753E+03  0.25500000920E-02 0.  1.
       -2   -1    0    0    0  501  0.00000000000E+00  0.00000000000E+00 -0.10126897948E+03  0.10126897951E+03  0.25500000920E-02 0. -1.
    10030    2    1    2    0    0  0.00000000000E+00  0.00000000000E+00  0.54535903805E+03  0.74789699705E+03  0.51179433155E+03 0.  0.
        5    1    3    3  502    0  0.84814304921E+02 -0.83296611611E+02  0.60375707475E+03  0.61536695323E+03  0.46999998093E+01 0.  1.
       -5    1    3    3    0  502 -0.84814304921E+02  0.83296611611E+02 -0.58398036699E+02  0.13253004381E+03  0.46999998093E+01 0. -1.
</event>
<event>
 5   0  0.1123271E-01  0.4997015E+03  0.7818609E-02  0.1013857E+00
       -1   -1    0    0    0  501  0.00000000000E+00  0.00000000000E+00  0.46760532585E+02  0.46760532856E+02  0.50400001928E-02 0.  1.
        1   -1    0    0  501    0  0.00000000000E+00  0.00000000000E+00 -0.13350019894E+04  0.13350019894E+04  0.50400001928E-02 0. -1.
    10030    2    1    2    0    0  0.00000000000E+00  0.00000000000E+00 -0.12882414569E+04  0.13817625223E+04  0.49970152780E+03 0.  0.
        5    1    3    3  502    0  0.30601541292E+02 -0.15593754726E+03 -0.11770924116E+04  0.11877801178E+04  0.46999998093E+01 0. -1.
       -5    1    3    3    0  502 -0.30601541292E+02  0.15593754726E+03 -0.11114904528E+03  0.19398240446E+03  0.46999998093E+01 0.  1.
</event>
<event>
 5   0  0.1827698E-01  0.5168620E+03  0.7818609E-02  0.1009469E+00
       -2   -1    0    0    0  501  0.00000000000E+00  0.00000000000E+00  0.11575565752E+03  0.11575565754E+03  0.25500000920E-02 0.  1.
        2   -1    0    0  501    0  0.00000000000E+00  0.00000000000E+00 -0.57696175957E+03  0.57696175957E+03  0.25500000920E-02 0. -1.
    10030    2    1    2    0    0  0.00000000000E+00  0.00000000000E+00 -0.46120610205E+03  0.69271741712E+03  0.51686202357E+03 0.  0.
        1    1    3    3  502    0 -0.14858463070E+03 -0.20899883309E+03 -0.18761752076E+03  0.31773926235E+03  0.50400001928E-02 0.  1.
       -1    1    3    3    0  502  0.14858463070E+03  0.20899883309E+03 -0.27358858129E+03  0.37497815477E+03  0.50400001928E-02 0. -1.
</event>
<event>
 5   0  0.1074281E-01  0.5239687E+03  0.7818609E-02  0.1007705E+00
        1   -1    0    0  501    0  0.00000000000E+00  0.00000000000E+00  0.27409561706E+03  0.27409561711E+03  0.50400001928E-02 0. -1.
       -1   -1    0    0    0  501  0.00000000000E+00  0.00000000000E+00 -0.25040827914E+03  0.25040827919E+03  0.50400001928E-02 0.  1.
    10030    2    1    2    0    0  0.00000000000E+00  0.00000000000E+00  0.23687337924E+02  0.52450389630E+03  0.52396874645E+03 0.  0.
        4    1    3    3  502    0 -0.19267738099E+03 -0.13364705456E+03  0.12878802955E+03  0.26753332091E+03  0.12699999809E+01 0. -1.
       -4    1    3    3    0  502  0.19267738099E+03  0.13364705456E+03 -0.10510069163E+03  0.25697057540E+03  0.12699999809E+01 0.  1.
</event>
<event>
 5   0  0.1782124E-01  0.5015612E+03  0.7818609E-02  0.1013372E+00
       -2   -1    0    0    0  501  0.00000000000E+00  0.00000000000E+00  0.96325937363E+02  0.96325937396E+02  0.25500000920E-02 0. -1.
        2   -1    0    0  501    0  0.00000000000E+00  0.00000000000E+00 -0.65289693701E+03  0.65289693702E+03  0.25500000920E-02 0.  1.
    10030    2    1    2    0    0  0.00000000000E+00  0.00000000000E+00 -0.55657099965E+03  0.74922287441E+03  0.50156120055E+03 0.  0.
        3    1    3    3  502    0 -0.44492980327E+02  0.16947468001E+03 -0.10279244310E+02  0.17551913151E+03  0.10100000352E+00 0. -1.
       -3    1    3    3    0  502  0.44492980327E+02 -0.16947468001E+03 -0.54629175534E+03  0.57370374290E+03  0.10100000352E+00 0.  1.
</event>
<event>
 5   0  0.7220250E-02  0.5058595E+03  0.7818609E-02  0.1012261E+00
        3   -1    0    0  501    0  0.00000000000E+00  0.00000000000E+00  0.22467845785E+03  0.22467848055E+03  0.10100000352E+00 0. -1.
       -3   -1    0    0    0  501  0.00000000000E+00  0.00000000000E+00 -0.28473330787E+03  0.28473332579E+03  0.10100000352E+00 0.  1.
    10030    2    1    2    0    0  0.00000000000E+00  0.00000000000E+00 -0.60054850024E+02  0.50941180634E+03  0.50585947004E+03 0.  0.
        1    1    3    3  502    0 -0.91218944582E+02  0.16970087211E+03  0.13499576580E+03  0.23525122455E+03  0.50400001928E-02 0. -1.
       -1    1    3    3    0  502  0.91218944582E+02 -0.16970087211E+03 -0.19505061583E+03  0.27416058178E+03  0.50400001928E-02 0.  1.
</event>
<event>
 5   0  0.1709372E-01  0.5104948E+03  0.7818609E-02  0.1011075E+00
       -2   -1    0    0    0  501  0.00000000000E+00  0.00000000000E+00  0.53599586368E+02  0.53599586428E+02  0.25500000920E-02 0. -1.
        2   -1    0    0  501    0  0.00000000000E+00  0.00000000000E+00 -0.12155175820E+04  0.12155175820E+04  0.25500000920E-02 0.  1.
    10030    2    1    2    0    0  0.00000000000E+00  0.00000000000E+00 -0.11619179957E+04  0.12691171685E+04  0.51049481745E+03 0.  0.
        4    1    3    3  502    0  0.98846349998E+02 -0.12139242019E+02  0.32987068170E+01  0.99651675708E+02  0.12699999809E+01 0. -1.
       -4    1    3    3    0  502 -0.98846349998E+02  0.12139242019E+02 -0.11652167025E+04  0.11694654928E+04  0.12699999809E+01 0.  1.
</event>
<event>
 5   0  0.1683148E-01  0.5012432E+03  0.7818609E-02  0.1013455E+00
       -2   -1    0    0    0  501  0.00000000000E+00  0.00000000000E+00  0.11775945873E+03  0.11775945876E+03  0.25500000920E-02 0.  1.
        2   -1    0    0  501    0  0.00000000000E+00  0.00000000000E+00 -0.53338556087E+03  0.53338556088E+03  0.25500000920E-02 0. -1.
    10030    2    1    2    0    0  0.00000000000E+00  0.00000000000E+00 -0.41562610214E+03  0.65114501964E+03  0.50124323419E+03 0.  0.
        2    1    3    3  502    0  0.26366012742E+02  0.18651518401E+02  0.11504490557E+03  0.11949215903E+03  0.25500000920E-02 0.  1.
       -2    1    3    3    0  502 -0.26366012742E+02 -0.18651518401E+02 -0.53067100771E+03  0.53165286061E+03  0.25500000920E-02 0. -1.
</event>
<event>
 5   0  0.1683148E-01  0.5059902E+03  0.7818609E-02  0.1012227E+00
       -2   -1    0    0    0  501  0.00000000000E+00  0.00000000000E+00  0.45991595233E+02  0.45991595304E+02  0.25500000920E-02 0. -1.
        2   -1    0    0  501    0  0.00000000000E+00  0.00000000000E+00 -0.13917005738E+04  0.13917005738E+04  0.25500000920E-02 0.  1.
    10030    2    1    2    0    0  0.00000000000E+00  0.00000000000E+00 -0.13457089785E+04  0.14376921691E+04  0.50599023519E+03 0.  0.
        2    1    3    3  502    0  0.14937020088E+03  0.52735069696E+02 -0.12333565108E+04  0.12434873249E+04  0.25500000920E-02 0.  1.
       -2    1    3    3    0  502 -0.14937020088E+03 -0.52735069696E+02 -0.11235246776E+03  0.19420484418E+03  0.25500000920E-02 0. -1.
</event>
<event>
 5   0  0.1827698E-01  0.5016977E+03  0.7818609E-02  0.1013337E+00
       -2   -1    0    0    0  501  0.00000000000E+00  0.00000000000E+00  0.14992974507E+03  0.14992974509E+03  0.25500000920E-02 0.  1.
        2   -1    0    0  501    0  0.00000000000E+00  0.00000000000E+00 -0.41969751232E+03  0.41969751232E+03  0.25500000920E-02 0. -1.
    10030    2    1    2    0    0  0.00000000000E+00  0.00000000000E+00 -0.26976776725E+03  0.56962725741E+03  0.50169768202E+03 0.  0.
        1    1    3    3  502    0  0.79140253417E+02 -0.33769336145E+02  0.13265051392E+03  0.15811295533E+03  0.50400001928E-02 0.  1.
       -1    1    3    3    0  502 -0.79140253417E+02  0.33769336145E+02 -0.40241828117E+03  0.41151430208E+03  0.50400001928E-02 0. -1.
</event>
<event>
 5   0  0.1123271E-01  0.5073325E+03  0.7818609E-02  0.1011883E+00
        1   -1    0    0  501    0  0.00000000000E+00  0.00000000000E+00  0.46492409556E+03  0.46492409558E+03  0.50400001928E-02 0.  1.
       -1   -1    0    0    0  501  0.00000000000E+00  0.00000000000E+00 -0.13840228712E+03  0.13840228721E+03  0.50400001928E-02 0. -1.
    10030    2    1    2    0    0  0.00000000000E+00  0.00000000000E+00  0.32652180844E+03  0.60332638279E+03  0.50733246770E+03 0.  0.
        5    1    3    3  502    0 -0.17159004269E+02  0.25190581054E+03  0.19173999624E+03  0.31707615011E+03  0.46999998093E+01 0.  1.
       -5    1    3    3    0  502  0.17159004269E+02 -0.25190581054E+03  0.13478181220E+03  0.28625023268E+03  0.46999998093E+01 0. -1.
</event>
<event>
 5   0  0.1147245E-01  0.5406433E+03  0.7818609E-02  0.1003683E+00
       -1   -1    0    0    0  501  0.00000000000E+00  0.00000000000E+00  0.23730277012E+03  0.23730277018E+03  0.50400001928E-02 0.  1.
        1   -1    0    0  501    0  0.00000000000E+00  0.00000000000E+00 -0.30793484039E+03  0.30793484043E+03  0.50400001928E-02 0. -1.
    10030    2    1    2    0    0  0.00000000000E+00  0.00000000000E+00 -0.70632070271E+02  0.54523761061E+03  0.54064328598E+03 0.  0.
        1    1    3    3  502    0  0.11151325282E+03 -0.10243840219E+03 -0.26114967354E+03  0.30187411915E+03  0.50400001928E-02 0. -1.
       -1    1    3    3    0  502 -0.11151325282E+03  0.10243840219E+03  0.19051760326E+03  0.24336349146E+03  0.50400001928E-02 0.  1.
</event>
<event>
 5   0  0.1827698E-01  0.5027841E+03  0.7818609E-02  0.1013055E+00
        2   -1    0    0  501    0  0.00000000000E+00  0.00000000000E+00  0.95800691935E+03  0.95800691935E+03  0.25500000920E-02 0.  1.
       -2   -1    0    0    0  501  0.00000000000E+00  0.00000000000E+00 -0.65968159880E+02  0.65968159929E+02  0.25500000920E-02 0. -1.
    10030    2    1    2    0    0  0.00000000000E+00  0.00000000000E+00  0.89203875947E+03  0.10239750793E+04  0.50278406359E+03 0.  0.
        1    1    3    3  502    0  0.18673577125E+03 -0.58202500457E+02  0.76765017586E+03  0.79217710888E+03  0.50400001928E-02 0.  1.
       -1    1    3    3    0  502 -0.18673577125E+03  0.58202500457E+02  0.12438858361E+03  0.23179797040E+03  0.50400001928E-02 0. -1.
</event>
<event>
 5   0  0.1068522E-01  0.5013183E+03  0.7818609E-02  0.1013435E+00
       -1   -1    0    0    0  501  0.00000000000E+00  0.00000000000E+00  0.54348324515E+02  0.54348324748E+02  0.50400001928E-02 0. -1.
        1   -1    0    0  501    0  0.00000000000E+00  0.00000000000E+00 -0.11560614595E+04  0.11560614595E+04  0.50400001928E-02 0.  1.
    10030    2    1    2    0    0  0.00000000000E+00  0.00000000000E+00 -0.11017131350E+04  0.12104097843E+04  0.50131827618E+03 0.  0.
        2    1    3    3  502    0  0.81692066064E+02 -0.15604130982E+03 -0.12024688709E+03  0.21326461940E+03  0.25500000920E-02 0. -1.
       -2    1    3    3    0  502 -0.81692066064E+02  0.15604130982E+03 -0.98146624791E+03  0.99714516487E+03  0.25500000920E-02 0.  1.
</event>
<event>
 5   0  0.1141970E-01  0.4870870E+03  0.7818609E-02  0.1017205E+00
       -1   -1    0    0    0  501  0.00000000000E+00  0.00000000000E+00  0.16491042641E+03  0.16491042649E+03  0.50400001928E-02 0. -1.
        1   -1    0    0  501    0  0.00000000000E+00  0.00000000000E+00 -0.35967069909E+03  0.35967069913E+03  0.50400001928E-02 0.  1.
    10030    2    1    2    0    0  0.00000000000E+00  0.00000000000E+00 -0.19476027268E+03  0.52458112561E+03  0.48708704924E+03 0.  0.
        3    1    3    3  502    0  0.92440812375E+02 -0.11766841421E+03  0.10956266609E+03  0.18545928798E+03  0.10100000352E+00 0. -1.
       -3    1    3    3    0  502 -0.92440812375E+02  0.11766841421E+03 -0.30432293877E+03  0.33912183763E+03  0.10100000352E+00 0.  1.
</event>
<event>
 5   0  0.1074281E-01  0.4972068E+03  0.7818609E-02  0.1014511E+00
        1   -1    0    0  501    0  0.00000000000E+00  0.00000000000E+00  0.50239371917E+03  0.50239371919E+03  0.50400001928E-02 0. -1.
       -1   -1    0    0    0  501  0.00000000000E+00  0.00000000000E+00 -0.12301835312E+03  0.12301835323E+03  0.50400001928E-02 0.  1.
    10030    2    1    2    0    0  0.00000000000E+00  0.00000000000E+00  0.37937536605E+03  0.62541207242E+03  0.49720678995E+03 0.  0.
        4    1    3    3  502    0  0.84332510516E+02 -0.31764142207E+02 -0.10174611820E+03  0.13592210464E+03  0.12699999809E+01 0.  1.
       -4    1    3    3    0  502 -0.84332510516E+02  0.31764142207E+02  0.48112148425E+03  0.48948996779E+03  0.12699999809E+01 0. -1.
</event>
<event>
 5   0  0.1827698E-01  0.4813063E+03  0.7818609E-02  0.1018777E+00
       -2   -1    0    0    0  501  0.00000000000E+00  0.00000000000E+00  0.32907546383E+02  0.32907546482E+02  0.25500000920E-02 0. -1.
        2   -1    0    0  501    0  0.00000000000E+00  0.00000000000E+00 -0.17598985353E+04  0.17598985353E+04  0.25500000920E-02 0.  1.
    10030    2    1    2    0    0  0.00000000000E+00  0.00000000000E+00 -0.17269909889E+04  0.17928060818E+04  0.48130631731E+03 0.  0.
        1    1    3    3  502    0 -0.53015127607E+02 -0.94437969572E+02 -0.16639954835E+04  0.16675161477E+04  0.50400001928E-02 0.  1.
       -1    1    3    3    0  502  0.53015127607E+02  0.94437969572E+02 -0.62995505483E+02  0.12528993411E+03  0.50400001928E-02 0. -1.
</event>
<event>
 5   0  0.1068522E-01  0.4985928E+03  0.7818609E-02  0.1014147E+00
        1   -1    0    0  501    0  0.00000000000E+00  0.00000000000E+00  0.90150388292E+03  0.90150388294E+03  0.50400001928E-02 0. -1.
       -1   -1    0    0    0  501  0.00000000000E+00  0.00000000000E+00 -0.68938900740E+02  0.68938900925E+02  0.50400001928E-02 0.  1.
    10030    2    1    2    0    0  0.00000000000E+00  0.00000000000E+00  0.83256498218E+03  0.97044278386E+03  0.49859276689E+03 0.  0.
        2    1    3    3  502    0 -0.21854603954E+03  0.10972228401E+03  0.51058246466E+03  0.56612348850E+03  0.25500000920E-02 0. -1.
       -2    1    3    3    0  502  0.21854603954E+03 -0.10972228401E+03  0.32198251752E+03  0.40431929536E+03  0.25500000920E-02 0.  1.
</event>
<event>
 5   0  0.1141970E-01  0.5013675E+03  0.7818609E-02  0.1013423E+00
        1   -1    0    0  501    0  0.00000000000E+00  0.00000000000E+00  0.30739110468E+03  0.30739110472E+03  0.50400001928E-02 0. -1.
       -1   -1    0    0    0  501  0.00000000000E+00  0.00000000000E+00 -0.20443775212E+03  0.20443775218E+03  0.50400001928E-02 0.  1.
    10030    2    1    2    0    0  0.00000000000E+00  0.00000000000E+00  0.10295335257E+03  0.51182885690E+03  0.50136751586E+03 0.  0.
        3    1    3    3  502    0 -0.16847666721E+03  0.11982033264E+03  0.19621308910E+03  0.28502786889E+03  0.10100000352E+00 0. -1.
       -3    1    3    3    0  502  0.16847666721E+03 -0.11982033264E+03 -0.93259736533E+02  0.22680098802E+03  0.10100000352E+00 0.  1.
</event>
<event>
 5   0  0.1123271E-01  0.4954832E+03  0.7818609E-02  0.1014965E+00
       -1   -1    0    0    0  501  0.00000000000E+00  0.00000000000E+00  0.55551199398E+03  0.55551199400E+03  0.50400001928E-02 0.  1.
        1   -1    0    0  501    0  0.00000000000E+00  0.00000000000E+00 -0.11048530540E+03  0.11048530552E+03  0.50400001928E-02 0. -1.
    10030    2    1    2    0    0  0.00000000000E+00  0.00000000000E+00  0.44502668858E+03  0.66599729952E+03  0.49548324838E+03 0.  0.
        5    1    3    3  502    0 -0.38368118725E+02  0.35246411262E+02 -0.10297710679E+03  0.11550236605E+03  0.46999998093E+01 0. -1.
       -5    1    3    3    0  502  0.38368118725E+02 -0.35246411262E+02  0.54800379537E+03  0.55049493347E+03  0.46999998093E+01 0.  1.
</event>
<event>
 5   0  0.1827698E-01  0.5029572E+03  0.7818609E-02  0.1013010E+00
        2   -1    0    0  501    0  0.00000000000E+00  0.00000000000E+00  0.49918947522E+03  0.49918947523E+03  0.25500000920E-02 0.  1.
       -2   -1    0    0    0  501  0.00000000000E+00  0.00000000000E+00 -0.12668835291E+03  0.12668835294E+03  0.25500000920E-02 0. -1.
    10030    2    1    2    0    0  0.00000000000E+00  0.00000000000E+00  0.37250112231E+03  0.62587782817E+03  0.50295722449E+03 0.  0.
        1    1    3    3  502    0  0.12748184835E+03 -0.76371912646E+02  0.43870408415E+03  0.46319063481E+03  0.50400001928E-02 0.  1.
       -1    1    3    3    0  502 -0.12748184835E+03  0.76371912646E+02 -0.66202961838E+02  0.16268719336E+03  0.50400001928E-02 0. -1.
</event>
<event>
 5   0  0.1123271E-01  0.4977947E+03  0.7818609E-02  0.1014356E+00
        1   -1    0    0  501    0  0.00000000000E+00  0.00000000000E+00  0.10116305989E+04  0.10116305989E+04  0.50400001928E-02 0.  1.
       -1   -1    0    0    0  501  0.00000000000E+00  0.00000000000E+00 -0.61237657292E+02  0.61237657499E+02  0.50400001928E-02 0. -1.
    10030    2    1    2    0    0  0.00000000000E+00  0.00000000000E+00  0.95039294162E+03  0.10728682564E+04  0.49779468876E+03 0.  0.
        5    1    3    3  502    0  0.23169171976E+03  0.74868376661E+02  0.36442725577E+03  0.43830998343E+03  0.46999998093E+01 0. -1.
       -5    1    3    3    0  502 -0.23169171976E+03 -0.74868376661E+02  0.58596568585E+03  0.63455827299E+03  0.46999998093E+01 0.  1.
</event>
<event>
 5   0  0.1141970E-01  0.5132067E+03  0.7818609E-02  0.1010388E+00
        1   -1    0    0  501    0  0.00000000000E+00  0.00000000000E+00  0.30985077004E+03  0.30985077008E+03  0.50400001928E-02 0. -1.
       -1   -1    0    0    0  501  0.00000000000E+00  0.00000000000E+00 -0.21250641479E+03  0.21250641485E+03  0.50400001928E-02 0.  1.
    10030    2    1    2    0    0  0.00000000000E+00  0.00000000000E+00  0.97344355250E+02  0.52235718493E+03  0.51320668853E+03 0.  0.
        3    1    3    3  502    0 -0.21421307904E+03 -0.12930070613E+03  0.10660226970E+03  0.27197420823E+03  0.10100000352E+00 0. -1.
       -3    1    3    3    0  502  0.21421307904E+03  0.12930070613E+03 -0.92579144491E+01  0.25038297670E+03  0.10100000352E+00 0.  1.
</event>
<event>
 5   0  0.7220250E-02  0.4966574E+03  0.7818609E-02  0.1014655E+00
        3   -1    0    0  501    0  0.00000000000E+00  0.00000000000E+00  0.36386127573E+03  0.36386128975E+03  0.10100000352E+00 0.  1.
       -3   -1    0    0    0  501  0.00000000000E+00  0.00000000000E+00 -0.16947977558E+03  0.16947980567E+03  0.10100000352E+00 0. -1.
    10030    2    1    2    0    0  0.00000000000E+00  0.00000000000E+00  0.19438150015E+03  0.53334109542E+03  0.49665738338E+03 0.  0.
        4    1    3    3  502    0 -0.12711639609E+03  0.15260926424E+03 -0.62873514546E+02  0.20833352447E+03  0.12699999809E+01 0. -1.
       -4    1    3    3    0  502  0.12711639609E+03 -0.15260926424E+03  0.25725501469E+03  0.32500757095E+03  0.12699999809E+01 0.  1.
</event>
<event>
 5   0  0.1683148E-01  0.5040748E+03  0.7818609E-02  0.1012721E+00
       -2   -1    0    0    0  501  0.00000000000E+00  0.00000000000E+00  0.75143684753E+02  0.75143684796E+02  0.25500000920E-02 0. -1.
        2   -1    0    0  501    0  0.00000000000E+00  0.00000000000E+00 -0.84535193376E+03  0.84535193377E+03  0.25500000920E-02 0.  1.
    10030    2    1    2    0    0  0.00000000000E+00  0.00000000000E+00 -0.77020824901E+03  0.92049561856E+03  0.50407483269E+03 0.  0.
        2    1    3    3  502    0 -0.32932244123E+02  0.23810138411E+03 -0.24668002992E+03  0.34442392337E+03  0.25500000920E-02 0. -1.
       -2    1    3    3    0  502  0.32932244123E+02 -0.23810138411E+03 -0.52352821909E+03  0.57607169520E+03  0.25500000920E-02 0.  1.
</event>
<event>
 5   0  0.1068522E-01  0.5015292E+03  0.7818609E-02  0.1013381E+00
        1   -1    0    0  501    0  0.00000000000E+00  0.00000000000E+00  0.15056089782E+03  0.15056089790E+03  0.50400001928E-02 0.  1.
       -1   -1    0    0    0  501  0.00000000000E+00  0.00000000000E+00 -0.41765748083E+03  0.41765748086E+03  0.50400001928E-02 0. -1.
    10030    2    1    2    0    0  0.00000000000E+00  0.00000000000E+00 -0.26709658301E+03  0.56821837876E+03  0.50152920284E+03 0.  0.
        2    1    3    3  502    0  0.29473258008E+02  0.14370413452E+03 -0.36397181835E+03  0.39242201235E+03  0.25500000920E-02 0. -1.
       -2    1    3    3    0  502 -0.29473258008E+02 -0.14370413452E+03  0.96875235336E+02  0.17579636641E+03  0.25500000920E-02 0.  1.
</event>
<event>
 5   0  0.1760649E-01  0.4961415E+03  0.7818609E-02  0.1014791E+00
       -2   -1    0    0    0  501  0.00000000000E+00  0.00000000000E+00  0.90787138931E+02  0.90787138967E+02  0.25500000920E-02 0.  1.
        2   -1    0    0  501    0  0.00000000000E+00  0.00000000000E+00 -0.67783939546E+03  0.67783939546E+03  0.25500000920E-02 0. -1.
    10030    2    1    2    0    0  0.00000000000E+00  0.00000000000E+00 -0.58705225653E+03  0.76862653443E+03  0.49614150959E+03 0.  0.
        5    1    3    3  502    0 -0.68279664930E+02 -0.18532048347E+02  0.74753819488E+02  0.10303287332E+03  0.46999998093E+01 0.  1.
       -5    1    3    3    0  502  0.68279664930E+02  0.18532048347E+02 -0.66180607601E+03  0.66559366111E+03  0.46999998093E+01 0. -1.
</event>
<event>
 5   0  0.1709372E-01  0.4816050E+03  0.7818609E-02  0.1018695E+00
       -2   -1    0    0    0  501  0.00000000000E+00  0.00000000000E+00  0.51570816536E+02  0.51570816599E+02  0.25500000920E-02 0.  1.
        2   -1    0    0  501    0  0.00000000000E+00  0.00000000000E+00 -0.11243924386E+04  0.11243924386E+04  0.25500000920E-02 0. -1.
    10030    2    1    2    0    0  0.00000000000E+00  0.00000000000E+00 -0.10728216221E+04  0.11759632552E+04  0.48160496760E+03 0.  0.
        4    1    3    3  502    0  0.38731455524E+02  0.16140992041E+03 -0.96236259730E+03  0.97657394479E+03  0.12699999809E+01 0. -1.
       -4    1    3    3    0  502 -0.38731455524E+02 -0.16140992041E+03 -0.11045902476E+03  0.19938931041E+03  0.12699999809E+01 0.  1.
</event>
<event>
 5   0  0.1709372E-01  0.5067035E+03  0.7818609E-02  0.1012044E+00
       -2   -1    0    0    0  501  0.00000000000E+00  0.00000000000E+00  0.38430999287E+03  0.38430999288E+03  0.25500000920E-02 0. -1.
        2   -1    0    0  501    0  0.00000000000E+00  0.00000000000E+00 -0.16701910987E+03  0.16701910989E+03  0.25500000920E-02 0.  1.
    10030    2    1    2    0    0  0.00000000000E+00  0.00000000000E+00  0.21729088300E+03  0.55132910276E+03  0.50670351461E+03 0.  0.
        4    1    3    3  502    0 -0.20357292448E+03  0.14044895088E+03  0.48874250032E+02  0.25210741481E+03  0.12699999809E+01 0. -1.
       -4    1    3    3    0  502  0.20357292448E+03 -0.14044895088E+03  0.16841663297E+03  0.29922168796E+03  0.12699999809E+01 0.  1.
</event>
<event>
 5   0  0.1123271E-01  0.5083339E+03  0.7818609E-02  0.1011626E+00
        1   -1    0    0  501    0  0.00000000000E+00  0.00000000000E+00  0.68128821386E+03  0.68128821388E+03  0.50400001928E-02 0.  1.
       -1   -1    0    0    0  501  0.00000000000E+00  0.00000000000E+00 -0.94821610682E+02  0.94821610816E+02  0.50400001928E-02 0. -1.
    10030    2    1    2    0    0  0.00000000000E+00  0.00000000000E+00  0.58646660318E+03  0.77610982470E+03  0.50833392897E+03 0.  0.
        5    1    3    3  502    0 -0.47920101748E+02  0.50220615188E+02  0.66646670267E+03  0.67008835396E+03  0.46999998093E+01 0.  1.
       -5    1    3    3    0  502  0.47920101748E+02 -0.50220615188E+02 -0.80000099490E+02  0.10602147074E+03  0.46999998093E+01 0. -1.
</event>
<event>
 5   0  0.1123271E-01  0.5054864E+03  0.7818609E-02  0.1012357E+00
       -1   -1    0    0    0  501  0.00000000000E+00  0.00000000000E+00  0.43802175526E+02  0.43802175816E+02  0.50400001928E-02 0. -1.
        1   -1    0    0  501    0  0.00000000000E+00  0.00000000000E+00 -0.14583551039E+04  0.14583551039E+04  0.50400001928E-02 0.  1.
    10030    2    1    2    0    0  0.00000000000E+00  0.00000000000E+00 -0.14145529284E+04  0.15021572797E+04  0.50548640521E+03 0.  0.
        5    1    3    3  502    0  0.67751480020E+02  0.20152750395E+03 -0.30140793516E+03  0.36887996865E+03  0.46999998093E+01 0. -1.
       -5    1    3    3    0  502 -0.67751480020E+02 -0.20152750395E+03 -0.11131449932E+04  0.11332773111E+04  0.46999998093E+01 0.  1.
</event>
<event>
 5   0  0.1123271E-01  0.4958122E+03  0.7818609E-02  0.1014878E+00
        1   -1    0    0  501    0  0.00000000000E+00  0.00000000000E+00  0.28564174650E+03  0.28564174655E+03  0.50400001928E-02 0.  1.
       -1   -1    0    0    0  501  0.00000000000E+00  0.00000000000E+00 -0.21515564339E+03  0.21515564345E+03  0.50400001928E-02 0. -1.
    10030    2    1    2    0    0  0.00000000000E+00  0.00000000000E+00  0.70486103111E+02  0.50079739000E+03  0.49581219741E+03 0.  0.
        5    1    3    3  502    0 -0.90557156128E+02 -0.16415627816E+03  0.19900732992E+03  0.27344814782E+03  0.46999998093E+01 0.  1.
       -5    1    3    3    0  502  0.90557156128E+02  0.16415627816E+03 -0.12852122680E+03  0.22734924219E+03  0.46999998093E+01 0. -1.
</event>
<event>
 5   0  0.1709372E-01  0.4919040E+03  0.7818609E-02  0.1015914E+00
        2   -1    0    0  501    0  0.00000000000E+00  0.00000000000E+00  0.71885788852E+03  0.71885788853E+03  0.25500000920E-02 0.  1.
       -2   -1    0    0    0  501  0.00000000000E+00  0.00000000000E+00 -0.84150676212E+02  0.84150676251E+02  0.25500000920E-02 0. -1.
    10030    2    1    2    0    0  0.00000000000E+00  0.00000000000E+00  0.63470721231E+03  0.80300856478E+03  0.49190396395E+03 0.  0.
        4    1    3    3  502    0 -0.23903749472E+03  0.46661880771E+02  0.37329948870E+03  0.44572455189E+03  0.12699999809E+01 0. -1.
       -4    1    3    3    0  502  0.23903749472E+03 -0.46661880771E+02  0.26140772361E+03  0.35728401288E+03  0.12699999809E+01 0.  1.
</event>
<event>
 5   0  0.1760649E-01  0.4999562E+03  0.7818609E-02  0.1013790E+00
       -2   -1    0    0    0  501  0.00000000000E+00  0.00000000000E+00  0.13335553732E+03  0.13335553734E+03  0.25500000920E-02 0. -1.
        2   -1    0    0  501    0  0.00000000000E+00  0.00000000000E+00 -0.46858992972E+03  0.46858992972E+03  0.25500000920E-02 0.  1.
    10030    2    1    2    0    0  0.00000000000E+00  0.00000000000E+00 -0.33523439240E+03  0.60194546707E+03  0.49995624556E+03 0.  0.
        5    1    3    3  502    0 -0.22990112948E+03  0.42716554575E+01 -0.28554859017E+03  0.36665087444E+03  0.46999998093E+01 0. -1.
       -5    1    3    3    0  502  0.22990112948E+03 -0.42716554575E+01 -0.49685802228E+02  0.23529459263E+03  0.46999998093E+01 0.  1.
</event>
<event>
 5   0  0.1141970E-01  0.5079161E+03  0.7818609E-02  0.1011733E+00
        1   -1    0    0  501    0  0.00000000000E+00  0.00000000000E+00  0.74011292887E+02  0.74011293059E+02  0.50400001928E-02 0.  1.
       -1   -1    0    0    0  501  0.00000000000E+00  0.00000000000E+00 -0.87141683020E+03  0.87141683021E+03  0.50400001928E-02 0. -1.
    10030    2    1    2    0    0  0.00000000000E+00  0.00000000000E+00 -0.79740553731E+03  0.94542812327E+03  0.50791608100E+03 0.  0.
        3    1    3    3  502    0 -0.22027919997E+03 -0.12051107491E+03 -0.46955367689E+03  0.53247207513E+03  0.10100000352E+00 0.  1.
       -3    1    3    3    0  502  0.22027919997E+03  0.12051107491E+03 -0.32785186043E+03  0.41295604814E+03  0.10100000352E+00 0. -1.
</event>
<event>
 5   0  0.1709372E-01  0.4940917E+03  0.7818609E-02  0.1015333E+00
       -2   -1    0    0    0  501  0.00000000000E+00  0.00000000000E+00  0.79966228521E+02  0.79966228562E+02  0.25500000920E-02 0. -1.
        2   -1    0    0  501    0  0.00000000000E+00  0.00000000000E+00 -0.76321780330E+03  0.76321780330E+03  0.25500000920E-02 0.  1.
    10030    2    1    2    0    0  0.00000000000E+00  0.00000000000E+00 -0.68325157478E+03  0.84318403186E+03  0.49409168902E+03 0.  0.
        4    1    3    3  502    0 -0.22946104749E+03 -0.84835215416E+02 -0.28298828485E+03  0.37407668780E+03  0.12699999809E+01 0.  1.
       -4    1    3    3    0  502  0.22946104749E+03  0.84835215416E+02 -0.40026328993E+03  0.46910734407E+03  0.12699999809E+01 0. -1.
</event>
<event>
 5   0  0.1827698E-01  0.4942992E+03  0.7818609E-02  0.1015278E+00
        2   -1    0    0  501    0  0.00000000000E+00  0.00000000000E+00  0.35318662851E+03  0.35318662852E+03  0.25500000920E-02 0.  1.
       -2   -1    0    0    0  501  0.00000000000E+00  0.00000000000E+00 -0.17294797633E+03  0.17294797635E+03  0.25500000920E-02 0. -1.
    10030    2    1    2    0    0  0.00000000000E+00  0.00000000000E+00  0.18023865218E+03  0.52613460487E+03  0.49429915102E+03 0.  0.
        1    1    3    3  502    0 -0.22800710444E+03  0.33615345014E+02  0.18511820340E+03  0.29561119794E+03  0.50400001928E-02 0.  1.
       -1    1    3    3    0  502  0.22800710444E+03 -0.33615345014E+02 -0.48795512179E+01  0.23052340692E+03  0.50400001928E-02 0. -1.
</event>
<event>
 5   0  0.7220250E-02  0.4897122E+03  0.7818609E-02  0.1016500E+00
       -3   -1    0    0    0  501  0.00000000000E+00  0.00000000000E+00  0.27901387287E+03  0.27901389115E+03  0.10100000352E+00 0. -1.
        3   -1    0    0  501    0  0.00000000000E+00  0.00000000000E+00 -0.21488002489E+03  0.21488004863E+03  0.10100000352E+00 0.  1.
    10030    2    1    2    0    0  0.00000000000E+00  0.00000000000E+00  0.64133847973E+02  0.49389393978E+03  0.48971223519E+03 0.  0.
        4    1    3    3  502    0 -0.21310008568E+01  0.21632791126E+03  0.14772221645E+03  0.26196521236E+03  0.12699999809E+01 0. -1.
       -4    1    3    3    0  502  0.21310008568E+01 -0.21632791126E+03 -0.83588368481E+02  0.23192872741E+03  0.12699999809E+01 0.  1.
</event>
<event>
 5   0  0.1147245E-01  0.5006580E+03  0.7818609E-02  0.1013607E+00
        1   -1    0    0  501    0  0.00000000000E+00  0.00000000000E+00  0.94916014809E+03  0.94916014811E+03  0.50400001928E-02 0.  1.
       -1   -1    0    0    0  501  0.00000000000E+00  0.00000000000E+00 -0.66021119687E+02  0.66021119880E+02  0.50400001928E-02 0. -1.
    10030    2    1    2    0    0  0.00000000000E+00  0.00000000000E+00  0.88313902841E+03  0.10151812680E+04  0.50065803037E+03 0.  0.
        1    1    3    3  502    0 -0.24232633776E+03 -0.57899621560E+02  0.49083019607E+03  0.55044409485E+03  0.50400001928E-02 0. -1.
       -1    1    3    3    0  502  0.24232633776E+03  0.57899621560E+02  0.39230883233E+03  0.46473717314E+03  0.50400001928E-02 0.  1.
</event>
<event>
 5   0  0.1782124E-01  0.4999012E+03  0.7818609E-02  0.1013805E+00
        2   -1    0    0  501    0  0.00000000000E+00  0.00000000000E+00  0.75068011696E+03  0.75068011697E+03  0.25500000920E-02 0. -1.
       -2   -1    0    0    0  501  0.00000000000E+00  0.00000000000E+00 -0.83224941422E+02  0.83224941461E+02  0.25500000920E-02 0.  1.
    10030    2    1    2    0    0  0.00000000000E+00  0.00000000000E+00  0.66745517554E+03  0.83390505843E+03  0.49990122536E+03 0.  0.
        3    1    3    3  502    0 -0.18519085955E+03 -0.70091859952E+02  0.79278730590E+02  0.21329240638E+03  0.10100000352E+00 0.  1.
       -3    1    3    3    0  502  0.18519085955E+03  0.70091859952E+02  0.58817644495E+03  0.62061265205E+03  0.10100000352E+00 0. -1.
</event>
<event>
 5   0  0.1141970E-01  0.3959420E+03  0.7818609E-02  0.1045194E+00
        1   -1    0    0  501    0  0.00000000000E+00  0.00000000000E+00  0.31321404775E+03  0.31321404779E+03  0.50400001928E-02 0.  1.
       -1   -1    0    0    0  501  0.00000000000E+00  0.00000000000E+00 -0.12513014800E+03  0.12513014811E+03  0.50400001928E-02 0. -1.
    10030    2    1    2    0    0  0.00000000000E+00  0.00000000000E+00  0.18808389975E+03  0.43834419590E+03  0.39594201688E+03 0.  0.
        3    1    3    3  502    0 -0.43195793824E+01 -0.43941973211E+02 -0.11960944422E+03  0.12749896126E+03  0.10100000352E+00 0. -1.
       -3    1    3    3    0  502  0.43195793824E+01  0.43941973211E+02  0.30769334396E+03  0.31084523464E+03  0.10100000352E+00 0.  1.
</event>
<event>
 5   0  0.1123271E-01  0.4973197E+03  0.7818609E-02  0.1014481E+00
        1   -1    0    0  501    0  0.00000000000E+00  0.00000000000E+00  0.45996147297E+03  0.45996147300E+03  0.50400001928E-02 0. -1.
       -1   -1    0    0    0  501  0.00000000000E+00  0.00000000000E+00 -0.13442801844E+03  0.13442801853E+03  0.50400001928E-02 0.  1.
    10030    2    1    2    0    0  0.00000000000E+00  0.00000000000E+00  0.32553345453E+03  0.59438949153E+03  0.49731965336E+03 0.  0.
        5    1    3    3  502    0  0.16713149815E+03  0.11125798760E+03 -0.12475184948E+02  0.20121878072E+03  0.46999998093E+01 0.  1.
       -5    1    3    3    0  502 -0.16713149815E+03 -0.11125798760E+03  0.33800863948E+03  0.39317071081E+03  0.46999998093E+01 0. -1.
</event>
<event>
 5   0  0.7220250E-02  0.4994601E+03  0.7818609E-02  0.1013920E+00
        3   -1    0    0  501    0  0.00000000000E+00  0.00000000000E+00  0.19283555127E+03  0.19283557772E+03  0.10100000352E+00 0.  1.
       -3   -1    0    0    0  501  0.00000000000E+00  0.00000000000E+00 -0.32341079219E+03  0.32341080796E+03  0.10100000352E+00 0. -1.
    10030    2    1    2    0    0  0.00000000000E+00  0.00000000000E+00 -0.13057524092E+03  0.51624638567E+03  0.49946014574E+03 0.  0.
        4    1    3    3  502    0  0.19672859900E+02 -0.73184960041E+02  0.18066009423E+03  0.19591514066E+03  0.12699999809E+01 0.  1.
       -4    1    3    3    0  502 -0.19672859900E+02  0.73184960041E+02 -0.31123533514E+03  0.32033124502E+03  0.12699999809E+01 0. -1.
</event>
<event>
 5   0  0.1147245E-01  0.4948792E+03  0.7818609E-02  0.1015124E+00
        1   -1    0    0  501    0  0.00000000000E+00  0.00000000000E+00  0.49692291309E+03  0.49692291311E+03  0.50400001928E-02 0.  1.
       -1   -1    0    0    0  501  0.00000000000E+00  0.00000000000E+00 -0.12321098553E+03  0.12321098564E+03  0.50400001928E-02 0. -1.
    10030    2    1    2    0    0  0.00000000000E+00  0.00000000000E+00  0.37371192755E+03  0.62013389875E+03  0.49487922525E+03 0.  0.
        1    1    3    3  502    0  0.16911580987E+02  0.22114548399E+03  0.49385330929E+02  0.22722288088E+03  0.50400001928E-02 0. -1.
       -1    1    3    3    0  502 -0.16911580987E+02 -0.22114548399E+03  0.32432659662E+03  0.39291101787E+03  0.50400001928E-02 0.  1.
</event>
<event>
 5   0  0.1074281E-01  0.5195016E+03  0.7818609E-02  0.1008810E+00
        1   -1    0    0  501    0  0.00000000000E+00  0.00000000000E+00  0.15833249718E+03  0.15833249726E+03  0.50400001928E-02 0. -1.
       -1   -1    0    0    0  501  0.00000000000E+00  0.00000000000E+00 -0.42613154262E+03  0.42613154265E+03  0.50400001928E-02 0.  1.
    10030    2    1    2    0    0  0.00000000000E+00  0.00000000000E+00 -0.26779904544E+03  0.58446403991E+03  0.51950157382E+03 0.  0.
        4    1    3    3  502    0 -0.49808129818E+02  0.25438143003E+03 -0.11513796830E+03  0.28363555204E+03  0.12699999809E+01 0.  1.
       -4    1    3    3    0  502  0.49808129818E+02 -0.25438143003E+03 -0.15266107713E+03  0.30082848786E+03  0.12699999809E+01 0. -1.
</event>
<event>
 5   0  0.7220250E-02  0.5018559E+03  0.7818609E-02  0.1013296E+00
        3   -1    0    0  501    0  0.00000000000E+00  0.00000000000E+00  0.37165872755E+03  0.37165874128E+03  0.10100000352E+00 0.  1.
       -3   -1    0    0    0  501  0.00000000000E+00  0.00000000000E+00 -0.16941569571E+03  0.16941572581E+03  0.10100000352E+00 0. -1.
    10030    2    1    2    0    0  0.00000000000E+00  0.00000000000E+00  0.20224303184E+03  0.54107446709E+03  0.50185589068E+03 0.  0.
        4    1    3    3  502    0 -0.18742678893E+03  0.77332969658E+02 -0.58262144275E+02  0.21096274496E+03  0.12699999809E+01 0. -1.
       -4    1    3    3    0  502  0.18742678893E+03 -0.77332969658E+02  0.26050517612E+03  0.33011172213E+03  0.12699999809E+01 0.  1.
</event>
<event>
 5   0  0.1782124E-01  0.4752325E+03  0.7818609E-02  0.1020454E+00
        2   -1    0    0  501    0  0.00000000000E+00  0.00000000000E+00  0.14426472088E+03  0.14426472090E+03  0.25500000920E-02 0. -1.
       -2   -1    0    0    0  501  0.00000000000E+00  0.00000000000E+00 -0.39137418457E+03  0.39137418458E+03  0.25500000920E-02 0.  1.
    10030    2    1    2    0    0  0.00000000000E+00  0.00000000000E+00 -0.24710946369E+03  0.53563890548E+03  0.47523252205E+03 0.  0.
        3    1    3    3  502    0 -0.28589904101E+02 -0.33591940452E+02 -0.38671884293E+03  0.38922650829E+03  0.10100000352E+00 0.  1.
       -3    1    3    3    0  502  0.28589904101E+02  0.33591940452E+02  0.13960937923E+03  0.14641239719E+03  0.10100000352E+00 0. -1.
</event>
<event>
 5   0  0.7220250E-02  0.5015029E+03  0.7818609E-02  0.1013387E+00
        3   -1    0    0  501    0  0.00000000000E+00  0.00000000000E+00  0.18345532205E+03  0.18345534985E+03  0.10100000352E+00 0.  1.
       -3   -1    0    0    0  501  0.00000000000E+00  0.00000000000E+00 -0.34273343075E+03  0.34273344563E+03  0.10100000352E+00 0. -1.
    10030    2    1    2    0    0  0.00000000000E+00  0.00000000000E+00 -0.15927810870E+03  0.52618879548E+03  0.50150287395E+03 0.  0.
        1    1    3    3  502    0  0.43121561415E+02  0.13019484510E+03 -0.29989140820E+03  0.32976510350E+03  0.50400001928E-02 0. -1.
       -1    1    3    3    0  502 -0.43121561415E+02 -0.13019484510E+03  0.14061329950E+03  0.19642369198E+03  0.50400001928E-02 0.  1.
</event>
<event>
 5   0  0.1147245E-01  0.4984128E+03  0.7818609E-02  0.1014194E+00
       -1   -1    0    0    0  501  0.00000000000E+00  0.00000000000E+00  0.60451969795E+02  0.60451970006E+02  0.50400001928E-02 0.  1.
        1   -1    0    0  501    0  0.00000000000E+00  0.00000000000E+00 -0.10273250996E+04  0.10273250996E+04  0.50400001928E-02 0. -1.
    10030    2    1    2    0    0  0.00000000000E+00  0.00000000000E+00 -0.96687312982E+03  0.10877770696E+04  0.49841278480E+03 0.  0.
        1    1    3    3  502    0 -0.63708217691E+01  0.18941724061E+03 -0.13027648666E+03  0.22998139362E+03  0.50400001928E-02 0.  1.
       -1    1    3    3    0  502  0.63708217691E+01 -0.18941724061E+03 -0.83659664316E+03  0.85779567601E+03  0.50400001928E-02 0. -1.
</event>
<event>
 5   0  0.1068522E-01  0.5013269E+03  0.7818609E-02  0.1013433E+00
       -1   -1    0    0    0  501  0.00000000000E+00  0.00000000000E+00  0.61359019370E+02  0.61359019577E+02  0.50400001928E-02 0. -1.
        1   -1    0    0  501    0  0.00000000000E+00  0.00000000000E+00 -0.10240086404E+04  0.10240086404E+04  0.50400001928E-02 0.  1.
    10030    2    1    2    0    0  0.00000000000E+00  0.00000000000E+00 -0.96264962104E+03  0.10853676600E+04  0.50132690381E+03 0.  0.
        2    1    3    3  502    0  0.12243887003E+02 -0.18738659440E+03 -0.12185487628E+03  0.22385767668E+03  0.25500000920E-02 0. -1.
       -2    1    3    3    0  502 -0.12243887003E+02  0.18738659440E+03 -0.84079474477E+03  0.86150998332E+03  0.25500000920E-02 0.  1.
</event>
<event>
 5   0  0.1141970E-01  0.5027340E+03  0.7818609E-02  0.1013068E+00
       -1   -1    0    0    0  501  0.00000000000E+00  0.00000000000E+00  0.15946257566E+03  0.15946257574E+03  0.50400001928E-02 0.  1.
        1   -1    0    0  501    0  0.00000000000E+00  0.00000000000E+00 -0.39623950921E+03  0.39623950924E+03  0.50400001928E-02 0. -1.
    10030    2    1    2    0    0  0.00000000000E+00  0.00000000000E+00 -0.23677693355E+03  0.55570208498E+03  0.50273401614E+03 0.  0.
        3    1    3    3  502    0  0.14207841428E+03 -0.18258577417E+03 -0.22703766456E+03  0.32414495532E+03  0.10100000352E+00 0. -1.
       -3    1    3    3    0  502 -0.14207841428E+03  0.18258577417E+03 -0.97392689962E+01  0.23155712966E+03  0.10100000352E+00 0.  1.
</event>
<event>
 5   0  0.1709372E-01  0.5002776E+03  0.7818609E-02  0.1013706E+00
        2   -1    0    0  501    0  0.00000000000E+00  0.00000000000E+00  0.14989934267E+04  0.14989934267E+04  0.25500000920E-02 0.  1.
       -2   -1    0    0    0  501  0.00000000000E+00  0.00000000000E+00 -0.41740950730E+02  0.41740950808E+02  0.25500000920E-02 0. -1.
    10030    2    1    2    0    0  0.00000000000E+00  0.00000000000E+00  0.14572524760E+04  0.15407343775E+04  0.50027756628E+03 0.  0.
        4    1    3    3  502    0 -0.21963310093E+03 -0.77361422695E+02  0.10099535770E+04  0.10364513154E+04  0.12699999809E+01 0.  1.
       -4    1    3    3    0  502  0.21963310093E+03  0.77361422695E+02  0.44729889903E+03  0.50428306209E+03  0.12699999809E+01 0. -1.
</event>
<event>
 5   0  0.1782124E-01  0.4714580E+03  0.7818609E-02  0.1021510E+00
       -2   -1    0    0    0  501  0.00000000000E+00  0.00000000000E+00  0.70341301339E+02  0.70341301385E+02  0.25500000920E-02 0. -1.
        2   -1    0    0  501    0  0.00000000000E+00  0.00000000000E+00 -0.78997909100E+03  0.78997909100E+03  0.25500000920E-02 0.  1.
    10030    2    1    2    0    0  0.00000000000E+00  0.00000000000E+00 -0.71963778966E+03  0.86032039239E+03  0.47145798249E+03 0.  0.
        3    1    3    3  502    0  0.10683225783E+03  0.21341022362E+02  0.21647107633E+02  0.11107285005E+03  0.10100000352E+00 0. -1.
       -3    1    3    3    0  502 -0.10683225783E+03 -0.21341022362E+02 -0.74128489729E+03  0.74924754234E+03  0.10100000352E+00 0.  1.
</event>
<event>
 5   0  0.7220250E-02  0.5086696E+03  0.7818609E-02  0.1011540E+00
        3   -1    0    0  501    0  0.00000000000E+00  0.00000000000E+00  0.84523355459E+03  0.84523356062E+03  0.10100000352E+00 0. -1.
       -3   -1    0    0    0  501  0.00000000000E+00  0.00000000000E+00 -0.76530522501E+02  0.76530589148E+02  0.10100000352E+00 0.  1.
    10030    2    1    2    0    0  0.00000000000E+00  0.00000000000E+00  0.76870303208E+03  0.92176414977E+03  0.50866963371E+03 0.  0.
        5    1    3    3  502    0 -0.20817093745E+03  0.72753265262E+02  0.15487877278E+03  0.26951382350E+03  0.46999998093E+01 0.  1.
       -5    1    3    3    0  502  0.20817093745E+03 -0.72753265262E+02  0.61382425930E+03  0.65225032626E+03  0.46999998093E+01 0. -1.
</event>
<event>
 5   0  0.1074281E-01  0.5014525E+03  0.7818609E-02  0.1013400E+00
        1   -1    0    0  501    0  0.00000000000E+00  0.00000000000E+00  0.75215234982E+03  0.75215234983E+03  0.50400001928E-02 0.  1.
       -1   -1    0    0    0  501  0.00000000000E+00  0.00000000000E+00 -0.83578346625E+02  0.83578346777E+02  0.50400001928E-02 0. -1.
    10030    2    1    2    0    0  0.00000000000E+00  0.00000000000E+00  0.66857400319E+03  0.83573069661E+03  0.50145248979E+03 0.  0.
        4    1    3    3  502    0 -0.26508694469E+02 -0.11111401937E+03 -0.37682998383E+02  0.12029404578E+03  0.12699999809E+01 0. -1.
       -4    1    3    3    0  502  0.26508694469E+02  0.11111401937E+03  0.70625700158E+03  0.71543665083E+03  0.12699999809E+01 0.  1.
</event>
<event>
 5   0  0.7220250E-02  0.4974679E+03  0.7818609E-02  0.1014442E+00
       -4   -1    0    0    0  501  0.00000000000E+00  0.00000000000E+00  0.52565494684E+03  0.52565648102E+03  0.12699999809E+01 0. -1.
        4   -1    0    0  501    0  0.00000000000E+00  0.00000000000E+00 -0.11769294611E+03  0.11769979806E+03  0.12699999809E+01 0.  1.
    10030    2    1    2    0    0  0.00000000000E+00  0.00000000000E+00  0.40796200074E+03  0.64335627908E+03  0.49746789624E+03 0.  0.
        5    1    3    3  502    0 -0.15761215556E+03  0.16353519145E+03  0.33498489829E+03  0.40474970352E+03  0.46999998093E+01 0. -1.
       -5    1    3    3    0  502  0.15761215556E+03 -0.16353519145E+03  0.72977102445E+02  0.23860657556E+03  0.46999998093E+01 0.  1.
</event>
<event>
 5   0  0.1068522E-01  0.4899579E+03  0.7818609E-02  0.1016434E+00
        1   -1    0    0  501    0  0.00000000000E+00  0.00000000000E+00  0.79789800364E+03  0.79789800366E+03  0.50400001928E-02 0.  1.
       -1   -1    0    0    0  501  0.00000000000E+00  0.00000000000E+00 -0.75215999418E+02  0.75215999586E+02  0.50400001928E-02 0. -1.
    10030    2    1    2    0    0  0.00000000000E+00  0.00000000000E+00  0.72268200422E+03  0.87311400324E+03  0.48995794047E+03 0.  0.
        2    1    3    3  502    0  0.17515884700E+03 -0.10423758665E+02  0.66598493226E+03  0.68871271691E+03  0.25500000920E-02 0.  1.
       -2    1    3    3    0  502 -0.17515884700E+03  0.10423758665E+02  0.56697071965E+02  0.18440128634E+03  0.25500000920E-02 0. -1.
</event>
<event>
 5   0  0.1147245E-01  0.4956597E+03  0.7818609E-02  0.1014918E+00
        1   -1    0    0  501    0  0.00000000000E+00  0.00000000000E+00  0.17832262984E+03  0.17832262991E+03  0.50400001928E-02 0.  1.
       -1   -1    0    0    0  501  0.00000000000E+00  0.00000000000E+00 -0.34442977889E+03  0.34442977892E+03  0.50400001928E-02 0. -1.
    10030    2    1    2    0    0  0.00000000000E+00  0.00000000000E+00 -0.16610714904E+03  0.52275240884E+03  0.49565965741E+03 0.  0.
        1    1    3    3  502    0 -0.64532093110E+02 -0.10312538260E+03  0.14466602637E+03  0.18901718120E+03  0.50400001928E-02 0.  1.
       -1    1    3    3    0  502  0.64532093110E+02  0.10312538260E+03 -0.31077317542E+03  0.33373522763E+03  0.50400001928E-02 0. -1.
</event>
<event>
 5   0  0.1123271E-01  0.4792158E+03  0.7818609E-02  0.1019351E+00
       -1   -1    0    0    0  501  0.00000000000E+00  0.00000000000E+00  0.25660731116E+03  0.25660731121E+03  0.50400001928E-02 0. -1.
        1   -1    0    0  501    0  0.00000000000E+00  0.00000000000E+00 -0.22373464462E+03  0.22373464468E+03  0.50400001928E-02 0.  1.
    10030    2    1    2    0    0  0.00000000000E+00  0.00000000000E+00  0.32872666538E+02  0.48034195589E+03  0.47921579938E+03 0.  0.
        5    1    3    3  502    0  0.94878669140E+02 -0.11627362411E+03  0.20360580656E+03  0.25298010196E+03  0.46999998093E+01 0. -1.
       -5    1    3    3    0  502 -0.94878669140E+02  0.11627362411E+03 -0.17073314002E+03  0.22736185393E+03  0.46999998093E+01 0.  1.
</event>
<event>
 5   0  0.1074281E-01  0.4907176E+03  0.7818609E-02  0.1016231E+00
        1   -1    0    0  501    0  0.00000000000E+00  0.00000000000E+00  0.31019378784E+03  0.31019378788E+03  0.50400001928E-02 0.  1.
       -1   -1    0    0    0  501  0.00000000000E+00  0.00000000000E+00 -0.19407526342E+03  0.19407526348E+03  0.50400001928E-02 0. -1.
    10030    2    1    2    0    0  0.00000000000E+00  0.00000000000E+00  0.11611852442E+03  0.50426905136E+03  0.49071760153E+03 0.  0.
        4    1    3    3  502    0 -0.22410361447E+03  0.47077176745E+02  0.14858652340E+03  0.27298032608E+03  0.12699999809E+01 0. -1.
       -4    1    3    3    0  502  0.22410361447E+03 -0.47077176745E+02 -0.32467998975E+02  0.23128872529E+03  0.12699999809E+01 0.  1.
</event>
<event>
 5   0  0.1709372E-01  0.4996807E+03  0.7818609E-02  0.1013862E+00
        2   -1    0    0  501    0  0.00000000000E+00  0.00000000000E+00  0.65021590209E+03  0.65021590210E+03  0.25500000920E-02 0.  1.
       -2   -1    0    0    0  501  0.00000000000E+00  0.00000000000E+00 -0.95999178450E+02  0.95999178484E+02  0.25500000920E-02 0. -1.
    10030    2    1    2    0    0  0.00000000000E+00  0.00000000000E+00  0.55421672364E+03  0.74621508058E+03  0.49968066775E+03 0.  0.
        4    1    3    3  502    0  0.17592385566E+03 -0.75701700563E+02  0.37520848523E+02  0.19516500053E+03  0.12699999809E+01 0. -1.
       -4    1    3    3    0  502 -0.17592385566E+03  0.75701700563E+02  0.51669587512E+03  0.55105008005E+03  0.12699999809E+01 0.  1.
</event>
<event>
 5   0  0.7220250E-02  0.4967334E+03  0.7818609E-02  0.1014635E+00
        3   -1    0    0  501    0  0.00000000000E+00  0.00000000000E+00  0.16594976048E+04  0.16594976079E+04  0.10100000352E+00 0.  1.
       -3   -1    0    0    0  501  0.00000000000E+00  0.00000000000E+00 -0.37171431966E+02  0.37171569181E+02  0.10100000352E+00 0. -1.
    10030    2    1    2    0    0  0.00000000000E+00  0.00000000000E+00  0.16223261729E+04  0.16966691771E+04  0.49673341473E+03 0.  0.
        2    1    3    3  502    0  0.14518216349E+03  0.15305217425E+03  0.36342326190E+03  0.42021339333E+03  0.25500000920E-02 0. -1.
       -2    1    3    3    0  502 -0.14518216349E+03 -0.15305217425E+03  0.12589029110E+04  0.12764557838E+04  0.25500000920E-02 0.  1.
</event>
<event>
 5   0  0.1709372E-01  0.4976442E+03  0.7818609E-02  0.1014396E+00
        2   -1    0    0  501    0  0.00000000000E+00  0.00000000000E+00  0.41708195418E+03  0.41708195419E+03  0.25500000920E-02 0.  1.
       -2   -1    0    0    0  501  0.00000000000E+00  0.00000000000E+00 -0.14844190157E+03  0.14844190159E+03  0.25500000920E-02 0. -1.
    10030    2    1    2    0    0  0.00000000000E+00  0.00000000000E+00  0.26864005261E+03  0.56552385579E+03  0.49764420382E+03 0.  0.
        4    1    3    3  502    0  0.56929978204E+02 -0.38308731034E+02 -0.13747312774E+03  0.15365238379E+03  0.12699999809E+01 0. -1.
       -4    1    3    3    0  502 -0.56929978204E+02  0.38308731034E+02  0.40611318035E+03  0.41187147200E+03  0.12699999809E+01 0.  1.
</event>
<event>
 5   0  0.1147245E-01  0.5085851E+03  0.7818609E-02  0.1011562E+00
        1   -1    0    0  501    0  0.00000000000E+00  0.00000000000E+00  0.11682381702E+03  0.11682381713E+03  0.50400001928E-02 0.  1.
       -1   -1    0    0    0  501  0.00000000000E+00  0.00000000000E+00 -0.55352332524E+03  0.55352332526E+03  0.50400001928E-02 0. -1.
    10030    2    1    2    0    0  0.00000000000E+00  0.00000000000E+00 -0.43669950822E+03  0.67034714239E+03  0.50858512644E+03 0.  0.
        1    1    3    3  502    0  0.18419130177E+03  0.53757341324E+02 -0.43830604604E+03  0.47846470864E+03  0.50400001928E-02 0. -1.
       -1    1    3    3    0  502 -0.18419130177E+03 -0.53757341324E+02  0.16065378216E+01  0.19188243375E+03  0.50400001928E-02 0.  1.
</event>
<event>
 5   0  0.1068522E-01  0.4423543E+03  0.7818609E-02  0.1030027E+00
        1   -1    0    0  501    0  0.00000000000E+00  0.00000000000E+00  0.10827373996E+04  0.10827373997E+04  0.50400001928E-02 0. -1.
       -1   -1    0    0    0  501  0.00000000000E+00  0.00000000000E+00 -0.45181156431E+02  0.45181156712E+02  0.50400001928E-02 0.  1.
    10030    2    1    2    0    0  0.00000000000E+00  0.00000000000E+00  0.10375562432E+04  0.11279185564E+04  0.44235428331E+03 0.  0.
        2    1    3    3  502    0  0.21641181576E+03  0.78115708047E+01  0.63349776609E+03  0.66948824805E+03  0.25500000920E-02 0. -1.
       -2    1    3    3    0  502 -0.21641181576E+03 -0.78115708047E+01  0.40405847713E+03  0.45843030831E+03  0.25500000920E-02 0.  1.
</event>
<event>
 5   0  0.1709372E-01  0.5002584E+03  0.7818609E-02  0.1013711E+00
        2   -1    0    0  501    0  0.00000000000E+00  0.00000000000E+00  0.43087367057E+03  0.43087367057E+03  0.25500000920E-02 0.  1.
       -2   -1    0    0    0  501  0.00000000000E+00  0.00000000000E+00 -0.14520410924E+03  0.14520410926E+03  0.25500000920E-02 0. -1.
    10030    2    1    2    0    0  0.00000000000E+00  0.00000000000E+00  0.28566956133E+03  0.57607777983E+03  0.50025844335E+03 0.  0.
        4    1    3    3  502    0 -0.14971925852E+03  0.12213961852E+03 -0.40075170422E+02  0.19733619782E+03  0.12699999809E+01 0. -1.
       -4    1    3    3    0  502  0.14971925852E+03 -0.12213961852E+03  0.32574473175E+03  0.37874158202E+03  0.12699999809E+01 0.  1.
</event>
<event>
 5   0  0.1709372E-01  0.5116145E+03  0.7818609E-02  0.1010791E+00
       -2   -1    0    0    0  501  0.00000000000E+00  0.00000000000E+00  0.62535333085E+03  0.62535333085E+03  0.25500000920E-02 0.  1.
        2   -1    0    0  501    0  0.00000000000E+00  0.00000000000E+00 -0.10464060793E+03  0.10464060796E+03  0.25500000920E-02 0. -1.
    10030    2    1    2    0    0  0.00000000000E+00  0.00000000000E+00  0.52071272292E+03  0.72999393882E+03  0.51161451397E+03 0.  0.
        4    1    3    3  502    0  0.39894217827E+01  0.18390886600E+03  0.67257018740E+01  0.18407942428E+03  0.12699999809E+01 0. -1.
       -4    1    3    3    0  502 -0.39894217827E+01 -0.18390886600E+03  0.51398702104E+03  0.54591451453E+03  0.12699999809E+01 0.  1.
</event>
<event>
 5   0  0.1760649E-01  0.4999099E+03  0.7818609E-02  0.1013802E+00
        2   -1    0    0  501    0  0.00000000000E+00  0.00000000000E+00  0.56969411880E+03  0.56969411881E+03  0.25500000920E-02 0. -1.
       -2   -1    0    0    0  501  0.00000000000E+00  0.00000000000E+00 -0.10966847902E+03  0.10966847905E+03  0.25500000920E-02 0.  1.
    10030    2    1    2    0    0  0.00000000000E+00  0.00000000000E+00  0.46002563979E+03  0.67936259785E+03  0.49990994199E+03 0.  0.
        5    1    3    3  502    0  0.14617717744E+03  0.10089246194E+03  0.46893018140E+03  0.50146252214E+03  0.46999998093E+01 0. -1.
       -5    1    3    3    0  502 -0.14617717744E+03 -0.10089246194E+03 -0.89045416136E+01  0.17790007572E+03  0.46999998093E+01 0.  1.
</event>
<event>
 5   0  0.1827698E-01  0.5170216E+03  0.7818609E-02  0.1009429E+00
       -2   -1    0    0    0  501  0.00000000000E+00  0.00000000000E+00  0.11041566215E+03  0.11041566217E+03  0.25500000920E-02 0.  1.
        2   -1    0    0  501    0  0.00000000000E+00  0.00000000000E+00 -0.60523874458E+03  0.60523874459E+03  0.25500000920E-02 0. -1.
    10030    2    1    2    0    0  0.00000000000E+00  0.00000000000E+00 -0.49482308244E+03  0.71565440676E+03  0.51702161174E+03 0.  0.
        1    1    3    3  502    0  0.15504240432E+03 -0.11630061341E+03 -0.10623134675E+02  0.19410520558E+03  0.50400001928E-02 0.  1.
       -1    1    3    3    0  502 -0.15504240432E+03  0.11630061341E+03 -0.48419994776E+03  0.52154920118E+03  0.50400001928E-02 0. -1.
</event>
<event>
 5   0  0.1123271E-01  0.4938867E+03  0.7818609E-02  0.1015387E+00
        1   -1    0    0  501    0  0.00000000000E+00  0.00000000000E+00  0.17134556133E+04  0.17134556133E+04  0.50400001928E-02 0. -1.
       -1   -1    0    0    0  501  0.00000000000E+00  0.00000000000E+00 -0.35589494869E+02  0.35589495226E+02  0.50400001928E-02 0.  1.
    10030    2    1    2    0    0  0.00000000000E+00  0.00000000000E+00  0.16778661184E+04  0.17490451085E+04  0.49388670796E+03 0.  0.
        5    1    3    3  502    0  0.43850223296E+02  0.14658887946E+03  0.15251569803E+04  0.15328199654E+04  0.46999998093E+01 0. -1.
       -5    1    3    3    0  502 -0.43850223296E+02 -0.14658887946E+03  0.15270913808E+03  0.21622514312E+03  0.46999998093E+01 0.  1.
</event>
<event>
 5   0  0.1760649E-01  0.5008029E+03  0.7818609E-02  0.1013570E+00
        2   -1    0    0  501    0  0.00000000000E+00  0.00000000000E+00  0.93470312837E+03  0.93470312837E+03  0.25500000920E-02 0.  1.
       -2   -1    0    0    0  501  0.00000000000E+00  0.00000000000E+00 -0.67081073304E+02  0.67081073353E+02  0.25500000920E-02 0. -1.
    10030    2    1    2    0    0  0.00000000000E+00  0.00000000000E+00  0.86762205506E+03  0.10017842017E+04  0.50080291172E+03 0.  0.
        5    1    3    3  502    0 -0.11557837863E+03  0.31852394100E+02  0.87346120583E+03  0.88166292011E+03  0.46999998093E+01 0.  1.
       -5    1    3    3    0  502  0.11557837863E+03 -0.31852394100E+02 -0.58391507628E+01  0.12012128161E+03  0.46999998093E+01 0. -1.
</event>
<event>
 5   0  0.7220250E-02  0.5022326E+03  0.7818609E-02  0.1013198E+00
        4   -1    0    0  501    0  0.00000000000E+00  0.00000000000E+00  0.89231417980E+02  0.89240455258E+02  0.12699999809E+01 0.  1.
       -4   -1    0    0    0  501  0.00000000000E+00  0.00000000000E+00 -0.70664950980E+03  0.70665065103E+03  0.12699999809E+01 0. -1.
    10030    2    1    2    0    0  0.00000000000E+00  0.00000000000E+00 -0.61741809182E+03  0.79589110629E+03  0.50223256860E+03 0.  0.
        4    1    3    3  502    0 -0.33107311310E+02  0.36124866370E+02 -0.69899963598E+03  0.70071620792E+03  0.12699999809E+01 0. -1.
       -4    1    3    3    0  502  0.33107311310E+02 -0.36124866370E+02  0.81581544162E+02  0.95174898372E+02  0.12699999809E+01 0.  1.
</event>
<event>
 5   0  0.1760649E-01  0.5060766E+03  0.7818609E-02  0.1012205E+00
       -2   -1    0    0    0  501  0.00000000000E+00  0.00000000000E+00  0.27677777668E+02  0.27677777786E+02  0.25500000920E-02 0.  1.
        2   -1    0    0  501    0  0.00000000000E+00  0.00000000000E+00 -0.23133495406E+04  0.23133495406E+04  0.25500000920E-02 0. -1.
    10030    2    1    2    0    0  0.00000000000E+00  0.00000000000E+00 -0.22856717629E+04  0.23410273184E+04  0.50607657283E+03 0.  0.
        5    1    3    3  502    0  0.96372021269E+02  0.14093159773E+03 -0.27919087159E+03  0.32729026032E+03  0.46999998093E+01 0.  1.
       -5    1    3    3    0  502 -0.96372021269E+02 -0.14093159773E+03 -0.20064808913E+04  0.20137370580E+04  0.46999998093E+01 0. -1.
</event>
<event>
 5   0  0.1147245E-01  0.4961431E+03  0.7818609E-02  0.1014791E+00
        1   -1    0    0  501    0  0.00000000000E+00  0.00000000000E+00  0.11635732999E+03  0.11635733010E+03  0.50400001928E-02 0. -1.
       -1   -1    0    0    0  501  0.00000000000E+00  0.00000000000E+00 -0.52888375401E+03  0.52888375403E+03  0.50400001928E-02 0.  1.
    10030    2    1    2    0    0  0.00000000000E+00  0.00000000000E+00 -0.41252642402E+03  0.64524108413E+03  0.49614313069E+03 0.  0.
        1    1    3    3  502    0  0.11489637668E+03  0.47780966823E+02 -0.48536000941E+03  0.50105741879E+03  0.50400001928E-02 0.  1.
       -1    1    3    3    0  502 -0.11489637668E+03 -0.47780966823E+02  0.72833585390E+02  0.14418366534E+03  0.50400001928E-02 0. -1.
</event>
<event>
 5   0  0.1068522E-01  0.4961892E+03  0.7818609E-02  0.1014778E+00
       -1   -1    0    0    0  501  0.00000000000E+00  0.00000000000E+00  0.12062242364E+03  0.12062242375E+03  0.50400001928E-02 0.  1.
        1   -1    0    0  501    0  0.00000000000E+00  0.00000000000E+00 -0.51027772120E+03  0.51027772123E+03  0.50400001928E-02 0. -1.
    10030    2    1    2    0    0  0.00000000000E+00  0.00000000000E+00 -0.38965529756E+03  0.63090014497E+03  0.49618921996E+03 0.  0.
        2    1    3    3  502    0 -0.73819285078E+02  0.12151610135E+02 -0.49559370512E+03  0.50120860831E+03  0.25500000920E-02 0. -1.
       -2    1    3    3    0  502  0.73819285078E+02 -0.12151610135E+02  0.10593840756E+03  0.12969153666E+03  0.25500000920E-02 0.  1.
</event>
<event>
 5   0  0.1141970E-01  0.5123526E+03  0.7818609E-02  0.1010604E+00
        1   -1    0    0  501    0  0.00000000000E+00  0.00000000000E+00  0.22817776602E+03  0.22817776607E+03  0.50400001928E-02 0.  1.
       -1   -1    0    0    0  501  0.00000000000E+00  0.00000000000E+00 -0.28761040921E+03  0.28761040926E+03  0.50400001928E-02 0. -1.
    10030    2    1    2    0    0  0.00000000000E+00  0.00000000000E+00 -0.59432643194E+02  0.51578817533E+03  0.51235261562E+03 0.  0.
        3    1    3    3  502    0  0.13775382771E+03 -0.11003561773E+03 -0.21681825604E+03  0.27945325293E+03  0.10100000352E+00 0. -1.
       -3    1    3    3    0  502 -0.13775382771E+03  0.11003561773E+03  0.15738561285E+03  0.23633492241E+03  0.10100000352E+00 0.  1.
</event>
<event>
 5   0  0.7220250E-02  0.5001290E+03  0.7818609E-02  0.1013745E+00
        3   -1    0    0  501    0  0.00000000000E+00  0.00000000000E+00  0.97284590547E+03  0.97284591072E+03  0.10100000352E+00 0.  1.
       -3   -1    0    0    0  501  0.00000000000E+00  0.00000000000E+00 -0.64277605680E+02  0.64277685031E+02  0.10100000352E+00 0. -1.
    10030    2    1    2    0    0  0.00000000000E+00  0.00000000000E+00  0.90856829979E+03  0.10371235957E+04  0.50012898083E+03 0.  0.
        3    1    3    3  502    0 -0.10328610693E+03 -0.14961857154E+03  0.98242174884E+02  0.20665253921E+03  0.10100000352E+00 0. -1.
       -3    1    3    3    0  502  0.10328610693E+03  0.14961857154E+03  0.81032612491E+03  0.83047105654E+03  0.10100000352E+00 0.  1.
</event>
<event>
 5   0  0.1141970E-01  0.5094801E+03  0.7818609E-02  0.1011334E+00
       -1   -1    0    0    0  501  0.00000000000E+00  0.00000000000E+00  0.19461746269E+03  0.19461746275E+03  0.50400001928E-02 0. -1.
        1   -1    0    0  501    0  0.00000000000E+00  0.00000000000E+00 -0.33343612791E+03  0.33343612795E+03  0.50400001928E-02 0.  1.
    10030    2    1    2    0    0  0.00000000000E+00  0.00000000000E+00 -0.13881866523E+03  0.52805359070E+03  0.50948010053E+03 0.  0.
        3    1    3    3  502    0  0.12156767410E+03  0.22108006802E+03 -0.10586823374E+03  0.27361138313E+03  0.10100000352E+00 0.  1.
       -3    1    3    3    0  502 -0.12156767410E+03 -0.22108006802E+03 -0.32950431489E+02  0.25444220758E+03  0.10100000352E+00 0. -1.
</event>
<event>
 5   0  0.1683148E-01  0.5033368E+03  0.7818609E-02  0.1012912E+00
        2   -1    0    0  501    0  0.00000000000E+00  0.00000000000E+00  0.13058306419E+04  0.13058306419E+04  0.25500000920E-02 0. -1.
       -2   -1    0    0    0  501  0.00000000000E+00  0.00000000000E+00 -0.48503206562E+02  0.48503206629E+02  0.25500000920E-02 0.  1.
    10030    2    1    2    0    0  0.00000000000E+00  0.00000000000E+00  0.12573274353E+04  0.13543338485E+04  0.50333675965E+03 0.  0.
        2    1    3    3  502    0 -0.11983240551E+03 -0.20866235283E+03  0.43025792005E+03  0.49297227171E+03  0.25500000920E-02 0. -1.
       -2    1    3    3    0  502  0.11983240551E+03  0.20866235283E+03  0.82706951526E+03  0.86136157680E+03  0.25500000920E-02 0.  1.
</event>
<event>
 5   0  0.1141970E-01  0.4976270E+03  0.7818609E-02  0.1014400E+00
       -1   -1    0    0    0  501  0.00000000000E+00  0.00000000000E+00  0.31701371889E+03  0.31701371893E+03  0.50400001928E-02 0. -1.
        1   -1    0    0  501    0  0.00000000000E+00  0.00000000000E+00 -0.19528542196E+03  0.19528542202E+03  0.50400001928E-02 0.  1.
    10030    2    1    2    0    0  0.00000000000E+00  0.00000000000E+00  0.12172829693E+03  0.51229914095E+03  0.49762700042E+03 0.  0.
        3    1    3    3  502    0 -0.58751474487E+02  0.17713863531E+03 -0.10854252546E+03  0.21589655372E+03  0.10100000352E+00 0.  1.
       -3    1    3    3    0  502  0.58751474487E+02 -0.17713863531E+03  0.23027082239E+03  0.29640258723E+03  0.10100000352E+00 0. -1.
</event>
<event>
 5   0  0.7220250E-02  0.5104284E+03  0.7818609E-02  0.1011092E+00
        4   -1    0    0  501    0  0.00000000000E+00  0.00000000000E+00  0.57061706383E+03  0.57061847713E+03  0.12699999809E+01 0. -1.
       -4   -1    0    0    0  501  0.00000000000E+00  0.00000000000E+00 -0.11414200246E+03  0.11414906757E+03  0.12699999809E+01 0.  1.
    10030    2    1    2    0    0  0.00000000000E+00  0.00000000000E+00  0.45647506137E+03  0.68476754469E+03  0.51042835796E+03 0.  0.
        5    1    3    3  502    0  0.13053949808E+03 -0.18706355884E+03  0.38166148747E+03  0.44465820201E+03  0.46999998093E+01 0. -1.
       -5    1    3    3    0  502 -0.13053949808E+03  0.18706355884E+03  0.74813573905E+02  0.24010934268E+03  0.46999998093E+01 0.  1.
</event>
<event>
 5   0  0.1147245E-01  0.5029885E+03  0.7818609E-02  0.1013002E+00
        1   -1    0    0  501    0  0.00000000000E+00  0.00000000000E+00  0.75296560552E+02  0.75296560721E+02  0.50400001928E-02 0.  1.
       -1   -1    0    0    0  501  0.00000000000E+00  0.00000000000E+00 -0.84000339061E+03  0.84000339063E+03  0.50400001928E-02 0. -1.
    10030    2    1    2    0    0  0.00000000000E+00  0.00000000000E+00 -0.76470683006E+03  0.91529995135E+03  0.50298853367E+03 0.  0.
        1    1    3    3  502    0 -0.15552953837E+02 -0.61516732125E+02  0.60490983416E+02  0.87666195334E+02  0.50400001928E-02 0.  1.
       -1    1    3    3    0  502  0.15552953837E+02  0.61516732125E+02 -0.82519781348E+03  0.82763375601E+03  0.50400001928E-02 0. -1.
</event>
<event>
 5   0  0.1827698E-01  0.4818308E+03  0.7818609E-02  0.1018633E+00
        2   -1    0    0  501    0  0.00000000000E+00  0.00000000000E+00  0.21618494108E+03  0.21618494109E+03  0.25500000920E-02 0.  1.
       -2   -1    0    0    0  501  0.00000000000E+00  0.00000000000E+00 -0.26847490886E+03  0.26847490888E+03  0.25500000920E-02 0. -1.
    10030    2    1    2    0    0  0.00000000000E+00  0.00000000000E+00 -0.52289967787E+02  0.48465984997E+03  0.48183080997E+03 0.  0.
        1    1    3    3  502    0 -0.13371126516E+03  0.10561983553E+00 -0.22772503014E+03  0.26407840307E+03  0.50400001928E-02 0. -1.
       -1    1    3    3    0  502  0.13371126516E+03 -0.10561983553E+00  0.17543506236E+03  0.22058144690E+03  0.50400001928E-02 0.  1.
</event>
<event>
 5   0  0.1683148E-01  0.5048823E+03  0.7818609E-02  0.1012512E+00
       -2   -1    0    0    0  501  0.00000000000E+00  0.00000000000E+00  0.29185159464E+02  0.29185159575E+02  0.25500000920E-02 0. -1.
        2   -1    0    0  501    0  0.00000000000E+00  0.00000000000E+00 -0.21835250136E+04  0.21835250136E+04  0.25500000920E-02 0.  1.
    10030    2    1    2    0    0  0.00000000000E+00  0.00000000000E+00 -0.21543398542E+04  0.22127101732E+04  0.50488226684E+03 0.  0.
        2    1    3    3  502    0  0.12649401037E+03  0.69122013899E+02 -0.16891957244E+03  0.22206397597E+03  0.25500000920E-02 0. -1.
       -2    1    3    3    0  502 -0.12649401037E+03 -0.69122013899E+02 -0.19854202817E+04  0.19906461973E+04  0.25500000920E-02 0.  1.
</event>
<event>
 5   0  0.7220250E-02  0.5060822E+03  0.7818609E-02  0.1012203E+00
       -3   -1    0    0    0  501  0.00000000000E+00  0.00000000000E+00  0.22232910219E+03  0.22232912514E+03  0.10100000352E+00 0.  1.
        3   -1    0    0  501    0  0.00000000000E+00  0.00000000000E+00 -0.28799550368E+03  0.28799552139E+03  0.10100000352E+00 0. -1.
    10030    2    1    2    0    0  0.00000000000E+00  0.00000000000E+00 -0.65666401487E+02  0.51032464653E+03  0.50608217571E+03 0.  0.
        3    1    3    3  502    0  0.15231667379E+03 -0.24563510889E+01  0.17090852346E+03  0.22894570615E+03  0.10100000352E+00 0.  1.
       -3    1    3    3    0  502 -0.15231667379E+03  0.24563510889E+01 -0.23657492494E+03  0.28137894038E+03  0.10100000352E+00 0. -1.
</event>
<event>
 5   0  0.1141970E-01  0.4525714E+03  0.7818609E-02  0.1026958E+00
       -1   -1    0    0    0  501  0.00000000000E+00  0.00000000000E+00  0.28190222681E+03  0.28190222685E+03  0.50400001928E-02 0.  1.
        1   -1    0    0  501    0  0.00000000000E+00  0.00000000000E+00 -0.18164175208E+03  0.18164175215E+03  0.50400001928E-02 0. -1.
    10030    2    1    2    0    0  0.00000000000E+00  0.00000000000E+00  0.10026047473E+03  0.46354397900E+03  0.45257138406E+03 0.  0.
        3    1    3    3  502    0 -0.17263264264E+03 -0.12137181357E+03  0.13379329902E+03  0.24986757192E+03  0.10100000352E+00 0.  1.
       -3    1    3    3    0  502  0.17263264264E+03  0.12137181357E+03 -0.33532824292E+02  0.21367640707E+03  0.10100000352E+00 0. -1.
</event>
<event>
 5   0  0.1827698E-01  0.4970434E+03  0.7818609E-02  0.1014554E+00
       -2   -1    0    0    0  501  0.00000000000E+00  0.00000000000E+00  0.21009273376E+03  0.21009273377E+03  0.25500000920E-02 0. -1.
        2   -1    0    0  501    0  0.00000000000E+00  0.00000000000E+00 -0.29397984934E+03  0.29397984935E+03  0.25500000920E-02 0.  1.
    10030    2    1    2    0    0  0.00000000000E+00  0.00000000000E+00 -0.83887115582E+02  0.50407258312E+03  0.49704337929E+03 0.  0.
        1    1    3    3  502    0 -0.31323795563E+02  0.73939633827E+02 -0.28046058081E+03  0.29172998995E+03  0.50400001928E-02 0.  1.
       -1    1    3    3    0  502  0.31323795563E+02 -0.73939633827E+02  0.19657346523E+03  0.21234259318E+03  0.50400001928E-02 0. -1.
</event>
<event>
 5   0  0.1147245E-01  0.4987400E+03  0.7818609E-02  0.1014108E+00
       -1   -1    0    0    0  501  0.00000000000E+00  0.00000000000E+00  0.52398560684E+03  0.52398560686E+03  0.50400001928E-02 0. -1.
        1   -1    0    0  501    0  0.00000000000E+00  0.00000000000E+00 -0.11867766777E+03  0.11867766788E+03  0.50400001928E-02 0.  1.
    10030    2    1    2    0    0  0.00000000000E+00  0.00000000000E+00  0.40530793906E+03  0.64266327474E+03  0.49873997156E+03 0.  0.
        1    1    3    3  502    0 -0.10509956461E+03 -0.15053458623E+03  0.42010938259E+03  0.45847407070E+03  0.50400001928E-02 0. -1.
       -1    1    3    3    0  502  0.10509956461E+03  0.15053458623E+03 -0.14801443530E+02  0.18418920405E+03  0.50400001928E-02 0.  1.
</event>
<event>
 5   0  0.1141970E-01  0.4731751E+03  0.7818609E-02  0.1021028E+00
       -1   -1    0    0    0  501  0.00000000000E+00  0.00000000000E+00  0.29876808551E+03  0.29876808555E+03  0.50400001928E-02 0. -1.
        1   -1    0    0  501    0  0.00000000000E+00  0.00000000000E+00 -0.18734823099E+03  0.18734823106E+03  0.50400001928E-02 0.  1.
    10030    2    1    2    0    0  0.00000000000E+00  0.00000000000E+00  0.11141985452E+03  0.48611631662E+03  0.47317511484E+03 0.  0.
        3    1    3    3  502    0  0.19055505768E+03 -0.10830821572E+02 -0.87917550249E+02  0.21013815110E+03  0.10100000352E+00 0.  1.
       -3    1    3    3    0  502 -0.19055505768E+03  0.10830821572E+02  0.19933740477E+03  0.27597816552E+03  0.10100000352E+00 0. -1.
</event>
<event>
 5   0  0.1709372E-01  0.5085384E+03  0.7818609E-02  0.1011574E+00
        2   -1    0    0  501    0  0.00000000000E+00  0.00000000000E+00  0.17237875366E+04  0.17237875366E+04  0.25500000920E-02 0.  1.
       -2   -1    0    0    0  501  0.00000000000E+00  0.00000000000E+00 -0.37506255315E+02  0.37506255402E+02  0.25500000920E-02 0. -1.
    10030    2    1    2    0    0  0.00000000000E+00  0.00000000000E+00  0.16862812813E+04  0.17612937920E+04  0.50853835857E+03 0.  0.
        4    1    3    3  502    0  0.58676194037E+02  0.16982525594E+03  0.22003176714E+03  0.28407587851E+03  0.12699999809E+01 0. -1.
       -4    1    3    3    0  502 -0.58676194037E+02 -0.16982525594E+03  0.14662495141E+04  0.14772179135E+04  0.12699999809E+01 0.  1.
</event>
<event>
 5   0  0.1760649E-01  0.4981790E+03  0.7818609E-02  0.1014255E+00
        2   -1    0    0  501    0  0.00000000000E+00  0.00000000000E+00  0.16569316152E+04  0.16569316152E+04  0.25500000920E-02 0.  1.
       -2   -1    0    0    0  501  0.00000000000E+00  0.00000000000E+00 -0.37446077968E+02  0.37446078055E+02  0.25500000920E-02 0. -1.
    10030    2    1    2    0    0  0.00000000000E+00  0.00000000000E+00  0.16194855372E+04  0.16943776932E+04  0.49817904622E+03 0.  0.
        5    1    3    3  502    0 -0.17134893621E+03 -0.13931890647E+03  0.12012921436E+04  0.12214315863E+04  0.46999998093E+01 0. -1.
       -5    1    3    3    0  502  0.17134893621E+03  0.13931890647E+03  0.41819339359E+03  0.47294610696E+03  0.46999998093E+01 0.  1.
</event>
<event>
 5   0  0.1123271E-01  0.4546516E+03  0.7818609E-02  0.1026344E+00
        1   -1    0    0  501    0  0.00000000000E+00  0.00000000000E+00  0.12501348495E+04  0.12501348495E+04  0.50400001928E-02 0. -1.
       -1   -1    0    0    0  501  0.00000000000E+00  0.00000000000E+00 -0.41337163609E+02  0.41337163917E+02  0.50400001928E-02 0.  1.
    10030    2    1    2    0    0  0.00000000000E+00  0.00000000000E+00  0.12087976859E+04  0.12914720134E+04  0.45465164252E+03 0.  0.
        5    1    3    3  502    0 -0.78909309471E+02 -0.11887214971E+03  0.10186854394E+03  0.17537547531E+03  0.46999998093E+01 0.  1.
       -5    1    3    3    0  502  0.78909309471E+02  0.11887214971E+03  0.11069291419E+04  0.11160965381E+04  0.46999998093E+01 0. -1.
</event>
<event>
 5   0  0.1827698E-01  0.4941512E+03  0.7818609E-02  0.1015317E+00
        2   -1    0    0  501    0  0.00000000000E+00  0.00000000000E+00  0.18810935463E+03  0.18810935464E+03  0.25500000920E-02 0. -1.
       -2   -1    0    0    0  501  0.00000000000E+00  0.00000000000E+00 -0.32452587328E+03  0.32452587329E+03  0.25500000920E-02 0.  1.
    10030    2    1    2    0    0  0.00000000000E+00  0.00000000000E+00 -0.13641651865E+03  0.51263522793E+03  0.49415120192E+03 0.  0.
        1    1    3    3  502    0 -0.87836789639E+02 -0.20787138851E+03 -0.17257217499E+03  0.28408972418E+03  0.50400001928E-02 0.  1.
       -1    1    3    3    0  502  0.87836789639E+02  0.20787138851E+03  0.36155656331E+02  0.22854550376E+03  0.50400001928E-02 0. -1.
</event>
<event>
 5   0  0.1760649E-01  0.5292917E+03  0.7818609E-02  0.1006404E+00
        2   -1    0    0  501    0  0.00000000000E+00  0.00000000000E+00  0.69990211900E+03  0.69990211901E+03  0.25500000920E-02 0.  1.
       -2   -1    0    0    0  501  0.00000000000E+00  0.00000000000E+00 -0.10006744259E+03  0.10006744262E+03  0.25500000920E-02 0. -1.
    10030    2    1    2    0    0  0.00000000000E+00  0.00000000000E+00  0.59983467641E+03  0.79996956163E+03  0.52929165921E+03 0.  0.
        5    1    3    3  502    0  0.12880785751E+03 -0.78602265727E+02  0.62843509072E+03  0.64631457788E+03  0.46999998093E+01 0.  1.
       -5    1    3    3    0  502 -0.12880785751E+03  0.78602265727E+02 -0.28600414311E+02  0.15365498375E+03  0.46999998093E+01 0. -1.
</event>
<event>
 5   0  0.1709372E-01  0.5030026E+03  0.7818609E-02  0.1012998E+00
       -2   -1    0    0    0  501  0.00000000000E+00  0.00000000000E+00  0.48757432582E+02  0.48757432649E+02  0.25500000920E-02 0.  1.
        2   -1    0    0  501    0  0.00000000000E+00  0.00000000000E+00 -0.12972978706E+04  0.12972978706E+04  0.25500000920E-02 0. -1.
    10030    2    1    2    0    0  0.00000000000E+00  0.00000000000E+00 -0.12485404380E+04  0.13460553032E+04  0.50300263820E+03 0.  0.
        4    1    3    3  502    0  0.23266339234E+03  0.84731883817E+02 -0.74212402605E+03  0.78234354935E+03  0.12699999809E+01 0. -1.
       -4    1    3    3    0  502 -0.23266339234E+03 -0.84731883817E+02 -0.50641641195E+03  0.56371175388E+03  0.12699999809E+01 0.  1.
</event>
<event>
 5   0  0.1141970E-01  0.4674947E+03  0.7818609E-02  0.1022630E+00
       -1   -1    0    0    0  501  0.00000000000E+00  0.00000000000E+00  0.80441274358E+02  0.80441274516E+02  0.50400001928E-02 0.  1.
        1   -1    0    0  501    0  0.00000000000E+00  0.00000000000E+00 -0.67922618817E+03  0.67922618819E+03  0.50400001928E-02 0. -1.
    10030    2    1    2    0    0  0.00000000000E+00  0.00000000000E+00 -0.59878491382E+03  0.75966746271E+03  0.46749468541E+03 0.  0.
        3    1    3    3  502    0  0.18730367580E+03 -0.41740997458E+02 -0.51626937627E+03  0.55078040716E+03  0.10100000352E+00 0. -1.
       -3    1    3    3    0  502 -0.18730367580E+03  0.41740997458E+02 -0.82515537545E+02  0.20888705555E+03  0.10100000352E+00 0.  1.
</event>
<event>
 5   0  0.1141970E-01  0.4980114E+03  0.7818609E-02  0.1014299E+00
        1   -1    0    0  501    0  0.00000000000E+00  0.00000000000E+00  0.86540627430E+02  0.86540627577E+02  0.50400001928E-02 0.  1.
       -1   -1    0    0    0  501  0.00000000000E+00  0.00000000000E+00 -0.71647098757E+03  0.71647098759E+03  0.50400001928E-02 0. -1.
    10030    2    1    2    0    0  0.00000000000E+00  0.00000000000E+00 -0.62993036014E+03  0.80301161516E+03  0.49801144110E+03 0.  0.
        3    1    3    3  502    0 -0.18554730637E+03 -0.14064171700E+03 -0.45733464085E+03  0.51318893147E+03  0.10100000352E+00 0. -1.
       -3    1    3    3    0  502  0.18554730637E+03  0.14064171700E+03 -0.17259571929E+03  0.28982268369E+03  0.10100000352E+00 0.  1.
</event>
<event>
 5   0  0.1782124E-01  0.4879957E+03  0.7818609E-02  0.1016961E+00
       -2   -1    0    0    0  501  0.00000000000E+00  0.00000000000E+00  0.96962702686E+02  0.96962702719E+02  0.25500000920E-02 0. -1.
        2   -1    0    0  501    0  0.00000000000E+00  0.00000000000E+00 -0.61399858571E+03  0.61399858571E+03  0.25500000920E-02 0.  1.
    10030    2    1    2    0    0  0.00000000000E+00  0.00000000000E+00 -0.51703588302E+03  0.71096128843E+03  0.48799574723E+03 0.  0.
        3    1    3    3  502    0 -0.15943518498E+03 -0.22376957258E+02 -0.52563042550E+03  0.54973417288E+03  0.10100000352E+00 0.  1.
       -3    1    3    3    0  502  0.15943518498E+03  0.22376957258E+02  0.85945424758E+01  0.16122711555E+03  0.10100000352E+00 0. -1.
</event>
<event>
 5   0  0.1709372E-01  0.4964704E+03  0.7818609E-02  0.1014704E+00
        2   -1    0    0  501    0  0.00000000000E+00  0.00000000000E+00  0.13949457268E+04  0.13949457268E+04  0.25500000920E-02 0. -1.
       -2   -1    0    0    0  501  0.00000000000E+00  0.00000000000E+00 -0.44174281042E+02  0.44174281116E+02  0.25500000920E-02 0.  1.
    10030    2    1    2    0    0  0.00000000000E+00  0.00000000000E+00  0.13507714458E+04  0.14391200080E+04  0.49647044073E+03 0.  0.
        4    1    3    3  502    0 -0.62898659164E+02  0.21081067287E+03  0.34207616533E+03  0.40671254826E+03  0.12699999809E+01 0. -1.
       -4    1    3    3    0  502  0.62898659164E+02 -0.21081067287E+03  0.10086952805E+04  0.10324074597E+04  0.12699999809E+01 0.  1.
</event>
<event>
 5   0  0.1068522E-01  0.4965196E+03  0.7818609E-02  0.1014691E+00
        1   -1    0    0  501    0  0.00000000000E+00  0.00000000000E+00  0.44942326206E+03  0.44942326209E+03  0.50400001928E-02 0. -1.
       -1   -1    0    0    0  501  0.00000000000E+00  0.00000000000E+00 -0.13713781076E+03  0.13713781085E+03  0.50400001928E-02 0.  1.
    10030    2    1    2    0    0  0.00000000000E+00  0.00000000000E+00  0.31228545130E+03  0.58656107294E+03  0.49651957584E+03 0.  0.
        2    1    3    3  502    0  0.54180163000E+02 -0.17900799903E+03 -0.36722772505E+02  0.19059883475E+03  0.25500000920E-02 0.  1.
       -2    1    3    3    0  502 -0.54180163000E+02  0.17900799903E+03  0.34900822381E+03  0.39596223819E+03  0.25500000920E-02 0. -1.
</event>
<event>
 5   0  0.1147245E-01  0.5031999E+03  0.7818609E-02  0.1012947E+00
        1   -1    0    0  501    0  0.00000000000E+00  0.00000000000E+00  0.10680543845E+03  0.10680543857E+03  0.50400001928E-02 0. -1.
       -1   -1    0    0    0  501  0.00000000000E+00  0.00000000000E+00 -0.59269013898E+03  0.59269013900E+03  0.50400001928E-02 0.  1.
    10030    2    1    2    0    0  0.00000000000E+00  0.00000000000E+00 -0.48588470052E+03  0.69949557757E+03  0.50319988159E+03 0.  0.
        1    1    3    3  502    0  0.24314042448E+03  0.28631997901E+02 -0.32358550138E+03  0.40576425920E+03  0.50400001928E-02 0. -1.
       -1    1    3    3    0  502 -0.24314042448E+03 -0.28631997901E+02 -0.16229919915E+03  0.29373131837E+03  0.50400001928E-02 0.  1.
</event>
<event>
 5   0  0.7220250E-02  0.5087570E+03  0.7818609E-02  0.1011518E+00
       -4   -1    0    0    0  501  0.00000000000E+00  0.00000000000E+00  0.42099618584E+03  0.42099810141E+03  0.12699999809E+01 0. -1.
        4   -1    0    0  501    0  0.00000000000E+00  0.00000000000E+00 -0.15369821644E+03  0.15370346332E+03  0.12699999809E+01 0.  1.
    10030    2    1    2    0    0  0.00000000000E+00  0.00000000000E+00  0.26729796941E+03  0.57470156473E+03  0.50875699902E+03 0.  0.
        5    1    3    3  502    0  0.35675253987E+02  0.15615537443E+03 -0.89516119562E+02  0.18355503363E+03  0.46999998093E+01 0.  1.
       -5    1    3    3    0  502 -0.35675253987E+02 -0.15615537443E+03  0.35681408897E+03  0.39114653110E+03  0.46999998093E+01 0. -1.
</event>
<event>
 5   0  0.7220250E-02  0.5053107E+03  0.7818609E-02  0.1012402E+00
       -3   -1    0    0    0  501  0.00000000000E+00  0.00000000000E+00  0.73933532436E+02  0.73933601423E+02  0.10100000352E+00 0.  1.
        3   -1    0    0  501    0  0.00000000000E+00  0.00000000000E+00 -0.86340663812E+03  0.86340664402E+03  0.10100000352E+00 0. -1.
    10030    2    1    2    0    0  0.00000000000E+00  0.00000000000E+00 -0.78947310568E+03  0.93734024545E+03  0.50531074711E+03 0.  0.
        2    1    3    3  502    0 -0.18263347686E+03  0.10368562583E+03 -0.13418616330E+03  0.24922203414E+03  0.25500000920E-02 0.  1.
       -2    1    3    3    0  502  0.18263347686E+03 -0.10368562583E+03 -0.65528694238E+03  0.68811821131E+03  0.25500000920E-02 0. -1.
</event>
<event>
 5   0  0.1709372E-01  0.5024234E+03  0.7818609E-02  0.1013148E+00
        2   -1    0    0  501    0  0.00000000000E+00  0.00000000000E+00  0.92850106790E+03  0.92850106790E+03  0.25500000920E-02 0.  1.
       -2   -1    0    0    0  501  0.00000000000E+00  0.00000000000E+00 -0.67966889433E+02  0.67966889481E+02  0.25500000920E-02 0. -1.
    10030    2    1    2    0    0  0.00000000000E+00  0.00000000000E+00  0.86053417846E+03  0.99646795738E+03  0.50242344470E+03 0.  0.
        4    1    3    3  502    0  0.88054491201E+02  0.54864732804E+02  0.88401906836E+03  0.89008710723E+03  0.12699999809E+01 0.  1.
       -4    1    3    3    0  502 -0.88054491201E+02 -0.54864732804E+02 -0.23484889896E+02  0.10638085016E+03  0.12699999809E+01 0. -1.
</event>
<event>
 5   0  0.1709372E-01  0.5032610E+03  0.7818609E-02  0.1012931E+00
       -2   -1    0    0    0  501  0.00000000000E+00  0.00000000000E+00  0.40473611303E+02  0.40473611384E+02  0.25500000920E-02 0.  1.
        2   -1    0    0  501    0  0.00000000000E+00  0.00000000000E+00 -0.15644246095E+04  0.15644246095E+04  0.25500000920E-02 0. -1.
    10030    2    1    2    0    0  0.00000000000E+00  0.00000000000E+00 -0.15239509982E+04  0.16048982209E+04  0.50326102025E+03 0.  0.
        4    1    3    3  502    0 -0.13523717691E+03 -0.12761418419E+03 -0.13026194961E+04  0.13158243190E+04  0.12699999809E+01 0. -1.
       -4    1    3    3    0  502  0.13523717691E+03  0.12761418419E+03 -0.22133150217E+03  0.28907390193E+03  0.12699999809E+01 0.  1.
</event>
<event>
 5   0  0.1760649E-01  0.4994391E+03  0.7818609E-02  0.1013925E+00
        2   -1    0    0  501    0  0.00000000000E+00  0.00000000000E+00  0.10355441303E+04  0.10355441303E+04  0.25500000920E-02 0. -1.
       -2   -1    0    0    0  501  0.00000000000E+00  0.00000000000E+00 -0.60219410422E+02  0.60219410476E+02  0.25500000920E-02 0.  1.
    10030    2    1    2    0    0  0.00000000000E+00  0.00000000000E+00  0.97532471985E+03  0.10957635408E+04  0.49943911350E+03 0.  0.
        5    1    3    3  502    0 -0.95607530353E+02 -0.18589297625E+03  0.18811451320E+03  0.28125817065E+03  0.46999998093E+01 0.  1.
       -5    1    3    3    0  502  0.95607530353E+02  0.18589297625E+03  0.78721020665E+03  0.81450537011E+03  0.46999998093E+01 0. -1.
</event>
<event>
 5   0  0.7220250E-02  0.4985476E+03  0.7818609E-02  0.1014159E+00
        3   -1    0    0  501    0  0.00000000000E+00  0.00000000000E+00  0.38170779918E+03  0.38170781254E+03  0.10100000352E+00 0.  1.
       -3   -1    0    0    0  501  0.00000000000E+00  0.00000000000E+00 -0.16278788459E+03  0.16278791592E+03  0.10100000352E+00 0. -1.
    10030    2    1    2    0    0  0.00000000000E+00  0.00000000000E+00  0.21891991459E+03  0.54449572846E+03  0.49854755973E+03 0.  0.
        4    1    3    3  502    0 -0.31173874269E+02  0.81681152384E+02  0.36440993998E+03  0.37475303648E+03  0.12699999809E+01 0.  1.
       -4    1    3    3    0  502  0.31173874269E+02 -0.81681152384E+02 -0.14549002540E+03  0.16974269198E+03  0.12699999809E+01 0. -1.
</event>
<event>
 5   0  0.1141970E-01  0.4968383E+03  0.7818609E-02  0.1014607E+00
       -1   -1    0    0    0  501  0.00000000000E+00  0.00000000000E+00  0.15377066155E+03  0.15377066163E+03  0.50400001928E-02 0. -1.
        1   -1    0    0  501    0  0.00000000000E+00  0.00000000000E+00 -0.40132540203E+03  0.40132540206E+03  0.50400001928E-02 0.  1.
    10030    2    1    2    0    0  0.00000000000E+00  0.00000000000E+00 -0.24755474048E+03  0.55509606369E+03  0.49683829400E+03 0.  0.
        3    1    3    3  502    0  0.20689591095E+03 -0.30859225346E+02  0.25926115925E+02  0.21078515945E+03  0.10100000352E+00 0. -1.
       -3    1    3    3    0  502 -0.20689591095E+03  0.30859225346E+02 -0.27348085640E+03  0.34431090424E+03  0.10100000352E+00 0.  1.
</event>
<event>
 5   0  0.1068522E-01  0.4891930E+03  0.7818609E-02  0.1016639E+00
       -1   -1    0    0    0  501  0.00000000000E+00  0.00000000000E+00  0.17079964979E+03  0.17079964986E+03  0.50400001928E-02 0.  1.
        1   -1    0    0  501    0  0.00000000000E+00  0.00000000000E+00 -0.35027845998E+03  0.35027846002E+03  0.50400001928E-02 0. -1.
    10030    2    1    2    0    0  0.00000000000E+00  0.00000000000E+00 -0.17947881019E+03  0.52107810988E+03  0.48919296120E+03 0.  0.
        2    1    3    3  502    0 -0.21761166231E+03  0.44887552257E+02 -0.19866775755E+03  0.29805805780E+03  0.25500000920E-02 0. -1.
       -2    1    3    3    0  502  0.21761166231E+03 -0.44887552257E+02  0.19188947358E+02  0.22302005208E+03  0.25500000920E-02 0.  1.
</event>
<event>
 5   0  0.1827698E-01  0.5013334E+03  0.7818609E-02  0.1013431E+00
        2   -1    0    0  501    0  0.00000000000E+00  0.00000000000E+00  0.84392203233E+03  0.84392203233E+03  0.25500000920E-02 0. -1.
       -2   -1    0    0    0  501  0.00000000000E+00  0.00000000000E+00 -0.74454509147E+02  0.74454509190E+02  0.25500000920E-02 0.  1.
    10030    2    1    2    0    0  0.00000000000E+00  0.00000000000E+00  0.76946752318E+03  0.91837654152E+03  0.50133342477E+03 0.  0.
        1    1    3    3  502    0 -0.74367064408E+02  0.98561007100E+02 -0.14886704619E+02  0.12436376638E+03  0.50400001928E-02 0.  1.
       -1    1    3    3    0  502  0.74367064408E+02 -0.98561007100E+02  0.78435422780E+03  0.79401277514E+03  0.50400001928E-02 0. -1.
</event>
<event>
 5   0  0.1068522E-01  0.5010347E+03  0.7818609E-02  0.1013509E+00
       -1   -1    0    0    0  501  0.00000000000E+00  0.00000000000E+00  0.14160033698E+03  0.14160033707E+03  0.50400001928E-02 0.  1.
        1   -1    0    0  501    0  0.00000000000E+00  0.00000000000E+00 -0.44321178039E+03  0.44321178042E+03  0.50400001928E-02 0. -1.
    10030    2    1    2    0    0  0.00000000000E+00  0.00000000000E+00 -0.30161144341E+03  0.58481211749E+03  0.50103467940E+03 0.  0.
        2    1    3    3  502    0 -0.22621431631E+03  0.10763476903E+03 -0.14977680208E+03  0.29187540296E+03  0.25500000920E-02 0. -1.
       -2    1    3    3    0  502  0.22621431631E+03 -0.10763476903E+03 -0.15183464133E+03  0.29293671453E+03  0.25500000920E-02 0.  1.
</event>
<event>
 5   0  0.1709372E-01  0.4184953E+03  0.7818609E-02  0.1037557E+00
        2   -1    0    0  501    0  0.00000000000E+00  0.00000000000E+00  0.14767019876E+04  0.14767019876E+04  0.25500000920E-02 0.  1.
       -2   -1    0    0    0  501  0.00000000000E+00  0.00000000000E+00 -0.29650243566E+02  0.29650243676E+02  0.25500000920E-02 0. -1.
    10030    2    1    2    0    0  0.00000000000E+00  0.00000000000E+00  0.14470517440E+04  0.15063522313E+04  0.41849527448E+03 0.  0.
        4    1    3    3  502    0  0.91250899231E+02  0.92109804943E+02  0.13146690706E+04  0.13210478117E+04  0.12699999809E+01 0.  1.
       -4    1    3    3    0  502 -0.91250899231E+02 -0.92109804943E+02  0.13238267341E+03  0.18530441953E+03  0.12699999809E+01 0. -1.
</event>
<event>
 5   0  0.1123271E-01  0.4967946E+03  0.7818609E-02  0.1014619E+00
        1   -1    0    0  501    0  0.00000000000E+00  0.00000000000E+00  0.26893205686E+03  0.26893205691E+03  0.50400001928E-02 0.  1.
       -1   -1    0    0    0  501  0.00000000000E+00  0.00000000000E+00 -0.22943052172E+03  0.22943052177E+03  0.50400001928E-02 0. -1.
    10030    2    1    2    0    0  0.00000000000E+00  0.00000000000E+00  0.39501535141E+02  0.49836257868E+03  0.49679461405E+03 0.  0.
        5    1    3    3  502    0 -0.17061938191E+03 -0.93754518767E+02  0.17443942835E+03  0.26144232143E+03  0.46999998093E+01 0.  1.
       -5    1    3    3    0  502  0.17061938191E+03  0.93754518767E+02 -0.13493789321E+03  0.23692025725E+03  0.46999998093E+01 0. -1.
</event>
<event>
 5   0  0.1683148E-01  0.5016448E+03  0.7818609E-02  0.1013350E+00
       -2   -1    0    0    0  501  0.00000000000E+00  0.00000000000E+00  0.55390670422E+02  0.55390670481E+02  0.25500000920E-02 0. -1.
        2   -1    0    0  501    0  0.00000000000E+00  0.00000000000E+00 -0.11357846492E+04  0.11357846492E+04  0.25500000920E-02 0.  1.
    10030    2    1    2    0    0  0.00000000000E+00  0.00000000000E+00 -0.10803939787E+04  0.11911753196E+04  0.50164478751E+03 0.  0.
        2    1    3    3  502    0  0.24605852484E+03 -0.37348348142E+02 -0.61423452091E+03  0.66273957437E+03  0.25500000920E-02 0. -1.
       -2    1    3    3    0  502 -0.24605852484E+03  0.37348348142E+02 -0.46615945783E+03  0.52843574527E+03  0.25500000920E-02 0.  1.
</event>
<event>
 5   0  0.1074281E-01  0.5049549E+03  0.7818609E-02  0.1012494E+00
       -1   -1    0    0    0  501  0.00000000000E+00  0.00000000000E+00  0.18199713348E+03  0.18199713355E+03  0.50400001928E-02 0.  1.
        1   -1    0    0  501    0  0.00000000000E+00  0.00000000000E+00 -0.35025194881E+03  0.35025194884E+03  0.50400001928E-02 0. -1.
    10030    2    1    2    0    0  0.00000000000E+00  0.00000000000E+00 -0.16825481533E+03  0.53224908239E+03  0.50495485227E+03 0.  0.
        4    1    3    3  502    0 -0.25948493897E+02 -0.21938350032E+03 -0.21296695779E+03  0.30685335677E+03  0.12699999809E+01 0. -1.
       -4    1    3    3    0  502  0.25948493897E+02  0.21938350032E+03  0.44712142464E+02  0.22539572563E+03  0.12699999809E+01 0.  1.
</event>
<event>
 5   0  0.1709372E-01  0.4889889E+03  0.7818609E-02  0.1016694E+00
        2   -1    0    0  501    0  0.00000000000E+00  0.00000000000E+00  0.20762004040E+04  0.20762004040E+04  0.25500000920E-02 0.  1.
       -2   -1    0    0    0  501  0.00000000000E+00  0.00000000000E+00 -0.28791798191E+02  0.28791798304E+02  0.25500000920E-02 0. -1.
    10030    2    1    2    0    0  0.00000000000E+00  0.00000000000E+00  0.20474086058E+04  0.21049922023E+04  0.48898892895E+03 0.  0.
        4    1    3    3  502    0  0.15657886965E+02 -0.19868852719E+03  0.41410008439E+03  0.45956805051E+03  0.12699999809E+01 0. -1.
       -4    1    3    3    0  502 -0.15657886965E+02  0.19868852719E+03  0.16333085214E+04  0.16454241518E+04  0.12699999809E+01 0.  1.
</event>
<event>
 5   0  0.1141970E-01  0.5386986E+03  0.7818609E-02  0.1004144E+00
        1   -1    0    0  501    0  0.00000000000E+00  0.00000000000E+00  0.62101400781E+03  0.62101400783E+03  0.50400001928E-02 0.  1.
       -1   -1    0    0    0  501  0.00000000000E+00  0.00000000000E+00 -0.11682350652E+03  0.11682350663E+03  0.50400001928E-02 0. -1.
    10030    2    1    2    0    0  0.00000000000E+00  0.00000000000E+00  0.50419050129E+03  0.73783751447E+03  0.53869855779E+03 0.  0.
        3    1    3    3  502    0  0.24387441648E+03  0.86523931701E+02  0.14970954848E+03  0.29895498135E+03  0.10100000352E+00 0. -1.
       -3    1    3    3    0  502 -0.24387441648E+03 -0.86523931701E+02  0.35448095281E+03  0.43888253311E+03  0.10100000352E+00 0.  1.
</event>
<event>
 5   0  0.1760649E-01  0.4896751E+03  0.7818609E-02  0.1016510E+00
        2   -1    0    0  501    0  0.00000000000E+00  0.00000000000E+00  0.13845649611E+04  0.13845649611E+04  0.25500000920E-02 0.  1.
       -2   -1    0    0    0  501  0.00000000000E+00  0.00000000000E+00 -0.43295491488E+02  0.43295491563E+02  0.25500000920E-02 0. -1.
    10030    2    1    2    0    0  0.00000000000E+00  0.00000000000E+00  0.13412694696E+04  0.14278604526E+04  0.48967507816E+03 0.  0.
        5    1    3    3  502    0 -0.14414901663E+03  0.19783852250E+03  0.67668876805E+03  0.71961711958E+03  0.46999998093E+01 0.  1.
       -5    1    3    3    0  502  0.14414901663E+03 -0.19783852250E+03  0.66458070152E+03  0.70824333305E+03  0.46999998093E+01 0. -1.
</event>
<event>
 5   0  0.1760649E-01  0.4967611E+03  0.7818609E-02  0.1014628E+00
        2   -1    0    0  501    0  0.00000000000E+00  0.00000000000E+00  0.54358365224E+03  0.54358365225E+03  0.25500000920E-02 0. -1.
       -2   -1    0    0    0  501  0.00000000000E+00  0.00000000000E+00 -0.11349293064E+03  0.11349293067E+03  0.25500000920E-02 0.  1.
    10030    2    1    2    0    0  0.00000000000E+00  0.00000000000E+00  0.43009072161E+03  0.65707658291E+03  0.49676111664E+03 0.  0.
        5    1    3    3  502    0  0.24519155021E+03  0.34494852547E+02  0.18987815263E+03  0.31206504769E+03  0.46999998093E+01 0.  1.
       -5    1    3    3    0  502 -0.24519155021E+03 -0.34494852547E+02  0.24021256898E+03  0.34501153523E+03  0.46999998093E+01 0. -1.
</event>
<event>
 5   0  0.1827698E-01  0.4971157E+03  0.7818609E-02  0.1014535E+00
       -2   -1    0    0    0  501  0.00000000000E+00  0.00000000000E+00  0.29699591394E+03  0.29699591395E+03  0.25500000920E-02 0. -1.
        2   -1    0    0  501    0  0.00000000000E+00  0.00000000000E+00 -0.20801974607E+03  0.20801974609E+03  0.25500000920E-02 0.  1.
    10030    2    1    2    0    0  0.00000000000E+00  0.00000000000E+00  0.88976167864E+02  0.50501566004E+03  0.49711573948E+03 0.  0.
        1    1    3    3  502    0 -0.13942401531E+03 -0.20060391333E+03 -0.20662294423E+01  0.24430565981E+03  0.50400001928E-02 0. -1.
       -1    1    3    3    0  502  0.13942401531E+03  0.20060391333E+03  0.91042397306E+02  0.26071000023E+03  0.50400001928E-02 0.  1.
</event>
<event>
 5   0  0.1068522E-01  0.4886757E+03  0.7818609E-02  0.1016778E+00
        1   -1    0    0  501    0  0.00000000000E+00  0.00000000000E+00  0.99713308723E+03  0.99713308724E+03  0.50400001928E-02 0.  1.
       -1   -1    0    0    0  501  0.00000000000E+00  0.00000000000E+00 -0.59872626138E+02  0.59872626351E+02  0.50400001928E-02 0. -1.
    10030    2    1    2    0    0  0.00000000000E+00  0.00000000000E+00  0.93726046109E+03  0.10570057136E+04  0.48867566610E+03 0.  0.
        2    1    3    3  502    0  0.14168027915E+03  0.49790117543E+01  0.89907757350E+03  0.91018601133E+03  0.25500000920E-02 0.  1.
       -2    1    3    3    0  502 -0.14168027915E+03 -0.49790117543E+01  0.38182887592E+02  0.14681970226E+03  0.25500000920E-02 0. -1.
</event>
<event>
 5   0  0.1141970E-01  0.5037271E+03  0.7818609E-02  0.1012811E+00
        1   -1    0    0  501    0  0.00000000000E+00  0.00000000000E+00  0.33834779637E+03  0.33834779641E+03  0.50400001928E-02 0.  1.
       -1   -1    0    0    0  501  0.00000000000E+00  0.00000000000E+00 -0.18748535227E+03  0.18748535234E+03  0.50400001928E-02 0. -1.
    10030    2    1    2    0    0  0.00000000000E+00  0.00000000000E+00  0.15086244410E+03  0.52583314874E+03  0.50372713177E+03 0.  0.
        3    1    3    3  502    0  0.18027521727E+03  0.14869669646E+03  0.17349743982E+03  0.29105194266E+03  0.10100000352E+00 0.  1.
       -3    1    3    3    0  502 -0.18027521727E+03 -0.14869669646E+03 -0.22634995722E+02  0.23478120609E+03  0.10100000352E+00 0. -1.
</event>
<event>
 5   0  0.1147245E-01  0.5017570E+03  0.7818609E-02  0.1013321E+00
        1   -1    0    0  501    0  0.00000000000E+00  0.00000000000E+00  0.33272456308E+02  0.33272456690E+02  0.50400001928E-02 0.  1.
       -1   -1    0    0    0  501  0.00000000000E+00  0.00000000000E+00 -0.18916556208E+04  0.18916556208E+04  0.50400001928E-02 0. -1.
    10030    2    1    2    0    0  0.00000000000E+00  0.00000000000E+00 -0.18583831645E+04  0.19249280775E+04  0.50175703032E+03 0.  0.
        1    1    3    3  502    0  0.49961281558E+02 -0.15867467704E+03 -0.16496362987E+04  0.16580029255E+04  0.50400001928E-02 0. -1.
       -1    1    3    3    0  502 -0.49961281558E+02  0.15867467704E+03 -0.20874686577E+03  0.26692515202E+03  0.50400001928E-02 0.  1.
</event>
<event>
 5   0  0.1709372E-01  0.5046545E+03  0.7818609E-02  0.1012571E+00
       -2   -1    0    0    0  501  0.00000000000E+00  0.00000000000E+00  0.29732724710E+03  0.29732724711E+03  0.25500000920E-02 0.  1.
        2   -1    0    0  501    0  0.00000000000E+00  0.00000000000E+00 -0.21413791576E+03  0.21413791578E+03  0.25500000920E-02 0. -1.
    10030    2    1    2    0    0  0.00000000000E+00  0.00000000000E+00  0.83189331335E+02  0.51146516289E+03  0.50465448378E+03 0.  0.
        4    1    3    3  502    0  0.24629189978E+03 -0.45657250903E+02  0.72387922426E+02  0.26074107591E+03  0.12699999809E+01 0.  1.
       -4    1    3    3    0  502 -0.24629189978E+03  0.45657250903E+02  0.10801408909E+02  0.25072408698E+03  0.12699999809E+01 0. -1.
</event>
<event>
 5   0  0.1123271E-01  0.4897941E+03  0.7818609E-02  0.1016478E+00
        1   -1    0    0  501    0  0.00000000000E+00  0.00000000000E+00  0.27285421705E+03  0.27285421709E+03  0.50400001928E-02 0.  1.
       -1   -1    0    0    0  501  0.00000000000E+00  0.00000000000E+00 -0.21980446515E+03  0.21980446521E+03  0.50400001928E-02 0. -1.
    10030    2    1    2    0    0  0.00000000000E+00  0.00000000000E+00  0.53049751901E+02  0.49265868230E+03  0.48979414152E+03 0.  0.
        5    1    3    3  502    0 -0.28109770706E+02  0.24321815736E+03  0.29233950818E+02  0.24662105579E+03  0.46999998093E+01 0.  1.
       -5    1    3    3    0  502  0.28109770706E+02 -0.24321815736E+03  0.23815801082E+02  0.24603762651E+03  0.46999998093E+01 0. -1.
</event>
<event>
 5   0  0.1074281E-01  0.5058494E+03  0.7818609E-02  0.1012263E+00
       -1   -1    0    0    0  501  0.00000000000E+00  0.00000000000E+00  0.42160017102E+02  0.42160017403E+02  0.50400001928E-02 0. -1.
        1   -1    0    0  501    0  0.00000000000E+00  0.00000000000E+00 -0.15173356302E+04  0.15173356302E+04  0.50400001928E-02 0.  1.
    10030    2    1    2    0    0  0.00000000000E+00  0.00000000000E+00 -0.14751756131E+04  0.15594956476E+04  0.50584937030E+03 0.  0.
        4    1    3    3  502    0  0.96704766073E+02  0.18707543305E+03 -0.30575536443E+03  0.37126403705E+03  0.12699999809E+01 0. -1.
       -4    1    3    3    0  502 -0.96704766073E+02 -0.18707543305E+03 -0.11694202486E+04  0.11882316105E+04  0.12699999809E+01 0.  1.
</event>
<event>
 5   0  0.1068522E-01  0.4979499E+03  0.7818609E-02  0.1014315E+00
       -1   -1    0    0    0  501  0.00000000000E+00  0.00000000000E+00  0.18006613949E+03  0.18006613956E+03  0.50400001928E-02 0.  1.
        1   -1    0    0  501    0  0.00000000000E+00  0.00000000000E+00 -0.34425417949E+03  0.34425417953E+03  0.50400001928E-02 0. -1.
    10030    2    1    2    0    0  0.00000000000E+00  0.00000000000E+00 -0.16418804000E+03  0.52432031909E+03  0.49794988154E+03 0.  0.
        2    1    3    3  502    0  0.11057953728E+03 -0.22245905253E+03 -0.99480809222E+02  0.26760473749E+03  0.25500000920E-02 0. -1.
       -2    1    3    3    0  502 -0.11057953728E+03  0.22245905253E+03 -0.64707230777E+02  0.25671558160E+03  0.25500000920E-02 0.  1.
</event>
<event>
 5   0  0.1782124E-01  0.4996861E+03  0.7818609E-02  0.1013861E+00
       -2   -1    0    0    0  501  0.00000000000E+00  0.00000000000E+00  0.15985354281E+03  0.15985354283E+03  0.25500000920E-02 0.  1.
        2   -1    0    0  501    0  0.00000000000E+00  0.00000000000E+00 -0.39049205979E+03  0.39049205980E+03  0.25500000920E-02 0. -1.
    10030    2    1    2    0    0  0.00000000000E+00  0.00000000000E+00 -0.23063851699E+03  0.55034560263E+03  0.49968605826E+03 0.  0.
        3    1    3    3  502    0  0.60111848592E+02 -0.76426490183E+02  0.13815934736E+03  0.16894513372E+03  0.10100000352E+00 0.  1.
       -3    1    3    3    0  502 -0.60111848592E+02  0.76426490183E+02 -0.36879786434E+03  0.38140046892E+03  0.10100000352E+00 0. -1.
</event>
<event>
 5   0  0.1709372E-01  0.5056619E+03  0.7818609E-02  0.1012312E+00
        2   -1    0    0  501    0  0.00000000000E+00  0.00000000000E+00  0.87222361547E+03  0.87222361548E+03  0.25500000920E-02 0.  1.
       -2   -1    0    0    0  501  0.00000000000E+00  0.00000000000E+00 -0.73287965930E+02  0.73287965974E+02  0.25500000920E-02 0. -1.
    10030    2    1    2    0    0  0.00000000000E+00  0.00000000000E+00  0.79893564954E+03  0.94551158145E+03  0.50566192119E+03 0.  0.
        4    1    3    3  502    0  0.95116300627E+02  0.16141019419E+03  0.82025343389E+02  0.20452415821E+03  0.12699999809E+01 0. -1.
       -4    1    3    3    0  502 -0.95116300627E+02 -0.16141019419E+03  0.71691030616E+03  0.74098742324E+03  0.12699999809E+01 0.  1.
</event>
<event>
 5   0  0.1827698E-01  0.5012624E+03  0.7818609E-02  0.1013450E+00
       -2   -1    0    0    0  501  0.00000000000E+00  0.00000000000E+00  0.26102405856E+03  0.26102405857E+03  0.25500000920E-02 0. -1.
        2   -1    0    0  501    0  0.00000000000E+00  0.00000000000E+00 -0.24065216544E+03  0.24065216546E+03  0.25500000920E-02 0.  1.
    10030    2    1    2    0    0  0.00000000000E+00  0.00000000000E+00  0.20371893117E+02  0.50167622403E+03  0.50126242601E+03 0.  0.
        1    1    3    3  502    0 -0.47562233263E+02  0.78986365538E+02 -0.22306221587E+03  0.24136645200E+03  0.50400001928E-02 0.  1.
       -1    1    3    3    0  502  0.47562233263E+02 -0.78986365538E+02  0.24343410899E+03  0.26030977204E+03  0.50400001928E-02 0. -1.
</event>
<event>
 5   0  0.1782124E-01  0.5042833E+03  0.7818609E-02  0.1012667E+00
       -2   -1    0    0    0  501  0.00000000000E+00  0.00000000000E+00  0.43320706015E+02  0.43320706090E+02  0.25500000920E-02 0.  1.
        2   -1    0    0  501    0  0.00000000000E+00  0.00000000000E+00 -0.14675526126E+04  0.14675526126E+04  0.25500000920E-02 0. -1.
    10030    2    1    2    0    0  0.00000000000E+00  0.00000000000E+00 -0.14242319066E+04  0.15108733187E+04  0.50428331462E+03 0.  0.
        3    1    3    3  502    0  0.34607470768E+02  0.12711958999E+03 -0.68005103069E+02  0.14826250853E+03  0.10100000352E+00 0.  1.
       -3    1    3    3    0  502 -0.34607470768E+02 -0.12711958999E+03 -0.13562268035E+04  0.13626108102E+04  0.10100000352E+00 0. -1.
</event>
<event>
 5   0  0.1123271E-01  0.4982077E+03  0.7818609E-02  0.1014248E+00
       -1   -1    0    0    0  501  0.00000000000E+00  0.00000000000E+00  0.40540910267E+02  0.40540910580E+02  0.50400001928E-02 0.  1.
        1   -1    0    0  501    0  0.00000000000E+00  0.00000000000E+00 -0.15306201284E+04  0.15306201284E+04  0.50400001928E-02 0. -1.
    10030    2    1    2    0    0  0.00000000000E+00  0.00000000000E+00 -0.14900792181E+04  0.15711610389E+04  0.49820772185E+03 0.  0.
        5    1    3    3  502    0  0.15841873814E+03  0.15899707491E+03 -0.40459286098E+03  0.46270297122E+03  0.46999998093E+01 0.  1.
       -5    1    3    3    0  502 -0.15841873814E+03 -0.15899707491E+03 -0.10854863571E+04  0.11084580677E+04  0.46999998093E+01 0. -1.
</event>
<event>
 5   0  0.1068522E-01  0.5007405E+03  0.7818609E-02  0.1013586E+00
       -1   -1    0    0    0  501  0.00000000000E+00  0.00000000000E+00  0.63723784442E+03  0.63723784444E+03  0.50400001928E-02 0.  1.
        1   -1    0    0  501    0  0.00000000000E+00  0.00000000000E+00 -0.98370290738E+02  0.98370290867E+02  0.50400001928E-02 0. -1.
    10030    2    1    2    0    0  0.00000000000E+00  0.00000000000E+00  0.53886755368E+03  0.73560813530E+03  0.50074053992E+03 0.  0.
        2    1    3    3  502    0 -0.17531273671E+03  0.67836081223E+02  0.26490795348E+02  0.18983690846E+03  0.25500000920E-02 0. -1.
       -2    1    3    3    0  502  0.17531273671E+03 -0.67836081223E+02  0.51237675833E+03  0.54577122684E+03  0.25500000920E-02 0.  1.
</event>
<event>
 5   0  0.7220250E-02  0.5014673E+03  0.7818609E-02  0.1013397E+00
       -3   -1    0    0    0  501  0.00000000000E+00  0.00000000000E+00  0.34023436017E+02  0.34023585928E+02  0.10100000352E+00 0.  1.
        3   -1    0    0  501    0  0.00000000000E+00  0.00000000000E+00 -0.18477620355E+04  0.18477620383E+04  0.10100000352E+00 0. -1.
    10030    2    1    2    0    0  0.00000000000E+00  0.00000000000E+00 -0.18137385995E+04  0.18817856242E+04  0.50146727526E+03 0.  0.
        5    1    3    3  502    0  0.23631860004E+03 -0.64965334369E+02 -0.70907377293E+03  0.75024974565E+03  0.46999998093E+01 0. -1.
       -5    1    3    3    0  502 -0.23631860004E+03  0.64965334369E+02 -0.11046648266E+04  0.11315358786E+04  0.46999998093E+01 0.  1.
</event>
<event>
 5   0  0.1141970E-01  0.4892607E+03  0.7818609E-02  0.1016621E+00
       -1   -1    0    0    0  501  0.00000000000E+00  0.00000000000E+00  0.15617880660E+03  0.15617880668E+03  0.50400001928E-02 0.  1.
        1   -1    0    0  501    0  0.00000000000E+00  0.00000000000E+00 -0.38317616509E+03  0.38317616512E+03  0.50400001928E-02 0. -1.
    10030    2    1    2    0    0  0.00000000000E+00  0.00000000000E+00 -0.22699735849E+03  0.53935497180E+03  0.48926065123E+03 0.  0.
        3    1    3    3  502    0  0.17546197695E+03 -0.13824102578E+03 -0.35551867446E+01  0.22340576563E+03  0.10100000352E+00 0.  1.
       -3    1    3    3    0  502 -0.17546197695E+03  0.13824102578E+03 -0.22344217174E+03  0.31594920617E+03  0.10100000352E+00 0. -1.
</event>
<event>
 5   0  0.1147245E-01  0.5064446E+03  0.7818609E-02  0.1012110E+00
        1   -1    0    0  501    0  0.00000000000E+00  0.00000000000E+00  0.34932369554E+03  0.34932369557E+03  0.50400001928E-02 0.  1.
       -1   -1    0    0    0  501  0.00000000000E+00  0.00000000000E+00 -0.18355903921E+03  0.18355903927E+03  0.50400001928E-02 0. -1.
    10030    2    1    2    0    0  0.00000000000E+00  0.00000000000E+00  0.16576465633E+03  0.53288273485E+03  0.50644455552E+03 0.  0.
        1    1    3    3  502    0 -0.25100221945E+02  0.19267647182E+03 -0.87974520513E+02  0.21329266331E+03  0.50400001928E-02 0. -1.
       -1    1    3    3    0  502  0.25100221945E+02 -0.19267647182E+03  0.25373917685E+03  0.31959007154E+03  0.50400001928E-02 0.  1.
</event>
<event>
 5   0  0.1709372E-01  0.4976602E+03  0.7818609E-02  0.1014391E+00
        2   -1    0    0  501    0  0.00000000000E+00  0.00000000000E+00  0.70073311540E+03  0.70073311541E+03  0.25500000920E-02 0. -1.
       -2   -1    0    0    0  501  0.00000000000E+00  0.00000000000E+00 -0.88359474464E+02  0.88359474501E+02  0.25500000920E-02 0.  1.
    10030    2    1    2    0    0  0.00000000000E+00  0.00000000000E+00  0.61237364094E+03  0.78909258991E+03  0.49766016450E+03 0.  0.
        4    1    3    3  502    0  0.19283484551E+03  0.29925337958E+02  0.61396920959E+02  0.20457760947E+03  0.12699999809E+01 0.  1.
       -4    1    3    3    0  502 -0.19283484551E+03 -0.29925337958E+02  0.55097671998E+03  0.58451498044E+03  0.12699999809E+01 0. -1.
</event>
<event>
 5   0  0.1827698E-01  0.4965186E+03  0.7818609E-02  0.1014692E+00
       -2   -1    0    0    0  501  0.00000000000E+00  0.00000000000E+00  0.15502126337E+03  0.15502126339E+03  0.25500000920E-02 0.  1.
        2   -1    0    0  501    0  0.00000000000E+00  0.00000000000E+00 -0.39757568443E+03  0.39757568444E+03  0.25500000920E-02 0. -1.
    10030    2    1    2    0    0  0.00000000000E+00  0.00000000000E+00 -0.24255442106E+03  0.55259694783E+03  0.49651861957E+03 0.  0.
        1    1    3    3  502    0 -0.11152654557E+02 -0.55593039769E+02  0.14771842472E+03  0.15822673858E+03  0.50400001928E-02 0.  1.
       -1    1    3    3    0  502  0.11152654557E+02  0.55593039769E+02 -0.39027284577E+03  0.39437020926E+03  0.50400001928E-02 0. -1.
</event>
<event>
 5   0  0.1683148E-01  0.5017487E+03  0.7818609E-02  0.1013323E+00
        2   -1    0    0  501    0  0.00000000000E+00  0.00000000000E+00  0.12030470546E+04  0.12030470546E+04  0.25500000920E-02 0.  1.
       -2   -1    0    0    0  501  0.00000000000E+00  0.00000000000E+00 -0.52315442932E+02  0.52315442995E+02  0.25500000920E-02 0. -1.
    10030    2    1    2    0    0  0.00000000000E+00  0.00000000000E+00  0.11507316116E+04  0.12553624976E+04  0.50174870032E+03 0.  0.
        2    1    3    3  502    0  0.14139189750E+03 -0.18022571741E+03  0.31941782059E+03  0.39306579858E+03  0.25500000920E-02 0.  1.
       -2    1    3    3    0  502 -0.14139189750E+03  0.18022571741E+03  0.83131379104E+03  0.86229669898E+03  0.25500000920E-02 0. -1.
</event>
<event>
 5   0  0.1147245E-01  0.4958549E+03  0.7818609E-02  0.1014867E+00
        1   -1    0    0  501    0  0.00000000000E+00  0.00000000000E+00  0.10676910221E+04  0.10676910221E+04  0.50400001928E-02 0.  1.
       -1   -1    0    0    0  501  0.00000000000E+00  0.00000000000E+00 -0.57570978445E+02  0.57570978665E+02  0.50400001928E-02 0. -1.
    10030    2    1    2    0    0  0.00000000000E+00  0.00000000000E+00  0.10101200436E+04  0.11252620007E+04  0.49585488582E+03 0.  0.
        1    1    3    3  502    0 -0.70795719170E+02 -0.58155398955E+02 -0.17744928248E+02  0.93321845162E+02  0.50400001928E-02 0. -1.
       -1    1    3    3    0  502  0.70795719170E+02  0.58155398955E+02  0.10278649719E+04  0.10319401556E+04  0.50400001928E-02 0.  1.
</event>
<event>
 5   0  0.1782124E-01  0.5094256E+03  0.7818609E-02  0.1011348E+00
       -2   -1    0    0    0  501  0.00000000000E+00  0.00000000000E+00  0.80620454306E+02  0.80620454346E+02  0.25500000920E-02 0.  1.
        2   -1    0    0  501    0  0.00000000000E+00  0.00000000000E+00 -0.80474121487E+03  0.80474121488E+03  0.25500000920E-02 0. -1.
    10030    2    1    2    0    0  0.00000000000E+00  0.00000000000E+00 -0.72412076057E+03  0.88536166922E+03  0.50942556811E+03 0.  0.
        3    1    3    3  502    0  0.26692458597E+01  0.11143064118E+03 -0.76010530992E+03  0.76823434252E+03  0.10100000352E+00 0. -1.
       -3    1    3    3    0  502 -0.26692458597E+01 -0.11143064118E+03  0.35984549350E+02  0.11712732670E+03  0.10100000352E+00 0.  1.
</event>
<event>
 5   0  0.1760649E-01  0.4966722E+03  0.7818609E-02  0.1014651E+00
        2   -1    0    0  501    0  0.00000000000E+00  0.00000000000E+00  0.11100081044E+04  0.11100081044E+04  0.25500000920E-02 0. -1.
       -2   -1    0    0    0  501  0.00000000000E+00  0.00000000000E+00 -0.55558883855E+02  0.55558883914E+02  0.25500000920E-02 0.  1.
    10030    2    1    2    0    0  0.00000000000E+00  0.00000000000E+00  0.10544492205E+04  0.11655669883E+04  0.49667217110E+03 0.  0.
        5    1    3    3  502    0  0.23594982972E+03 -0.54345517777E+02  0.65625258929E+03  0.69951076361E+03  0.46999998093E+01 0.  1.
       -5    1    3    3    0  502 -0.23594982972E+03  0.54345517777E+02  0.39819663123E+03  0.46605622469E+03  0.46999998093E+01 0. -1.
</event>
<event>
 5   0  0.1827698E-01  0.4997506E+03  0.7818609E-02  0.1013844E+00
       -2   -1    0    0    0  501  0.00000000000E+00  0.00000000000E+00  0.24532640217E+02  0.24532640349E+02  0.25500000920E-02 0.  1.
        2   -1    0    0  501    0  0.00000000000E+00  0.00000000000E+00 -0.25450850879E+04  0.25450850879E+04  0.25500000920E-02 0. -1.
    10030    2    1    2    0    0  0.00000000000E+00  0.00000000000E+00 -0.25205524477E+04  0.25696177282E+04  0.49975056560E+03 0.  0.
        1    1    3    3  502    0  0.16936691895E+03 -0.62737453878E+02 -0.37241790070E+03  0.41390365321E+03  0.50400001928E-02 0.  1.
       -1    1    3    3    0  502 -0.16936691895E+03  0.62737453878E+02 -0.21481345470E+04  0.21557140750E+04  0.50400001928E-02 0. -1.
</event>
<event>
 5   0  0.1147245E-01  0.5079334E+03  0.7818609E-02  0.1011729E+00
        1   -1    0    0  501    0  0.00000000000E+00  0.00000000000E+00  0.52251245274E+03  0.52251245276E+03  0.50400001928E-02 0.  1.
       -1   -1    0    0    0  501  0.00000000000E+00  0.00000000000E+00 -0.12344026760E+03  0.12344026770E+03  0.50400001928E-02 0. -1.
    10030    2    1    2    0    0  0.00000000000E+00  0.00000000000E+00  0.39907218514E+03  0.64595272046E+03  0.50793336976E+03 0.  0.
        1    1    3    3  502    0  0.11524150391E+03 -0.18165138158E+03  0.37120160321E+03  0.42903200219E+03  0.50400001928E-02 0.  1.
       -1    1    3    3    0  502 -0.11524150391E+03  0.18165138158E+03  0.27870581926E+02  0.21692071827E+03  0.50400001928E-02 0. -1.
</event>
<event>
 5   0  0.1074281E-01  0.4971621E+03  0.7818609E-02  0.1014522E+00
        1   -1    0    0  501    0  0.00000000000E+00  0.00000000000E+00  0.17152784721E+03  0.17152784729E+03  0.50400001928E-02 0.  1.
       -1   -1    0    0    0  501  0.00000000000E+00  0.00000000000E+00 -0.36024784648E+03  0.36024784652E+03  0.50400001928E-02 0. -1.
    10030    2    1    2    0    0  0.00000000000E+00  0.00000000000E+00 -0.18871999927E+03  0.53177569380E+03  0.49716209670E+03 0.  0.
        4    1    3    3  502    0 -0.27952425725E+02 -0.18322290740E+03 -0.27153981234E+03  0.32876656534E+03  0.12699999809E+01 0. -1.
       -4    1    3    3    0  502  0.27952425725E+02  0.18322290740E+03  0.82819813072E+02  0.20300912846E+03  0.12699999809E+01 0.  1.
</event>
<event>
 5   0  0.1141970E-01  0.5109307E+03  0.7818609E-02  0.1010965E+00
       -1   -1    0    0    0  501  0.00000000000E+00  0.00000000000E+00  0.85781548476E+02  0.85781548624E+02  0.50400001928E-02 0.  1.
        1   -1    0    0  501    0  0.00000000000E+00  0.00000000000E+00 -0.76079933350E+03  0.76079933352E+03  0.50400001928E-02 0. -1.
    10030    2    1    2    0    0  0.00000000000E+00  0.00000000000E+00 -0.67501778502E+03  0.84658088214E+03  0.51093069971E+03 0.  0.
        3    1    3    3  502    0 -0.12496507778E+03  0.80566931067E+01  0.31439522394E+02  0.12911093965E+03  0.10100000352E+00 0.  1.
       -3    1    3    3    0  502  0.12496507778E+03 -0.80566931067E+01 -0.70645730742E+03  0.71746994249E+03  0.10100000352E+00 0. -1.
</event>
<event>
 5   0  0.1709372E-01  0.5543189E+03  0.7818609E-02  0.1000499E+00
        2   -1    0    0  501    0  0.00000000000E+00  0.00000000000E+00  0.21251903648E+04  0.21251903648E+04  0.25500000920E-02 0. -1.
       -2   -1    0    0    0  501  0.00000000000E+00  0.00000000000E+00 -0.36146111550E+02  0.36146111640E+02  0.25500000920E-02 0.  1.
    10030    2    1    2    0    0  0.00000000000E+00  0.00000000000E+00  0.20890442533E+04  0.21613364765E+04  0.55431892658E+03 0.  0.
        4    1    3    3  502    0  0.17026126630E+03  0.94027978527E+02  0.27465679561E+03  0.33655330606E+03  0.12699999809E+01 0.  1.
       -4    1    3    3    0  502 -0.17026126630E+03 -0.94027978527E+02  0.18143874577E+04  0.18247831704E+04  0.12699999809E+01 0. -1.
</event>
<event>
 5   0  0.1760649E-01  0.4962408E+03  0.7818609E-02  0.1014765E+00
        2   -1    0    0  501    0  0.00000000000E+00  0.00000000000E+00  0.15390638348E+03  0.15390638350E+03  0.25500000920E-02 0.  1.
       -2   -1    0    0    0  501  0.00000000000E+00  0.00000000000E+00 -0.40000764376E+03  0.40000764376E+03  0.25500000920E-02 0. -1.
    10030    2    1    2    0    0  0.00000000000E+00  0.00000000000E+00 -0.24610126027E+03  0.55391402727E+03  0.49624078762E+03 0.  0.
        5    1    3    3  502    0 -0.24139729157E+03 -0.44133951122E+02 -0.82478183478E+02  0.25893087643E+03  0.46999998093E+01 0. -1.
       -5    1    3    3    0  502  0.24139729157E+03  0.44133951122E+02 -0.16362307679E+03  0.29498315084E+03  0.46999998093E+01 0.  1.
</event>
<event>
 5   0  0.1683148E-01  0.4973631E+03  0.7818609E-02  0.1014469E+00
        2   -1    0    0  501    0  0.00000000000E+00  0.00000000000E+00  0.57771616862E+03  0.57771616862E+03  0.25500000920E-02 0.  1.
       -2   -1    0    0    0  501  0.00000000000E+00  0.00000000000E+00 -0.10704654767E+03  0.10704654770E+03  0.25500000920E-02 0. -1.
    10030    2    1    2    0    0  0.00000000000E+00  0.00000000000E+00  0.47066962094E+03  0.68476271632E+03  0.49736313252E+03 0.  0.
        2    1    3    3  502    0 -0.74793004332E+02  0.20388866421E+03  0.68533646148E+02  0.22773107287E+03  0.25500000920E-02 0.  1.
       -2    1    3    3    0  502  0.74793004332E+02 -0.20388866421E+03  0.40213597480E+03  0.45703164346E+03  0.25500000920E-02 0. -1.
</event>
<event>
 5   0  0.1782124E-01  0.4983516E+03  0.7818609E-02  0.1014210E+00
        2   -1    0    0  501    0  0.00000000000E+00  0.00000000000E+00  0.16013127316E+04  0.16013127316E+04  0.25500000920E-02 0. -1.
       -2   -1    0    0    0  501  0.00000000000E+00  0.00000000000E+00 -0.38773552139E+02  0.38773552223E+02  0.25500000920E-02 0.  1.
    10030    2    1    2    0    0  0.00000000000E+00  0.00000000000E+00  0.15625391795E+04  0.16400862838E+04  0.49835161386E+03 0.  0.
        3    1    3    3  502    0  0.23223568512E+02  0.12531474510E+03  0.14859285232E+04  0.14913841576E+04  0.10100000352E+00 0. -1.
       -3    1    3    3    0  502 -0.23223568512E+02 -0.12531474510E+03  0.76610656283E+02  0.14870212618E+03  0.10100000352E+00 0.  1.
</event>
<event>
 5   0  0.1683148E-01  0.4918230E+03  0.7818609E-02  0.1015936E+00
       -2   -1    0    0    0  501  0.00000000000E+00  0.00000000000E+00  0.41837866359E+02  0.41837866437E+02  0.25500000920E-02 0.  1.
        2   -1    0    0  501    0  0.00000000000E+00  0.00000000000E+00 -0.14454002186E+04  0.14454002186E+04  0.25500000920E-02 0. -1.
    10030    2    1    2    0    0  0.00000000000E+00  0.00000000000E+00 -0.14035623522E+04  0.14872380850E+04  0.49182298133E+03 0.  0.
        2    1    3    3  502    0 -0.73104643690E+01 -0.20907054139E+03 -0.10926587585E+04  0.11125048749E+04  0.25500000920E-02 0. -1.
       -2    1    3    3    0  502  0.73104643690E+01  0.20907054139E+03 -0.31090359374E+03  0.37473321013E+03  0.25500000920E-02 0.  1.
</event>
<event>
 5   0  0.1782124E-01  0.5011605E+03  0.7818609E-02  0.1013476E+00
       -2   -1    0    0    0  501  0.00000000000E+00  0.00000000000E+00  0.71739068916E+03  0.71739068917E+03  0.25500000920E-02 0.  1.
        2   -1    0    0  501    0  0.00000000000E+00  0.00000000000E+00 -0.87526177482E+02  0.87526177520E+02  0.25500000920E-02 0. -1.
    10030    2    1    2    0    0  0.00000000000E+00  0.00000000000E+00  0.62986451168E+03  0.80491686668E+03  0.50116051241E+03 0.  0.
        3    1    3    3  502    0 -0.10362595822E+02 -0.84552129994E+02  0.69342163274E+03  0.69863439439E+03  0.10100000352E+00 0.  1.
       -3    1    3    3    0  502  0.10362595822E+02  0.84552129994E+02 -0.63557121058E+02  0.10628247229E+03  0.10100000352E+00 0. -1.
</event>
<event>
 5   0  0.1782124E-01  0.5002656E+03  0.7818609E-02  0.1013710E+00
        2   -1    0    0  501    0  0.00000000000E+00  0.00000000000E+00  0.12194204387E+04  0.12194204387E+04  0.25500000920E-02 0.  1.
       -2   -1    0    0    0  501  0.00000000000E+00  0.00000000000E+00 -0.51308331765E+02  0.51308331828E+02  0.25500000920E-02 0. -1.
    10030    2    1    2    0    0  0.00000000000E+00  0.00000000000E+00  0.11681121070E+04  0.12707287706E+04  0.50026564332E+03 0.  0.
        3    1    3    3  502    0  0.58420660193E+02 -0.61191726019E+02 -0.13863022412E+02  0.85729775819E+02  0.10100000352E+00 0. -1.
       -3    1    3    3    0  502 -0.58420660193E+02  0.61191726019E+02  0.11819751294E+04  0.11849989947E+04  0.10100000352E+00 0.  1.
</event>
<event>
 5   0  0.1683148E-01  0.4999867E+03  0.7818609E-02  0.1013782E+00
        2   -1    0    0  501    0  0.00000000000E+00  0.00000000000E+00  0.10733229858E+04  0.10733229858E+04  0.25500000920E-02 0. -1.
       -2   -1    0    0    0  501  0.00000000000E+00  0.00000000000E+00 -0.58227279348E+02  0.58227279404E+02  0.25500000920E-02 0.  1.
    10030    2    1    2    0    0  0.00000000000E+00  0.00000000000E+00  0.10150957065E+04  0.11315502652E+04  0.49998670926E+03 0.  0.
        2    1    3    3  502    0  0.24202039866E+03  0.89408189642E+01  0.36725259377E+03  0.43991849160E+03  0.25500000920E-02 0.  1.
       -2    1    3    3    0  502 -0.24202039866E+03 -0.89408189642E+01  0.64784311272E+03  0.69163177364E+03  0.25500000920E-02 0. -1.
</event>
<event>
 5   0  0.1141970E-01  0.5033300E+03  0.7818609E-02  0.1012913E+00
       -1   -1    0    0    0  501  0.00000000000E+00  0.00000000000E+00  0.45110984613E+02  0.45110984895E+02  0.50400001928E-02 0.  1.
        1   -1    0    0  501    0  0.00000000000E+00  0.00000000000E+00 -0.14039878417E+04  0.14039878417E+04  0.50400001928E-02 0. -1.
    10030    2    1    2    0    0  0.00000000000E+00  0.00000000000E+00 -0.13588768570E+04  0.14490988266E+04  0.50333000758E+03 0.  0.
        3    1    3    3  502    0  0.18782685110E+03  0.10316975303E+03 -0.10593423278E+04  0.10808002136E+04  0.10100000352E+00 0.  1.
       -3    1    3    3    0  502 -0.18782685110E+03 -0.10316975303E+03 -0.29953452921E+03  0.36829861298E+03  0.10100000352E+00 0. -1.
</event>
<event>
 5   0  0.1068522E-01  0.5007341E+03  0.7818609E-02  0.1013587E+00
       -1   -1    0    0    0  501  0.00000000000E+00  0.00000000000E+00  0.31697848866E+03  0.31697848870E+03  0.50400001928E-02 0.  1.
        1   -1    0    0  501    0  0.00000000000E+00  0.00000000000E+00 -0.19775367173E+03  0.19775367179E+03  0.50400001928E-02 0. -1.
    10030    2    1    2    0    0  0.00000000000E+00  0.00000000000E+00  0.11922481693E+03  0.51473216049E+03  0.50073410117E+03 0.  0.
        2    1    3    3  502    0 -0.57534180937E+02 -0.73105728431E+02 -0.17932696594E+03  0.20202175682E+03  0.25500000920E-02 0. -1.
       -2    1    3    3    0  502  0.57534180937E+02  0.73105728431E+02  0.29855178287E+03  0.31271040368E+03  0.25500000920E-02 0.  1.
</event>
<event>
 5   0  0.7220250E-02  0.4083009E+03  0.7818609E-02  0.1040943E+00
       -3   -1    0    0    0  501  0.00000000000E+00  0.00000000000E+00  0.10087621668E+04  0.10087621719E+04  0.10100000352E+00 0. -1.
        3   -1    0    0  501    0  0.00000000000E+00  0.00000000000E+00 -0.41315332561E+02  0.41315456013E+02  0.10100000352E+00 0.  1.
    10030    2    1    2    0    0  0.00000000000E+00  0.00000000000E+00  0.96744683425E+03  0.10500776279E+04  0.40830092759E+03 0.  0.
        5    1    3    3  502    0 -0.63959133249E+01 -0.63137202241E+02  0.98260472192E+03  0.98466306092E+03  0.46999998093E+01 0. -1.
       -5    1    3    3    0  502  0.63959133249E+01  0.63137202241E+02 -0.15157887663E+02  0.65414566961E+02  0.46999998093E+01 0.  1.
</event>
<event>
 5   0  0.7220250E-02  0.4979244E+03  0.7818609E-02  0.1014322E+00
       -3   -1    0    0    0  501  0.00000000000E+00  0.00000000000E+00  0.89431662938E+02  0.89431719971E+02  0.10100000352E+00 0. -1.
        3   -1    0    0  501    0  0.00000000000E+00  0.00000000000E+00 -0.69306707712E+03  0.69306708448E+03  0.10100000352E+00 0.  1.
    10030    2    1    2    0    0  0.00000000000E+00  0.00000000000E+00 -0.60363541418E+03  0.78249880445E+03  0.49792435742E+03 0.  0.
        5    1    3    3  502    0 -0.20340970602E+03  0.11768205907E+03 -0.43079262507E+03  0.49074326418E+03  0.46999998093E+01 0.  1.
       -5    1    3    3    0  502  0.20340970602E+03 -0.11768205907E+03 -0.17284278911E+03  0.29175554026E+03  0.46999998093E+01 0. -1.
</event>
<event>
 5   0  0.1068522E-01  0.4968588E+03  0.7818609E-02  0.1014602E+00
        1   -1    0    0  501    0  0.00000000000E+00  0.00000000000E+00  0.13683926264E+04  0.13683926264E+04  0.50400001928E-02 0.  1.
       -1   -1    0    0    0  501  0.00000000000E+00  0.00000000000E+00 -0.45101940296E+02  0.45101940577E+02  0.50400001928E-02 0. -1.
    10030    2    1    2    0    0  0.00000000000E+00  0.00000000000E+00  0.13232906861E+04  0.14134945670E+04  0.49685878374E+03 0.  0.
        2    1    3    3  502    0  0.23876234885E+03  0.65815254073E+02  0.71695986313E+03  0.75853183997E+03  0.25500000920E-02 0.  1.
       -2    1    3    3    0  502 -0.23876234885E+03 -0.65815254073E+02  0.60633082301E+03  0.65496272706E+03  0.25500000920E-02 0. -1.
</event>
<event>
 5   0  0.1141970E-01  0.4885995E+03  0.7818609E-02  0.1016798E+00
       -1   -1    0    0    0  501  0.00000000000E+00  0.00000000000E+00  0.47565494142E+03  0.47565494144E+03  0.50400001928E-02 0. -1.
        1   -1    0    0  501    0  0.00000000000E+00  0.00000000000E+00 -0.12547407522E+03  0.12547407532E+03  0.50400001928E-02 0.  1.
    10030    2    1    2    0    0  0.00000000000E+00  0.00000000000E+00  0.35018086620E+03  0.60112901677E+03  0.48859948398E+03 0.  0.
        3    1    3    3  502    0 -0.27321531087E+02  0.93828917994E+02  0.45055915760E+03  0.46103567824E+03  0.10100000352E+00 0. -1.
       -3    1    3    3    0  502  0.27321531087E+02 -0.93828917994E+02 -0.10037829140E+03  0.14009333853E+03  0.10100000352E+00 0.  1.
</event>
<event>
 5   0  0.1827698E-01  0.5022094E+03  0.7818609E-02  0.1013204E+00
        2   -1    0    0  501    0  0.00000000000E+00  0.00000000000E+00  0.67125408880E+02  0.67125408928E+02  0.25500000920E-02 0.  1.
       -2   -1    0    0    0  501  0.00000000000E+00  0.00000000000E+00 -0.93933966434E+03  0.93933966434E+03  0.25500000920E-02 0. -1.
    10030    2    1    2    0    0  0.00000000000E+00  0.00000000000E+00 -0.87221425546E+03  0.10064650733E+04  0.50220935504E+03 0.  0.
        1    1    3    3  502    0 -0.24521638295E+03 -0.50723303303E+02 -0.39863408777E+03  0.47075796745E+03  0.50400001928E-02 0.  1.
       -1    1    3    3    0  502  0.24521638295E+03  0.50723303303E+02 -0.47358016769E+03  0.53570710581E+03  0.50400001928E-02 0. -1.
</event>
<event>
 5   0  0.1141970E-01  0.4952226E+03  0.7818609E-02  0.1015033E+00
        1   -1    0    0  501    0  0.00000000000E+00  0.00000000000E+00  0.67698714986E+03  0.67698714988E+03  0.50400001928E-02 0. -1.
       -1   -1    0    0    0  501  0.00000000000E+00  0.00000000000E+00 -0.90565012489E+02  0.90565012629E+02  0.50400001928E-02 0.  1.
    10030    2    1    2    0    0  0.00000000000E+00  0.00000000000E+00  0.58642213737E+03  0.76755216251E+03  0.49522257518E+03 0.  0.
        3    1    3    3  502    0  0.16337016036E+03  0.12197542050E+03  0.51099199207E+03  0.55016419246E+03  0.10100000352E+00 0. -1.
       -3    1    3    3    0  502 -0.16337016036E+03 -0.12197542050E+03  0.75430145304E+02  0.21738797005E+03  0.10100000352E+00 0.  1.
</event>
<event>
 5   0  0.1782124E-01  0.5017352E+03  0.7818609E-02  0.1013327E+00
       -2   -1    0    0    0  501  0.00000000000E+00  0.00000000000E+00  0.71892583481E+02  0.71892583526E+02  0.25500000920E-02 0. -1.
        2   -1    0    0  501    0  0.00000000000E+00  0.00000000000E+00 -0.87539698146E+03  0.87539698146E+03  0.25500000920E-02 0.  1.
    10030    2    1    2    0    0  0.00000000000E+00  0.00000000000E+00 -0.80350439798E+03  0.94728956499E+03  0.50173519148E+03 0.  0.
        3    1    3    3  502    0 -0.90004646229E+02  0.23146739505E+03 -0.33482572923E+03  0.41687680491E+03  0.10100000352E+00 0.  1.
       -3    1    3    3    0  502  0.90004646229E+02 -0.23146739505E+03 -0.46867866874E+03  0.53041276008E+03  0.10100000352E+00 0. -1.
</event>
<event>
 5   0  0.1147245E-01  0.4947618E+03  0.7818609E-02  0.1015155E+00
        1   -1    0    0  501    0  0.00000000000E+00  0.00000000000E+00  0.11793742284E+04  0.11793742284E+04  0.50400001928E-02 0.  1.
       -1   -1    0    0    0  501  0.00000000000E+00  0.00000000000E+00 -0.51889643629E+02  0.51889643874E+02  0.50400001928E-02 0. -1.
    10030    2    1    2    0    0  0.00000000000E+00  0.00000000000E+00  0.11274845848E+04  0.12312638723E+04  0.49476179552E+03 0.  0.
        1    1    3    3  502    0 -0.12663039847E+03 -0.14700703181E+03  0.18183363602E+03  0.26591313700E+03  0.50400001928E-02 0. -1.
       -1    1    3    3    0  502  0.12663039847E+03  0.14700703181E+03  0.94565094878E+03  0.96535073531E+03  0.50400001928E-02 0.  1.
</event>
<event>
 5   0  0.1709372E-01  0.5010853E+03  0.7818609E-02  0.1013496E+00
        2   -1    0    0  501    0  0.00000000000E+00  0.00000000000E+00  0.48973040333E+03  0.48973040334E+03  0.25500000920E-02 0.  1.
       -2   -1    0    0    0  501  0.00000000000E+00  0.00000000000E+00 -0.12817586788E+03  0.12817586791E+03  0.25500000920E-02 0. -1.
    10030    2    1    2    0    0  0.00000000000E+00  0.00000000000E+00  0.36155453545E+03  0.61790627125E+03  0.50108530007E+03 0.  0.
        4    1    3    3  502    0 -0.23932188710E+02  0.20869138909E+03  0.34915862661E+03  0.40747785826E+03  0.12699999809E+01 0.  1.
       -4    1    3    3    0  502  0.23932188710E+02 -0.20869138909E+03  0.12395908842E+02  0.21042841299E+03  0.12699999809E+01 0. -1.
</event>
<event>
 5   0  0.1709372E-01  0.4991906E+03  0.7818609E-02  0.1013990E+00
       -2   -1    0    0    0  501  0.00000000000E+00  0.00000000000E+00  0.10430267141E+04  0.10430267141E+04  0.25500000920E-02 0.  1.
        2   -1    0    0  501    0  0.00000000000E+00  0.00000000000E+00 -0.59727926269E+02  0.59727926323E+02  0.25500000920E-02 0. -1.
    10030    2    1    2    0    0  0.00000000000E+00  0.00000000000E+00  0.98329878780E+03  0.11027546404E+04  0.49919063575E+03 0.  0.
        4    1    3    3  502    0  0.71419574825E+02 -0.16249221210E+02 -0.35445076972E+02  0.81380336935E+02  0.12699999809E+01 0. -1.
       -4    1    3    3    0  502 -0.71419574825E+02  0.16249221210E+02  0.10187438648E+04  0.10213743035E+04  0.12699999809E+01 0.  1.
</event>
<event>
 5   0  0.1141970E-01  0.5155383E+03  0.7818609E-02  0.1009801E+00
       -1   -1    0    0    0  501  0.00000000000E+00  0.00000000000E+00  0.93087359145E+02  0.93087359281E+02  0.50400001928E-02 0. -1.
        1   -1    0    0  501    0  0.00000000000E+00  0.00000000000E+00 -0.71379109941E+03  0.71379109943E+03  0.50400001928E-02 0.  1.
    10030    2    1    2    0    0  0.00000000000E+00  0.00000000000E+00 -0.62070374027E+03  0.80687845871E+03  0.51553827593E+03 0.  0.
        3    1    3    3  502    0 -0.70470171409E+02 -0.23381772548E+03 -0.18121163044E+03  0.30409610161E+03  0.10100000352E+00 0. -1.
       -3    1    3    3    0  502  0.70470171409E+02  0.23381772548E+03 -0.43949210982E+03  0.50278235710E+03  0.10100000352E+00 0.  1.
</event>
<event>
 5   0  0.1147245E-01  0.4969508E+03  0.7818609E-02  0.1014578E+00
        1   -1    0    0  501    0  0.00000000000E+00  0.00000000000E+00  0.12065612744E+04  0.12065612744E+04  0.50400001928E-02 0. -1.
       -1   -1    0    0    0  501  0.00000000000E+00  0.00000000000E+00 -0.51170239034E+02  0.51170239282E+02  0.50400001928E-02 0.  1.
    10030    2    1    2    0    0  0.00000000000E+00  0.00000000000E+00  0.11553910354E+04  0.12577315137E+04  0.49695081843E+03 0.  0.
        1    1    3    3  502    0  0.35613813125E+02 -0.22370841979E+03  0.83612267200E+03  0.86626492681E+03  0.50400001928E-02 0. -1.
       -1    1    3    3    0  502 -0.35613813125E+02  0.22370841979E+03  0.31926836338E+03  0.39146658690E+03  0.50400001928E-02 0.  1.
</event>
<event>
 5   0  0.1068522E-01  0.4965437E+03  0.7818609E-02  0.1014685E+00
       -1   -1    0    0    0  501  0.00000000000E+00  0.00000000000E+00  0.48711749414E+03  0.48711749417E+03  0.50400001928E-02 0.  1.
        1   -1    0    0  501    0  0.00000000000E+00  0.00000000000E+00 -0.12653808668E+03  0.12653808678E+03  0.50400001928E-02 0. -1.
    10030    2    1    2    0    0  0.00000000000E+00  0.00000000000E+00  0.36057940745E+03  0.61365558095E+03  0.49654371706E+03 0.  0.
        2    1    3    3  502    0  0.15064883946E+03 -0.25187588746E+02  0.42218088348E+03  0.44896122977E+03  0.25500000920E-02 0.  1.
       -2    1    3    3    0  502 -0.15064883946E+03  0.25187588746E+02 -0.61601476022E+02  0.16469435118E+03  0.25500000920E-02 0. -1.
</event>
<event>
 5   0  0.1709372E-01  0.4977926E+03  0.7818609E-02  0.1014357E+00
       -2   -1    0    0    0  501  0.00000000000E+00  0.00000000000E+00  0.39284312807E+02  0.39284312890E+02  0.25500000920E-02 0.  1.
        2   -1    0    0  501    0  0.00000000000E+00  0.00000000000E+00 -0.15769493375E+04  0.15769493375E+04  0.25500000920E-02 0. -1.
    10030    2    1    2    0    0  0.00000000000E+00  0.00000000000E+00 -0.15376650247E+04  0.16162336504E+04  0.49779261194E+03 0.  0.
        4    1    3    3  502    0  0.34929285347E+02 -0.95418536180E+02 -0.15065283682E+04  0.15099516844E+04  0.12699999809E+01 0. -1.
       -4    1    3    3    0  502 -0.34929285347E+02  0.95418536180E+02 -0.31136656468E+02  0.10628196600E+03  0.12699999809E+01 0.  1.
</event>
<event>
 5   0  0.1141970E-01  0.5078891E+03  0.7818609E-02  0.1011740E+00
       -1   -1    0    0    0  501  0.00000000000E+00  0.00000000000E+00  0.38528942594E+03  0.38528942597E+03  0.50400001928E-02 0. -1.
        1   -1    0    0  501    0  0.00000000000E+00  0.00000000000E+00 -0.16737504683E+03  0.16737504690E+03  0.50400001928E-02 0.  1.
    10030    2    1    2    0    0  0.00000000000E+00  0.00000000000E+00  0.21791437911E+03  0.55266447288E+03  0.50788910498E+03 0.  0.
        3    1    3    3  502    0  0.82076848550E+02 -0.21085636587E+03  0.23440652546E+03  0.32579663208E+03  0.10100000352E+00 0. -1.
       -3    1    3    3    0  502 -0.82076848550E+02  0.21085636587E+03 -0.16492146349E+02  0.22686784080E+03  0.10100000352E+00 0.  1.
</event>
<event>
 5   0  0.1683148E-01  0.4911948E+03  0.7818609E-02  0.1016103E+00
       -2   -1    0    0    0  501  0.00000000000E+00  0.00000000000E+00  0.12085592007E+03  0.12085592010E+03  0.25500000920E-02 0. -1.
        2   -1    0    0  501    0  0.00000000000E+00  0.00000000000E+00 -0.49909076234E+03  0.49909076234E+03  0.25500000920E-02 0.  1.
    10030    2    1    2    0    0  0.00000000000E+00  0.00000000000E+00 -0.37823484227E+03  0.61994668244E+03  0.49119476093E+03 0.  0.
        2    1    3    3  502    0 -0.18165755465E+03 -0.12806165976E+03 -0.57234543011E+02  0.22951045463E+03  0.25500000920E-02 0. -1.
       -2    1    3    3    0  502  0.18165755465E+03  0.12806165976E+03 -0.32100029926E+03  0.39043622782E+03  0.25500000920E-02 0.  1.
</event>
<event>
 5   0  0.1709372E-01  0.4996465E+03  0.7818609E-02  0.1013871E+00
        2   -1    0    0  501    0  0.00000000000E+00  0.00000000000E+00  0.18901522887E+04  0.18901522887E+04  0.25500000920E-02 0.  1.
       -2   -1    0    0    0  501  0.00000000000E+00  0.00000000000E+00 -0.33019378537E+02  0.33019378635E+02  0.25500000920E-02 0. -1.
    10030    2    1    2    0    0  0.00000000000E+00  0.00000000000E+00  0.18571329101E+04  0.19231716673E+04  0.49964649106E+03 0.  0.
        4    1    3    3  502    0 -0.27830942318E+02  0.20278003756E+03  0.14798801271E+04  0.14939682421E+04  0.12699999809E+01 0.  1.
       -4    1    3    3    0  502  0.27830942318E+02 -0.20278003756E+03  0.37725278302E+03  0.42920342517E+03  0.12699999809E+01 0. -1.
</event>
<event>
 5   0  0.1123271E-01  0.4991856E+03  0.7818609E-02  0.1013992E+00
        1   -1    0    0  501    0  0.00000000000E+00  0.00000000000E+00  0.73779496739E+03  0.73779496741E+03  0.50400001928E-02 0. -1.
       -1   -1    0    0    0  501  0.00000000000E+00  0.00000000000E+00 -0.84436134560E+02  0.84436134711E+02  0.50400001928E-02 0.  1.
    10030    2    1    2    0    0  0.00000000000E+00  0.00000000000E+00  0.65335883283E+03  0.82223110212E+03  0.49918555754E+03 0.  0.
        5    1    3    3  502    0 -0.21599435701E+03 -0.82333339737E+02  0.48156471322E+03  0.53419004494E+03  0.46999998093E+01 0. -1.
       -5    1    3    3    0  502  0.21599435701E+03  0.82333339737E+02  0.17179411961E+03  0.28804105718E+03  0.46999998093E+01 0.  1.
</event>
<event>
 5   0  0.7220250E-02  0.4999545E+03  0.7818609E-02  0.1013791E+00
       -4   -1    0    0    0  501  0.00000000000E+00  0.00000000000E+00  0.17713927689E+03  0.17714382947E+03  0.12699999809E+01 0. -1.
        4   -1    0    0  501    0  0.00000000000E+00  0.00000000000E+00 -0.35275524884E+03  0.35275753498E+03  0.12699999809E+01 0.  1.
    10030    2    1    2    0    0  0.00000000000E+00  0.00000000000E+00 -0.17561597195E+03  0.52990136445E+03  0.49995448437E+03 0.  0.
        2    1    3    3  502    0 -0.11171831504E+03 -0.15975992483E+03  0.78039677253E+02  0.20998668227E+03  0.25500000920E-02 0. -1.
       -2    1    3    3    0  502  0.11171831504E+03  0.15975992483E+03 -0.25365564920E+03  0.31991468218E+03  0.25500000920E-02 0.  1.
</event>
<event>
 5   0  0.1683148E-01  0.4960543E+03  0.7818609E-02  0.1014814E+00
       -2   -1    0    0    0  501  0.00000000000E+00  0.00000000000E+00  0.52422579165E+02  0.52422579227E+02  0.25500000920E-02 0. -1.
        2   -1    0    0  501    0  0.00000000000E+00  0.00000000000E+00 -0.11734920038E+04  0.11734920038E+04  0.25500000920E-02 0.  1.
    10030    2    1    2    0    0  0.00000000000E+00  0.00000000000E+00 -0.11210694247E+04  0.12259145831E+04  0.49605434182E+03 0.  0.
        2    1    3    3  502    0  0.21708898668E+03  0.11513200813E+03 -0.47729559287E+03  0.53683711721E+03  0.25500000920E-02 0. -1.
       -2    1    3    3    0  502 -0.21708898668E+03 -0.11513200813E+03 -0.64377383179E+03  0.68907746585E+03  0.25500000920E-02 0.  1.
</event>
<event>
 5   0  0.1782124E-01  0.4974512E+03  0.7818609E-02  0.1014446E+00
       -2   -1    0    0    0  501  0.00000000000E+00  0.00000000000E+00  0.10719324361E+03  0.10719324364E+03  0.25500000920E-02 0. -1.
        2   -1    0    0  501    0  0.00000000000E+00  0.00000000000E+00 -0.57712992055E+03  0.57712992055E+03  0.25500000920E-02 0.  1.
    10030    2    1    2    0    0  0.00000000000E+00  0.00000000000E+00 -0.46993667694E+03  0.68432316419E+03  0.49745121642E+03 0.  0.
        3    1    3    3  502    0 -0.22835649292E+03  0.13403450041E+02 -0.10061725577E+03  0.24990034552E+03  0.10100000352E+00 0. -1.
       -3    1    3    3    0  502  0.22835649292E+03 -0.13403450041E+02 -0.36931942117E+03  0.43442281868E+03  0.10100000352E+00 0.  1.
</event>
<event>
 5   0  0.1760649E-01  0.4956057E+03  0.7818609E-02  0.1014932E+00
       -2   -1    0    0    0  501  0.00000000000E+00  0.00000000000E+00  0.46696548205E+03  0.46696548206E+03  0.25500000920E-02 0. -1.
        2   -1    0    0  501    0  0.00000000000E+00  0.00000000000E+00 -0.13150064856E+03  0.13150064859E+03  0.25500000920E-02 0.  1.
    10030    2    1    2    0    0  0.00000000000E+00  0.00000000000E+00  0.33546483349E+03  0.59846613064E+03  0.49560574555E+03 0.  0.
        5    1    3    3  502    0 -0.73406869347E+02  0.99450707293E+02  0.42701779190E+03  0.44457316186E+03  0.46999998093E+01 0. -1.
       -5    1    3    3    0  502  0.73406869347E+02 -0.99450707293E+02 -0.91552958414E+02  0.15389296878E+03  0.46999998093E+01 0.  1.
</event>
<event>
 5   0  0.1068522E-01  0.4997256E+03  0.7818609E-02  0.1013851E+00
        1   -1    0    0  501    0  0.00000000000E+00  0.00000000000E+00  0.17370805278E+04  0.17370805278E+04  0.50400001928E-02 0. -1.
       -1   -1    0    0    0  501  0.00000000000E+00  0.00000000000E+00 -0.35940426286E+02  0.35940426640E+02  0.50400001928E-02 0.  1.
    10030    2    1    2    0    0  0.00000000000E+00  0.00000000000E+00  0.17011401015E+04  0.17730209545E+04  0.49972558463E+03 0.  0.
        2    1    3    3  502    0 -0.59349782934E+02  0.24138643277E+03  0.94044057522E+03  0.97273751968E+03  0.25500000920E-02 0. -1.
       -2    1    3    3    0  502  0.59349782934E+02 -0.24138643277E+03  0.76069952630E+03  0.80028343478E+03  0.25500000920E-02 0.  1.
</event>
<event>
 5   0  0.1683148E-01  0.5004619E+03  0.7818609E-02  0.1013658E+00
       -2   -1    0    0    0  501  0.00000000000E+00  0.00000000000E+00  0.56466834760E+02  0.56466834817E+02  0.25500000920E-02 0.  1.
        2   -1    0    0  501    0  0.00000000000E+00  0.00000000000E+00 -0.11088905596E+04  0.11088905596E+04  0.25500000920E-02 0. -1.
    10030    2    1    2    0    0  0.00000000000E+00  0.00000000000E+00 -0.10524237248E+04  0.11653573944E+04  0.50046194672E+03 0.  0.
        2    1    3    3  502    0  0.17260576281E+03 -0.18065394666E+03 -0.49437415601E+03  0.55392635245E+03  0.25500000920E-02 0.  1.
       -2    1    3    3    0  502 -0.17260576281E+03  0.18065394666E+03 -0.55804956879E+03  0.61143104193E+03  0.25500000920E-02 0. -1.
</event>
<event>
 5   0  0.7220250E-02  0.5016606E+03  0.7818609E-02  0.1013346E+00
       -4   -1    0    0    0  501  0.00000000000E+00  0.00000000000E+00  0.22464211191E+03  0.22464570181E+03  0.12699999809E+01 0. -1.
        4   -1    0    0  501    0  0.00000000000E+00  0.00000000000E+00 -0.28006415136E+03  0.28006703086E+03  0.12699999809E+01 0.  1.
    10030    2    1    2    0    0  0.00000000000E+00  0.00000000000E+00 -0.55422039451E+02  0.50471273268E+03  0.50166058253E+03 0.  0.
        1    1    3    3  502    0 -0.66949663327E+01  0.12469936743E+03  0.19114656782E+03  0.22832381660E+03  0.50400001928E-02 0. -1.
       -1    1    3    3    0  502  0.66949663327E+01 -0.12469936743E+03 -0.24656860727E+03  0.27638891608E+03  0.50400001928E-02 0.  1.
</event>
<event>
 5   0  0.1760649E-01  0.5050739E+03  0.7818609E-02  0.1012463E+00
        2   -1    0    0  501    0  0.00000000000E+00  0.00000000000E+00  0.62450657508E+03  0.62450657509E+03  0.25500000920E-02 0. -1.
       -2   -1    0    0    0  501  0.00000000000E+00  0.00000000000E+00 -0.10212049103E+03  0.10212049107E+03  0.25500000920E-02 0.  1.
    10030    2    1    2    0    0  0.00000000000E+00  0.00000000000E+00  0.52238608405E+03  0.72662706615E+03  0.50507392772E+03 0.  0.
        5    1    3    3  502    0 -0.16109250616E+03  0.40697917489E+02 -0.12324391594E+02  0.16667662300E+03  0.46999998093E+01 0. -1.
       -5    1    3    3    0  502  0.16109250616E+03 -0.40697917489E+02  0.53471047564E+03  0.55995044316E+03  0.46999998093E+01 0.  1.
</event>
<event>
 5   0  0.1074281E-01  0.4892636E+03  0.7818609E-02  0.1016620E+00
        1   -1    0    0  501    0  0.00000000000E+00  0.00000000000E+00  0.72951175327E+03  0.72951175329E+03  0.50400001928E-02 0. -1.
       -1   -1    0    0    0  501  0.00000000000E+00  0.00000000000E+00 -0.82033919271E+02  0.82033919426E+02  0.50400001928E-02 0.  1.
    10030    2    1    2    0    0  0.00000000000E+00  0.00000000000E+00  0.64747783400E+03  0.81154567272E+03  0.48926356229E+03 0.  0.
        4    1    3    3  502    0 -0.20607602775E+03  0.43930408052E+02  0.52988566998E+03  0.57024349721E+03  0.12699999809E+01 0. -1.
       -4    1    3    3    0  502  0.20607602775E+03 -0.43930408052E+02  0.11759216403E+03  0.24130217551E+03  0.12699999809E+01 0.  1.
</event>
<event>
 5   0  0.1068522E-01  0.5036449E+03  0.7818609E-02  0.1012832E+00
       -1   -1    0    0    0  501  0.00000000000E+00  0.00000000000E+00  0.79746592205E+03  0.79746592206E+03  0.50400001928E-02 0. -1.
        1   -1    0    0  501    0  0.00000000000E+00  0.00000000000E+00 -0.79520077356E+02  0.79520077516E+02  0.50400001928E-02 0.  1.
    10030    2    1    2    0    0  0.00000000000E+00  0.00000000000E+00  0.71794584469E+03  0.87698599958E+03  0.50364492209E+03 0.  0.
        2    1    3    3  502    0 -0.90501707878E+02  0.17881200443E+03  0.93462174554E+02  0.22113224581E+03  0.25500000920E-02 0.  1.
       -2    1    3    3    0  502  0.90501707878E+02 -0.17881200443E+03  0.62448367014E+03  0.65585375377E+03  0.25500000920E-02 0. -1.
</event>
<event>
 5   0  0.1147245E-01  0.4968344E+03  0.7818609E-02  0.1014609E+00
        1   -1    0    0  501    0  0.00000000000E+00  0.00000000000E+00  0.14355268932E+03  0.14355268941E+03  0.50400001928E-02 0.  1.
       -1   -1    0    0    0  501  0.00000000000E+00  0.00000000000E+00 -0.42988466764E+03  0.42988466767E+03  0.50400001928E-02 0. -1.
    10030    2    1    2    0    0  0.00000000000E+00  0.00000000000E+00 -0.28633197832E+03  0.57343735708E+03  0.49683437953E+03 0.  0.
        1    1    3    3  502    0  0.20866924497E+03 -0.89284448613E+02 -0.25971286034E+03  0.34491352019E+03  0.50400001928E-02 0. -1.
       -1    1    3    3    0  502 -0.20866924497E+03  0.89284448613E+02 -0.26619117988E+02  0.22852383689E+03  0.50400001928E-02 0.  1.
</event>
<event>
 5   0  0.1760649E-01  0.5021577E+03  0.7818609E-02  0.1013217E+00
        2   -1    0    0  501    0  0.00000000000E+00  0.00000000000E+00  0.28414967026E+03  0.28414967027E+03  0.25500000920E-02 0. -1.
       -2   -1    0    0    0  501  0.00000000000E+00  0.00000000000E+00 -0.22185695418E+03  0.22185695419E+03  0.25500000920E-02 0.  1.
    10030    2    1    2    0    0  0.00000000000E+00  0.00000000000E+00  0.62292716076E+02  0.50600662446E+03  0.50215766600E+03 0.  0.
        5    1    3    3  502    0 -0.72267559059E+02  0.18219311993E+03  0.18919741532E+03  0.27246042833E+03  0.46999998093E+01 0. -1.
       -5    1    3    3    0  502  0.72267559059E+02 -0.18219311993E+03 -0.12690469924E+03  0.23354619614E+03  0.46999998093E+01 0.  1.
</event>
<event>
 5   0  0.1123271E-01  0.4464418E+03  0.7818609E-02  0.1028788E+00
        1   -1    0    0  501    0  0.00000000000E+00  0.00000000000E+00  0.10192699649E+03  0.10192699662E+03  0.50400001928E-02 0.  1.
       -1   -1    0    0    0  501  0.00000000000E+00  0.00000000000E+00 -0.48885545271E+03  0.48885545274E+03  0.50400001928E-02 0. -1.
    10030    2    1    2    0    0  0.00000000000E+00  0.00000000000E+00 -0.38692845622E+03  0.59078244935E+03  0.44644179042E+03 0.  0.
        5    1    3    3  502    0 -0.20821767064E+03 -0.79569181679E+02 -0.17899072168E+03  0.28591191210E+03  0.46999998093E+01 0.  1.
       -5    1    3    3    0  502  0.20821767064E+03  0.79569181679E+02 -0.20793773454E+03  0.30487053725E+03  0.46999998093E+01 0. -1.
</event>
<event>
 5   0  0.1147245E-01  0.4846096E+03  0.7818609E-02  0.1017876E+00
       -1   -1    0    0    0  501  0.00000000000E+00  0.00000000000E+00  0.23623572074E+03  0.23623572080E+03  0.50400001928E-02 0.  1.
        1   -1    0    0  501    0  0.00000000000E+00  0.00000000000E+00 -0.24852984893E+03  0.24852984898E+03  0.50400001928E-02 0. -1.
    10030    2    1    2    0    0  0.00000000000E+00  0.00000000000E+00 -0.12294128186E+02  0.48476556978E+03  0.48460964916E+03 0.  0.
        1    1    3    3  502    0 -0.71559377484E+01  0.16201992105E+03  0.17393853932E+03  0.23781563815E+03  0.50400001928E-02 0.  1.
       -1    1    3    3    0  502  0.71559377484E+01 -0.16201992105E+03 -0.18623266750E+03  0.24694993163E+03  0.50400001928E-02 0. -1.
</event>
<event>
 5   0  0.1827698E-01  0.4930952E+03  0.7818609E-02  0.1015597E+00
       -2   -1    0    0    0  501  0.00000000000E+00  0.00000000000E+00  0.13340690926E+03  0.13340690928E+03  0.25500000920E-02 0.  1.
        2   -1    0    0  501    0  0.00000000000E+00  0.00000000000E+00 -0.45564137185E+03  0.45564137186E+03  0.25500000920E-02 0. -1.
    10030    2    1    2    0    0  0.00000000000E+00  0.00000000000E+00 -0.32223446259E+03  0.58904828114E+03  0.49309515170E+03 0.  0.
        1    1    3    3  502    0 -0.21082292494E+03  0.12316190899E+03 -0.20198814377E+03  0.31688226797E+03  0.50400001928E-02 0. -1.
       -1    1    3    3    0  502  0.21082292494E+03 -0.12316190899E+03 -0.12024631882E+03  0.27216601317E+03  0.50400001928E-02 0.  1.
</event>
<event>
 5   0  0.1147245E-01  0.4903445E+03  0.7818609E-02  0.1016330E+00
       -1   -1    0    0    0  501  0.00000000000E+00  0.00000000000E+00  0.53969713996E+02  0.53969714231E+02  0.50400001928E-02 0.  1.
        1   -1    0    0  501    0  0.00000000000E+00  0.00000000000E+00 -0.11137622837E+04  0.11137622837E+04  0.50400001928E-02 0. -1.
    10030    2    1    2    0    0  0.00000000000E+00  0.00000000000E+00 -0.10597925697E+04  0.11677319980E+04  0.49034449953E+03 0.  0.
        1    1    3    3  502    0  0.27818619154E+02 -0.80216195280E+02 -0.10776350509E+04  0.10809744754E+04  0.50400001928E-02 0. -1.
       -1    1    3    3    0  502 -0.27818619154E+02  0.80216195280E+02  0.17842481180E+02  0.86757522538E+02  0.50400001928E-02 0.  1.
</event>
<event>
 5   0  0.1782124E-01  0.4973647E+03  0.7818609E-02  0.1014469E+00
       -2   -1    0    0    0  501  0.00000000000E+00  0.00000000000E+00  0.17285833723E+03  0.17285833725E+03  0.25500000920E-02 0. -1.
        2   -1    0    0  501    0  0.00000000000E+00  0.00000000000E+00 -0.35776650358E+03  0.35776650359E+03  0.25500000920E-02 0.  1.
    10030    2    1    2    0    0  0.00000000000E+00  0.00000000000E+00 -0.18490816635E+03  0.53062484083E+03  0.49736474717E+03 0.  0.
        3    1    3    3  502    0 -0.15330194945E+03  0.14894351508E+03 -0.22806553284E+03  0.31256928169E+03  0.10100000352E+00 0. -1.
       -3    1    3    3    0  502  0.15330194945E+03 -0.14894351508E+03  0.43157366484E+02  0.21805555914E+03  0.10100000352E+00 0.  1.
</event>
<event>
 5   0  0.1147245E-01  0.5035545E+03  0.7818609E-02  0.1012855E+00
       -1   -1    0    0    0  501  0.00000000000E+00  0.00000000000E+00  0.16844089750E+03  0.16844089757E+03  0.50400001928E-02 0.  1.
        1   -1    0    0  501    0  0.00000000000E+00  0.00000000000E+00 -0.37634442070E+03  0.37634442073E+03  0.50400001928E-02 0. -1.
    10030    2    1    2    0    0  0.00000000000E+00  0.00000000000E+00 -0.20790352320E+03  0.54478531831E+03  0.50355453338E+03 0.  0.
        1    1    3    3  502    0  0.15163631920E+03 -0.20037900036E+03 -0.12093674956E+03  0.27887454976E+03  0.50400001928E-02 0. -1.
       -1    1    3    3    0  502 -0.15163631920E+03  0.20037900036E+03 -0.86966773641E+02  0.26591076855E+03  0.50400001928E-02 0.  1.
</event>
<event>
 5   0  0.1074281E-01  0.4889002E+03  0.7818609E-02  0.1016717E+00
       -1   -1    0    0    0  501  0.00000000000E+00  0.00000000000E+00  0.17490465135E+03  0.17490465142E+03  0.50400001928E-02 0. -1.
        1   -1    0    0  501    0  0.00000000000E+00  0.00000000000E+00 -0.34164814494E+03  0.34164814498E+03  0.50400001928E-02 0.  1.
    10030    2    1    2    0    0  0.00000000000E+00  0.00000000000E+00 -0.16674349359E+03  0.51655279640E+03  0.48890019311E+03 0.  0.
        4    1    3    3  502    0  0.19564208192E+03  0.32116825473E+00  0.71472315228E+02  0.20829265977E+03  0.12699999809E+01 0. -1.
       -4    1    3    3    0  502 -0.19564208192E+03 -0.32116825473E+00 -0.23821580882E+03  0.30826013664E+03  0.12699999809E+01 0.  1.
</event>
<event>
 5   0  0.1827698E-01  0.5004876E+03  0.7818609E-02  0.1013652E+00
       -2   -1    0    0    0  501  0.00000000000E+00  0.00000000000E+00  0.83817431823E+02  0.83817431861E+02  0.25500000920E-02 0. -1.
        2   -1    0    0  501    0  0.00000000000E+00  0.00000000000E+00 -0.74712348566E+03  0.74712348566E+03  0.25500000920E-02 0.  1.
    10030    2    1    2    0    0  0.00000000000E+00  0.00000000000E+00 -0.66330605383E+03  0.83094091752E+03  0.50048764956E+03 0.  0.
        1    1    3    3  502    0 -0.57349152220E+02  0.20135691978E+03 -0.10407930549E+03  0.23380769077E+03  0.50400001928E-02 0. -1.
       -1    1    3    3    0  502  0.57349152220E+02 -0.20135691978E+03 -0.55922674834E+03  0.59713322675E+03  0.50400001928E-02 0.  1.
</event>
<event>
 5   0  0.1147245E-01  0.5084198E+03  0.7818609E-02  0.1011604E+00
       -1   -1    0    0    0  501  0.00000000000E+00  0.00000000000E+00  0.26848361285E+03  0.26848361289E+03  0.50400001928E-02 0. -1.
        1   -1    0    0  501    0  0.00000000000E+00  0.00000000000E+00 -0.24069505770E+03  0.24069505776E+03  0.50400001928E-02 0.  1.
    10030    2    1    2    0    0  0.00000000000E+00  0.00000000000E+00  0.27788555144E+02  0.50917867065E+03  0.50841982145E+03 0.  0.
        1    1    3    3  502    0  0.90701082852E+02 -0.14783996350E+03  0.20001928596E+03  0.26474715488E+03  0.50400001928E-02 0. -1.
       -1    1    3    3    0  502 -0.90701082852E+02  0.14783996350E+03 -0.17223073082E+03  0.24443151577E+03  0.50400001928E-02 0.  1.
</event>
<event>
 5   0  0.1147245E-01  0.4964712E+03  0.7818609E-02  0.1014704E+00
        1   -1    0    0  501    0  0.00000000000E+00  0.00000000000E+00  0.57461520375E+03  0.57461520377E+03  0.50400001928E-02 0. -1.
       -1   -1    0    0    0  501  0.00000000000E+00  0.00000000000E+00 -0.10723855219E+03  0.10723855231E+03  0.50400001928E-02 0.  1.
    10030    2    1    2    0    0  0.00000000000E+00  0.00000000000E+00  0.46737665155E+03  0.68185375608E+03  0.49647115753E+03 0.  0.
        1    1    3    3  502    0  0.37832579167E+02  0.30791474456E+02  0.56796815915E+03  0.57005898710E+03  0.50400001928E-02 0. -1.
       -1    1    3    3    0  502 -0.37832579167E+02 -0.30791474456E+02 -0.10059150759E+03  0.11179476898E+03  0.50400001928E-02 0.  1.
</event>
<event>
 5   0  0.1782124E-01  0.4994637E+03  0.7818609E-02  0.1013919E+00
        2   -1    0    0  501    0  0.00000000000E+00  0.00000000000E+00  0.34764659169E+03  0.34764659170E+03  0.25500000920E-02 0. -1.
       -2   -1    0    0    0  501  0.00000000000E+00  0.00000000000E+00 -0.17939479734E+03  0.17939479735E+03  0.25500000920E-02 0.  1.
    10030    2    1    2    0    0  0.00000000000E+00  0.00000000000E+00  0.16825179435E+03  0.52704138905E+03  0.49946367182E+03 0.  0.
        3    1    3    3  502    0  0.19988239377E+03 -0.48564787763E+02  0.23355886020E+03  0.31122541883E+03  0.10100000352E+00 0. -1.
       -3    1    3    3    0  502 -0.19988239377E+03  0.48564787763E+02 -0.65307065842E+02  0.21581597022E+03  0.10100000352E+00 0.  1.
</event>
<event>
 5   0  0.1760649E-01  0.5031488E+03  0.7818609E-02  0.1012960E+00
        2   -1    0    0  501    0  0.00000000000E+00  0.00000000000E+00  0.94671897382E+03  0.94671897382E+03  0.25500000920E-02 0. -1.
       -2   -1    0    0    0  501  0.00000000000E+00  0.00000000000E+00 -0.66851590452E+02  0.66851590500E+02  0.25500000920E-02 0.  1.
    10030    2    1    2    0    0  0.00000000000E+00  0.00000000000E+00  0.87986738336E+03  0.10135705643E+04  0.50314876185E+03 0.  0.
        5    1    3    3  502    0 -0.23252508537E+03 -0.55904755676E+02  0.59693616352E+03  0.64307707963E+03  0.46999998093E+01 0.  1.
       -5    1    3    3    0  502  0.23252508537E+03  0.55904755676E+02  0.28293121985E+03  0.37049348469E+03  0.46999998093E+01 0. -1.
</event>
<event>
 5   0  0.7220250E-02  0.4685622E+03  0.7818609E-02  0.1022327E+00
        3   -1    0    0  501    0  0.00000000000E+00  0.00000000000E+00  0.18348453585E+03  0.18348456365E+03  0.10100000352E+00 0.  1.
       -3   -1    0    0    0  501  0.00000000000E+00  0.00000000000E+00 -0.29914034136E+03  0.29914035841E+03  0.10100000352E+00 0. -1.
    10030    2    1    2    0    0  0.00000000000E+00  0.00000000000E+00 -0.11565580551E+03  0.48262492206E+03  0.46856221577E+03 0.  0.
        3    1    3    3  502    0  0.32305341659E+02 -0.23153588899E+03 -0.42033934586E+02  0.23752760860E+03  0.10100000352E+00 0. -1.
       -3    1    3    3    0  502 -0.32305341659E+02  0.23153588899E+03 -0.73621870922E+02  0.24509731346E+03  0.10100000352E+00 0.  1.
</event>
<event>
 5   0  0.1683148E-01  0.5029840E+03  0.7818609E-02  0.1013003E+00
        2   -1    0    0  501    0  0.00000000000E+00  0.00000000000E+00  0.12334135578E+04  0.12334135578E+04  0.25500000920E-02 0. -1.
       -2   -1    0    0    0  501  0.00000000000E+00  0.00000000000E+00 -0.51279002600E+02  0.51279002663E+02  0.25500000920E-02 0.  1.
    10030    2    1    2    0    0  0.00000000000E+00  0.00000000000E+00  0.11821345552E+04  0.12846925605E+04  0.50298396427E+03 0.  0.
        2    1    3    3  502    0 -0.97636515012E+00 -0.16789741882E+03  0.10692973773E+04  0.10823988995E+04  0.25500000920E-02 0. -1.
       -2    1    3    3    0  502  0.97636515012E+00  0.16789741882E+03  0.11283717786E+03  0.20229366093E+03  0.25500000920E-02 0.  1.
</event>
<event>
 5   0  0.1683148E-01  0.4975359E+03  0.7818609E-02  0.1014424E+00
        2   -1    0    0  501    0  0.00000000000E+00  0.00000000000E+00  0.59958848208E+03  0.59958848209E+03  0.25500000920E-02 0.  1.
       -2   -1    0    0    0  501  0.00000000000E+00  0.00000000000E+00 -0.10321328855E+03  0.10321328859E+03  0.25500000920E-02 0. -1.
    10030    2    1    2    0    0  0.00000000000E+00  0.00000000000E+00  0.49637519353E+03  0.70280177067E+03  0.49753592444E+03 0.  0.
        2    1    3    3  502    0 -0.16339581840E+03  0.22844575443E+01 -0.16765622434E+02  0.16426959036E+03  0.25500000920E-02 0. -1.
       -2    1    3    3    0  502  0.16339581840E+03 -0.22844575443E+01  0.51314081596E+03  0.53853218031E+03  0.25500000920E-02 0.  1.
</event>
<event>
 5   0  0.1782124E-01  0.5053636E+03  0.7818609E-02  0.1012388E+00
       -2   -1    0    0    0  501  0.00000000000E+00  0.00000000000E+00  0.30700395321E+03  0.30700395322E+03  0.25500000920E-02 0.  1.
        2   -1    0    0  501    0  0.00000000000E+00  0.00000000000E+00 -0.20797153234E+03  0.20797153236E+03  0.25500000920E-02 0. -1.
    10030    2    1    2    0    0  0.00000000000E+00  0.00000000000E+00  0.99032420867E+02  0.51497548558E+03  0.50536356256E+03 0.  0.
        3    1    3    3  502    0 -0.17383226192E+03  0.12130147443E+03  0.18966892813E+03  0.28443982753E+03  0.10100000352E+00 0. -1.
       -3    1    3    3    0  502  0.17383226192E+03 -0.12130147443E+03 -0.90636507266E+02  0.23053565805E+03  0.10100000352E+00 0.  1.
</event>
<event>
 5   0  0.1068522E-01  0.4883350E+03  0.7818609E-02  0.1016869E+00
        1   -1    0    0  501    0  0.00000000000E+00  0.00000000000E+00  0.10485677467E+04  0.10485677467E+04  0.50400001928E-02 0.  1.
       -1   -1    0    0    0  501  0.00000000000E+00  0.00000000000E+00 -0.56856372574E+02  0.56856372798E+02  0.50400001928E-02 0. -1.
    10030    2    1    2    0    0  0.00000000000E+00  0.00000000000E+00  0.99171137416E+03  0.11054241195E+04  0.48833496131E+03 0.  0.
        2    1    3    3  502    0  0.16404212448E+03  0.14864071217E+03  0.72906622904E+03  0.76193270455E+03  0.25500000920E-02 0.  1.
       -2    1    3    3    0  502 -0.16404212448E+03 -0.14864071217E+03  0.26264514512E+03  0.34349141500E+03  0.25500000920E-02 0. -1.
</event>
<event>
 5   0  0.1827698E-01  0.5045072E+03  0.7818609E-02  0.1012609E+00
       -2   -1    0    0    0  501  0.00000000000E+00  0.00000000000E+00  0.68726960016E+02  0.68726960063E+02  0.25500000920E-02 0. -1.
        2   -1    0    0  501    0  0.00000000000E+00  0.00000000000E+00 -0.92586474896E+03  0.92586474897E+03  0.25500000920E-02 0.  1.
    10030    2    1    2    0    0  0.00000000000E+00  0.00000000000E+00 -0.85713778895E+03  0.99459170903E+03  0.50450716390E+03 0.  0.
        1    1    3    3  502    0  0.30086694279E+02  0.23552890510E+03 -0.59646097327E+03  0.64198502082E+03  0.50400001928E-02 0.  1.
       -1    1    3    3    0  502 -0.30086694279E+02 -0.23552890510E+03 -0.26067681568E+03  0.35260668821E+03  0.50400001928E-02 0. -1.
</event>
<event>
 5   0  0.1147245E-01  0.4993316E+03  0.7818609E-02  0.1013954E+00
       -1   -1    0    0    0  501  0.00000000000E+00  0.00000000000E+00  0.28909147959E+02  0.28909148398E+02  0.50400001928E-02 0. -1.
        1   -1    0    0  501    0  0.00000000000E+00  0.00000000000E+00 -0.21561689293E+04  0.21561689293E+04  0.50400001928E-02 0.  1.
    10030    2    1    2    0    0  0.00000000000E+00  0.00000000000E+00 -0.21272597813E+04  0.21850780777E+04  0.49933158156E+03 0.  0.
        1    1    3    3  502    0 -0.14826258894E+03  0.13720188807E+03 -0.42158084551E+03  0.46747894358E+03  0.50400001928E-02 0. -1.
       -1    1    3    3    0  502  0.14826258894E+03 -0.13720188807E+03 -0.17056789358E+04  0.17175991341E+04  0.50400001928E-02 0.  1.
</event>
<event>
 5   0  0.1141970E-01  0.4964984E+03  0.7818609E-02  0.1014697E+00
       -1   -1    0    0    0  501  0.00000000000E+00  0.00000000000E+00  0.16923333124E+03  0.16923333131E+03  0.50400001928E-02 0.  1.
        1   -1    0    0  501    0  0.00000000000E+00  0.00000000000E+00 -0.36415794926E+03  0.36415794929E+03  0.50400001928E-02 0. -1.
    10030    2    1    2    0    0  0.00000000000E+00  0.00000000000E+00 -0.19492461802E+03  0.53339128061E+03  0.49649839025E+03 0.  0.
        3    1    3    3  502    0 -0.59815252388E+02  0.24090090921E+03 -0.93093143506E+02  0.26509895519E+03  0.10100000352E+00 0.  1.
       -3    1    3    3    0  502  0.59815252388E+02 -0.24090090921E+03 -0.10183147452E+03  0.26829232542E+03  0.10100000352E+00 0. -1.
</event>
<event>
 5   0  0.1068522E-01  0.4952845E+03  0.7818609E-02  0.1015017E+00
        1   -1    0    0  501    0  0.00000000000E+00  0.00000000000E+00  0.46743755299E+03  0.46743755302E+03  0.50400001928E-02 0. -1.
       -1   -1    0    0    0  501  0.00000000000E+00  0.00000000000E+00 -0.13119757920E+03  0.13119757930E+03  0.50400001928E-02 0.  1.
    10030    2    1    2    0    0  0.00000000000E+00  0.00000000000E+00  0.33623997379E+03  0.59863513232E+03  0.49528446540E+03 0.  0.
        2    1    3    3  502    0 -0.16525219652E+03 -0.18303673742E+03  0.19557407181E+03  0.31473791203E+03  0.25500000920E-02 0.  1.
       -2    1    3    3    0  502  0.16525219652E+03  0.18303673742E+03  0.14066590198E+03  0.28389722028E+03  0.25500000920E-02 0. -1.
</event>
<event>
 5   0  0.1709372E-01  0.5066539E+03  0.7818609E-02  0.1012057E+00
        2   -1    0    0  501    0  0.00000000000E+00  0.00000000000E+00  0.11624458835E+04  0.11624458836E+04  0.25500000920E-02 0. -1.
       -2   -1    0    0    0  501  0.00000000000E+00  0.00000000000E+00 -0.55206486384E+02  0.55206486443E+02  0.25500000920E-02 0.  1.
    10030    2    1    2    0    0  0.00000000000E+00  0.00000000000E+00  0.11072393972E+04  0.12176523700E+04  0.50665393665E+03 0.  0.
        4    1    3    3  502    0 -0.40170813817E+02  0.10110954795E+03  0.38097473366E+01  0.10887130955E+03  0.12699999809E+01 0.  1.
       -4    1    3    3    0  502  0.40170813817E+02 -0.10110954795E+03  0.11034296498E+04  0.11087810604E+04  0.12699999809E+01 0. -1.
</event>
<event>
 5   0  0.1141970E-01  0.4152090E+03  0.7818609E-02  0.1038637E+00
       -1   -1    0    0    0  501  0.00000000000E+00  0.00000000000E+00  0.38019226782E+03  0.38019226785E+03  0.50400001928E-02 0.  1.
        1   -1    0    0  501    0  0.00000000000E+00  0.00000000000E+00 -0.11336270918E+03  0.11336270929E+03  0.50400001928E-02 0. -1.
    10030    2    1    2    0    0  0.00000000000E+00  0.00000000000E+00  0.26682955864E+03  0.49355497714E+03  0.41520898605E+03 0.  0.
        3    1    3    3  502    0  0.17091338064E+03 -0.93679020062E+02  0.21840800241E+03  0.29272719074E+03  0.10100000352E+00 0.  1.
       -3    1    3    3    0  502 -0.17091338064E+03  0.93679020062E+02  0.48421556234E+02  0.20082778640E+03  0.10100000352E+00 0. -1.
</event>
<event>
 5   0  0.1760649E-01  0.4957869E+03  0.7818609E-02  0.1014884E+00
        2   -1    0    0  501    0  0.00000000000E+00  0.00000000000E+00  0.48358773952E+03  0.48358773953E+03  0.25500000920E-02 0.  1.
       -2   -1    0    0    0  501  0.00000000000E+00  0.00000000000E+00 -0.12707345361E+03  0.12707345364E+03  0.25500000920E-02 0. -1.
    10030    2    1    2    0    0  0.00000000000E+00  0.00000000000E+00  0.35651428591E+03  0.61066119317E+03  0.49578690663E+03 0.  0.
        5    1    3    3  502    0 -0.61931431347E+02  0.10725914518E+03 -0.86168845543E+02  0.15095425252E+03  0.46999998093E+01 0. -1.
       -5    1    3    3    0  502  0.61931431347E+02 -0.10725914518E+03  0.44268313145E+03  0.45970694065E+03  0.46999998093E+01 0.  1.
</event>
<event>
 5   0  0.1141970E-01  0.4888747E+03  0.7818609E-02  0.1016724E+00
        1   -1    0    0  501    0  0.00000000000E+00  0.00000000000E+00  0.72224678060E+02  0.72224678236E+02  0.50400001928E-02 0. -1.
       -1   -1    0    0    0  501  0.00000000000E+00  0.00000000000E+00 -0.82727431438E+03  0.82727431439E+03  0.50400001928E-02 0.  1.
    10030    2    1    2    0    0  0.00000000000E+00  0.00000000000E+00 -0.75504963632E+03  0.89949899263E+03  0.48887471241E+03 0.  0.
        3    1    3    3  502    0  0.12642195768E+03  0.19784653878E+03 -0.25241113262E+03  0.34472765245E+03  0.10100000352E+00 0. -1.
       -3    1    3    3    0  502 -0.12642195768E+03 -0.19784653878E+03 -0.50263850369E+03  0.55477134018E+03  0.10100000352E+00 0.  1.
</event>
<event>
 5   0  0.1827698E-01  0.4979709E+03  0.7818609E-02  0.1014310E+00
        2   -1    0    0  501    0  0.00000000000E+00  0.00000000000E+00  0.19317410133E+03  0.19317410135E+03  0.25500000920E-02 0.  1.
       -2   -1    0    0    0  501  0.00000000000E+00  0.00000000000E+00 -0.32092162546E+03  0.32092162547E+03  0.25500000920E-02 0. -1.
    10030    2    1    2    0    0  0.00000000000E+00  0.00000000000E+00 -0.12774752412E+03  0.51409572681E+03  0.49797086904E+03 0.  0.
        1    1    3    3  502    0  0.94161936878E+02 -0.23043300024E+03 -0.58419836219E+02  0.25569261868E+03  0.50400001928E-02 0. -1.
       -1    1    3    3    0  502 -0.94161936878E+02  0.23043300024E+03 -0.69327687905E+02  0.25840310813E+03  0.50400001928E-02 0.  1.
</event>
<event>
 5   0  0.1141970E-01  0.4902849E+03  0.7818609E-02  0.1016346E+00
        1   -1    0    0  501    0  0.00000000000E+00  0.00000000000E+00  0.20717650225E+03  0.20717650231E+03  0.50400001928E-02 0.  1.
       -1   -1    0    0    0  501  0.00000000000E+00  0.00000000000E+00 -0.29006576313E+03  0.29006576318E+03  0.50400001928E-02 0. -1.
    10030    2    1    2    0    0  0.00000000000E+00  0.00000000000E+00 -0.82889260878E+02  0.49724226549E+03  0.49028485702E+03 0.  0.
        3    1    3    3  502    0  0.33559227051E+02  0.68010021670E+02 -0.27786899034E+03  0.28803258629E+03  0.10100000352E+00 0. -1.
       -3    1    3    3    0  502 -0.33559227051E+02 -0.68010021670E+02  0.19497972947E+03  0.20920967920E+03  0.10100000352E+00 0.  1.
</event>
<event>
 5   0  0.1760649E-01  0.4986262E+03  0.7818609E-02  0.1014138E+00
        2   -1    0    0  501    0  0.00000000000E+00  0.00000000000E+00  0.30325722989E+03  0.30325722990E+03  0.25500000920E-02 0.  1.
       -2   -1    0    0    0  501  0.00000000000E+00  0.00000000000E+00 -0.20496466044E+03  0.20496466045E+03  0.25500000920E-02 0. -1.
    10030    2    1    2    0    0  0.00000000000E+00  0.00000000000E+00  0.98292569452E+02  0.50822189035E+03  0.49862617322E+03 0.  0.
        5    1    3    3  502    0 -0.21597068184E+03  0.12436650827E+03  0.54197600480E+02  0.25508789405E+03  0.46999998093E+01 0. -1.
       -5    1    3    3    0  502  0.21597068184E+03 -0.12436650827E+03  0.44094968972E+02  0.25313399630E+03  0.46999998093E+01 0.  1.
</event>
<event>
 5   0  0.1782124E-01  0.4949919E+03  0.7818609E-02  0.1015094E+00
        2   -1    0    0  501    0  0.00000000000E+00  0.00000000000E+00  0.11066180215E+04  0.11066180215E+04  0.25500000920E-02 0. -1.
       -2   -1    0    0    0  501  0.00000000000E+00  0.00000000000E+00 -0.55352656295E+02  0.55352656353E+02  0.25500000920E-02 0.  1.
    10030    2    1    2    0    0  0.00000000000E+00  0.00000000000E+00  0.10512653652E+04  0.11619706778E+04  0.49499190712E+03 0.  0.
        3    1    3    3  502    0  0.16809046519E+03  0.13669855014E+03  0.24478713386E+03  0.32689700090E+03  0.10100000352E+00 0. -1.
       -3    1    3    3    0  502 -0.16809046519E+03 -0.13669855014E+03  0.80647823132E+03  0.83507367692E+03  0.10100000352E+00 0.  1.
</event>
<event>
 5   0  0.7220250E-02  0.4900569E+03  0.7818609E-02  0.1016407E+00
        3   -1    0    0  501    0  0.00000000000E+00  0.00000000000E+00  0.11147743508E+03  0.11147748084E+03  0.10100000352E+00 0. -1.
       -3   -1    0    0    0  501  0.00000000000E+00  0.00000000000E+00 -0.53857465989E+03  0.53857466936E+03  0.10100000352E+00 0.  1.
    10030    2    1    2    0    0  0.00000000000E+00  0.00000000000E+00 -0.42709722481E+03  0.65005215020E+03  0.49005689316E+03 0.  0.
        4    1    3    3  502    0 -0.10677435772E+03 -0.20931987472E+03 -0.30565806272E+03  0.38554382063E+03  0.12699999809E+01 0.  1.
       -4    1    3    3    0  502  0.10677435772E+03  0.20931987472E+03 -0.12143916209E+03  0.26450832956E+03  0.12699999809E+01 0. -1.
</event>
<event>
 5   0  0.1782124E-01  0.4896620E+03  0.7818609E-02  0.1016513E+00
        2   -1    0    0  501    0  0.00000000000E+00  0.00000000000E+00  0.10671435109E+04  0.10671435109E+04  0.25500000920E-02 0. -1.
       -2   -1    0    0    0  501  0.00000000000E+00  0.00000000000E+00 -0.56170710639E+02  0.56170710697E+02  0.25500000920E-02 0.  1.
    10030    2    1    2    0    0  0.00000000000E+00  0.00000000000E+00  0.10109728002E+04  0.11233142216E+04  0.48966196256E+03 0.  0.
        3    1    3    3  502    0 -0.45801750197E+02  0.21933608438E+03  0.27912781185E+03  0.35793639628E+03  0.10100000352E+00 0.  1.
       -3    1    3    3    0  502  0.45801750197E+02 -0.21933608438E+03  0.73184498840E+03  0.76537782531E+03  0.10100000352E+00 0. -1.
</event>
<event>
 5   0  0.1074281E-01  0.5005054E+03  0.7818609E-02  0.1013647E+00
        1   -1    0    0  501    0  0.00000000000E+00  0.00000000000E+00  0.50766333035E+03  0.50766333037E+03  0.50400001928E-02 0.  1.
       -1   -1    0    0    0  501  0.00000000000E+00  0.00000000000E+00 -0.12336207924E+03  0.12336207934E+03  0.50400001928E-02 0. -1.
    10030    2    1    2    0    0  0.00000000000E+00  0.00000000000E+00  0.38430125111E+03  0.63102540971E+03  0.50050536071E+03 0.  0.
        4    1    3    3  502    0  0.56706585064E+02  0.24373190212E+03  0.19464499660E+03  0.31703180361E+03  0.12699999809E+01 0.  1.
       -4    1    3    3    0  502 -0.56706585064E+02 -0.24373190212E+03  0.18965625451E+03  0.31399360611E+03  0.12699999809E+01 0. -1.
</event>
<event>
 5   0  0.1074281E-01  0.5049520E+03  0.7818609E-02  0.1012494E+00
        1   -1    0    0  501    0  0.00000000000E+00  0.00000000000E+00  0.42669972053E+03  0.42669972055E+03  0.50400001928E-02 0.  1.
       -1   -1    0    0    0  501  0.00000000000E+00  0.00000000000E+00 -0.14938873460E+03  0.14938873469E+03  0.50400001928E-02 0. -1.
    10030    2    1    2    0    0  0.00000000000E+00  0.00000000000E+00  0.27731098592E+03  0.57608845524E+03  0.50495200301E+03 0.  0.
        4    1    3    3  502    0 -0.18158584538E+03 -0.17359932539E+03  0.10996580164E+03  0.27423390646E+03  0.12699999809E+01 0. -1.
       -4    1    3    3    0  502  0.18158584538E+03  0.17359932539E+03  0.16734518428E+03  0.30185454879E+03  0.12699999809E+01 0.  1.
</event>
<event>
 5   0  0.1147245E-01  0.4979333E+03  0.7818609E-02  0.1014320E+00
       -1   -1    0    0    0  501  0.00000000000E+00  0.00000000000E+00  0.17435883634E+04  0.17435883634E+04  0.50400001928E-02 0.  1.
        1   -1    0    0  501    0  0.00000000000E+00  0.00000000000E+00 -0.35549897879E+02  0.35549898236E+02  0.50400001928E-02 0. -1.
    10030    2    1    2    0    0  0.00000000000E+00  0.00000000000E+00  0.17080384656E+04  0.17791382617E+04  0.49793328303E+03 0.  0.
        1    1    3    3  502    0  0.15257515959E+03  0.14383691796E+01  0.15569485314E+04  0.15644072288E+04  0.50400001928E-02 0.  1.
       -1    1    3    3    0  502 -0.15257515959E+03 -0.14383691796E+01  0.15108993416E+03  0.21473103283E+03  0.50400001928E-02 0. -1.
</event>
<event>
 5   0  0.1123271E-01  0.4040853E+03  0.7818609E-02  0.1042374E+00
        1   -1    0    0  501    0  0.00000000000E+00  0.00000000000E+00  0.31314020586E+03  0.31314020590E+03  0.50400001928E-02 0.  1.
       -1   -1    0    0    0  501  0.00000000000E+00  0.00000000000E+00 -0.13036088621E+03  0.13036088630E+03  0.50400001928E-02 0. -1.
    10030    2    1    2    0    0  0.00000000000E+00  0.00000000000E+00  0.18277931965E+03  0.44350109221E+03  0.40408531165E+03 0.  0.
        5    1    3    3  502    0 -0.85761489984E+02  0.37886504012E+02 -0.10497160151E+03  0.14082452724E+03  0.46999998093E+01 0. -1.
       -5    1    3    3    0  502  0.85761489984E+02 -0.37886504012E+02  0.28775092116E+03  0.30267656497E+03  0.46999998093E+01 0.  1.
</event>
<event>
 5   0  0.1141970E-01  0.5121595E+03  0.7818609E-02  0.1010653E+00
        1   -1    0    0  501    0  0.00000000000E+00  0.00000000000E+00  0.72981659316E+03  0.72981659317E+03  0.50400001928E-02 0. -1.
       -1   -1    0    0    0  501  0.00000000000E+00  0.00000000000E+00 -0.89853856826E+02  0.89853856968E+02  0.50400001928E-02 0.  1.
    10030    2    1    2    0    0  0.00000000000E+00  0.00000000000E+00  0.63996273633E+03  0.81967045014E+03  0.51215948975E+03 0.  0.
        3    1    3    3  502    0  0.82727743853E+02 -0.30095890189E+02  0.70483897418E+03  0.71031516381E+03  0.10100000352E+00 0. -1.
       -3    1    3    3    0  502 -0.82727743853E+02  0.30095890189E+02 -0.64876237855E+02  0.10935528633E+03  0.10100000352E+00 0.  1.
</event>
<event>
 5   0  0.1068522E-01  0.4952955E+03  0.7818609E-02  0.1015014E+00
       -1   -1    0    0    0  501  0.00000000000E+00  0.00000000000E+00  0.50441227232E+02  0.50441227484E+02  0.50400001928E-02 0.  1.
        1   -1    0    0  501    0  0.00000000000E+00  0.00000000000E+00 -0.12158588711E+04  0.12158588711E+04  0.50400001928E-02 0. -1.
    10030    2    1    2    0    0  0.00000000000E+00  0.00000000000E+00 -0.11654176439E+04  0.12663000986E+04  0.49529552296E+03 0.  0.
        2    1    3    3  502    0  0.19607991350E+03 -0.23415141550E+02 -0.96478826363E+03  0.98479033046E+03  0.25500000920E-02 0. -1.
       -2    1    3    3    0  502 -0.19607991350E+03  0.23415141550E+02 -0.20062938024E+03  0.28150976813E+03  0.25500000920E-02 0.  1.
</event>
<event>
 5   0  0.7220250E-02  0.4956007E+03  0.7818609E-02  0.1014934E+00
       -4   -1    0    0    0  501  0.00000000000E+00  0.00000000000E+00  0.85614127763E+02  0.85623546835E+02  0.12699999809E+01 0.  1.
        4   -1    0    0  501    0  0.00000000000E+00  0.00000000000E+00 -0.71718046735E+03  0.71718159182E+03  0.12699999809E+01 0. -1.
    10030    2    1    2    0    0  0.00000000000E+00  0.00000000000E+00 -0.63156633959E+03  0.80280513865E+03  0.49560069547E+03 0.  0.
        3    1    3    3  502    0 -0.10060312041E+03  0.14905749933E+03 -0.39617337309E+02  0.18414306818E+03  0.10100000352E+00 0.  1.
       -3    1    3    3    0  502  0.10060312041E+03 -0.14905749933E+03 -0.59194900228E+03  0.61866207047E+03  0.10100000352E+00 0. -1.
</event>
<event>
 5   0  0.1683148E-01  0.4839916E+03  0.7818609E-02  0.1018044E+00
        2   -1    0    0  501    0  0.00000000000E+00  0.00000000000E+00  0.36987464483E+03  0.36987464484E+03  0.25500000920E-02 0.  1.
       -2   -1    0    0    0  501  0.00000000000E+00  0.00000000000E+00 -0.15832922143E+03  0.15832922145E+03  0.25500000920E-02 0. -1.
    10030    2    1    2    0    0  0.00000000000E+00  0.00000000000E+00  0.21154542339E+03  0.52820386629E+03  0.48399158898E+03 0.  0.
        2    1    3    3  502    0 -0.14272531341E+03  0.19309677926E+03  0.72939902949E+02  0.25095240723E+03  0.25500000920E-02 0. -1.
       -2    1    3    3    0  502  0.14272531341E+03 -0.19309677926E+03  0.13860552044E+03  0.27725145906E+03  0.25500000920E-02 0.  1.
</event>
<event>
 5   0  0.1141970E-01  0.4927705E+03  0.7818609E-02  0.1015683E+00
        1   -1    0    0  501    0  0.00000000000E+00  0.00000000000E+00  0.14836812336E+04  0.14836812336E+04  0.50400001928E-02 0. -1.
       -1   -1    0    0    0  501  0.00000000000E+00  0.00000000000E+00 -0.40915580486E+02  0.40915580797E+02  0.50400001928E-02 0.  1.
    10030    2    1    2    0    0  0.00000000000E+00  0.00000000000E+00  0.14427656531E+04  0.15245968144E+04  0.49277045030E+03 0.  0.
        3    1    3    3  502    0 -0.85217676261E+02 -0.39855573862E+02  0.14259238696E+04  0.14290239365E+04  0.10100000352E+00 0. -1.
       -3    1    3    3    0  502  0.85217676261E+02  0.39855573862E+02  0.16841783547E+02  0.95572877896E+02  0.10100000352E+00 0.  1.
</event>
<event>
 5   0  0.1147245E-01  0.5145442E+03  0.7818609E-02  0.1010051E+00
        1   -1    0    0  501    0  0.00000000000E+00  0.00000000000E+00  0.66240094958E+03  0.66240094960E+03  0.50400001928E-02 0.  1.
       -1   -1    0    0    0  501  0.00000000000E+00  0.00000000000E+00 -0.99922751486E+02  0.99922751613E+02  0.50400001928E-02 0. -1.
    10030    2    1    2    0    0  0.00000000000E+00  0.00000000000E+00  0.56247819809E+03  0.76232370121E+03  0.51454416924E+03 0.  0.
        1    1    3    3  502    0  0.19661138434E+03 -0.78866249649E+02  0.49753041931E+03  0.54075173597E+03  0.50400001928E-02 0.  1.
       -1    1    3    3    0  502 -0.19661138434E+03  0.78866249649E+02  0.64947778777E+02  0.22157196524E+03  0.50400001928E-02 0. -1.
</event>
<event>
 5   0  0.1683148E-01  0.5012497E+03  0.7818609E-02  0.1013453E+00
       -2   -1    0    0    0  501  0.00000000000E+00  0.00000000000E+00  0.33551275239E+02  0.33551275336E+02  0.25500000920E-02 0.  1.
        2   -1    0    0  501    0  0.00000000000E+00  0.00000000000E+00 -0.18721436031E+04  0.18721436031E+04  0.25500000920E-02 0. -1.
    10030    2    1    2    0    0  0.00000000000E+00  0.00000000000E+00 -0.18385923278E+04  0.19056948784E+04  0.50124965998E+03 0.  0.
        2    1    3    3  502    0  0.83673538897E+02  0.17183197889E+03 -0.15356865713E+04  0.15475337591E+04  0.25500000920E-02 0. -1.
       -2    1    3    3    0  502 -0.83673538897E+02 -0.17183197889E+03 -0.30290575651E+03  0.35816111935E+03  0.25500000920E-02 0.  1.
</event>
<event>
 5   0  0.1068522E-01  0.5002817E+03  0.7818609E-02  0.1013705E+00
       -1   -1    0    0    0  501  0.00000000000E+00  0.00000000000E+00  0.23267007614E+03  0.23267007619E+03  0.50400001928E-02 0.  1.
        1   -1    0    0  501    0  0.00000000000E+00  0.00000000000E+00 -0.26892350752E+03  0.26892350757E+03  0.50400001928E-02 0. -1.
    10030    2    1    2    0    0  0.00000000000E+00  0.00000000000E+00 -0.36253431381E+02  0.50159358376E+03  0.50028173261E+03 0.  0.
        2    1    3    3  502    0 -0.23064108542E+03  0.93401147532E+02  0.74621273963E+01  0.24894731972E+03  0.25500000920E-02 0. -1.
       -2    1    3    3    0  502  0.23064108542E+03 -0.93401147532E+02 -0.43715558777E+02  0.25264626404E+03  0.25500000920E-02 0.  1.
</event>
<event>
 5   0  0.1141970E-01  0.5113759E+03  0.7818609E-02  0.1010852E+00
       -1   -1    0    0    0  501  0.00000000000E+00  0.00000000000E+00  0.15970952376E+03  0.15970952384E+03  0.50400001928E-02 0. -1.
        1   -1    0    0  501    0  0.00000000000E+00  0.00000000000E+00 -0.40934526602E+03  0.40934526605E+03  0.50400001928E-02 0.  1.
    10030    2    1    2    0    0  0.00000000000E+00  0.00000000000E+00 -0.24963574226E+03  0.56905478990E+03  0.51137593812E+03 0.  0.
        3    1    3    3  502    0 -0.19293303837E-01 -0.10581520755E+03 -0.38383659860E+03  0.39815499889E+03  0.10100000352E+00 0.  1.
       -3    1    3    3    0  502  0.19293303837E-01  0.10581520755E+03  0.13420085634E+03  0.17089979100E+03  0.10100000352E+00 0. -1.
</event>
<event>
 5   0  0.1827698E-01  0.5007578E+03  0.7818609E-02  0.1013581E+00
        2   -1    0    0  501    0  0.00000000000E+00  0.00000000000E+00  0.24357434924E+03  0.24357434925E+03  0.25500000920E-02 0. -1.
       -2   -1    0    0    0  501  0.00000000000E+00  0.00000000000E+00 -0.25737354316E+03  0.25737354318E+03  0.25500000920E-02 0.  1.
    10030    2    1    2    0    0  0.00000000000E+00  0.00000000000E+00 -0.13799193927E+02  0.50094789243E+03  0.50075779891E+03 0.  0.
        1    1    3    3  502    0  0.13774048251E+03  0.14321078055E+03 -0.15929857448E+03  0.25467195378E+03  0.50400001928E-02 0.  1.
       -1    1    3    3    0  502 -0.13774048251E+03 -0.14321078055E+03  0.14549938056E+03  0.24627593864E+03  0.50400001928E-02 0. -1.
</event>
<event>
 5   0  0.1683148E-01  0.5055950E+03  0.7818609E-02  0.1012329E+00
        2   -1    0    0  501    0  0.00000000000E+00  0.00000000000E+00  0.14803110394E+04  0.14803110394E+04  0.25500000920E-02 0. -1.
       -2   -1    0    0    0  501  0.00000000000E+00  0.00000000000E+00 -0.43171038224E+02  0.43171038299E+02  0.25500000920E-02 0.  1.
    10030    2    1    2    0    0  0.00000000000E+00  0.00000000000E+00  0.14371400012E+04  0.15234820777E+04  0.50559495458E+03 0.  0.
        2    1    3    3  502    0 -0.28146767966E+02  0.25083253079E+03  0.76090213852E+03  0.80167403816E+03  0.25500000920E-02 0.  1.
       -2    1    3    3    0  502  0.28146767966E+02 -0.25083253079E+03  0.67623786266E+03  0.72180803954E+03  0.25500000920E-02 0. -1.
</event>
<event>
 5   0  0.1709372E-01  0.4843502E+03  0.7818609E-02  0.1017946E+00
        2   -1    0    0  501    0  0.00000000000E+00  0.00000000000E+00  0.14542003955E+03  0.14542003957E+03  0.25500000920E-02 0.  1.
       -2   -1    0    0    0  501  0.00000000000E+00  0.00000000000E+00 -0.40330595370E+03  0.40330595371E+03  0.25500000920E-02 0. -1.
    10030    2    1    2    0    0  0.00000000000E+00  0.00000000000E+00 -0.25788591415E+03  0.54872599328E+03  0.48435015328E+03 0.  0.
        4    1    3    3  502    0  0.62036590187E+02  0.71898311295E+02  0.12344285901E+03  0.15574870153E+03  0.12699999809E+01 0.  1.
       -4    1    3    3    0  502 -0.62036590187E+02 -0.71898311295E+02 -0.38132877316E+03  0.39297729175E+03  0.12699999809E+01 0. -1.
</event>
<event>
 5   0  0.1760649E-01  0.4928490E+03  0.7818609E-02  0.1015662E+00
       -2   -1    0    0    0  501  0.00000000000E+00  0.00000000000E+00  0.32752894225E+02  0.32752894324E+02  0.25500000920E-02 0. -1.
        2   -1    0    0  501    0  0.00000000000E+00  0.00000000000E+00 -0.18540356209E+04  0.18540356209E+04  0.25500000920E-02 0.  1.
    10030    2    1    2    0    0  0.00000000000E+00  0.00000000000E+00 -0.18212827267E+04  0.18867885152E+04  0.49284899381E+03 0.  0.
        5    1    3    3  502    0 -0.22937171638E+02  0.11188244045E+03 -0.74879618219E+02  0.13664860609E+03  0.46999998093E+01 0. -1.
       -5    1    3    3    0  502  0.22937171638E+02 -0.11188244045E+03 -0.17464031085E+04  0.17501399091E+04  0.46999998093E+01 0.  1.
</event>
<event>
 5   0  0.1709372E-01  0.5013712E+03  0.7818609E-02  0.1013422E+00
       -2   -1    0    0    0  501  0.00000000000E+00  0.00000000000E+00  0.33298480693E+03  0.33298480694E+03  0.25500000920E-02 0.  1.
        2   -1    0    0  501    0  0.00000000000E+00  0.00000000000E+00 -0.18872717225E+03  0.18872717227E+03  0.25500000920E-02 0. -1.
    10030    2    1    2    0    0  0.00000000000E+00  0.00000000000E+00  0.14425763468E+03  0.52171197921E+03  0.50137124378E+03 0.  0.
        4    1    3    3  502    0  0.23134720367E+03 -0.59616539128E+02 -0.68860832295E+01  0.23900772253E+03  0.12699999809E+01 0. -1.
       -4    1    3    3    0  502 -0.23134720367E+03  0.59616539128E+02  0.15114371791E+03  0.28270425669E+03  0.12699999809E+01 0.  1.
</event>
<event>
 5   0  0.1827698E-01  0.4996733E+03  0.7818609E-02  0.1013864E+00
        2   -1    0    0  501    0  0.00000000000E+00  0.00000000000E+00  0.99387138339E+03  0.99387138340E+03  0.25500000920E-02 0. -1.
       -2   -1    0    0    0  501  0.00000000000E+00  0.00000000000E+00 -0.62803240480E+02  0.62803240532E+02  0.25500000920E-02 0.  1.
    10030    2    1    2    0    0  0.00000000000E+00  0.00000000000E+00  0.93106814291E+03  0.10566746239E+04  0.49967326735E+03 0.  0.
        1    1    3    3  502    0 -0.15745134826E+02  0.13369758934E+03  0.91061032321E+03  0.92050753143E+03  0.50400001928E-02 0. -1.
       -1    1    3    3    0  502  0.15745134826E+02 -0.13369758934E+03  0.20457819706E+02  0.13616709250E+03  0.50400001928E-02 0.  1.
</event>
<event>
 5   0  0.1068522E-01  0.5013004E+03  0.7818609E-02  0.1013440E+00
       -1   -1    0    0    0  501  0.00000000000E+00  0.00000000000E+00  0.10222305932E+03  0.10222305945E+03  0.50400001928E-02 0. -1.
        1   -1    0    0  501    0  0.00000000000E+00  0.00000000000E+00 -0.61459240794E+03  0.61459240796E+03  0.50400001928E-02 0.  1.
    10030    2    1    2    0    0  0.00000000000E+00  0.00000000000E+00 -0.51236934862E+03  0.71681546741E+03  0.50130037394E+03 0.  0.
        2    1    3    3  502    0 -0.14141481763E+03  0.18323772219E+03 -0.11865044886E+03  0.26010025471E+03  0.25500000920E-02 0. -1.
       -2    1    3    3    0  502  0.14141481763E+03 -0.18323772219E+03 -0.39371889976E+03  0.45671521270E+03  0.25500000920E-02 0.  1.
</event>
<event>
 5   0  0.1683148E-01  0.5076909E+03  0.7818609E-02  0.1011791E+00
        2   -1    0    0  501    0  0.00000000000E+00  0.00000000000E+00  0.27927374276E+03  0.27927374277E+03  0.25500000920E-02 0. -1.
       -2   -1    0    0    0  501  0.00000000000E+00  0.00000000000E+00 -0.23073246425E+03  0.23073246426E+03  0.25500000920E-02 0.  1.
    10030    2    1    2    0    0  0.00000000000E+00  0.00000000000E+00  0.48541278512E+02  0.51000620703E+03  0.50769092516E+03 0.  0.
        2    1    3    3  502    0  0.18942876911E+03  0.82040126316E+02 -0.12413145627E+03  0.24087851572E+03  0.25500000920E-02 0.  1.
       -2    1    3    3    0  502 -0.18942876911E+03 -0.82040126316E+02  0.17267273478E+03  0.26912769132E+03  0.25500000920E-02 0. -1.
</event>
<event>
 5   0  0.1782124E-01  0.5033568E+03  0.7818609E-02  0.1012906E+00
        2   -1    0    0  501    0  0.00000000000E+00  0.00000000000E+00  0.48805442522E+03  0.48805442522E+03  0.25500000920E-02 0. -1.
       -2   -1    0    0    0  501  0.00000000000E+00  0.00000000000E+00 -0.12978473217E+03  0.12978473220E+03  0.25500000920E-02 0.  1.
    10030    2    1    2    0    0  0.00000000000E+00  0.00000000000E+00  0.35826969304E+03  0.61783915742E+03  0.50335678349E+03 0.  0.
        3    1    3    3  502    0 -0.31736868632E+02 -0.28013128781E+02 -0.12538364382E+03  0.13233681481E+03  0.10100000352E+00 0.  1.
       -3    1    3    3    0  502  0.31736868632E+02  0.28013128781E+02  0.48365333687E+03  0.48550234261E+03  0.10100000352E+00 0. -1.
</event>
<event>
 5   0  0.1760649E-01  0.5003946E+03  0.7818609E-02  0.1013676E+00
       -2   -1    0    0    0  501  0.00000000000E+00  0.00000000000E+00  0.44090169551E+02  0.44090169625E+02  0.25500000920E-02 0.  1.
        2   -1    0    0  501    0  0.00000000000E+00  0.00000000000E+00 -0.14197880581E+04  0.14197880581E+04  0.25500000920E-02 0. -1.
    10030    2    1    2    0    0  0.00000000000E+00  0.00000000000E+00 -0.13756978886E+04  0.14638782278E+04  0.50039462933E+03 0.  0.
        5    1    3    3  502    0 -0.59127447030E+00  0.20149476995E+03 -0.25417057145E+03  0.32438443445E+03  0.46999998093E+01 0.  1.
       -5    1    3    3    0  502  0.59127447030E+00 -0.20149476995E+03 -0.11215273171E+04  0.11394937933E+04  0.46999998093E+01 0. -1.
</event>
<event>
 5   0  0.1827698E-01  0.4960087E+03  0.7818609E-02  0.1014826E+00
        2   -1    0    0  501    0  0.00000000000E+00  0.00000000000E+00  0.60444126910E+03  0.60444126910E+03  0.25500000920E-02 0.  1.
       -2   -1    0    0    0  501  0.00000000000E+00  0.00000000000E+00 -0.10175702752E+03  0.10175702755E+03  0.25500000920E-02 0. -1.
    10030    2    1    2    0    0  0.00000000000E+00  0.00000000000E+00  0.50268424158E+03  0.70619829666E+03  0.49600865665E+03 0.  0.
        1    1    3    3  502    0  0.19564374891E+03 -0.14641234581E+03  0.31163126253E+03  0.39601400898E+03  0.50400001928E-02 0. -1.
       -1    1    3    3    0  502 -0.19564374891E+03  0.14641234581E+03  0.19105297905E+03  0.31018428768E+03  0.50400001928E-02 0.  1.
</event>
<event>
 5   0  0.1074281E-01  0.5009748E+03  0.7818609E-02  0.1013525E+00
        1   -1    0    0  501    0  0.00000000000E+00  0.00000000000E+00  0.46674020576E+03  0.46674020578E+03  0.50400001928E-02 0.  1.
       -1   -1    0    0    0  501  0.00000000000E+00  0.00000000000E+00 -0.13443010260E+03  0.13443010270E+03  0.50400001928E-02 0. -1.
    10030    2    1    2    0    0  0.00000000000E+00  0.00000000000E+00  0.33231010316E+03  0.60117030848E+03  0.50097478493E+03 0.  0.
        4    1    3    3  502    0 -0.24949379824E+03  0.94520412119E+01  0.14198092700E+03  0.28722237548E+03  0.12699999809E+01 0. -1.
       -4    1    3    3    0  502  0.24949379824E+03 -0.94520412119E+01  0.19032917615E+03  0.31394793300E+03  0.12699999809E+01 0.  1.
</event>
<event>
 5   0  0.1683148E-01  0.4997329E+03  0.7818609E-02  0.1013849E+00
       -2   -1    0    0    0  501  0.00000000000E+00  0.00000000000E+00  0.58365801577E+03  0.58365801577E+03  0.25500000920E-02 0. -1.
        2   -1    0    0  501    0  0.00000000000E+00  0.00000000000E+00 -0.10696887996E+03  0.10696887999E+03  0.25500000920E-02 0.  1.
    10030    2    1    2    0    0  0.00000000000E+00  0.00000000000E+00  0.47668913581E+03  0.69062689576E+03  0.49973290560E+03 0.  0.
        2    1    3    3  502    0 -0.24722419886E+03 -0.36224195237E+02  0.23680105768E+03  0.34424807588E+03  0.25500000920E-02 0. -1.
       -2    1    3    3    0  502  0.24722419886E+03  0.36224195237E+02  0.23988807814E+03  0.34637881988E+03  0.25500000920E-02 0.  1.
</event>
<event>
 5   0  0.1141970E-01  0.4982225E+03  0.7818609E-02  0.1014244E+00
        1   -1    0    0  501    0  0.00000000000E+00  0.00000000000E+00  0.19424548950E+03  0.19424548956E+03  0.50400001928E-02 0. -1.
       -1   -1    0    0    0  501  0.00000000000E+00  0.00000000000E+00 -0.31947412489E+03  0.31947412493E+03  0.50400001928E-02 0.  1.
    10030    2    1    2    0    0  0.00000000000E+00  0.00000000000E+00 -0.12522863539E+03  0.51371961450E+03  0.49822247159E+03 0.  0.
        3    1    3    3  502    0  0.11815178215E+03 -0.17154230483E+03  0.78273217582E+02  0.22251587081E+03  0.10100000352E+00 0. -1.
       -3    1    3    3    0  502 -0.11815178215E+03  0.17154230483E+03 -0.20350185297E+03  0.29120374368E+03  0.10100000352E+00 0.  1.
</event>
<event>
 5   0  0.1760649E-01  0.5014361E+03  0.7818609E-02  0.1013405E+00
       -2   -1    0    0    0  501  0.00000000000E+00  0.00000000000E+00  0.10494059915E+03  0.10494059918E+03  0.25500000920E-02 0.  1.
        2   -1    0    0  501    0  0.00000000000E+00  0.00000000000E+00 -0.59900120209E+03  0.59900120210E+03  0.25500000920E-02 0. -1.
    10030    2    1    2    0    0  0.00000000000E+00  0.00000000000E+00 -0.49406060294E+03  0.70394180128E+03  0.50143611777E+03 0.  0.
        5    1    3    3  502    0  0.24542085355E+03 -0.23953453064E+02 -0.31031725250E+03  0.39638876179E+03  0.46999998093E+01 0. -1.
       -5    1    3    3    0  502 -0.24542085355E+03  0.23953453064E+02 -0.18374335044E+03  0.30755303949E+03  0.46999998093E+01 0.  1.
</event>
<event>
 5   0  0.1068522E-01  0.4974048E+03  0.7818609E-02  0.1014459E+00
        1   -1    0    0  501    0  0.00000000000E+00  0.00000000000E+00  0.36230549847E+03  0.36230549850E+03  0.50400001928E-02 0.  1.
       -1   -1    0    0    0  501  0.00000000000E+00  0.00000000000E+00 -0.17072023107E+03  0.17072023114E+03  0.50400001928E-02 0. -1.
    10030    2    1    2    0    0  0.00000000000E+00  0.00000000000E+00  0.19158526740E+03  0.53302572964E+03  0.49740477860E+03 0.  0.
        2    1    3    3  502    0  0.93435394268E+02  0.23479309216E+02  0.34149713074E+03  0.35482635355E+03  0.25500000920E-02 0.  1.
       -2    1    3    3    0  502 -0.93435394268E+02 -0.23479309216E+02 -0.14991186334E+03  0.17819937609E+03  0.25500000920E-02 0. -1.
</event>
<event>
 5   0  0.1709372E-01  0.4746050E+03  0.7818609E-02  0.1020628E+00
        2   -1    0    0  501    0  0.00000000000E+00  0.00000000000E+00  0.58326112177E+03  0.58326112177E+03  0.25500000920E-02 0. -1.
       -2   -1    0    0    0  501  0.00000000000E+00  0.00000000000E+00 -0.96547609006E+02  0.96547609039E+02  0.25500000920E-02 0.  1.
    10030    2    1    2    0    0  0.00000000000E+00  0.00000000000E+00  0.48671351276E+03  0.67980873081E+03  0.47460495887E+03 0.  0.
        4    1    3    3  502    0 -0.14306639034E+03 -0.10493002205E+03  0.46907421171E+03  0.50150825573E+03  0.12699999809E+01 0. -1.
       -4    1    3    3    0  502  0.14306639034E+03  0.10493002205E+03  0.17639301051E+02  0.17830047508E+03  0.12699999809E+01 0.  1.
</event>
<event>
 5   0  0.1147245E-01  0.5009339E+03  0.7818609E-02  0.1013535E+00
        1   -1    0    0  501    0  0.00000000000E+00  0.00000000000E+00  0.93821042995E+03  0.93821042996E+03  0.50400001928E-02 0. -1.
       -1   -1    0    0    0  501  0.00000000000E+00  0.00000000000E+00 -0.66865261567E+02  0.66865261757E+02  0.50400001928E-02 0.  1.
    10030    2    1    2    0    0  0.00000000000E+00  0.00000000000E+00  0.87134516838E+03  0.10050756917E+04  0.50093387151E+03 0.  0.
        1    1    3    3  502    0  0.16310480718E+03  0.12556754979E+03  0.14935868483E+03  0.25431949285E+03  0.50400001928E-02 0.  1.
       -1    1    3    3    0  502 -0.16310480718E+03 -0.12556754979E+03  0.72198648355E+03  0.75075619887E+03  0.50400001928E-02 0. -1.
</event>
<event>
 5   0  0.1827698E-01  0.5018177E+03  0.7818609E-02  0.1013306E+00
       -2   -1    0    0    0  501  0.00000000000E+00  0.00000000000E+00  0.79854524412E+02  0.79854524453E+02  0.25500000920E-02 0.  1.
        2   -1    0    0  501    0  0.00000000000E+00  0.00000000000E+00 -0.78837423506E+03  0.78837423506E+03  0.25500000920E-02 0. -1.
    10030    2    1    2    0    0  0.00000000000E+00  0.00000000000E+00 -0.70851971064E+03  0.86822875951E+03  0.50181769446E+03 0.  0.
        1    1    3    3  502    0 -0.79766111407E+02  0.47945967877E+02  0.48887041289E+02  0.10512559724E+03  0.50400001928E-02 0.  1.
       -1    1    3    3    0  502  0.79766111407E+02 -0.47945967877E+02 -0.75740675193E+03  0.76310316227E+03  0.50400001928E-02 0. -1.
</event>
<event>
 5   0  0.1068522E-01  0.4950593E+03  0.7818609E-02  0.1015077E+00
       -1   -1    0    0    0  501  0.00000000000E+00  0.00000000000E+00  0.27186917729E+03  0.27186917733E+03  0.50400001928E-02 0.  1.
        1   -1    0    0  501    0  0.00000000000E+00  0.00000000000E+00 -0.22536911774E+03  0.22536911780E+03  0.50400001928E-02 0. -1.
    10030    2    1    2    0    0  0.00000000000E+00  0.00000000000E+00  0.46500059546E+02  0.49723829513E+03  0.49505925565E+03 0.  0.
        2    1    3    3  502    0 -0.18816602826E+02 -0.17293604364E+03  0.20012163025E+03  0.26515958710E+03  0.25500000920E-02 0.  1.
       -2    1    3    3    0  502  0.18816602826E+02  0.17293604364E+03 -0.15362157070E+03  0.23207870803E+03  0.25500000920E-02 0. -1.
</event>
<event>
 5   0  0.1123271E-01  0.4719169E+03  0.7818609E-02  0.1021381E+00
        1   -1    0    0  501    0  0.00000000000E+00  0.00000000000E+00  0.48873731438E+03  0.48873731440E+03  0.50400001928E-02 0. -1.
       -1   -1    0    0    0  501  0.00000000000E+00  0.00000000000E+00 -0.11391883816E+03  0.11391883827E+03  0.50400001928E-02 0.  1.
    10030    2    1    2    0    0  0.00000000000E+00  0.00000000000E+00  0.37481847621E+03  0.60265615268E+03  0.47191688701E+03 0.  0.
        5    1    3    3  502    0 -0.25160110420E+02 -0.88437096604E+02  0.46485349971E+03  0.47388291529E+03  0.46999998093E+01 0. -1.
       -5    1    3    3    0  502  0.25160110420E+02  0.88437096604E+02 -0.90035023498E+02  0.12877323739E+03  0.46999998093E+01 0.  1.
</event>
<event>
 5   0  0.1782124E-01  0.5096309E+03  0.7818609E-02  0.1011295E+00
        2   -1    0    0  501    0  0.00000000000E+00  0.00000000000E+00  0.27454150063E+03  0.27454150064E+03  0.25500000920E-02 0. -1.
       -2   -1    0    0    0  501  0.00000000000E+00  0.00000000000E+00 -0.23650672374E+03  0.23650672375E+03  0.25500000920E-02 0.  1.
    10030    2    1    2    0    0  0.00000000000E+00  0.00000000000E+00  0.38034776890E+02  0.51104822440E+03  0.50963088938E+03 0.  0.
        3    1    3    3  502    0  0.20979267127E+03  0.14166817334E+03 -0.10185146717E+02  0.25335071279E+03  0.10100000352E+00 0. -1.
       -3    1    3    3    0  502 -0.20979267127E+03 -0.14166817334E+03  0.48219923607E+02  0.25769751161E+03  0.10100000352E+00 0.  1.
</event>
<event>
 5   0  0.1141970E-01  0.5229078E+03  0.7818609E-02  0.1007967E+00
        1   -1    0    0  501    0  0.00000000000E+00  0.00000000000E+00  0.48728498704E+03  0.48728498707E+03  0.50400001928E-02 0. -1.
       -1   -1    0    0    0  501  0.00000000000E+00  0.00000000000E+00 -0.14028371400E+03  0.14028371409E+03  0.50400001928E-02 0.  1.
    10030    2    1    2    0    0  0.00000000000E+00  0.00000000000E+00  0.34700127305E+03  0.62756870116E+03  0.52290782283E+03 0.  0.
        3    1    3    3  502    0  0.22058723601E+03 -0.56695560731E+02  0.32759292540E+03  0.39898652893E+03  0.10100000352E+00 0.  1.
       -3    1    3    3    0  502 -0.22058723601E+03  0.56695560731E+02  0.19408347650E+02  0.22858217222E+03  0.10100000352E+00 0. -1.
</event>
<event>
 5   0  0.1827698E-01  0.4297665E+03  0.7818609E-02  0.1033934E+00
        2   -1    0    0  501    0  0.00000000000E+00  0.00000000000E+00  0.22368715540E+03  0.22368715542E+03  0.25500000920E-02 0.  1.
       -2   -1    0    0    0  501  0.00000000000E+00  0.00000000000E+00 -0.20642586299E+03  0.20642586300E+03  0.25500000920E-02 0. -1.
    10030    2    1    2    0    0  0.00000000000E+00  0.00000000000E+00  0.17261292413E+02  0.43011301842E+03  0.42976651382E+03 0.  0.
        1    1    3    3  502    0  0.13412547983E+03 -0.13162420661E+03  0.11292713432E+03  0.21924213508E+03  0.50400001928E-02 0.  1.
       -1    1    3    3    0  502 -0.13412547983E+03  0.13162420661E+03 -0.95665841902E+02  0.21087088333E+03  0.50400001928E-02 0. -1.
</event>
<event>
 5   0  0.1074281E-01  0.4955069E+03  0.7818609E-02  0.1014958E+00
       -1   -1    0    0    0  501  0.00000000000E+00  0.00000000000E+00  0.69132510522E+03  0.69132510524E+03  0.50400001928E-02 0. -1.
        1   -1    0    0  501    0  0.00000000000E+00  0.00000000000E+00 -0.88788588273E+02  0.88788588416E+02  0.50400001928E-02 0.  1.
    10030    2    1    2    0    0  0.00000000000E+00  0.00000000000E+00  0.60253651695E+03  0.78011369365E+03  0.49550693312E+03 0.  0.
        4    1    3    3  502    0  0.16694001338E+03  0.15273882220E+03  0.46013237384E+03  0.51275874467E+03  0.12699999809E+01 0. -1.
       -4    1    3    3    0  502 -0.16694001338E+03 -0.15273882220E+03  0.14240414310E+03  0.26735494899E+03  0.12699999809E+01 0.  1.
</event>
<event>
 5   0  0.1782124E-01  0.4937340E+03  0.7818609E-02  0.1015427E+00
        2   -1    0    0  501    0  0.00000000000E+00  0.00000000000E+00  0.22250662378E+03  0.22250662380E+03  0.25500000920E-02 0. -1.
       -2   -1    0    0    0  501  0.00000000000E+00  0.00000000000E+00 -0.27389435792E+03  0.27389435793E+03  0.25500000920E-02 0.  1.
    10030    2    1    2    0    0  0.00000000000E+00  0.00000000000E+00 -0.51387734137E+02  0.49640098173E+03  0.49373397234E+03 0.  0.
        3    1    3    3  502    0 -0.10649630733E+03  0.15123031506E+03 -0.19007390180E+03  0.26521721289E+03  0.10100000352E+00 0. -1.
       -3    1    3    3    0  502  0.10649630733E+03 -0.15123031506E+03  0.13868616766E+03  0.23118376883E+03  0.10100000352E+00 0.  1.
</event>
<event>
 5   0  0.1074281E-01  0.4996067E+03  0.7818609E-02  0.1013882E+00
       -1   -1    0    0    0  501  0.00000000000E+00  0.00000000000E+00  0.13122479893E+04  0.13122479893E+04  0.50400001928E-02 0.  1.
        1   -1    0    0  501    0  0.00000000000E+00  0.00000000000E+00 -0.47553296960E+02  0.47553297227E+02  0.50400001928E-02 0. -1.
    10030    2    1    2    0    0  0.00000000000E+00  0.00000000000E+00  0.12646946924E+04  0.13598012866E+04  0.49960671937E+03 0.  0.
        4    1    3    3  502    0  0.16627687609E+03 -0.11198422348E+03  0.22671041557E+03  0.30263458372E+03  0.12699999809E+01 0. -1.
       -4    1    3    3    0  502 -0.16627687609E+03  0.11198422348E+03  0.10379842768E+04  0.10571667029E+04  0.12699999809E+01 0.  1.
</event>
<event>
 5   0  0.1123271E-01  0.5113692E+03  0.7818609E-02  0.1010853E+00
        1   -1    0    0  501    0  0.00000000000E+00  0.00000000000E+00  0.79466157687E+03  0.79466157689E+03  0.50400001928E-02 0. -1.
       -1   -1    0    0    0  501  0.00000000000E+00  0.00000000000E+00 -0.82267239165E+02  0.82267239319E+02  0.50400001928E-02 0.  1.
    10030    2    1    2    0    0  0.00000000000E+00  0.00000000000E+00  0.71239433771E+03  0.87692881621E+03  0.51136919764E+03 0.  0.
        5    1    3    3  502    0 -0.19117602584E+03  0.16948776724E+03  0.37135680028E+03  0.45077970142E+03  0.46999998093E+01 0. -1.
       -5    1    3    3    0  502  0.19117602584E+03 -0.16948776724E+03  0.34103753743E+03  0.42614911479E+03  0.46999998093E+01 0.  1.
</event>
<event>
 5   0  0.1068522E-01  0.5026550E+03  0.7818609E-02  0.1013088E+00
       -1   -1    0    0    0  501  0.00000000000E+00  0.00000000000E+00  0.73945476118E+02  0.73945476290E+02  0.50400001928E-02 0.  1.
        1   -1    0    0  501    0  0.00000000000E+00  0.00000000000E+00 -0.85421740832E+03  0.85421740834E+03  0.50400001928E-02 0. -1.
    10030    2    1    2    0    0  0.00000000000E+00  0.00000000000E+00 -0.78027193220E+03  0.92816288463E+03  0.50265500317E+03 0.  0.
        2    1    3    3  502    0 -0.43757733251E+02 -0.17831302166E+03 -0.73226310081E+02  0.19766730991E+03  0.25500000920E-02 0.  1.
       -2    1    3    3    0  502  0.43757733251E+02  0.17831302166E+03 -0.70704562212E+03  0.73049557472E+03  0.25500000920E-02 0. -1.
</event>
<event>
 5   0  0.1141970E-01  0.5025851E+03  0.7818609E-02  0.1013106E+00
        1   -1    0    0  501    0  0.00000000000E+00  0.00000000000E+00  0.66948645553E+03  0.66948645555E+03  0.50400001928E-02 0. -1.
       -1   -1    0    0    0  501  0.00000000000E+00  0.00000000000E+00 -0.94322964311E+02  0.94322964446E+02  0.50400001928E-02 0.  1.
    10030    2    1    2    0    0  0.00000000000E+00  0.00000000000E+00  0.57516349122E+03  0.76380942000E+03  0.50258510567E+03 0.  0.
        3    1    3    3  502    0  0.11603352828E+03 -0.13438489831E+02  0.62571947397E+03  0.63652905903E+03  0.10100000352E+00 0. -1.
       -3    1    3    3    0  502 -0.11603352828E+03  0.13438489831E+02 -0.50555982746E+02  0.12728036096E+03  0.10100000352E+00 0.  1.
</event>
<event>
 5   0  0.1683148E-01  0.5362433E+03  0.7818609E-02  0.1004729E+00
       -2   -1    0    0    0  501  0.00000000000E+00  0.00000000000E+00  0.40204302588E+03  0.40204302589E+03  0.25500000920E-02 0. -1.
        2   -1    0    0  501    0  0.00000000000E+00  0.00000000000E+00 -0.17880979419E+03  0.17880979421E+03  0.25500000920E-02 0.  1.
    10030    2    1    2    0    0  0.00000000000E+00  0.00000000000E+00  0.22323323169E+03  0.58085282010E+03  0.53624334297E+03 0.  0.
        2    1    3    3  502    0  0.40110422458E+01 -0.22152414650E+03  0.27517524688E+03  0.35328522817E+03  0.25500000920E-02 0. -1.
       -2    1    3    3    0  502 -0.40110422458E+01  0.22152414650E+03 -0.51942015190E+02  0.22756759192E+03  0.25500000920E-02 0.  1.
</event>
<event>
 5   0  0.1709372E-01  0.4913069E+03  0.7818609E-02  0.1016073E+00
       -2   -1    0    0    0  501  0.00000000000E+00  0.00000000000E+00  0.34330026117E+02  0.34330026211E+02  0.25500000920E-02 0.  1.
        2   -1    0    0  501    0  0.00000000000E+00  0.00000000000E+00 -0.17578090198E+04  0.17578090198E+04  0.25500000920E-02 0. -1.
    10030    2    1    2    0    0  0.00000000000E+00  0.00000000000E+00 -0.17234789937E+04  0.17921390460E+04  0.49130694945E+03 0.  0.
        4    1    3    3  502    0  0.92577386177E+02 -0.14510556018E+03 -0.15010531739E+04  0.15108899496E+04  0.12699999809E+01 0. -1.
       -4    1    3    3    0  502 -0.92577386177E+02  0.14510556018E+03 -0.22242581976E+03  0.28124909639E+03  0.12699999809E+01 0.  1.
</event>
<event>
 5   0  0.1782124E-01  0.5060205E+03  0.7818609E-02  0.1012219E+00
       -2   -1    0    0    0  501  0.00000000000E+00  0.00000000000E+00  0.57024461102E+02  0.57024461159E+02  0.25500000920E-02 0. -1.
        2   -1    0    0  501    0  0.00000000000E+00  0.00000000000E+00 -0.11225743610E+04  0.11225743610E+04  0.25500000920E-02 0.  1.
    10030    2    1    2    0    0  0.00000000000E+00  0.00000000000E+00 -0.10655498999E+04  0.11795988222E+04  0.50602054511E+03 0.  0.
        3    1    3    3  502    0  0.11390387176E+03  0.17265465945E+03 -0.19311375981E+03  0.28297819326E+03  0.10100000352E+00 0. -1.
       -3    1    3    3    0  502 -0.11390387176E+03 -0.17265465945E+03 -0.87243614009E+03  0.89662062890E+03  0.10100000352E+00 0.  1.
</event>
<event>
 5   0  0.1760649E-01  0.4963638E+03  0.7818609E-02  0.1014732E+00
        2   -1    0    0  501    0  0.00000000000E+00  0.00000000000E+00  0.13386396387E+03  0.13386396390E+03  0.25500000920E-02 0. -1.
       -2   -1    0    0    0  501  0.00000000000E+00  0.00000000000E+00 -0.46012569817E+03  0.46012569818E+03  0.25500000920E-02 0.  1.
    10030    2    1    2    0    0  0.00000000000E+00  0.00000000000E+00 -0.32626173430E+03  0.59398966207E+03  0.49636377727E+03 0.  0.
        5    1    3    3  502    0 -0.18975258272E+03 -0.12204263436E+03 -0.39508838550E+02  0.22909274448E+03  0.46999998093E+01 0.  1.
       -5    1    3    3    0  502  0.18975258272E+03  0.12204263436E+03 -0.28675289575E+03  0.36489691759E+03  0.46999998093E+01 0. -1.
</event>
<event>
 5   0  0.1068522E-01  0.5024096E+03  0.7818609E-02  0.1013152E+00
        1   -1    0    0  501    0  0.00000000000E+00  0.00000000000E+00  0.11457023234E+03  0.11457023246E+03  0.50400001928E-02 0.  1.
       -1   -1    0    0    0  501  0.00000000000E+00  0.00000000000E+00 -0.55078751021E+03  0.55078751024E+03  0.50400001928E-02 0. -1.
    10030    2    1    2    0    0  0.00000000000E+00  0.00000000000E+00 -0.43621727787E+03  0.66535774269E+03  0.50240960605E+03 0.  0.
        2    1    3    3  502    0  0.14780082014E+03  0.65484164127E+02  0.36530701014E+02  0.16573397451E+03  0.25500000920E-02 0.  1.
       -2    1    3    3    0  502 -0.14780082014E+03 -0.65484164127E+02 -0.47274797888E+03  0.49962376818E+03  0.25500000920E-02 0. -1.
</event>
<event>
 5   0  0.1074281E-01  0.4939722E+03  0.7818609E-02  0.1015364E+00
        1   -1    0    0  501    0  0.00000000000E+00  0.00000000000E+00  0.50705487470E+03  0.50705487472E+03  0.50400001928E-02 0. -1.
       -1   -1    0    0    0  501  0.00000000000E+00  0.00000000000E+00 -0.12030679034E+03  0.12030679044E+03  0.50400001928E-02 0.  1.
    10030    2    1    2    0    0  0.00000000000E+00  0.00000000000E+00  0.38674808436E+03  0.62736166517E+03  0.49397224432E+03 0.  0.
        4    1    3    3  502    0 -0.16927858781E+03  0.14798715793E+03  0.63574974085E+02  0.23366392411E+03  0.12699999809E+01 0.  1.
       -4    1    3    3    0  502  0.16927858781E+03 -0.14798715793E+03  0.32317311028E+03  0.39369774105E+03  0.12699999809E+01 0. -1.
</event>
<event>
 5   0  0.1782124E-01  0.5354883E+03  0.7818609E-02  0.1004910E+00
       -2   -1    0    0    0  501  0.00000000000E+00  0.00000000000E+00  0.61440463124E+02  0.61440463177E+02  0.25500000920E-02 0. -1.
        2   -1    0    0  501    0  0.00000000000E+00  0.00000000000E+00 -0.11667708001E+04  0.11667708001E+04  0.25500000920E-02 0.  1.
    10030    2    1    2    0    0  0.00000000000E+00  0.00000000000E+00 -0.11053303370E+04  0.12282112633E+04  0.53548833173E+03 0.  0.
        3    1    3    3  502    0 -0.38274199511E+02  0.81890222451E+02  0.25383828279E+02  0.93889678988E+02  0.10100000352E+00 0. -1.
       -3    1    3    3    0  502  0.38274199511E+02 -0.81890222451E+02 -0.11307141653E+04  0.11343215843E+04  0.10100000352E+00 0.  1.
</event>
<event>
 5   0  0.1827698E-01  0.5024971E+03  0.7818609E-02  0.1013129E+00
        2   -1    0    0  501    0  0.00000000000E+00  0.00000000000E+00  0.68818097665E+03  0.68818097665E+03  0.25500000920E-02 0. -1.
       -2   -1    0    0    0  501  0.00000000000E+00  0.00000000000E+00 -0.91728523506E+02  0.91728523541E+02  0.25500000920E-02 0.  1.
    10030    2    1    2    0    0  0.00000000000E+00  0.00000000000E+00  0.59645245314E+03  0.77990950019E+03  0.50249706430E+03 0.  0.
        1    1    3    3  502    0  0.18401681844E+03  0.52103002681E+02  0.55111762035E+03  0.58335884655E+03  0.50400001928E-02 0. -1.
       -1    1    3    3    0  502 -0.18401681844E+03 -0.52103002681E+02  0.45334832787E+02  0.19655065364E+03  0.50400001928E-02 0.  1.
</event>
<event>
 5   0  0.1123271E-01  0.5294533E+03  0.7818609E-02  0.1006365E+00
        1   -1    0    0  501    0  0.00000000000E+00  0.00000000000E+00  0.90932420813E+02  0.90932420952E+02  0.50400001928E-02 0.  1.
       -1   -1    0    0    0  501  0.00000000000E+00  0.00000000000E+00 -0.77068428954E+03  0.77068428956E+03  0.50400001928E-02 0. -1.
    10030    2    1    2    0    0  0.00000000000E+00  0.00000000000E+00 -0.67975186873E+03  0.86161671051E+03  0.52945325836E+03 0.  0.
        5    1    3    3  502    0  0.95078559638E+02  0.40396357934E+02  0.56702981911E+02  0.11793691701E+03  0.46999998093E+01 0.  1.
       -5    1    3    3    0  502 -0.95078559638E+02 -0.40396357934E+02 -0.73645485064E+03  0.74367979350E+03  0.46999998093E+01 0. -1.
</event>
<event>
 5   0  0.1782124E-01  0.5207945E+03  0.7818609E-02  0.1008489E+00
       -2   -1    0    0    0  501  0.00000000000E+00  0.00000000000E+00  0.82018366930E+02  0.82018366970E+02  0.25500000920E-02 0.  1.
        2   -1    0    0  501    0  0.00000000000E+00  0.00000000000E+00 -0.82672614215E+03  0.82672614215E+03  0.25500000920E-02 0. -1.
    10030    2    1    2    0    0  0.00000000000E+00  0.00000000000E+00 -0.74470777522E+03  0.90874450912E+03  0.52079450111E+03 0.  0.
        3    1    3    3  502    0 -0.25668774832E+02 -0.18693390616E+03 -0.59222024781E+02  0.19776357019E+03  0.10100000352E+00 0.  1.
       -3    1    3    3    0  502  0.25668774832E+02  0.18693390616E+03 -0.68548575044E+03  0.71098093893E+03  0.10100000352E+00 0. -1.
</event>
<event>
 5   0  0.1141970E-01  0.5084143E+03  0.7818609E-02  0.1011606E+00
        1   -1    0    0  501    0  0.00000000000E+00  0.00000000000E+00  0.83636614556E+03  0.83636614558E+03  0.50400001928E-02 0.  1.
       -1   -1    0    0    0  501  0.00000000000E+00  0.00000000000E+00 -0.77264323444E+02  0.77264323608E+02  0.50400001928E-02 0. -1.
    10030    2    1    2    0    0  0.00000000000E+00  0.00000000000E+00  0.75910182212E+03  0.91363046919E+03  0.50841425814E+03 0.  0.
        3    1    3    3  502    0  0.27496534553E+02  0.19632988711E+03  0.93605761742E+02  0.21923396821E+03  0.10100000352E+00 0. -1.
       -3    1    3    3    0  502 -0.27496534553E+02 -0.19632988711E+03  0.66549606038E+03  0.69439650097E+03  0.10100000352E+00 0.  1.
</event>
<event>
 5   0  0.7220250E-02  0.4743895E+03  0.7818609E-02  0.1020689E+00
       -3   -1    0    0    0  501  0.00000000000E+00  0.00000000000E+00  0.27040396259E+03  0.27040398146E+03  0.10100000352E+00 0. -1.
        3   -1    0    0  501    0  0.00000000000E+00  0.00000000000E+00 -0.20806406388E+03  0.20806408839E+03  0.10100000352E+00 0.  1.
    10030    2    1    2    0    0  0.00000000000E+00  0.00000000000E+00  0.62339898714E+02  0.47846806985E+03  0.47438953498E+03 0.  0.
        2    1    3    3  502    0  0.13777933234E+03 -0.10272073782E+03  0.19605839812E+03  0.26071745220E+03  0.25500000920E-02 0. -1.
       -2    1    3    3    0  502 -0.13777933234E+03  0.10272073782E+03 -0.13371849941E+03  0.21775061766E+03  0.25500000920E-02 0.  1.
</event>
<event>
 5   0  0.1683148E-01  0.4995946E+03  0.7818609E-02  0.1013885E+00
        2   -1    0    0  501    0  0.00000000000E+00  0.00000000000E+00  0.21079545769E+04  0.21079545769E+04  0.25500000920E-02 0. -1.
       -2   -1    0    0    0  501  0.00000000000E+00  0.00000000000E+00 -0.29601533131E+02  0.29601533240E+02  0.25500000920E-02 0.  1.
    10030    2    1    2    0    0  0.00000000000E+00  0.00000000000E+00  0.20783530437E+04  0.21375561101E+04  0.49959458509E+03 0.  0.
        2    1    3    3  502    0  0.18490490172E+03  0.11968415170E+03  0.53501929741E+03  0.57858427861E+03  0.25500000920E-02 0.  1.
       -2    1    3    3    0  502 -0.18490490172E+03 -0.11968415170E+03  0.15433337463E+04  0.15589718315E+04  0.25500000920E-02 0. -1.
</event>
<event>
 5   0  0.1147245E-01  0.5033805E+03  0.7818609E-02  0.1012900E+00
       -1   -1    0    0    0  501  0.00000000000E+00  0.00000000000E+00  0.90709777680E+02  0.90709777820E+02  0.50400001928E-02 0.  1.
        1   -1    0    0  501    0  0.00000000000E+00  0.00000000000E+00 -0.69835883393E+03  0.69835883394E+03  0.50400001928E-02 0. -1.
    10030    2    1    2    0    0  0.00000000000E+00  0.00000000000E+00 -0.60764905625E+03  0.78906861176E+03  0.50338047093E+03 0.  0.
        1    1    3    3  502    0  0.20877876950E+03 -0.46441150379E+02 -0.51179757608E+03  0.55469100763E+03  0.50400001928E-02 0. -1.
       -1    1    3    3    0  502 -0.20877876950E+03  0.46441150379E+02 -0.95851480163E+02  0.23437760413E+03  0.50400001928E-02 0.  1.
</event>
<event>
 5   0  0.1782124E-01  0.4968907E+03  0.7818609E-02  0.1014594E+00
        2   -1    0    0  501    0  0.00000000000E+00  0.00000000000E+00  0.10173859637E+04  0.10173859638E+04  0.25500000920E-02 0.  1.
       -2   -1    0    0    0  501  0.00000000000E+00  0.00000000000E+00 -0.60670291388E+02  0.60670291442E+02  0.25500000920E-02 0. -1.
    10030    2    1    2    0    0  0.00000000000E+00  0.00000000000E+00  0.95671567236E+03  0.10780562552E+04  0.49689074415E+03 0.  0.
        3    1    3    3  502    0  0.60924093982E+02 -0.23783468896E+03  0.39579853117E+03  0.46576128218E+03  0.10100000352E+00 0. -1.
       -3    1    3    3    0  502 -0.60924093982E+02  0.23783468896E+03  0.56091714119E+03  0.61229497301E+03  0.10100000352E+00 0.  1.
</event>
<event>
 5   0  0.1683148E-01  0.5011401E+03  0.7818609E-02  0.1013482E+00
        2   -1    0    0  501    0  0.00000000000E+00  0.00000000000E+00  0.85128351581E+03  0.85128351581E+03  0.25500000920E-02 0. -1.
       -2   -1    0    0    0  501  0.00000000000E+00  0.00000000000E+00 -0.73753748557E+02  0.73753748601E+02  0.25500000920E-02 0.  1.
    10030    2    1    2    0    0  0.00000000000E+00  0.00000000000E+00  0.77752976725E+03  0.92503726441E+03  0.50114010176E+03 0.  0.
        2    1    3    3  502    0 -0.24571117312E+03 -0.27516147485E+02  0.46384037863E+03  0.52562250316E+03  0.25500000920E-02 0.  1.
       -2    1    3    3    0  502  0.24571117312E+03  0.27516147485E+02  0.31368938861E+03  0.39941476125E+03  0.25500000920E-02 0. -1.
</event>
<event>
 5   0  0.1147245E-01  0.4958588E+03  0.7818609E-02  0.1014866E+00
        1   -1    0    0  501    0  0.00000000000E+00  0.00000000000E+00  0.17507998648E+03  0.17507998655E+03  0.50400001928E-02 0.  1.
       -1   -1    0    0    0  501  0.00000000000E+00  0.00000000000E+00 -0.35109087233E+03  0.35109087236E+03  0.50400001928E-02 0. -1.
    10030    2    1    2    0    0  0.00000000000E+00  0.00000000000E+00 -0.17601088585E+03  0.52617085892E+03  0.49585879123E+03 0.  0.
        1    1    3    3  502    0 -0.11159594724E+03  0.45713220379E+02 -0.31787096523E+03  0.33997838832E+03  0.50400001928E-02 0. -1.
       -1    1    3    3    0  502  0.11159594724E+03 -0.45713220379E+02  0.14186007939E+03  0.18619247060E+03  0.50400001928E-02 0.  1.
</event>
<event>
 5   0  0.1760649E-01  0.4982752E+03  0.7818609E-02  0.1014230E+00
       -2   -1    0    0    0  501  0.00000000000E+00  0.00000000000E+00  0.20626530841E+03  0.20626530843E+03  0.25500000920E-02 0.  1.
        2   -1    0    0  501    0  0.00000000000E+00  0.00000000000E+00 -0.30092094945E+03  0.30092094947E+03  0.25500000920E-02 0. -1.
    10030    2    1    2    0    0  0.00000000000E+00  0.00000000000E+00 -0.94655641044E+02  0.50718625789E+03  0.49827523500E+03 0.  0.
        5    1    3    3  502    0 -0.23191822072E+03 -0.90892189041E+02 -0.47219504850E+02  0.25357291410E+03  0.46999998093E+01 0. -1.
       -5    1    3    3    0  502  0.23191822072E+03  0.90892189041E+02 -0.47436136194E+02  0.25361334379E+03  0.46999998093E+01 0.  1.
</event>
<event>
 5   0  0.1683148E-01  0.4884118E+03  0.7818609E-02  0.1016849E+00
        2   -1    0    0  501    0  0.00000000000E+00  0.00000000000E+00  0.90436892282E+03  0.90436892283E+03  0.25500000920E-02 0.  1.
       -2   -1    0    0    0  501  0.00000000000E+00  0.00000000000E+00 -0.65942694641E+02  0.65942694691E+02  0.25500000920E-02 0. -1.
    10030    2    1    2    0    0  0.00000000000E+00  0.00000000000E+00  0.83842622818E+03  0.97031161752E+03  0.48841180881E+03 0.  0.
        2    1    3    3  502    0  0.15400443900E+03 -0.14154672423E+03  0.16883252398E+03  0.26880711213E+03  0.25500000920E-02 0. -1.
       -2    1    3    3    0  502 -0.15400443900E+03  0.14154672423E+03  0.66959370420E+03  0.70150450539E+03  0.25500000920E-02 0.  1.
</event>
<event>
 5   0  0.1760649E-01  0.5007830E+03  0.7818609E-02  0.1013575E+00
        2   -1    0    0  501    0  0.00000000000E+00  0.00000000000E+00  0.73164602565E+02  0.73164602609E+02  0.25500000920E-02 0.  1.
       -2   -1    0    0    0  501  0.00000000000E+00  0.00000000000E+00 -0.85691572922E+03  0.85691572922E+03  0.25500000920E-02 0. -1.
    10030    2    1    2    0    0  0.00000000000E+00  0.00000000000E+00 -0.78375112665E+03  0.93008033183E+03  0.50078298207E+03 0.  0.
        5    1    3    3  502    0  0.48051558991E+02  0.10600847043E+03  0.19777440514E+02  0.11815238159E+03  0.46999998093E+01 0.  1.
       -5    1    3    3    0  502 -0.48051558991E+02 -0.10600847043E+03 -0.80352856717E+03  0.81192795024E+03  0.46999998093E+01 0. -1.
</event>
<event>
 5   0  0.1074281E-01  0.4993260E+03  0.7818609E-02  0.1013955E+00
        1   -1    0    0  501    0  0.00000000000E+00  0.00000000000E+00  0.18478676377E+03  0.18478676384E+03  0.50400001928E-02 0.  1.
       -1   -1    0    0    0  501  0.00000000000E+00  0.00000000000E+00 -0.33731645750E+03  0.33731645754E+03  0.50400001928E-02 0. -1.
    10030    2    1    2    0    0  0.00000000000E+00  0.00000000000E+00 -0.15252969373E+03  0.52210322138E+03  0.49932601205E+03 0.  0.
        4    1    3    3  502    0  0.23539699796E+03 -0.42246388480E+02 -0.15118160084E+03  0.28293814399E+03  0.12699999809E+01 0. -1.
       -4    1    3    3    0  502 -0.23539699796E+03  0.42246388480E+02 -0.13480928834E+01  0.23916507739E+03  0.12699999809E+01 0.  1.
</event>
<event>
 5   0  0.1709372E-01  0.4960539E+03  0.7818609E-02  0.1014814E+00
        2   -1    0    0  501    0  0.00000000000E+00  0.00000000000E+00  0.21729616256E+03  0.21729616258E+03  0.25500000920E-02 0.  1.
       -2   -1    0    0    0  501  0.00000000000E+00  0.00000000000E+00 -0.28310381659E+03  0.28310381661E+03  0.25500000920E-02 0. -1.
    10030    2    1    2    0    0  0.00000000000E+00  0.00000000000E+00 -0.65807654030E+02  0.50039997919E+03  0.49605392029E+03 0.  0.
        4    1    3    3  502    0  0.77428308357E+02  0.17403396400E+03 -0.19314388348E+03  0.27127317632E+03  0.12699999809E+01 0. -1.
       -4    1    3    3    0  502 -0.77428308357E+02 -0.17403396400E+03  0.12733622945E+03  0.22912680287E+03  0.12699999809E+01 0.  1.
</event>
<event>
 5   0  0.1782124E-01  0.4935295E+03  0.7818609E-02  0.1015482E+00
       -2   -1    0    0    0  501  0.00000000000E+00  0.00000000000E+00  0.29842480419E+03  0.29842480420E+03  0.25500000920E-02 0. -1.
        2   -1    0    0  501    0  0.00000000000E+00  0.00000000000E+00 -0.20404756010E+03  0.20404756012E+03  0.25500000920E-02 0.  1.
    10030    2    1    2    0    0  0.00000000000E+00  0.00000000000E+00  0.94377244087E+02  0.50247236432E+03  0.49352954593E+03 0.  0.
        3    1    3    3  502    0  0.18524516581E+03  0.15441771482E+02  0.21242115408E+03  0.28227110490E+03  0.10100000352E+00 0. -1.
       -3    1    3    3    0  502 -0.18524516581E+03 -0.15441771482E+02 -0.11804390999E+03  0.22020125942E+03  0.10100000352E+00 0.  1.
</event>
<event>
 5   0  0.1760649E-01  0.4995744E+03  0.7818609E-02  0.1013890E+00
       -2   -1    0    0    0  501  0.00000000000E+00  0.00000000000E+00  0.89056270176E+02  0.89056270212E+02  0.25500000920E-02 0.  1.
        2   -1    0    0  501    0  0.00000000000E+00  0.00000000000E+00 -0.70060909597E+03  0.70060909597E+03  0.25500000920E-02 0. -1.
    10030    2    1    2    0    0  0.00000000000E+00  0.00000000000E+00 -0.61155282579E+03  0.78966536618E+03  0.49957435064E+03 0.  0.
        5    1    3    3  502    0 -0.25364298885E+02  0.23370700130E+03 -0.17249968326E+03  0.29161711342E+03  0.46999998093E+01 0. -1.
       -5    1    3    3    0  502  0.25364298885E+02 -0.23370700130E+03 -0.43905314253E+03  0.49804825276E+03  0.46999998093E+01 0.  1.
</event>
<event>
 5   0  0.1782124E-01  0.4963026E+03  0.7818609E-02  0.1014749E+00
        2   -1    0    0  501    0  0.00000000000E+00  0.00000000000E+00  0.12082220650E+04  0.12082220650E+04  0.25500000920E-02 0. -1.
       -2   -1    0    0    0  501  0.00000000000E+00  0.00000000000E+00 -0.50966683336E+02  0.50966683400E+02  0.25500000920E-02 0.  1.
    10030    2    1    2    0    0  0.00000000000E+00  0.00000000000E+00  0.11572553816E+04  0.12591887484E+04  0.49630261505E+03 0.  0.
        3    1    3    3  502    0  0.18462814212E+03  0.16535618135E+03  0.54767421471E+03  0.60114663205E+03  0.10100000352E+00 0.  1.
       -3    1    3    3    0  502 -0.18462814212E+03 -0.16535618135E+03  0.60958116693E+03  0.65804211632E+03  0.10100000352E+00 0. -1.
</event>
<event>
 5   0  0.1147245E-01  0.5052563E+03  0.7818609E-02  0.1012416E+00
        1   -1    0    0  501    0  0.00000000000E+00  0.00000000000E+00  0.17977110576E+03  0.17977110584E+03  0.50400001928E-02 0. -1.
       -1   -1    0    0    0  501  0.00000000000E+00  0.00000000000E+00 -0.35501245526E+03  0.35501245529E+03  0.50400001928E-02 0.  1.
    10030    2    1    2    0    0  0.00000000000E+00  0.00000000000E+00 -0.17524134949E+03  0.53478356113E+03  0.50525629801E+03 0.  0.
        1    1    3    3  502    0  0.64170931130E+02  0.11497556044E+03  0.14057984477E+03  0.19261355269E+03  0.50400001928E-02 0. -1.
       -1    1    3    3    0  502 -0.64170931130E+02 -0.11497556044E+03 -0.31582119426E+03  0.34217000843E+03  0.50400001928E-02 0.  1.
</event>
<event>
 5   0  0.1141970E-01  0.4372081E+03  0.7818609E-02  0.1031607E+00
        1   -1    0    0  501    0  0.00000000000E+00  0.00000000000E+00  0.15183561407E+03  0.15183561415E+03  0.50400001928E-02 0.  1.
       -1   -1    0    0    0  501  0.00000000000E+00  0.00000000000E+00 -0.31473332594E+03  0.31473332598E+03  0.50400001928E-02 0. -1.
    10030    2    1    2    0    0  0.00000000000E+00  0.00000000000E+00 -0.16289771187E+03  0.46656894013E+03  0.43720808702E+03 0.  0.
        3    1    3    3  502    0 -0.19134153426E+03 -0.89441764534E+02 -0.21305344265E+02  0.21228598604E+03  0.10100000352E+00 0.  1.
       -3    1    3    3    0  502  0.19134153426E+03  0.89441764534E+02 -0.14159236761E+03  0.25428295409E+03  0.10100000352E+00 0. -1.
</event>
<event>
 5   0  0.1709372E-01  0.5035266E+03  0.7818609E-02  0.1012863E+00
        2   -1    0    0  501    0  0.00000000000E+00  0.00000000000E+00  0.32907238113E+03  0.32907238114E+03  0.25500000920E-02 0.  1.
       -2   -1    0    0    0  501  0.00000000000E+00  0.00000000000E+00 -0.19261645903E+03  0.19261645904E+03  0.25500000920E-02 0. -1.
    10030    2    1    2    0    0  0.00000000000E+00  0.00000000000E+00  0.13645592211E+03  0.52168884018E+03  0.50352659045E+03 0.  0.
        4    1    3    3  502    0 -0.12686210160E+03  0.18731411866E+03 -0.46221783312E+02  0.23090828920E+03  0.12699999809E+01 0. -1.
       -4    1    3    3    0  502  0.12686210160E+03 -0.18731411866E+03  0.18267770542E+03  0.29078055098E+03  0.12699999809E+01 0.  1.
</event>
<event>
 5   0  0.1123271E-01  0.5071873E+03  0.7818609E-02  0.1011920E+00
       -1   -1    0    0    0  501  0.00000000000E+00  0.00000000000E+00  0.82978366845E+02  0.82978366998E+02  0.50400001928E-02 0. -1.
        1   -1    0    0  501    0  0.00000000000E+00  0.00000000000E+00 -0.77501820424E+03  0.77501820425E+03  0.50400001928E-02 0.  1.
    10030    2    1    2    0    0  0.00000000000E+00  0.00000000000E+00 -0.69203983739E+03  0.85799657125E+03  0.50718732214E+03 0.  0.
        5    1    3    3  502    0  0.94395369668E+01 -0.10794528198E+03 -0.73380268737E+03  0.74177473855E+03  0.46999998093E+01 0.  1.
       -5    1    3    3    0  502 -0.94395369668E+01  0.10794528198E+03  0.41762849975E+02  0.11622183270E+03  0.46999998093E+01 0. -1.
</event>
<event>
 5   0  0.1123271E-01  0.5025773E+03  0.7818609E-02  0.1013108E+00
       -1   -1    0    0    0  501  0.00000000000E+00  0.00000000000E+00  0.28928928651E+03  0.28928928655E+03  0.50400001928E-02 0. -1.
        1   -1    0    0  501    0  0.00000000000E+00  0.00000000000E+00 -0.21827969249E+03  0.21827969254E+03  0.50400001928E-02 0.  1.
    10030    2    1    2    0    0  0.00000000000E+00  0.00000000000E+00  0.71009594022E+02  0.50756897910E+03  0.50257726381E+03 0.  0.
        5    1    3    3  502    0  0.12861783949E+03  0.10457350481E+03  0.22618075175E+03  0.28046031627E+03  0.46999998093E+01 0. -1.
       -5    1    3    3    0  502 -0.12861783949E+03 -0.10457350481E+03 -0.15517115772E+03  0.22710866283E+03  0.46999998093E+01 0.  1.
</event>
<event>
 5   0  0.1141970E-01  0.5573588E+03  0.7818609E-02  0.9998049E-01
        1   -1    0    0  501    0  0.00000000000E+00  0.00000000000E+00  0.90350257298E+03  0.90350257299E+03  0.50400001928E-02 0.  1.
       -1   -1    0    0    0  501  0.00000000000E+00  0.00000000000E+00 -0.85956829423E+02  0.85956829571E+02  0.50400001928E-02 0. -1.
    10030    2    1    2    0    0  0.00000000000E+00  0.00000000000E+00  0.81754574356E+03  0.98945940256E+03  0.55735883102E+03 0.  0.
        3    1    3    3  502    0  0.11980009092E+03  0.75927940985E+02  0.83463325360E+03  0.84659895595E+03  0.10100000352E+00 0.  1.
       -3    1    3    3    0  502 -0.11980009092E+03 -0.75927940985E+02 -0.17087510042E+02  0.14286044661E+03  0.10100000352E+00 0. -1.
</event>
<event>
 5   0  0.7220250E-02  0.5036700E+03  0.7818609E-02  0.1012825E+00
        3   -1    0    0  501    0  0.00000000000E+00  0.00000000000E+00  0.15450647027E+03  0.15450650328E+03  0.10100000352E+00 0.  1.
       -3   -1    0    0    0  501  0.00000000000E+00  0.00000000000E+00 -0.41047383261E+03  0.41047384504E+03  0.10100000352E+00 0. -1.
    10030    2    1    2    0    0  0.00000000000E+00  0.00000000000E+00 -0.25596736235E+03  0.56498034832E+03  0.50367003425E+03 0.  0.
        5    1    3    3  502    0  0.16732692377E+03 -0.20851285753E+02 -0.33773678995E+03  0.37751993963E+03  0.46999998093E+01 0. -1.
       -5    1    3    3    0  502 -0.16732692377E+03  0.20851285753E+02  0.81769427605E+02  0.18746040868E+03  0.46999998093E+01 0.  1.
</event>
<event>
 5   0  0.1123271E-01  0.4971391E+03  0.7818609E-02  0.1014528E+00
        1   -1    0    0  501    0  0.00000000000E+00  0.00000000000E+00  0.40811552087E+03  0.40811552090E+03  0.50400001928E-02 0. -1.
       -1   -1    0    0    0  501  0.00000000000E+00  0.00000000000E+00 -0.15139542360E+03  0.15139542368E+03  0.50400001928E-02 0.  1.
    10030    2    1    2    0    0  0.00000000000E+00  0.00000000000E+00  0.25672009727E+03  0.55951094459E+03  0.49713910404E+03 0.  0.
        5    1    3    3  502    0 -0.10666490882E+03  0.21833499709E+03  0.69693823481E+02  0.25283768065E+03  0.46999998093E+01 0.  1.
       -5    1    3    3    0  502  0.10666490882E+03 -0.21833499709E+03  0.18702627379E+03  0.30667326394E+03  0.46999998093E+01 0. -1.
</event>
<event>
 5   0  0.1147245E-01  0.4894774E+03  0.7818609E-02  0.1016563E+00
        1   -1    0    0  501    0  0.00000000000E+00  0.00000000000E+00  0.99197569057E+02  0.99197569185E+02  0.50400001928E-02 0. -1.
       -1   -1    0    0    0  501  0.00000000000E+00  0.00000000000E+00 -0.60381563151E+03  0.60381563153E+03  0.50400001928E-02 0.  1.
    10030    2    1    2    0    0  0.00000000000E+00  0.00000000000E+00 -0.50461806245E+03  0.70301320071E+03  0.48947744731E+03 0.  0.
        1    1    3    3  502    0  0.23116902317E+03  0.27699649299E+02 -0.36065479151E+03  0.42927644532E+03  0.50400001928E-02 0.  1.
       -1    1    3    3    0  502 -0.23116902317E+03 -0.27699649299E+02 -0.14396327094E+03  0.27373675539E+03  0.50400001928E-02 0. -1.
</event>
<event>
 5   0  0.1827698E-01  0.4949711E+03  0.7818609E-02  0.1015100E+00
       -2   -1    0    0    0  501  0.00000000000E+00  0.00000000000E+00  0.91930157962E+02  0.91930157998E+02  0.25500000920E-02 0.  1.
        2   -1    0    0  501    0  0.00000000000E+00  0.00000000000E+00 -0.66625676357E+03  0.66625676358E+03  0.25500000920E-02 0. -1.
    10030    2    1    2    0    0  0.00000000000E+00  0.00000000000E+00 -0.57432660561E+03  0.75818692158E+03  0.49497106798E+03 0.  0.
        1    1    3    3  502    0 -0.86200613429E+02 -0.62390927913E+02  0.55099336246E+02  0.11982950606E+03  0.50400001928E-02 0.  1.
       -1    1    3    3    0  502  0.86200613429E+02  0.62390927913E+02 -0.62942594186E+03  0.63835741552E+03  0.50400001928E-02 0. -1.
</event>
<event>
 5   0  0.1068522E-01  0.4975313E+03  0.7818609E-02  0.1014425E+00
        1   -1    0    0  501    0  0.00000000000E+00  0.00000000000E+00  0.38778685045E+03  0.38778685049E+03  0.50400001928E-02 0. -1.
       -1   -1    0    0    0  501  0.00000000000E+00  0.00000000000E+00 -0.15958342183E+03  0.15958342191E+03  0.50400001928E-02 0.  1.
    10030    2    1    2    0    0  0.00000000000E+00  0.00000000000E+00  0.22820342863E+03  0.54737027239E+03  0.49753131586E+03 0.  0.
        2    1    3    3  502    0  0.44119108751E+02 -0.86487076338E+02 -0.13787824290E+03  0.16863249984E+03  0.25500000920E-02 0.  1.
       -2    1    3    3    0  502 -0.44119108751E+02  0.86487076338E+02  0.36608167152E+03  0.37873777256E+03  0.25500000920E-02 0. -1.
</event>
<event>
 5   0  0.1141970E-01  0.5007975E+03  0.7818609E-02  0.1013571E+00
       -1   -1    0    0    0  501  0.00000000000E+00  0.00000000000E+00  0.54322838804E+03  0.54322838806E+03  0.50400001928E-02 0. -1.
        1   -1    0    0  501    0  0.00000000000E+00  0.00000000000E+00 -0.11542019553E+03  0.11542019564E+03  0.50400001928E-02 0.  1.
    10030    2    1    2    0    0  0.00000000000E+00  0.00000000000E+00  0.42780819251E+03  0.65864858370E+03  0.50079747127E+03 0.  0.
        3    1    3    3  502    0 -0.23497692582E+03  0.64740721178E+02  0.13842035285E+03  0.28029577402E+03  0.10100000352E+00 0. -1.
       -3    1    3    3    0  502  0.23497692582E+03 -0.64740721178E+02  0.28938783966E+03  0.37835280968E+03  0.10100000352E+00 0.  1.
</event>
<event>
 5   0  0.7220250E-02  0.5071920E+03  0.7818609E-02  0.1011919E+00
       -3   -1    0    0    0  501  0.00000000000E+00  0.00000000000E+00  0.10559585161E+03  0.10559589991E+03  0.10100000352E+00 0. -1.
        3   -1    0    0  501    0  0.00000000000E+00  0.00000000000E+00 -0.60902878796E+03  0.60902879633E+03  0.10100000352E+00 0.  1.
    10030    2    1    2    0    0  0.00000000000E+00  0.00000000000E+00 -0.50343293635E+03  0.71462469624E+03  0.50719201007E+03 0.  0.
        3    1    3    3  502    0 -0.85148214428E+01 -0.23676750084E+03 -0.12428669643E+03  0.26754166918E+03  0.10100000352E+00 0.  1.
       -3    1    3    3    0  502  0.85148214428E+01  0.23676750084E+03 -0.37914623992E+03  0.44708302706E+03  0.10100000352E+00 0. -1.
</event>
<event>
 5   0  0.1068522E-01  0.4959491E+03  0.7818609E-02  0.1014842E+00
       -1   -1    0    0    0  501  0.00000000000E+00  0.00000000000E+00  0.11320029125E+03  0.11320029136E+03  0.50400001928E-02 0.  1.
        1   -1    0    0  501    0  0.00000000000E+00  0.00000000000E+00 -0.54320867256E+03  0.54320867259E+03  0.50400001928E-02 0. -1.
    10030    2    1    2    0    0  0.00000000000E+00  0.00000000000E+00 -0.43000838131E+03  0.65640896395E+03  0.49594911025E+03 0.  0.
        2    1    3    3  502    0 -0.16854131827E+03  0.95218976348E+02 -0.42012550258E+03  0.46257785004E+03  0.25500000920E-02 0. -1.
       -2    1    3    3    0  502  0.16854131827E+03 -0.95218976348E+02 -0.98828787269E+01  0.19383111391E+03  0.25500000920E-02 0.  1.
</event>
<event>
 5   0  0.1141970E-01  0.5072818E+03  0.7818609E-02  0.1011896E+00
        1   -1    0    0  501    0  0.00000000000E+00  0.00000000000E+00  0.80489058836E+03  0.80489058837E+03  0.50400001928E-02 0. -1.
       -1   -1    0    0    0  501  0.00000000000E+00  0.00000000000E+00 -0.79928511799E+02  0.79928511958E+02  0.50400001928E-02 0.  1.
    10030    2    1    2    0    0  0.00000000000E+00  0.00000000000E+00  0.72496207656E+03  0.88481910033E+03  0.50728180321E+03 0.  0.
        3    1    3    3  502    0 -0.24712772836E+02  0.21027591778E+02 -0.76293320772E+02  0.82906946347E+02  0.10100000352E+00 0.  1.
       -3    1    3    3    0  502  0.24712772836E+02 -0.21027591778E+02  0.80125539733E+03  0.80191215399E+03  0.10100000352E+00 0. -1.
</event>
<event>
 5   0  0.1760649E-01  0.5006112E+03  0.7818609E-02  0.1013620E+00
       -2   -1    0    0    0  501  0.00000000000E+00  0.00000000000E+00  0.15805185262E+03  0.15805185264E+03  0.25500000920E-02 0.  1.
        2   -1    0    0  501    0  0.00000000000E+00  0.00000000000E+00 -0.39640723109E+03  0.39640723110E+03  0.25500000920E-02 0. -1.
    10030    2    1    2    0    0  0.00000000000E+00  0.00000000000E+00 -0.23835537847E+03  0.55445908374E+03  0.50061121551E+03 0.  0.
        5    1    3    3  502    0 -0.23099205253E+03 -0.95233152861E+02 -0.13500173763E+03  0.28403211244E+03  0.46999998093E+01 0. -1.
       -5    1    3    3    0  502  0.23099205253E+03  0.95233152861E+02 -0.10335364085E+03  0.27042697131E+03  0.46999998093E+01 0.  1.
</event>
<event>
 5   0  0.1827698E-01  0.4583370E+03  0.7818609E-02  0.1025265E+00
       -2   -1    0    0    0  501  0.00000000000E+00  0.00000000000E+00  0.74099127429E+02  0.74099127473E+02  0.25500000920E-02 0. -1.
        2   -1    0    0  501    0  0.00000000000E+00  0.00000000000E+00 -0.70875610798E+03  0.70875610799E+03  0.25500000920E-02 0.  1.
    10030    2    1    2    0    0  0.00000000000E+00  0.00000000000E+00 -0.63465698055E+03  0.78285523546E+03  0.45833703398E+03 0.  0.
        1    1    3    3  502    0  0.92525178831E+02  0.14856216459E+03 -0.64639977743E+02  0.18657425389E+03  0.50400001928E-02 0. -1.
       -1    1    3    3    0  502 -0.92525178831E+02 -0.14856216459E+03 -0.57001700281E+03  0.59628098157E+03  0.50400001928E-02 0.  1.
</event>
<event>
 5   0  0.1147245E-01  0.4667649E+03  0.7818609E-02  0.1022837E+00
        1   -1    0    0  501    0  0.00000000000E+00  0.00000000000E+00  0.17363429778E+03  0.17363429785E+03  0.50400001928E-02 0. -1.
       -1   -1    0    0    0  501  0.00000000000E+00  0.00000000000E+00 -0.31369011458E+03  0.31369011462E+03  0.50400001928E-02 0.  1.
    10030    2    1    2    0    0  0.00000000000E+00  0.00000000000E+00 -0.14005581680E+03  0.48732441247E+03  0.46676487783E+03 0.  0.
        1    1    3    3  502    0 -0.95483169703E+02 -0.47919077115E+02 -0.28666219879E+03  0.30592235925E+03  0.50400001928E-02 0.  1.
       -1    1    3    3    0  502  0.95483169703E+02  0.47919077115E+02  0.14660638199E+03  0.18140205322E+03  0.50400001928E-02 0. -1.
</event>
<event>
 5   0  0.1683148E-01  0.4931394E+03  0.7818609E-02  0.1015585E+00
       -2   -1    0    0    0  501  0.00000000000E+00  0.00000000000E+00  0.34799580721E+03  0.34799580722E+03  0.25500000920E-02 0.  1.
        2   -1    0    0  501    0  0.00000000000E+00  0.00000000000E+00 -0.17470501433E+03  0.17470501435E+03  0.25500000920E-02 0. -1.
    10030    2    1    2    0    0  0.00000000000E+00  0.00000000000E+00  0.17329079288E+03  0.52270082157E+03  0.49313938189E+03 0.  0.
        2    1    3    3  502    0 -0.12598269142E+03  0.21050357204E+03  0.60397670058E+02  0.25264851263E+03  0.25500000920E-02 0. -1.
       -2    1    3    3    0  502  0.12598269142E+03 -0.21050357204E+03  0.11289312282E+03  0.27005230894E+03  0.25500000920E-02 0.  1.
</event>
<event>
 5   0  0.1760649E-01  0.4986268E+03  0.7818609E-02  0.1014138E+00
        2   -1    0    0  501    0  0.00000000000E+00  0.00000000000E+00  0.66279978306E+03  0.66279978306E+03  0.25500000920E-02 0.  1.
       -2   -1    0    0    0  501  0.00000000000E+00  0.00000000000E+00 -0.93779719094E+02  0.93779719129E+02  0.25500000920E-02 0. -1.
    10030    2    1    2    0    0  0.00000000000E+00  0.00000000000E+00  0.56902006396E+03  0.75657950219E+03  0.49862682433E+03 0.  0.
        5    1    3    3  502    0 -0.10671003995E+03  0.83109681682E+02 -0.33190794437E+02  0.13934837871E+03  0.46999998093E+01 0. -1.
       -5    1    3    3    0  502  0.10671003995E+03 -0.83109681682E+02  0.60221085840E+03  0.61723112348E+03  0.46999998093E+01 0.  1.
</event>
<event>
 5   0  0.7220250E-02  0.4992287E+03  0.7818609E-02  0.1013980E+00
        4   -1    0    0  501    0  0.00000000000E+00  0.00000000000E+00  0.66984135539E+03  0.66984255933E+03  0.12699999809E+01 0. -1.
       -4   -1    0    0    0  501  0.00000000000E+00  0.00000000000E+00 -0.93012405100E+02  0.93021075044E+02  0.12699999809E+01 0.  1.
    10030    2    1    2    0    0  0.00000000000E+00  0.00000000000E+00  0.57682895029E+03  0.76286363437E+03  0.49922869184E+03 0.  0.
        5    1    3    3  502    0 -0.10700079141E+03  0.20493552557E+03  0.14476239833E+03  0.27281125521E+03  0.46999998093E+01 0.  1.
       -5    1    3    3    0  502  0.10700079141E+03 -0.20493552557E+03  0.43206655196E+03  0.49005237916E+03  0.46999998093E+01 0. -1.
</event>
<event>
 5   0  0.1683148E-01  0.4989987E+03  0.7818609E-02  0.1014041E+00
        2   -1    0    0  501    0  0.00000000000E+00  0.00000000000E+00  0.20053788396E+04  0.20053788396E+04  0.25500000920E-02 0.  1.
       -2   -1    0    0    0  501  0.00000000000E+00  0.00000000000E+00 -0.31041477223E+02  0.31041477328E+02  0.25500000920E-02 0. -1.
    10030    2    1    2    0    0  0.00000000000E+00  0.00000000000E+00  0.19743373624E+04  0.20364203169E+04  0.49899868409E+03 0.  0.
        2    1    3    3  502    0 -0.17775651822E+03 -0.96070893642E+02  0.15844891642E+04  0.15973205401E+04  0.25500000920E-02 0.  1.
       -2    1    3    3    0  502  0.17775651822E+03  0.96070893642E+02  0.38984819817E+03  0.43909977682E+03  0.25500000920E-02 0. -1.
</event>
<event>
 5   0  0.1782124E-01  0.5124845E+03  0.7818609E-02  0.1010571E+00
        2   -1    0    0  501    0  0.00000000000E+00  0.00000000000E+00  0.10672243748E+04  0.10672243748E+04  0.25500000920E-02 0.  1.
       -2   -1    0    0    0  501  0.00000000000E+00  0.00000000000E+00 -0.61524167235E+02  0.61524167287E+02  0.25500000920E-02 0. -1.
    10030    2    1    2    0    0  0.00000000000E+00  0.00000000000E+00  0.10057002075E+04  0.11287485421E+04  0.51248450100E+03 0.  0.
        3    1    3    3  502    0 -0.79056592246E+02 -0.20298589812E+03  0.80003997689E+03  0.82916656616E+03  0.10100000352E+00 0.  1.
       -3    1    3    3    0  502  0.79056592246E+02  0.20298589812E+03  0.20566023064E+03  0.29958197589E+03  0.10100000352E+00 0. -1.
</event>
<event>
 5   0  0.1123271E-01  0.4972466E+03  0.7818609E-02  0.1014500E+00
       -1   -1    0    0    0  501  0.00000000000E+00  0.00000000000E+00  0.78447682613E+02  0.78447682775E+02  0.50400001928E-02 0.  1.
        1   -1    0    0  501    0  0.00000000000E+00  0.00000000000E+00 -0.78795889366E+03  0.78795889368E+03  0.50400001928E-02 0. -1.
    10030    2    1    2    0    0  0.00000000000E+00  0.00000000000E+00 -0.70951121105E+03  0.86640657645E+03  0.49724661599E+03 0.  0.
        5    1    3    3  502    0 -0.13000517500E+03 -0.12893921675E+03 -0.61819568524E+02  0.19331429382E+03  0.46999998093E+01 0.  1.
       -5    1    3    3    0  502  0.13000517500E+03  0.12893921675E+03 -0.64769164253E+03  0.67309228263E+03  0.46999998093E+01 0. -1.
</event>
<event>
 5   0  0.1141970E-01  0.5021497E+03  0.7818609E-02  0.1013219E+00
       -1   -1    0    0    0  501  0.00000000000E+00  0.00000000000E+00  0.58151734822E+03  0.58151734825E+03  0.50400001928E-02 0.  1.
        1   -1    0    0  501    0  0.00000000000E+00  0.00000000000E+00 -0.10840362066E+03  0.10840362078E+03  0.50400001928E-02 0. -1.
    10030    2    1    2    0    0  0.00000000000E+00  0.00000000000E+00  0.47311372757E+03  0.68992096902E+03  0.50214972298E+03 0.  0.
        3    1    3    3  502    0  0.17385124724E+03 -0.21687603566E+02 -0.10537457018E+02  0.17551540251E+03  0.10100000352E+00 0. -1.
       -3    1    3    3    0  502 -0.17385124724E+03  0.21687603566E+02  0.48365118458E+03  0.51440556652E+03  0.10100000352E+00 0.  1.
</event>
<event>
 5   0  0.1827698E-01  0.4916244E+03  0.7818609E-02  0.1015988E+00
       -2   -1    0    0    0  501  0.00000000000E+00  0.00000000000E+00  0.24775766605E+03  0.24775766606E+03  0.25500000920E-02 0.  1.
        2   -1    0    0  501    0  0.00000000000E+00  0.00000000000E+00 -0.24388198268E+03  0.24388198269E+03  0.25500000920E-02 0. -1.
    10030    2    1    2    0    0  0.00000000000E+00  0.00000000000E+00  0.38756833687E+01  0.49163964875E+03  0.49162437216E+03 0.  0.
        1    1    3    3  502    0  0.48291998743E+01  0.24363549097E+03 -0.30344071655E+02  0.24556534027E+03  0.50400001928E-02 0. -1.
       -1    1    3    3    0  502 -0.48291998743E+01 -0.24363549097E+03  0.34219755024E+02  0.24607430848E+03  0.50400001928E-02 0.  1.
</event>
<event>
 5   0  0.1068522E-01  0.5070301E+03  0.7818609E-02  0.1011960E+00
        1   -1    0    0  501    0  0.00000000000E+00  0.00000000000E+00  0.51839544489E+03  0.51839544492E+03  0.50400001928E-02 0.  1.
       -1   -1    0    0    0  501  0.00000000000E+00  0.00000000000E+00 -0.12397846019E+03  0.12397846029E+03  0.50400001928E-02 0. -1.
    10030    2    1    2    0    0  0.00000000000E+00  0.00000000000E+00  0.39441698470E+03  0.64237390521E+03  0.50703005460E+03 0.  0.
        2    1    3    3  502    0 -0.52435173198E+02  0.18026490283E+01 -0.11702492531E+03  0.12824792428E+03  0.25500000920E-02 0. -1.
       -2    1    3    3    0  502  0.52435173198E+02 -0.18026490283E+01  0.51144191002E+03  0.51412598092E+03  0.25500000920E-02 0.  1.
</event>
<event>
 5   0  0.1068522E-01  0.5013955E+03  0.7818609E-02  0.1013415E+00
        1   -1    0    0  501    0  0.00000000000E+00  0.00000000000E+00  0.10531981775E+03  0.10531981787E+03  0.50400001928E-02 0.  1.
       -1   -1    0    0    0  501  0.00000000000E+00  0.00000000000E+00 -0.59674777180E+03  0.59674777182E+03  0.50400001928E-02 0. -1.
    10030    2    1    2    0    0  0.00000000000E+00  0.00000000000E+00 -0.49142795405E+03  0.70206758969E+03  0.50139551900E+03 0.  0.
        2    1    3    3  502    0  0.16915705789E+03 -0.14975993357E+03 -0.39786409018E+03  0.45753467868E+03  0.25500000920E-02 0. -1.
       -2    1    3    3    0  502 -0.16915705789E+03  0.14975993357E+03 -0.93563863867E+02  0.24453291101E+03  0.25500000920E-02 0.  1.
</event>
<event>
 5   0  0.1709372E-01  0.5002284E+03  0.7818609E-02  0.1013719E+00
       -2   -1    0    0    0  501  0.00000000000E+00  0.00000000000E+00  0.24963569543E+03  0.24963569545E+03  0.25500000920E-02 0. -1.
        2   -1    0    0  501    0  0.00000000000E+00  0.00000000000E+00 -0.25059367063E+03  0.25059367065E+03  0.25500000920E-02 0.  1.
    10030    2    1    2    0    0  0.00000000000E+00  0.00000000000E+00 -0.95797519990E+00  0.50022936609E+03  0.50022844880E+03 0.  0.
        4    1    3    3  502    0  0.23056966141E+02 -0.24518336481E+03 -0.44171244136E+02  0.25019835686E+03  0.12699999809E+01 0.  1.
       -4    1    3    3    0  502 -0.23056966141E+02  0.24518336481E+03  0.43213268936E+02  0.25003100923E+03  0.12699999809E+01 0. -1.
</event>
<event>
 5   0  0.1683148E-01  0.5165165E+03  0.7818609E-02  0.1009556E+00
        2   -1    0    0  501    0  0.00000000000E+00  0.00000000000E+00  0.72359534671E+02  0.72359534716E+02  0.25500000920E-02 0. -1.
       -2   -1    0    0    0  501  0.00000000000E+00  0.00000000000E+00 -0.92174893998E+03  0.92174893998E+03  0.25500000920E-02 0.  1.
    10030    2    1    2    0    0  0.00000000000E+00  0.00000000000E+00 -0.84938940531E+03  0.99410847470E+03  0.51651650275E+03 0.  0.
        2    1    3    3  502    0 -0.74808389438E+02 -0.15092358678E+03 -0.47921599767E+02  0.17513053391E+03  0.25500000920E-02 0. -1.
       -2    1    3    3    0  502  0.74808389438E+02  0.15092358678E+03 -0.80146780554E+03  0.81897794079E+03  0.25500000920E-02 0.  1.
</event>
<event>
 5   0  0.1782124E-01  0.4861868E+03  0.7818609E-02  0.1017449E+00
       -2   -1    0    0    0  501  0.00000000000E+00  0.00000000000E+00  0.22128545128E+03  0.22128545129E+03  0.25500000920E-02 0. -1.
        2   -1    0    0  501    0  0.00000000000E+00  0.00000000000E+00 -0.26705057301E+03  0.26705057302E+03  0.25500000920E-02 0.  1.
    10030    2    1    2    0    0  0.00000000000E+00  0.00000000000E+00 -0.45765121730E+02  0.48833602431E+03  0.48618682240E+03 0.  0.
        3    1    3    3  502    0 -0.10130751760E+02 -0.22755910947E+03 -0.10816144781E+03  0.25216004724E+03  0.10100000352E+00 0.  1.
       -3    1    3    3    0  502  0.10130751760E+02  0.22755910947E+03  0.62396326078E+02  0.23617597706E+03  0.10100000352E+00 0. -1.
</event>
<event>
 5   0  0.7220250E-02  0.4881165E+03  0.7818609E-02  0.1016928E+00
        4   -1    0    0  501    0  0.00000000000E+00  0.00000000000E+00  0.34766207294E+03  0.34766439257E+03  0.12699999809E+01 0.  1.
       -4   -1    0    0    0  501  0.00000000000E+00  0.00000000000E+00 -0.17132327484E+03  0.17132798196E+03  0.12699999809E+01 0. -1.
    10030    2    1    2    0    0  0.00000000000E+00  0.00000000000E+00  0.17633879809E+03  0.51899237453E+03  0.48811649543E+03 0.  0.
        2    1    3    3  502    0  0.82232151828E+02  0.63586278500E+02 -0.14661285803E+03  0.17972387642E+03  0.25500000920E-02 0. -1.
       -2    1    3    3    0  502 -0.82232151828E+02 -0.63586278500E+02  0.32295165613E+03  0.33926849811E+03  0.25500000920E-02 0.  1.
</event>
<event>
 5   0  0.1709372E-01  0.5003058E+03  0.7818609E-02  0.1013699E+00
        2   -1    0    0  501    0  0.00000000000E+00  0.00000000000E+00  0.85969809311E+03  0.85969809311E+03  0.25500000920E-02 0.  1.
       -2   -1    0    0    0  501  0.00000000000E+00  0.00000000000E+00 -0.72788883529E+02  0.72788883574E+02  0.25500000920E-02 0. -1.
    10030    2    1    2    0    0  0.00000000000E+00  0.00000000000E+00  0.78690920958E+03  0.93248697668E+03  0.50030576408E+03 0.  0.
        4    1    3    3  502    0  0.59418734975E+02  0.19006424420E+03  0.11128310928E+03  0.22812397134E+03  0.12699999809E+01 0.  1.
       -4    1    3    3    0  502 -0.59418734975E+02 -0.19006424420E+03  0.67562610029E+03  0.70436300534E+03  0.12699999809E+01 0. -1.
</event>
<event>
 5   0  0.1782124E-01  0.5099282E+03  0.7818609E-02  0.1011220E+00
       -2   -1    0    0    0  501  0.00000000000E+00  0.00000000000E+00  0.45534689315E+03  0.45534689316E+03  0.25500000920E-02 0. -1.
        2   -1    0    0  501    0  0.00000000000E+00  0.00000000000E+00 -0.14276298612E+03  0.14276298614E+03  0.25500000920E-02 0.  1.
    10030    2    1    2    0    0  0.00000000000E+00  0.00000000000E+00  0.31258390703E+03  0.59810987930E+03  0.50992816041E+03 0.  0.
        3    1    3    3  502    0 -0.17472780457E+03  0.89188113923E+02  0.34731156312E+03  0.39888551920E+03  0.10100000352E+00 0. -1.
       -3    1    3    3    0  502  0.17472780457E+03 -0.89188113923E+02 -0.34727656085E+02  0.19922436009E+03  0.10100000352E+00 0.  1.
</event>
<event>
 5   0  0.1141970E-01  0.4986846E+03  0.7818609E-02  0.1014123E+00
        1   -1    0    0  501    0  0.00000000000E+00  0.00000000000E+00  0.40421794681E+03  0.40421794684E+03  0.50400001928E-02 0.  1.
       -1   -1    0    0    0  501  0.00000000000E+00  0.00000000000E+00 -0.15380710361E+03  0.15380710369E+03  0.50400001928E-02 0. -1.
    10030    2    1    2    0    0  0.00000000000E+00  0.00000000000E+00  0.25041084320E+03  0.55802505054E+03  0.49868463645E+03 0.  0.
        3    1    3    3  502    0 -0.18471434282E+02  0.11341014392E+03  0.37282571070E+03  0.39013084393E+03  0.10100000352E+00 0.  1.
       -3    1    3    3    0  502  0.18471434282E+02 -0.11341014392E+03 -0.12241486749E+03  0.16789420661E+03  0.10100000352E+00 0. -1.
</event>
<event>
 5   0  0.1827698E-01  0.5035791E+03  0.7818609E-02  0.1012849E+00
        2   -1    0    0  501    0  0.00000000000E+00  0.00000000000E+00  0.16837063587E+03  0.16837063589E+03  0.25500000920E-02 0.  1.
       -2   -1    0    0    0  501  0.00000000000E+00  0.00000000000E+00 -0.37653823817E+03  0.37653823818E+03  0.25500000920E-02 0. -1.
    10030    2    1    2    0    0  0.00000000000E+00  0.00000000000E+00 -0.20816760230E+03  0.54490887407E+03  0.50357912029E+03 0.  0.
        1    1    3    3  502    0 -0.99717777220E+02  0.22003492151E+03 -0.18089552598E+03  0.30179826561E+03  0.50400001928E-02 0. -1.
       -1    1    3    3    0  502  0.99717777220E+02 -0.22003492151E+03 -0.27272076318E+02  0.24311060847E+03  0.50400001928E-02 0.  1.
</event>
<event>
 5   0  0.1068522E-01  0.5308180E+03  0.7818609E-02  0.1006034E+00
        1   -1    0    0  501    0  0.00000000000E+00  0.00000000000E+00  0.19224421988E+04  0.19224421988E+04  0.50400001928E-02 0.  1.
       -1   -1    0    0    0  501  0.00000000000E+00  0.00000000000E+00 -0.36641901228E+02  0.36641901575E+02  0.50400001928E-02 0. -1.
    10030    2    1    2    0    0  0.00000000000E+00  0.00000000000E+00  0.18858002976E+04  0.19590841004E+04  0.53081800087E+03 0.  0.
        2    1    3    3  502    0  0.88254853128E+02 -0.14178771720E+03  0.18160431681E+03  0.24672414502E+03  0.25500000920E-02 0. -1.
       -2    1    3    3    0  502 -0.88254853128E+02  0.14178771720E+03  0.17041959808E+04  0.17123599554E+04  0.25500000920E-02 0.  1.
</event>
<event>
 5   0  0.1147245E-01  0.5159014E+03  0.7818609E-02  0.1009710E+00
        1   -1    0    0  501    0  0.00000000000E+00  0.00000000000E+00  0.15207016617E+03  0.15207016625E+03  0.50400001928E-02 0.  1.
       -1   -1    0    0    0  501  0.00000000000E+00  0.00000000000E+00 -0.43755180675E+03  0.43755180678E+03  0.50400001928E-02 0. -1.
    10030    2    1    2    0    0  0.00000000000E+00  0.00000000000E+00 -0.28548164059E+03  0.58962197304E+03  0.51590144793E+03 0.  0.
        1    1    3    3  502    0  0.17157354200E+03 -0.11052858859E+03 -0.32303080668E+03  0.38210332542E+03  0.50400001928E-02 0. -1.
       -1    1    3    3    0  502 -0.17157354200E+03  0.11052858859E+03  0.37549166095E+02  0.20751864761E+03  0.50400001928E-02 0.  1.
</event>
<event>
 5   0  0.1709372E-01  0.4979334E+03  0.7818609E-02  0.1014320E+00
       -2   -1    0    0    0  501  0.00000000000E+00  0.00000000000E+00  0.71032249004E+03  0.71032249004E+03  0.25500000920E-02 0. -1.
        2   -1    0    0  501    0  0.00000000000E+00  0.00000000000E+00 -0.87262348355E+02  0.87262348393E+02  0.25500000920E-02 0.  1.
    10030    2    1    2    0    0  0.00000000000E+00  0.00000000000E+00  0.62306014168E+03  0.79758483843E+03  0.49793336336E+03 0.  0.
        4    1    3    3  502    0  0.95120952462E+02 -0.22172857231E+03  0.21316344674E+03  0.32195003231E+03  0.12699999809E+01 0. -1.
       -4    1    3    3    0  502 -0.95120952462E+02  0.22172857231E+03  0.40989669494E+03  0.47563480613E+03  0.12699999809E+01 0.  1.
</event>
<event>
 5   0  0.1709372E-01  0.4992719E+03  0.7818609E-02  0.1013969E+00
        2   -1    0    0  501    0  0.00000000000E+00  0.00000000000E+00  0.15329899811E+04  0.15329899811E+04  0.25500000920E-02 0.  1.
       -2   -1    0    0    0  501  0.00000000000E+00  0.00000000000E+00 -0.40651352071E+02  0.40651352151E+02  0.25500000920E-02 0. -1.
    10030    2    1    2    0    0  0.00000000000E+00  0.00000000000E+00  0.14923386290E+04  0.15736413333E+04  0.49927193195E+03 0.  0.
        4    1    3    3  502    0 -0.12588113457E+03  0.99890540052E+02  0.13482703238E+04  0.13578139265E+04  0.12699999809E+01 0.  1.
       -4    1    3    3    0  502  0.12588113457E+03 -0.99890540052E+02  0.14406830519E+03  0.21582740673E+03  0.12699999809E+01 0. -1.
</event>
<event>
 5   0  0.1709372E-01  0.4929539E+03  0.7818609E-02  0.1015635E+00
        2   -1    0    0  501    0  0.00000000000E+00  0.00000000000E+00  0.48087494049E+03  0.48087494050E+03  0.25500000920E-02 0.  1.
       -2   -1    0    0    0  501  0.00000000000E+00  0.00000000000E+00 -0.12633406656E+03  0.12633406658E+03  0.25500000920E-02 0. -1.
    10030    2    1    2    0    0  0.00000000000E+00  0.00000000000E+00  0.35454087393E+03  0.60720900708E+03  0.49295389946E+03 0.  0.
        4    1    3    3  502    0 -0.13681809662E+03  0.79176319210E+02  0.41020712513E+03  0.43961298831E+03  0.12699999809E+01 0.  1.
       -4    1    3    3    0  502  0.13681809662E+03 -0.79176319210E+02 -0.55666251194E+02  0.16759601877E+03  0.12699999809E+01 0. -1.
</event>
<event>
 5   0  0.1123271E-01  0.4048355E+03  0.7818609E-02  0.1042118E+00
       -1   -1    0    0    0  501  0.00000000000E+00  0.00000000000E+00  0.25205777314E+02  0.25205777818E+02  0.50400001928E-02 0.  1.
        1   -1    0    0  501    0  0.00000000000E+00  0.00000000000E+00 -0.16255377446E+04  0.16255377446E+04  0.50400001928E-02 0. -1.
    10030    2    1    2    0    0  0.00000000000E+00  0.00000000000E+00 -0.16003319673E+04  0.16507435224E+04  0.40483548673E+03 0.  0.
        5    1    3    3  502    0 -0.90851979119E+02  0.59887157095E+02 -0.10446220632E+03  0.15091387028E+03  0.46999998093E+01 0.  1.
       -5    1    3    3    0  502  0.90851979119E+02 -0.59887157095E+02 -0.14958697610E+04  0.14998296521E+04  0.46999998093E+01 0. -1.
</event>
<event>
 5   0  0.1147245E-01  0.4890033E+03  0.7818609E-02  0.1016690E+00
       -1   -1    0    0    0  501  0.00000000000E+00  0.00000000000E+00  0.17784888665E+03  0.17784888672E+03  0.50400001928E-02 0.  1.
        1   -1    0    0  501    0  0.00000000000E+00  0.00000000000E+00 -0.33613405295E+03  0.33613405299E+03  0.50400001928E-02 0. -1.
    10030    2    1    2    0    0  0.00000000000E+00  0.00000000000E+00 -0.15828516630E+03  0.51398293971E+03  0.48900334196E+03 0.  0.
        1    1    3    3  502    0 -0.22166383066E+03  0.28792014336E+02 -0.18328590588E+03  0.28906324089E+03  0.50400001928E-02 0. -1.
       -1    1    3    3    0  502  0.22166383066E+03 -0.28792014336E+02  0.25000739579E+02  0.22491969882E+03  0.50400001928E-02 0.  1.
</event>
<event>
 5   0  0.1123271E-01  0.5008503E+03  0.7818609E-02  0.1013557E+00
        1   -1    0    0  501    0  0.00000000000E+00  0.00000000000E+00  0.58514727218E+03  0.58514727220E+03  0.50400001928E-02 0.  1.
       -1   -1    0    0    0  501  0.00000000000E+00  0.00000000000E+00 -0.10717429767E+03  0.10717429779E+03  0.50400001928E-02 0. -1.
    10030    2    1    2    0    0  0.00000000000E+00  0.00000000000E+00  0.47797297451E+03  0.69232156999E+03  0.50085026896E+03 0.  0.
        5    1    3    3  502    0 -0.21369149143E+03 -0.11385363616E+03  0.32710645781E+03  0.40699806967E+03  0.46999998093E+01 0.  1.
       -5    1    3    3    0  502  0.21369149143E+03  0.11385363616E+03  0.15086651670E+03  0.28532350032E+03  0.46999998093E+01 0. -1.
</event>
<event>
 5   0  0.1782124E-01  0.4980541E+03  0.7818609E-02  0.1014288E+00
       -2   -1    0    0    0  501  0.00000000000E+00  0.00000000000E+00  0.11589889177E+04  0.11589889177E+04  0.25500000920E-02 0.  1.
        2   -1    0    0  501    0  0.00000000000E+00  0.00000000000E+00 -0.53507398021E+02  0.53507398082E+02  0.25500000920E-02 0. -1.
    10030    2    1    2    0    0  0.00000000000E+00  0.00000000000E+00  0.11054815197E+04  0.12124963158E+04  0.49805413907E+03 0.  0.
        3    1    3    3  502    0  0.19119935133E+02 -0.18499895364E+03  0.14958623191E+03  0.23867600580E+03  0.10100000352E+00 0. -1.
       -3    1    3    3    0  502 -0.19119935133E+02  0.18499895364E+03  0.95589528778E+03  0.97382031000E+03  0.10100000352E+00 0.  1.
</event>
<event>
 5   0  0.7220250E-02  0.4996828E+03  0.7818609E-02  0.1013862E+00
        3   -1    0    0  501    0  0.00000000000E+00  0.00000000000E+00  0.46825122314E+03  0.46825123403E+03  0.10100000352E+00 0.  1.
       -3   -1    0    0    0  501  0.00000000000E+00  0.00000000000E+00 -0.13330604398E+03  0.13330608224E+03  0.10100000352E+00 0. -1.
    10030    2    1    2    0    0  0.00000000000E+00  0.00000000000E+00  0.33494517916E+03  0.60155731627E+03  0.49968283112E+03 0.  0.
        5    1    3    3  502    0  0.12024497098E+03 -0.15597559537E+02 -0.95448769606E+02  0.15438489087E+03  0.46999998093E+01 0. -1.
       -5    1    3    3    0  502 -0.12024497098E+03  0.15597559537E+02  0.43039394877E+03  0.44717242541E+03  0.46999998093E+01 0.  1.
</event>
<event>
 5   0  0.7220250E-02  0.4820568E+03  0.7818609E-02  0.1018571E+00
        3   -1    0    0  501    0  0.00000000000E+00  0.00000000000E+00  0.23698961048E+03  0.23698963200E+03  0.10100000352E+00 0. -1.
       -3   -1    0    0    0  501  0.00000000000E+00  0.00000000000E+00 -0.24513597390E+03  0.24513599470E+03  0.10100000352E+00 0.  1.
    10030    2    1    2    0    0  0.00000000000E+00  0.00000000000E+00 -0.81463634160E+01  0.48212562671E+03  0.48205679820E+03 0.  0.
        4    1    3    3  502    0 -0.74174762528E+02 -0.91562082124E+02  0.20621279236E+03  0.23750966067E+03  0.12699999809E+01 0. -1.
       -4    1    3    3    0  502  0.74174762528E+02  0.91562082124E+02 -0.21435915577E+03  0.24461596604E+03  0.12699999809E+01 0.  1.
</event>
<event>
 5   0  0.1827698E-01  0.5056935E+03  0.7818609E-02  0.1012303E+00
       -2   -1    0    0    0  501  0.00000000000E+00  0.00000000000E+00  0.88341768044E+02  0.88341768081E+02  0.25500000920E-02 0.  1.
        2   -1    0    0  501    0  0.00000000000E+00  0.00000000000E+00 -0.72368357048E+03  0.72368357048E+03  0.25500000920E-02 0. -1.
    10030    2    1    2    0    0  0.00000000000E+00  0.00000000000E+00 -0.63534180243E+03  0.81202533856E+03  0.50569352829E+03 0.  0.
        1    1    3    3  502    0 -0.20164550806E+03  0.32752129230E+02 -0.55691314610E+03  0.59319968410E+03  0.50400001928E-02 0. -1.
       -1    1    3    3    0  502  0.20164550806E+03 -0.32752129230E+02 -0.78428656329E+02  0.21882565446E+03  0.50400001928E-02 0.  1.
</event>
<event>
 5   0  0.7220250E-02  0.5020652E+03  0.7818609E-02  0.1013241E+00
       -4   -1    0    0    0  501  0.00000000000E+00  0.00000000000E+00  0.80416570806E+02  0.80426598587E+02  0.12699999809E+01 0.  1.
        4   -1    0    0  501    0  0.00000000000E+00  0.00000000000E+00 -0.78357702878E+03  0.78357805797E+03  0.12699999809E+01 0. -1.
    10030    2    1    2    0    0  0.00000000000E+00  0.00000000000E+00 -0.70316045797E+03  0.86400465655E+03  0.50206515204E+03 0.  0.
        2    1    3    3  502    0  0.11124261743E+03  0.20067678481E+03 -0.52683579279E+03  0.57463209488E+03  0.25500000920E-02 0. -1.
       -2    1    3    3    0  502 -0.11124261743E+03 -0.20067678481E+03 -0.17632466518E+03  0.28937256168E+03  0.25500000920E-02 0.  1.
</event>
<event>
 5   0  0.1147245E-01  0.5165281E+03  0.7818609E-02  0.1009553E+00
       -1   -1    0    0    0  501  0.00000000000E+00  0.00000000000E+00  0.61809224201E+03  0.61809224203E+03  0.50400001928E-02 0. -1.
        1   -1    0    0  501    0  0.00000000000E+00  0.00000000000E+00 -0.10791321314E+03  0.10791321326E+03  0.50400001928E-02 0.  1.
    10030    2    1    2    0    0  0.00000000000E+00  0.00000000000E+00  0.51017902887E+03  0.72600545529E+03  0.51652810148E+03 0.  0.
        1    1    3    3  502    0  0.12236130100E+03  0.11059029792E+03  0.53442909813E+03  0.55930042279E+03  0.50400001928E-02 0. -1.
       -1    1    3    3    0  502 -0.12236130100E+03 -0.11059029792E+03 -0.24250069262E+02  0.16670503250E+03  0.50400001928E-02 0.  1.
</event>
<event>
 5   0  0.7220250E-02  0.5060933E+03  0.7818609E-02  0.1012201E+00
       -4   -1    0    0    0  501  0.00000000000E+00  0.00000000000E+00  0.11900941098E+04  0.11900947875E+04  0.12699999809E+01 0.  1.
        4   -1    0    0  501    0  0.00000000000E+00  0.00000000000E+00 -0.53796475428E+02  0.53811464099E+02  0.12699999809E+01 0. -1.
    10030    2    1    2    0    0  0.00000000000E+00  0.00000000000E+00  0.11362976344E+04  0.12439062516E+04  0.50609332018E+03 0.  0.
        1    1    3    3  502    0  0.23793543122E+03 -0.70751471095E+02  0.44739880570E+03  0.51164903152E+03  0.50400001928E-02 0. -1.
       -1    1    3    3    0  502 -0.23793543122E+03  0.70751471095E+02  0.68889882869E+03  0.73225722003E+03  0.50400001928E-02 0.  1.
</event>
<event>
 5   0  0.1782124E-01  0.4049661E+03  0.7818609E-02  0.1042074E+00
        2   -1    0    0  501    0  0.00000000000E+00  0.00000000000E+00  0.31163025993E+03  0.31163025994E+03  0.25500000920E-02 0.  1.
       -2   -1    0    0    0  501  0.00000000000E+00  0.00000000000E+00 -0.13156420112E+03  0.13156420115E+03  0.25500000920E-02 0. -1.
    10030    2    1    2    0    0  0.00000000000E+00  0.00000000000E+00  0.18006605881E+03  0.44319446109E+03  0.40496610328E+03 0.  0.
        3    1    3    3  502    0 -0.27283162696E+02 -0.75803730531E+02 -0.11326846750E+03  0.13899759875E+03  0.10100000352E+00 0. -1.
       -3    1    3    3    0  502  0.27283162696E+02  0.75803730531E+02  0.29333452631E+03  0.30419686234E+03  0.10100000352E+00 0.  1.
</event>
<event>
 5   0  0.7220250E-02  0.4828759E+03  0.7818609E-02  0.1018348E+00
        4   -1    0    0  501    0  0.00000000000E+00  0.00000000000E+00  0.96278673772E+02  0.96287049613E+02  0.12699999809E+01 0.  1.
       -4   -1    0    0    0  501  0.00000000000E+00  0.00000000000E+00 -0.60541831272E+03  0.60541964477E+03  0.12699999809E+01 0. -1.
    10030    2    1    2    0    0  0.00000000000E+00  0.00000000000E+00 -0.50913963895E+03  0.70170669438E+03  0.48287587742E+03 0.  0.
        3    1    3    3  502    0  0.18835254217E+03  0.15080597783E+03 -0.26699813603E+03  0.35987100180E+03  0.10100000352E+00 0. -1.
       -3    1    3    3    0  502 -0.18835254217E+03 -0.15080597783E+03 -0.24214150292E+03  0.34183569259E+03  0.10100000352E+00 0.  1.
</event>
<event>
 5   0  0.1683148E-01  0.5004946E+03  0.7818609E-02  0.1013650E+00
        2   -1    0    0  501    0  0.00000000000E+00  0.00000000000E+00  0.39205186255E+02  0.39205186338E+02  0.25500000920E-02 0.  1.
       -2   -1    0    0    0  501  0.00000000000E+00  0.00000000000E+00 -0.15973324524E+04  0.15973324524E+04  0.25500000920E-02 0. -1.
    10030    2    1    2    0    0  0.00000000000E+00  0.00000000000E+00 -0.15581272662E+04  0.16365376388E+04  0.50049462086E+03 0.  0.
        2    1    3    3  502    0  0.14028208313E+03 -0.97210881640E+02 -0.13774953694E+04  0.13880282818E+04  0.25500000920E-02 0. -1.
       -2    1    3    3    0  502 -0.14028208313E+03  0.97210881640E+02 -0.18063189674E+03  0.24850935693E+03  0.25500000920E-02 0.  1.
</event>
<event>
 5   0  0.1141970E-01  0.5135530E+03  0.7818609E-02  0.1010301E+00
        1   -1    0    0  501    0  0.00000000000E+00  0.00000000000E+00  0.18475894277E+03  0.18475894284E+03  0.50400001928E-02 0.  1.
       -1   -1    0    0    0  501  0.00000000000E+00  0.00000000000E+00 -0.35686592351E+03  0.35686592354E+03  0.50400001928E-02 0. -1.
    10030    2    1    2    0    0  0.00000000000E+00  0.00000000000E+00 -0.17210698074E+03  0.54162486638E+03  0.51355299927E+03 0.  0.
        3    1    3    3  502    0 -0.39960016145E+02  0.22840079970E+03 -0.20240347457E+03  0.30778386071E+03  0.10100000352E+00 0. -1.
       -3    1    3    3    0  502  0.39960016145E+02 -0.22840079970E+03  0.30296493831E+02  0.23384100567E+03  0.10100000352E+00 0.  1.
</event>
<event>
 5   0  0.1074281E-01  0.5538830E+03  0.7818609E-02  0.1000599E+00
        1   -1    0    0  501    0  0.00000000000E+00  0.00000000000E+00  0.61039829844E+03  0.61039829846E+03  0.50400001928E-02 0. -1.
       -1   -1    0    0    0  501  0.00000000000E+00  0.00000000000E+00 -0.12565009937E+03  0.12565009947E+03  0.50400001928E-02 0.  1.
    10030    2    1    2    0    0  0.00000000000E+00  0.00000000000E+00  0.48474819908E+03  0.73604839793E+03  0.55388304504E+03 0.  0.
        4    1    3    3  502    0  0.53626650829E+02 -0.39281755373E+02 -0.11488698790E+03  0.13273849055E+03  0.12699999809E+01 0.  1.
       -4    1    3    3    0  502 -0.53626650829E+02  0.39281755373E+02  0.59963518698E+03  0.60330990738E+03  0.12699999809E+01 0. -1.
</event>
<event>
 5   0  0.1709372E-01  0.4975261E+03  0.7818609E-02  0.1014427E+00
        2   -1    0    0  501    0  0.00000000000E+00  0.00000000000E+00  0.12102556243E+04  0.12102556243E+04  0.25500000920E-02 0.  1.
       -2   -1    0    0    0  501  0.00000000000E+00  0.00000000000E+00 -0.51132225390E+02  0.51132225454E+02  0.25500000920E-02 0. -1.
    10030    2    1    2    0    0  0.00000000000E+00  0.00000000000E+00  0.11591233989E+04  0.12613878498E+04  0.49752613361E+03 0.  0.
        4    1    3    3  502    0 -0.14023539863E+03 -0.20546364058E+03  0.58062494642E+03  0.63167097126E+03  0.12699999809E+01 0.  1.
       -4    1    3    3    0  502  0.14023539863E+03  0.20546364058E+03  0.57849845253E+03  0.62971687854E+03  0.12699999809E+01 0. -1.
</event>
<event>
 5   0  0.1760649E-01  0.5004424E+03  0.7818609E-02  0.1013664E+00
       -2   -1    0    0    0  501  0.00000000000E+00  0.00000000000E+00  0.47145799301E+03  0.47145799302E+03  0.25500000920E-02 0. -1.
        2   -1    0    0  501    0  0.00000000000E+00  0.00000000000E+00 -0.13280217613E+03  0.13280217615E+03  0.25500000920E-02 0.  1.
    10030    2    1    2    0    0  0.00000000000E+00  0.00000000000E+00  0.33865581688E+03  0.60426016917E+03  0.50044239403E+03 0.  0.
        5    1    3    3  502    0 -0.21135710642E+03  0.93022757449E+01  0.33055869253E+03  0.39249139860E+03  0.46999998093E+01 0. -1.
       -5    1    3    3    0  502  0.21135710642E+03 -0.93022757449E+01  0.80971243468E+01  0.21176877057E+03  0.46999998093E+01 0.  1.
</event>
<event>
 5   0  0.7220250E-02  0.5051005E+03  0.7818609E-02  0.1012456E+00
        4   -1    0    0  501    0  0.00000000000E+00  0.00000000000E+00  0.42546248393E+03  0.42546437939E+03  0.12699999809E+01 0.  1.
       -4   -1    0    0    0  501  0.00000000000E+00  0.00000000000E+00 -0.14990633989E+03  0.14991171948E+03  0.12699999809E+01 0. -1.
    10030    2    1    2    0    0  0.00000000000E+00  0.00000000000E+00  0.27555614405E+03  0.57537609888E+03  0.50510045202E+03 0.  0.
        1    1    3    3  502    0 -0.15127919635E+03 -0.65070103153E+02  0.35589167263E+03  0.39214588643E+03  0.50400001928E-02 0.  1.
       -1    1    3    3    0  502  0.15127919635E+03  0.65070103153E+02 -0.80335528583E+02  0.18323021244E+03  0.50400001928E-02 0. -1.
</event>
<event>
 5   0  0.1068522E-01  0.4992509E+03  0.7818609E-02  0.1013975E+00
       -1   -1    0    0    0  501  0.00000000000E+00  0.00000000000E+00  0.24909158808E+03  0.24909158813E+03  0.50400001928E-02 0.  1.
        1   -1    0    0  501    0  0.00000000000E+00  0.00000000000E+00 -0.25016041056E+03  0.25016041061E+03  0.50400001928E-02 0. -1.
    10030    2    1    2    0    0  0.00000000000E+00  0.00000000000E+00 -0.10688224858E+01  0.49925199874E+03  0.49925085464E+03 0.  0.
        2    1    3    3  502    0  0.90301253356E+02 -0.17630443638E+03 -0.15244026720E+03  0.24995120667E+03  0.25500000920E-02 0. -1.
       -2    1    3    3    0  502 -0.90301253356E+02  0.17630443638E+03  0.15137144472E+03  0.24930079207E+03  0.25500000920E-02 0.  1.
</event>
<event>
 5   0  0.1074281E-01  0.4896921E+03  0.7818609E-02  0.1016505E+00
       -1   -1    0    0    0  501  0.00000000000E+00  0.00000000000E+00  0.17767987758E+03  0.17767987765E+03  0.50400001928E-02 0.  1.
        1   -1    0    0  501    0  0.00000000000E+00  0.00000000000E+00 -0.33740227583E+03  0.33740227587E+03  0.50400001928E-02 0. -1.
    10030    2    1    2    0    0  0.00000000000E+00  0.00000000000E+00 -0.15972239825E+03  0.51508215353E+03  0.48969212816E+03 0.  0.
        4    1    3    3  502    0  0.82635432477E+02 -0.34525686683E+02 -0.31955203878E+03  0.33186707600E+03  0.12699999809E+01 0. -1.
       -4    1    3    3    0  502 -0.82635432477E+02  0.34525686683E+02  0.15982964053E+03  0.18321507753E+03  0.12699999809E+01 0.  1.
</event>
<event>
 5   0  0.1123271E-01  0.4973732E+03  0.7818609E-02  0.1014467E+00
        1   -1    0    0  501    0  0.00000000000E+00  0.00000000000E+00  0.87795445973E+03  0.87795445975E+03  0.50400001928E-02 0. -1.
       -1   -1    0    0    0  501  0.00000000000E+00  0.00000000000E+00 -0.70442187031E+02  0.70442187211E+02  0.50400001928E-02 0.  1.
    10030    2    1    2    0    0  0.00000000000E+00  0.00000000000E+00  0.80751227270E+03  0.94839664696E+03  0.49737322948E+03 0.  0.
        5    1    3    3  502    0 -0.15246806439E+01  0.11085920972E+03 -0.20614678612E+02  0.11286781650E+03  0.46999998093E+01 0.  1.
       -5    1    3    3    0  502  0.15246806439E+01 -0.11085920972E+03  0.82812695131E+03  0.83552883045E+03  0.46999998093E+01 0. -1.
</event>
<event>
 5   0  0.1141970E-01  0.4973046E+03  0.7818609E-02  0.1014485E+00
       -1   -1    0    0    0  501  0.00000000000E+00  0.00000000000E+00  0.36316868669E+03  0.36316868672E+03  0.50400001928E-02 0.  1.
        1   -1    0    0  501    0  0.00000000000E+00  0.00000000000E+00 -0.17024587508E+03  0.17024587515E+03  0.50400001928E-02 0. -1.
    10030    2    1    2    0    0  0.00000000000E+00  0.00000000000E+00  0.19292281161E+03  0.53341456188E+03  0.49730461850E+03 0.  0.
        3    1    3    3  502    0  0.22565865010E+02  0.20127125196E+03  0.25118768170E+03  0.32266793576E+03  0.10100000352E+00 0.  1.
       -3    1    3    3    0  502 -0.22565865010E+02 -0.20127125196E+03 -0.58264870091E+02  0.21074662611E+03  0.10100000352E+00 0. -1.
</event>
<event>
 5   0  0.1827698E-01  0.5034603E+03  0.7818609E-02  0.1012880E+00
       -2   -1    0    0    0  501  0.00000000000E+00  0.00000000000E+00  0.55126077573E+02  0.55126077632E+02  0.25500000920E-02 0.  1.
        2   -1    0    0  501    0  0.00000000000E+00  0.00000000000E+00 -0.11495117407E+04  0.11495117407E+04  0.25500000920E-02 0. -1.
    10030    2    1    2    0    0  0.00000000000E+00  0.00000000000E+00 -0.10943856631E+04  0.12046378183E+04  0.50346031988E+03 0.  0.
        1    1    3    3  502    0  0.14081859965E+03 -0.40907797695E+01 -0.48029150852E+02  0.14884022254E+03  0.50400001928E-02 0.  1.
       -1    1    3    3    0  502 -0.14081859965E+03  0.40907797695E+01 -0.10463565122E+04  0.10557975958E+04  0.50400001928E-02 0. -1.
</event>
<event>
 5   0  0.1141970E-01  0.4905634E+03  0.7818609E-02  0.1016272E+00
       -1   -1    0    0    0  501  0.00000000000E+00  0.00000000000E+00  0.50794927708E+03  0.50794927710E+03  0.50400001928E-02 0. -1.
        1   -1    0    0  501    0  0.00000000000E+00  0.00000000000E+00 -0.11844316385E+03  0.11844316395E+03  0.50400001928E-02 0.  1.
    10030    2    1    2    0    0  0.00000000000E+00  0.00000000000E+00  0.38950611323E+03  0.62639244106E+03  0.49056342910E+03 0.  0.
        3    1    3    3  502    0  0.13279301117E+03  0.16609739568E+03  0.38676389022E+02  0.21614393800E+03  0.10100000352E+00 0.  1.
       -3    1    3    3    0  502 -0.13279301117E+03 -0.16609739568E+03  0.35082972421E+03  0.41024850305E+03  0.10100000352E+00 0. -1.
</event>
<event>
 5   0  0.1147245E-01  0.4570823E+03  0.7818609E-02  0.1025631E+00
        1   -1    0    0  501    0  0.00000000000E+00  0.00000000000E+00  0.37898021144E+03  0.37898021147E+03  0.50400001928E-02 0.  1.
       -1   -1    0    0    0  501  0.00000000000E+00  0.00000000000E+00 -0.13782002088E+03  0.13782002098E+03  0.50400001928E-02 0. -1.
    10030    2    1    2    0    0  0.00000000000E+00  0.00000000000E+00  0.24116019055E+03  0.51680023245E+03  0.45708231507E+03 0.  0.
        1    1    3    3  502    0 -0.21985615767E+02 -0.13183659624E+03  0.33018327317E+03  0.35620955814E+03  0.50400001928E-02 0.  1.
       -1    1    3    3    0  502  0.21985615767E+02  0.13183659624E+03 -0.89023082614E+02  0.16059067430E+03  0.50400001928E-02 0. -1.
</event>
<event>
 5   0  0.1147245E-01  0.5001427E+03  0.7818609E-02  0.1013742E+00
        1   -1    0    0  501    0  0.00000000000E+00  0.00000000000E+00  0.18094676877E+03  0.18094676884E+03  0.50400001928E-02 0.  1.
       -1   -1    0    0    0  501  0.00000000000E+00  0.00000000000E+00 -0.34560265858E+03  0.34560265862E+03  0.50400001928E-02 0. -1.
    10030    2    1    2    0    0  0.00000000000E+00  0.00000000000E+00 -0.16465588981E+03  0.52654942747E+03  0.50014271715E+03 0.  0.
        1    1    3    3  502    0  0.86147721408E+01 -0.12609280884E+03  0.14484748169E+03  0.19223528219E+03  0.50400001928E-02 0. -1.
       -1    1    3    3    0  502 -0.86147721408E+01  0.12609280884E+03 -0.30950337150E+03  0.33431414528E+03  0.50400001928E-02 0.  1.
</event>
<event>
 5   0  0.1068522E-01  0.4939495E+03  0.7818609E-02  0.1015370E+00
        1   -1    0    0  501    0  0.00000000000E+00  0.00000000000E+00  0.10272503923E+03  0.10272503935E+03  0.50400001928E-02 0. -1.
       -1   -1    0    0    0  501  0.00000000000E+00  0.00000000000E+00 -0.59378435765E+03  0.59378435767E+03  0.50400001928E-02 0.  1.
    10030    2    1    2    0    0  0.00000000000E+00  0.00000000000E+00 -0.49105931842E+03  0.69650939702E+03  0.49394947711E+03 0.  0.
        2    1    3    3  502    0  0.14081115306E+03  0.22247676183E+02  0.38852093164E+02  0.14775731816E+03  0.25500000920E-02 0. -1.
       -2    1    3    3    0  502 -0.14081115306E+03 -0.22247676183E+02 -0.52991141158E+03  0.54875207886E+03  0.25500000920E-02 0.  1.
</event>
<event>
 5   0  0.1141970E-01  0.4986850E+03  0.7818609E-02  0.1014123E+00
        1   -1    0    0  501    0  0.00000000000E+00  0.00000000000E+00  0.44598243684E+03  0.44598243686E+03  0.50400001928E-02 0. -1.
       -1   -1    0    0    0  501  0.00000000000E+00  0.00000000000E+00 -0.13940389381E+03  0.13940389390E+03  0.50400001928E-02 0.  1.
    10030    2    1    2    0    0  0.00000000000E+00  0.00000000000E+00  0.30657854303E+03  0.58538633076E+03  0.49868502404E+03 0.  0.
        3    1    3    3  502    0  0.80207756591E+02 -0.22914259284E+03  0.86553856892E+02  0.25774249245E+03  0.10100000352E+00 0.  1.
       -3    1    3    3    0  502 -0.80207756591E+02  0.22914259284E+03  0.22002468614E+03  0.32764383831E+03  0.10100000352E+00 0. -1.
</event>
<event>
 5   0  0.1827698E-01  0.4480189E+03  0.7818609E-02  0.1028314E+00
        2   -1    0    0  501    0  0.00000000000E+00  0.00000000000E+00  0.93824090509E+03  0.93824090510E+03  0.25500000920E-02 0. -1.
       -2   -1    0    0    0  501  0.00000000000E+00  0.00000000000E+00 -0.53483307604E+02  0.53483307665E+02  0.25500000920E-02 0.  1.
    10030    2    1    2    0    0  0.00000000000E+00  0.00000000000E+00  0.88475759749E+03  0.99172421276E+03  0.44801886999E+03 0.  0.
        1    1    3    3  502    0 -0.74946041471E+02 -0.41317994479E+02 -0.15869796269E+02  0.87039854429E+02  0.50400001928E-02 0.  1.
       -1    1    3    3    0  502  0.74946041471E+02  0.41317994479E+02  0.90062739376E+03  0.90468435833E+03  0.50400001928E-02 0. -1.
</event>
<event>
 5   0  0.1782124E-01  0.5014929E+03  0.7818609E-02  0.1013390E+00
        2   -1    0    0  501    0  0.00000000000E+00  0.00000000000E+00  0.12318153226E+04  0.12318153226E+04  0.25500000920E-02 0.  1.
       -2   -1    0    0    0  501  0.00000000000E+00  0.00000000000E+00 -0.51041572486E+02  0.51041572550E+02  0.25500000920E-02 0. -1.
    10030    2    1    2    0    0  0.00000000000E+00  0.00000000000E+00  0.11807737501E+04  0.12828568952E+04  0.50149293563E+03 0.  0.
        3    1    3    3  502    0 -0.14303329637E+01 -0.53962522754E+02  0.12167748516E+04  0.12179716948E+04  0.10100000352E+00 0.  1.
       -3    1    3    3    0  502  0.14303329637E+01  0.53962522754E+02 -0.36001101474E+02  0.64885200337E+02  0.10100000352E+00 0. -1.
</event>
<event>
 5   0  0.1141970E-01  0.5051666E+03  0.7818609E-02  0.1012439E+00
       -1   -1    0    0    0  501  0.00000000000E+00  0.00000000000E+00  0.24951381606E+03  0.24951381611E+03  0.50400001928E-02 0. -1.
        1   -1    0    0  501    0  0.00000000000E+00  0.00000000000E+00 -0.25569051916E+03  0.25569051921E+03  0.50400001928E-02 0.  1.
    10030    2    1    2    0    0  0.00000000000E+00  0.00000000000E+00 -0.61767031051E+01  0.50520433532E+03  0.50516657527E+03 0.  0.
        3    1    3    3  502    0 -0.23342823452E+02  0.17007122341E+03 -0.18838360460E+03  0.25486761490E+03  0.10100000352E+00 0.  1.
       -3    1    3    3    0  502  0.23342823452E+02 -0.17007122341E+03  0.18220690149E+03  0.25033672043E+03  0.10100000352E+00 0. -1.
</event>
<event>
 5   0  0.1760649E-01  0.4893544E+03  0.7818609E-02  0.1016596E+00
       -2   -1    0    0    0  501  0.00000000000E+00  0.00000000000E+00  0.31144290282E+03  0.31144290283E+03  0.25500000920E-02 0.  1.
        2   -1    0    0  501    0  0.00000000000E+00  0.00000000000E+00 -0.19222442077E+03  0.19222442079E+03  0.25500000920E-02 0. -1.
    10030    2    1    2    0    0  0.00000000000E+00  0.00000000000E+00  0.11921848205E+03  0.50366732362E+03  0.48935439757E+03 0.  0.
        5    1    3    3  502    0 -0.22949639488E+03 -0.83182608824E+02  0.43112343456E+02  0.24792883218E+03  0.46999998093E+01 0.  1.
       -5    1    3    3    0  502  0.22949639488E+03  0.83182608824E+02  0.76106138596E+02  0.25573849144E+03  0.46999998093E+01 0. -1.
</event>
<event>
 5   0  0.1068522E-01  0.4931917E+03  0.7818609E-02  0.1015571E+00
        1   -1    0    0  501    0  0.00000000000E+00  0.00000000000E+00  0.30063677211E+03  0.30063677215E+03  0.50400001928E-02 0. -1.
       -1   -1    0    0    0  501  0.00000000000E+00  0.00000000000E+00 -0.20226908409E+03  0.20226908415E+03  0.50400001928E-02 0.  1.
    10030    2    1    2    0    0  0.00000000000E+00  0.00000000000E+00  0.98367688022E+02  0.50290585631E+03  0.49319174594E+03 0.  0.
        2    1    3    3  502    0  0.18650271758E+02 -0.15669927182E+03  0.24240765184E+03  0.28924723699E+03  0.25500000920E-02 0. -1.
       -2    1    3    3    0  502 -0.18650271758E+02  0.15669927182E+03 -0.14403996382E+03  0.21365861932E+03  0.25500000920E-02 0.  1.
</event>
<event>
 5   0  0.1068522E-01  0.5013748E+03  0.7818609E-02  0.1013421E+00
        1   -1    0    0  501    0  0.00000000000E+00  0.00000000000E+00  0.28087321883E+03  0.28087321887E+03  0.50400001928E-02 0. -1.
       -1   -1    0    0    0  501  0.00000000000E+00  0.00000000000E+00 -0.22374568393E+03  0.22374568399E+03  0.50400001928E-02 0.  1.
    10030    2    1    2    0    0  0.00000000000E+00  0.00000000000E+00  0.57127534896E+02  0.50461890286E+03  0.50137479183E+03 0.  0.
        2    1    3    3  502    0 -0.43499578790E+02  0.15006678150E+03 -0.16874530321E+03  0.22997223664E+03  0.25500000920E-02 0.  1.
       -2    1    3    3    0  502  0.43499578790E+02 -0.15006678150E+03  0.22587283811E+03  0.27464666622E+03  0.25500000920E-02 0. -1.
</event>
<event>
 5   0  0.1147245E-01  0.4952198E+03  0.7818609E-02  0.1015034E+00
       -1   -1    0    0    0  501  0.00000000000E+00  0.00000000000E+00  0.43298017679E+03  0.43298017682E+03  0.50400001928E-02 0. -1.
        1   -1    0    0  501    0  0.00000000000E+00  0.00000000000E+00 -0.14160155662E+03  0.14160155671E+03  0.50400001928E-02 0.  1.
    10030    2    1    2    0    0  0.00000000000E+00  0.00000000000E+00  0.29137862017E+03  0.57458173353E+03  0.49521981808E+03 0.  0.
        1    1    3    3  502    0  0.62596833815E+01  0.26734831093E+02  0.43120831063E+03  0.43208163813E+03  0.50400001928E-02 0. -1.
       -1    1    3    3    0  502 -0.62596833815E+01 -0.26734831093E+02 -0.13982969046E+03  0.14250009540E+03  0.50400001928E-02 0.  1.
</event>
<event>
 5   0  0.1141970E-01  0.4866369E+03  0.7818609E-02  0.1017327E+00
        1   -1    0    0  501    0  0.00000000000E+00  0.00000000000E+00  0.76127297750E+02  0.76127297917E+02  0.50400001928E-02 0.  1.
       -1   -1    0    0    0  501  0.00000000000E+00  0.00000000000E+00 -0.77769566164E+03  0.77769566166E+03  0.50400001928E-02 0. -1.
    10030    2    1    2    0    0  0.00000000000E+00  0.00000000000E+00 -0.70156836389E+03  0.85382295958E+03  0.48663690477E+03 0.  0.
        3    1    3    3  502    0 -0.11230955453E+03  0.21584253418E+03 -0.34805280576E+03  0.42466716543E+03  0.10100000352E+00 0.  1.
       -3    1    3    3    0  502  0.11230955453E+03 -0.21584253418E+03 -0.35351555813E+03  0.42915579414E+03  0.10100000352E+00 0. -1.
</event>
<event>
 5   0  0.1760649E-01  0.5273590E+03  0.7818609E-02  0.1006875E+00
        2   -1    0    0  501    0  0.00000000000E+00  0.00000000000E+00  0.13019007718E+04  0.13019007718E+04  0.25500000920E-02 0. -1.
       -2   -1    0    0    0  501  0.00000000000E+00  0.00000000000E+00 -0.53404134740E+02  0.53404134801E+02  0.25500000920E-02 0.  1.
    10030    2    1    2    0    0  0.00000000000E+00  0.00000000000E+00  0.12484966370E+04  0.13553049066E+04  0.52735902107E+03 0.  0.
        5    1    3    3  502    0 -0.10545533137E+03  0.16214384978E+03  0.16384538175E+03  0.25353274750E+03  0.46999998093E+01 0.  1.
       -5    1    3    3    0  502  0.10545533137E+03 -0.16214384978E+03  0.10846512553E+04  0.11017721591E+04  0.46999998093E+01 0. -1.
</event>
<event>
 5   0  0.1709372E-01  0.5032708E+03  0.7818609E-02  0.1012929E+00
       -2   -1    0    0    0  501  0.00000000000E+00  0.00000000000E+00  0.26457579527E+03  0.26457579528E+03  0.25500000920E-02 0.  1.
        2   -1    0    0  501    0  0.00000000000E+00  0.00000000000E+00 -0.23932791643E+03  0.23932791644E+03  0.25500000920E-02 0. -1.
    10030    2    1    2    0    0  0.00000000000E+00  0.00000000000E+00  0.25247878836E+02  0.50390371172E+03  0.50327079718E+03 0.  0.
        4    1    3    3  502    0 -0.10569279565E+03 -0.20821924870E+03 -0.81262520108E+02  0.24724771517E+03  0.12699999809E+01 0. -1.
       -4    1    3    3    0  502  0.10569279565E+03  0.20821924870E+03  0.10651039894E+03  0.25665599655E+03  0.12699999809E+01 0.  1.
</event>
<event>
 5   0  0.1123271E-01  0.4977118E+03  0.7818609E-02  0.1014378E+00
       -1   -1    0    0    0  501  0.00000000000E+00  0.00000000000E+00  0.11211799387E+03  0.11211799398E+03  0.50400001928E-02 0.  1.
        1   -1    0    0  501    0  0.00000000000E+00  0.00000000000E+00 -0.55235794394E+03  0.55235794396E+03  0.50400001928E-02 0. -1.
    10030    2    1    2    0    0  0.00000000000E+00  0.00000000000E+00 -0.44023995007E+03  0.66447593795E+03  0.49771182272E+03 0.  0.
        5    1    3    3  502    0 -0.89156396652E+02  0.87505112309E+02 -0.50739460228E+03  0.52256806271E+03  0.46999998093E+01 0. -1.
       -5    1    3    3    0  502  0.89156396652E+02 -0.87505112309E+02  0.67154652205E+02  0.14190787524E+03  0.46999998093E+01 0.  1.
</event>
<event>
 5   0  0.1123271E-01  0.4960120E+03  0.7818609E-02  0.1014825E+00
       -1   -1    0    0    0  501  0.00000000000E+00  0.00000000000E+00  0.44299864685E+03  0.44299864688E+03  0.50400001928E-02 0. -1.
        1   -1    0    0  501    0  0.00000000000E+00  0.00000000000E+00 -0.13884234460E+03  0.13884234469E+03  0.50400001928E-02 0.  1.
    10030    2    1    2    0    0  0.00000000000E+00  0.00000000000E+00  0.30415630225E+03  0.58184099157E+03  0.49601197896E+03 0.  0.
        5    1    3    3  502    0 -0.15662690161E+03  0.13330779188E+03  0.31454257249E+03  0.37584847158E+03  0.46999998093E+01 0. -1.
       -5    1    3    3    0  502  0.15662690161E+03 -0.13330779188E+03 -0.10386270239E+02  0.20599251999E+03  0.46999998093E+01 0.  1.
</event>
<event>
 5   0  0.1827698E-01  0.5466585E+03  0.7818609E-02  0.1002270E+00
       -2   -1    0    0    0  501  0.00000000000E+00  0.00000000000E+00  0.79942367491E+02  0.79942367531E+02  0.25500000920E-02 0.  1.
        2   -1    0    0  501    0  0.00000000000E+00  0.00000000000E+00 -0.93453431100E+03  0.93453431100E+03  0.25500000920E-02 0. -1.
    10030    2    1    2    0    0  0.00000000000E+00  0.00000000000E+00 -0.85459194351E+03  0.10144766785E+04  0.54665852356E+03 0.  0.
        1    1    3    3  502    0 -0.85273626400E+02  0.12973265949E+03 -0.84477059927E+03  0.85891764432E+03  0.50400001928E-02 0. -1.
       -1    1    3    3    0  502  0.85273626400E+02 -0.12973265949E+03 -0.98213442340E+01  0.15555903422E+03  0.50400001928E-02 0.  1.
</event>
<event>
 5   0  0.1709372E-01  0.5035156E+03  0.7818609E-02  0.1012865E+00
        2   -1    0    0  501    0  0.00000000000E+00  0.00000000000E+00  0.14503735783E+03  0.14503735785E+03  0.25500000920E-02 0.  1.
       -2   -1    0    0    0  501  0.00000000000E+00  0.00000000000E+00 -0.43700458743E+03  0.43700458744E+03  0.25500000920E-02 0. -1.
    10030    2    1    2    0    0  0.00000000000E+00  0.00000000000E+00 -0.29196722960E+03  0.58204194529E+03  0.50351560344E+03 0.  0.
        4    1    3    3  502    0 -0.23250422757E+03  0.85634837103E+02 -0.19753506759E+03  0.31688050901E+03  0.12699999809E+01 0. -1.
       -4    1    3    3    0  502  0.23250422757E+03 -0.85634837103E+02 -0.94432162014E+02  0.26516143627E+03  0.12699999809E+01 0.  1.
</event>
<event>
 5   0  0.1709372E-01  0.5004492E+03  0.7818609E-02  0.1013662E+00
        2   -1    0    0  501    0  0.00000000000E+00  0.00000000000E+00  0.71002330011E+02  0.71002330057E+02  0.25500000920E-02 0. -1.
       -2   -1    0    0    0  501  0.00000000000E+00  0.00000000000E+00 -0.88183519084E+03  0.88183519084E+03  0.25500000920E-02 0.  1.
    10030    2    1    2    0    0  0.00000000000E+00  0.00000000000E+00 -0.81083286083E+03  0.95283752090E+03  0.50044921124E+03 0.  0.
        4    1    3    3  502    0  0.23704069416E+02  0.20800797693E+03 -0.14448618097E+03  0.25437584548E+03  0.12699999809E+01 0. -1.
       -4    1    3    3    0  502 -0.23704069416E+02 -0.20800797693E+03 -0.66634667986E+03  0.69846167542E+03  0.12699999809E+01 0.  1.
</event>
<event>
 5   0  0.1074281E-01  0.4742704E+03  0.7818609E-02  0.1020722E+00
       -1   -1    0    0    0  501  0.00000000000E+00  0.00000000000E+00  0.38984857495E+02  0.38984857821E+02  0.50400001928E-02 0.  1.
        1   -1    0    0  501    0  0.00000000000E+00  0.00000000000E+00 -0.14424344179E+04  0.14424344179E+04  0.50400001928E-02 0. -1.
    10030    2    1    2    0    0  0.00000000000E+00  0.00000000000E+00 -0.14034495604E+04  0.14814192757E+04  0.47427038902E+03 0.  0.
        4    1    3    3  502    0  0.16990120436E+02 -0.50506531236E+02  0.20030092307E+02  0.56942000208E+02  0.12699999809E+01 0.  1.
       -4    1    3    3    0  502 -0.16990120436E+02  0.50506531236E+02 -0.14234796527E+04  0.14244772755E+04  0.12699999809E+01 0. -1.
</event>
<event>
 5   0  0.1141970E-01  0.4998549E+03  0.7818609E-02  0.1013817E+00
        1   -1    0    0  501    0  0.00000000000E+00  0.00000000000E+00  0.46751019918E+03  0.46751019920E+03  0.50400001928E-02 0. -1.
       -1   -1    0    0    0  501  0.00000000000E+00  0.00000000000E+00 -0.13360936503E+03  0.13360936513E+03  0.50400001928E-02 0.  1.
    10030    2    1    2    0    0  0.00000000000E+00  0.00000000000E+00  0.33390083414E+03  0.60111956433E+03  0.49985494254E+03 0.  0.
        3    1    3    3  502    0 -0.13541625389E+03 -0.18643546827E+03  0.28334692918E+03  0.36521396212E+03  0.10100000352E+00 0. -1.
       -3    1    3    3    0  502  0.13541625389E+03  0.18643546827E+03  0.50553904961E+02  0.23590560221E+03  0.10100000352E+00 0.  1.
</event>
<event>
 5   0  0.1147245E-01  0.4974720E+03  0.7818609E-02  0.1014441E+00
        1   -1    0    0  501    0  0.00000000000E+00  0.00000000000E+00  0.67551924019E+03  0.67551924021E+03  0.50400001928E-02 0. -1.
       -1   -1    0    0    0  501  0.00000000000E+00  0.00000000000E+00 -0.91588207892E+02  0.91588208031E+02  0.50400001928E-02 0.  1.
    10030    2    1    2    0    0  0.00000000000E+00  0.00000000000E+00  0.58393103230E+03  0.76710744824E+03  0.49747199586E+03 0.  0.
        1    1    3    3  502    0  0.14048160689E+02  0.19399019681E+03  0.53105211780E+03  0.56554920133E+03  0.50400001928E-02 0. -1.
       -1    1    3    3    0  502 -0.14048160689E+02 -0.19399019681E+03  0.52878914498E+02  0.20155824691E+03  0.50400001928E-02 0.  1.
</event>
<event>
 5   0  0.1709372E-01  0.5046453E+03  0.7818609E-02  0.1012573E+00
       -2   -1    0    0    0  501  0.00000000000E+00  0.00000000000E+00  0.14654779569E+03  0.14654779571E+03  0.25500000920E-02 0.  1.
        2   -1    0    0  501    0  0.00000000000E+00  0.00000000000E+00 -0.43444341613E+03  0.43444341614E+03  0.25500000920E-02 0. -1.
    10030    2    1    2    0    0  0.00000000000E+00  0.00000000000E+00 -0.28789562045E+03  0.58099121185E+03  0.50464532096E+03 0.  0.
        4    1    3    3  502    0 -0.14727054016E+03  0.15952996701E+03  0.40571427053E+01  0.21715546431E+03  0.12699999809E+01 0.  1.
       -4    1    3    3    0  502  0.14727054016E+03 -0.15952996701E+03 -0.29195276315E+03  0.36383574754E+03  0.12699999809E+01 0. -1.
</event>
<event>
 5   0  0.1074281E-01  0.5131537E+03  0.7818609E-02  0.1010402E+00
        1   -1    0    0  501    0  0.00000000000E+00  0.00000000000E+00  0.11746461772E+03  0.11746461783E+03  0.50400001928E-02 0.  1.
       -1   -1    0    0    0  501  0.00000000000E+00  0.00000000000E+00 -0.56043836544E+03  0.56043836546E+03  0.50400001928E-02 0. -1.
    10030    2    1    2    0    0  0.00000000000E+00  0.00000000000E+00 -0.44297374771E+03  0.67790298329E+03  0.51315369393E+03 0.  0.
        4    1    3    3  502    0  0.11004187892E+03 -0.11991996008E+03  0.40535006542E+02  0.16773405021E+03  0.12699999809E+01 0.  1.
       -4    1    3    3    0  502 -0.11004187892E+03  0.11991996008E+03 -0.48350875426E+03  0.51016893309E+03  0.12699999809E+01 0. -1.
</event>
<event>
 5   0  0.7220250E-02  0.4940147E+03  0.7818609E-02  0.1015353E+00
       -3   -1    0    0    0  501  0.00000000000E+00  0.00000000000E+00  0.29086371486E+03  0.29086373239E+03  0.10100000352E+00 0.  1.
        3   -1    0    0  501    0  0.00000000000E+00  0.00000000000E+00 -0.20976362075E+03  0.20976364507E+03  0.10100000352E+00 0. -1.
    10030    2    1    2    0    0  0.00000000000E+00  0.00000000000E+00  0.81100094101E+02  0.50062737746E+03  0.49401472225E+03 0.  0.
        1    1    3    3  502    0  0.98358191856E+02 -0.11978650603E+03  0.23545097561E+03  0.28188703921E+03  0.50400001928E-02 0.  1.
       -1    1    3    3    0  502 -0.98358191856E+02  0.11978650603E+03 -0.15435088151E+03  0.21874033825E+03  0.50400001928E-02 0. -1.
</event>
<event>
 5   0  0.1827698E-01  0.5010827E+03  0.7818609E-02  0.1013497E+00
       -2   -1    0    0    0  501  0.00000000000E+00  0.00000000000E+00  0.21761254815E+03  0.21761254817E+03  0.25500000920E-02 0.  1.
        2   -1    0    0  501    0  0.00000000000E+00  0.00000000000E+00 -0.28845287588E+03  0.28845287589E+03  0.25500000920E-02 0. -1.
    10030    2    1    2    0    0  0.00000000000E+00  0.00000000000E+00 -0.70840327724E+02  0.50606542406E+03  0.50108268918E+03 0.  0.
        1    1    3    3  502    0  0.40903228824E+02 -0.54602646218E+01  0.21415673710E+03  0.21809630141E+03  0.50400001928E-02 0.  1.
       -1    1    3    3    0  502 -0.40903228824E+02  0.54602646218E+01 -0.28499706482E+03  0.28796912265E+03  0.50400001928E-02 0. -1.
</event>
<event>
 5   0  0.1141970E-01  0.4865650E+03  0.7818609E-02  0.1017346E+00
        1   -1    0    0  501    0  0.00000000000E+00  0.00000000000E+00  0.23401172337E+03  0.23401172342E+03  0.50400001928E-02 0. -1.
       -1   -1    0    0    0  501  0.00000000000E+00  0.00000000000E+00 -0.25292057238E+03  0.25292057243E+03  0.50400001928E-02 0.  1.
    10030    2    1    2    0    0  0.00000000000E+00  0.00000000000E+00 -0.18908849013E+02  0.48693229585E+03  0.48656501741E+03 0.  0.
        3    1    3    3  502    0  0.14123013870E+03 -0.19357734362E+03 -0.51536478468E+02  0.24510030366E+03  0.10100000352E+00 0.  1.
       -3    1    3    3    0  502 -0.14123013870E+03  0.19357734362E+03  0.32627629455E+02  0.24183199219E+03  0.10100000352E+00 0. -1.
</event>
<event>
 5   0  0.1782124E-01  0.4996670E+03  0.7818609E-02  0.1013866E+00
       -2   -1    0    0    0  501  0.00000000000E+00  0.00000000000E+00  0.91595364634E+02  0.91595364670E+02  0.25500000920E-02 0. -1.
        2   -1    0    0  501    0  0.00000000000E+00  0.00000000000E+00 -0.68144032590E+03  0.68144032591E+03  0.25500000920E-02 0.  1.
    10030    2    1    2    0    0  0.00000000000E+00  0.00000000000E+00 -0.58984496127E+03  0.77303569058E+03  0.49966698968E+03 0.  0.
        3    1    3    3  502    0 -0.23376405349E+03 -0.19754320439E+02 -0.42783733497E+03  0.48793509945E+03  0.10100000352E+00 0.  1.
       -3    1    3    3    0  502  0.23376405349E+03  0.19754320439E+02 -0.16200762630E+03  0.28510059113E+03  0.10100000352E+00 0. -1.
</event>
<event>
 5   0  0.1827698E-01  0.5015482E+03  0.7818609E-02  0.1013376E+00
        2   -1    0    0  501    0  0.00000000000E+00  0.00000000000E+00  0.44935645623E+03  0.44935645624E+03  0.25500000920E-02 0.  1.
       -2   -1    0    0    0  501  0.00000000000E+00  0.00000000000E+00 -0.13995049951E+03  0.13995049954E+03  0.25500000920E-02 0. -1.
    10030    2    1    2    0    0  0.00000000000E+00  0.00000000000E+00  0.30940595672E+03  0.58930695578E+03  0.50154824501E+03 0.  0.
        1    1    3    3  502    0  0.81482906992E+00 -0.23748360233E+03  0.60056995898E+02  0.24496115631E+03  0.50400001928E-02 0. -1.
       -1    1    3    3    0  502 -0.81482906992E+00  0.23748360233E+03  0.24934896082E+03  0.34434579946E+03  0.50400001928E-02 0.  1.
</event>
<event>
 5   0  0.1123271E-01  0.4962028E+03  0.7818609E-02  0.1014775E+00
       -1   -1    0    0    0  501  0.00000000000E+00  0.00000000000E+00  0.90154087309E+02  0.90154087449E+02  0.50400001928E-02 0. -1.
        1   -1    0    0  501    0  0.00000000000E+00  0.00000000000E+00 -0.68276778837E+03  0.68276778839E+03  0.50400001928E-02 0.  1.
    10030    2    1    2    0    0  0.00000000000E+00  0.00000000000E+00 -0.59261370106E+03  0.77292187584E+03  0.49620280880E+03 0.  0.
        5    1    3    3  502    0  0.67330650647E+02  0.10908175199E+03 -0.62710610016E+03  0.64009092791E+03  0.46999998093E+01 0.  1.
       -5    1    3    3    0  502 -0.67330650647E+02 -0.10908175199E+03  0.34492399102E+02  0.13283094793E+03  0.46999998093E+01 0. -1.
</event>
<event>
 5   0  0.1068522E-01  0.5005040E+03  0.7818609E-02  0.1013647E+00
        1   -1    0    0  501    0  0.00000000000E+00  0.00000000000E+00  0.33028678334E+02  0.33028678719E+02  0.50400001928E-02 0. -1.
       -1   -1    0    0    0  501  0.00000000000E+00  0.00000000000E+00 -0.18961119587E+04  0.18961119587E+04  0.50400001928E-02 0.  1.
    10030    2    1    2    0    0  0.00000000000E+00  0.00000000000E+00 -0.18630832804E+04  0.19291406374E+04  0.50050403534E+03 0.  0.
        2    1    3    3  502    0  0.41085693072E+02 -0.16234049554E+03 -0.16483307797E+04  0.16568152673E+04  0.25500000920E-02 0.  1.
       -2    1    3    3    0  502 -0.41085693072E+02  0.16234049554E+03 -0.21475250071E+03  0.27232537016E+03  0.25500000920E-02 0. -1.
</event>
<event>
 5   0  0.1683148E-01  0.5015031E+03  0.7818609E-02  0.1013387E+00
       -2   -1    0    0    0  501  0.00000000000E+00  0.00000000000E+00  0.40517931705E+03  0.40517931706E+03  0.25500000920E-02 0.  1.
        2   -1    0    0  501    0  0.00000000000E+00  0.00000000000E+00 -0.15518148463E+03  0.15518148465E+03  0.25500000920E-02 0. -1.
    10030    2    1    2    0    0  0.00000000000E+00  0.00000000000E+00  0.24999783242E+03  0.56036080171E+03  0.50150305271E+03 0.  0.
        2    1    3    3  502    0 -0.34989575722E+02  0.16412842893E+03  0.33318225695E+03  0.37305874597E+03  0.25500000920E-02 0.  1.
       -2    1    3    3    0  502  0.34989575722E+02 -0.16412842893E+03 -0.83184424535E+02  0.18730205574E+03  0.25500000920E-02 0. -1.
</event>
<event>
 5   0  0.1683148E-01  0.5249984E+03  0.7818609E-02  0.1007452E+00
        2   -1    0    0  501    0  0.00000000000E+00  0.00000000000E+00  0.16234878908E+03  0.16234878910E+03  0.25500000920E-02 0. -1.
       -2   -1    0    0    0  501  0.00000000000E+00  0.00000000000E+00 -0.42443082478E+03  0.42443082479E+03  0.25500000920E-02 0.  1.
    10030    2    1    2    0    0  0.00000000000E+00  0.00000000000E+00 -0.26208203570E+03  0.58677961388E+03  0.52499840174E+03 0.  0.
        2    1    3    3  502    0 -0.63806737779E+02 -0.16701225071E+03  0.83778599563E+02  0.19744175198E+03  0.25500000920E-02 0. -1.
       -2    1    3    3    0  502  0.63806737779E+02  0.16701225071E+03 -0.34586063527E+03  0.38933786190E+03  0.25500000920E-02 0.  1.
</event>
<event>
 5   0  0.1147245E-01  0.5014568E+03  0.7818609E-02  0.1013399E+00
       -1   -1    0    0    0  501  0.00000000000E+00  0.00000000000E+00  0.69322725231E+02  0.69322725415E+02  0.50400001928E-02 0.  1.
        1   -1    0    0  501    0  0.00000000000E+00  0.00000000000E+00 -0.90684152528E+03  0.90684152530E+03  0.50400001928E-02 0. -1.
    10030    2    1    2    0    0  0.00000000000E+00  0.00000000000E+00 -0.83751880005E+03  0.97616425071E+03  0.50145678171E+03 0.  0.
        1    1    3    3  502    0 -0.24683534226E+03 -0.40826282834E+02 -0.38675749913E+03  0.46062548205E+03  0.50400001928E-02 0.  1.
       -1    1    3    3    0  502  0.24683534226E+03  0.40826282834E+02 -0.45076130092E+03  0.51553876866E+03  0.50400001928E-02 0. -1.
</event>
<event>
 5   0  0.7220250E-02  0.4943795E+03  0.7818609E-02  0.1015256E+00
        4   -1    0    0  501    0  0.00000000000E+00  0.00000000000E+00  0.19724919746E+03  0.19725328590E+03  0.12699999809E+01 0.  1.
       -4   -1    0    0    0  501  0.00000000000E+00  0.00000000000E+00 -0.30976591346E+03  0.30976851686E+03  0.12699999809E+01 0. -1.
    10030    2    1    2    0    0  0.00000000000E+00  0.00000000000E+00 -0.11251671600E+03  0.50702180276E+03  0.49437950716E+03 0.  0.
        3    1    3    3  502    0  0.10503481491E+03 -0.13181465034E+03  0.12918409703E+03  0.21235808323E+03  0.10100000352E+00 0.  1.
       -3    1    3    3    0  502 -0.10503481491E+03  0.13181465034E+03 -0.24170081303E+03  0.29466371953E+03  0.10100000352E+00 0. -1.
</event>
<event>
 5   0  0.1827698E-01  0.5138015E+03  0.7818609E-02  0.1010238E+00
        2   -1    0    0  501    0  0.00000000000E+00  0.00000000000E+00  0.27243680603E+03  0.27243680604E+03  0.25500000920E-02 0.  1.
       -2   -1    0    0    0  501  0.00000000000E+00  0.00000000000E+00 -0.24225063542E+03  0.24225063543E+03  0.25500000920E-02 0. -1.
    10030    2    1    2    0    0  0.00000000000E+00  0.00000000000E+00  0.30186170604E+02  0.51468744147E+03  0.51380147675E+03 0.  0.
        1    1    3    3  502    0 -0.68523514795E+02  0.12884468612E+03 -0.19669893010E+03  0.24492222102E+03  0.50400001928E-02 0. -1.
       -1    1    3    3    0  502  0.68523514795E+02 -0.12884468612E+03  0.22688510070E+03  0.26976522045E+03  0.50400001928E-02 0.  1.
</event>
<event>
 5   0  0.1074281E-01  0.4969721E+03  0.7818609E-02  0.1014572E+00
        1   -1    0    0  501    0  0.00000000000E+00  0.00000000000E+00  0.15102571108E+04  0.15102571108E+04  0.50400001928E-02 0. -1.
       -1   -1    0    0    0  501  0.00000000000E+00  0.00000000000E+00 -0.40883979759E+02  0.40883980070E+02  0.50400001928E-02 0.  1.
    10030    2    1    2    0    0  0.00000000000E+00  0.00000000000E+00  0.14693731311E+04  0.15511410909E+04  0.49697211752E+03 0.  0.
        4    1    3    3  502    0  0.10969818189E+03  0.79953291741E+02  0.85079239814E+02  0.16020708448E+03  0.12699999809E+01 0.  1.
       -4    1    3    3    0  502 -0.10969818189E+03 -0.79953291741E+02  0.13842938913E+04  0.13909340064E+04  0.12699999809E+01 0. -1.
</event>
<event>
 5   0  0.1827698E-01  0.5098062E+03  0.7818609E-02  0.1011251E+00
        2   -1    0    0  501    0  0.00000000000E+00  0.00000000000E+00  0.79277240165E+03  0.79277240166E+03  0.25500000920E-02 0. -1.
       -2   -1    0    0    0  501  0.00000000000E+00  0.00000000000E+00 -0.81959945209E+02  0.81959945249E+02  0.25500000920E-02 0.  1.
    10030    2    1    2    0    0  0.00000000000E+00  0.00000000000E+00  0.71081245644E+03  0.87473234691E+03  0.50980616953E+03 0.  0.
        1    1    3    3  502    0 -0.22853381742E+02 -0.12116951927E+03 -0.27382717469E+02  0.12630970944E+03  0.50400001928E-02 0.  1.
       -1    1    3    3    0  502  0.22853381742E+02  0.12116951927E+03  0.73819517391E+03  0.74842263747E+03  0.50400001928E-02 0. -1.
</event>
<event>
 5   0  0.1147245E-01  0.4993002E+03  0.7818609E-02  0.1013962E+00
        1   -1    0    0  501    0  0.00000000000E+00  0.00000000000E+00  0.29068596124E+03  0.29068596129E+03  0.50400001928E-02 0.  1.
       -1   -1    0    0    0  501  0.00000000000E+00  0.00000000000E+00 -0.21440721103E+03  0.21440721109E+03  0.50400001928E-02 0. -1.
    10030    2    1    2    0    0  0.00000000000E+00  0.00000000000E+00  0.76278750211E+02  0.50509317238E+03  0.49930017530E+03 0.  0.
        1    1    3    3  502    0 -0.14940252872E+03  0.36676741446E+02 -0.16076042282E+03  0.22250890437E+03  0.50400001928E-02 0.  1.
       -1    1    3    3    0  502  0.14940252872E+03 -0.36676741446E+02  0.23703917303E+03  0.28258426801E+03  0.50400001928E-02 0. -1.
</event>
<event>
 5   0  0.1709372E-01  0.5124651E+03  0.7818609E-02  0.1010576E+00
       -2   -1    0    0    0  501  0.00000000000E+00  0.00000000000E+00  0.49151458859E+02  0.49151458925E+02  0.25500000920E-02 0.  1.
        2   -1    0    0  501    0  0.00000000000E+00  0.00000000000E+00 -0.13357714750E+04  0.13357714750E+04  0.25500000920E-02 0. -1.
    10030    2    1    2    0    0  0.00000000000E+00  0.00000000000E+00 -0.12866200162E+04  0.13849229340E+04  0.51246508856E+03 0.  0.
        4    1    3    3  502    0  0.16829467712E+02 -0.56664406843E+02 -0.13170848515E+04  0.13184112427E+04  0.12699999809E+01 0. -1.
       -4    1    3    3    0  502 -0.16829467712E+02  0.56664406843E+02  0.30464835293E+02  0.66511691271E+02  0.12699999809E+01 0.  1.
</event>
<event>
 5   0  0.1123271E-01  0.4931116E+03  0.7818609E-02  0.1015593E+00
       -1   -1    0    0    0  501  0.00000000000E+00  0.00000000000E+00  0.55096021120E+02  0.55096021351E+02  0.50400001928E-02 0. -1.
        1   -1    0    0  501    0  0.00000000000E+00  0.00000000000E+00 -0.11033419860E+04  0.11033419860E+04  0.50400001928E-02 0.  1.
    10030    2    1    2    0    0  0.00000000000E+00  0.00000000000E+00 -0.10482459649E+04  0.11584380074E+04  0.49311156346E+03 0.  0.
        5    1    3    3  502    0  0.43700084899E+01 -0.19707540153E+03 -0.87185712906E+03  0.89387625226E+03  0.46999998093E+01 0.  1.
       -5    1    3    3    0  502 -0.43700084899E+01  0.19707540153E+03 -0.17638883582E+03  0.26456175510E+03  0.46999998093E+01 0. -1.
</event>
<event>
 5   0  0.1782124E-01  0.4991619E+03  0.7818609E-02  0.1013998E+00
        2   -1    0    0  501    0  0.00000000000E+00  0.00000000000E+00  0.26743567362E+04  0.26743567362E+04  0.25500000920E-02 0.  1.
       -2   -1    0    0    0  501  0.00000000000E+00  0.00000000000E+00 -0.23291825720E+02  0.23291825859E+02  0.25500000920E-02 0. -1.
    10030    2    1    2    0    0  0.00000000000E+00  0.00000000000E+00  0.26510649105E+04  0.26976485621E+04  0.49916190240E+03 0.  0.
        3    1    3    3  502    0 -0.86797030552E+02 -0.15209532619E+02  0.63576745109E+02  0.10866032908E+03  0.10100000352E+00 0. -1.
       -3    1    3    3    0  502  0.86797030552E+02  0.15209532619E+02  0.25874881654E+04  0.25889882330E+04  0.10100000352E+00 0.  1.
</event>
<event>
 5   0  0.1683148E-01  0.5164008E+03  0.7818609E-02  0.1009585E+00
       -2   -1    0    0    0  501  0.00000000000E+00  0.00000000000E+00  0.15102952877E+03  0.15102952880E+03  0.25500000920E-02 0. -1.
        2   -1    0    0  501    0  0.00000000000E+00  0.00000000000E+00 -0.44141999663E+03  0.44141999664E+03  0.25500000920E-02 0.  1.
    10030    2    1    2    0    0  0.00000000000E+00  0.00000000000E+00 -0.29039046786E+03  0.59244952543E+03  0.51640082917E+03 0.  0.
        2    1    3    3  502    0  0.11152527749E+03 -0.47175807029E+02  0.11643193439E+03  0.16798761752E+03  0.25500000920E-02 0. -1.
       -2    1    3    3    0  502 -0.11152527749E+03  0.47175807029E+02 -0.40682240225E+03  0.42446190791E+03  0.25500000920E-02 0.  1.
</event>
<event>
 5   0  0.1827698E-01  0.5043569E+03  0.7818609E-02  0.1012648E+00
        2   -1    0    0  501    0  0.00000000000E+00  0.00000000000E+00  0.44520184347E+03  0.44520184348E+03  0.25500000920E-02 0.  1.
       -2   -1    0    0    0  501  0.00000000000E+00  0.00000000000E+00 -0.14284300445E+03  0.14284300447E+03  0.25500000920E-02 0. -1.
    10030    2    1    2    0    0  0.00000000000E+00  0.00000000000E+00  0.30235883902E+03  0.58804484795E+03  0.50435689314E+03 0.  0.
        1    1    3    3  502    0 -0.24561968630E+03 -0.26805029528E+02  0.21001476027E+03  0.32427417329E+03  0.50400001928E-02 0. -1.
       -1    1    3    3    0  502  0.24561968630E+03  0.26805029528E+02  0.92344078752E+02  0.26377067466E+03  0.50400001928E-02 0.  1.
</event>
<event>
 5   0  0.1068522E-01  0.4944909E+03  0.7818609E-02  0.1015227E+00
        1   -1    0    0  501    0  0.00000000000E+00  0.00000000000E+00  0.49301035041E+02  0.49301035299E+02  0.50400001928E-02 0. -1.
       -1   -1    0    0    0  501  0.00000000000E+00  0.00000000000E+00 -0.12399396623E+04  0.12399396623E+04  0.50400001928E-02 0.  1.
    10030    2    1    2    0    0  0.00000000000E+00  0.00000000000E+00 -0.11906386272E+04  0.12892406976E+04  0.49449088530E+03 0.  0.
        2    1    3    3  502    0 -0.47904581654E+02 -0.13063163502E+03 -0.11281783054E+04  0.11367258956E+04  0.25500000920E-02 0.  1.
       -2    1    3    3    0  502  0.47904581654E+02  0.13063163502E+03 -0.62460321873E+02  0.15251480199E+03  0.25500000920E-02 0. -1.
</event>
<event>
 5   0  0.1683148E-01  0.5042608E+03  0.7818609E-02  0.1012673E+00
       -2   -1    0    0    0  501  0.00000000000E+00  0.00000000000E+00  0.18579108413E+03  0.18579108415E+03  0.25500000920E-02 0.  1.
        2   -1    0    0  501    0  0.00000000000E+00  0.00000000000E+00 -0.34215714208E+03  0.34215714209E+03  0.25500000920E-02 0. -1.
    10030    2    1    2    0    0  0.00000000000E+00  0.00000000000E+00 -0.15636605795E+03  0.52794822623E+03  0.50426083082E+03 0.  0.
        2    1    3    3  502    0 -0.16082517468E+03 -0.60510227260E+02  0.11499304785E+03  0.20675982558E+03  0.25500000920E-02 0.  1.
       -2    1    3    3    0  502  0.16082517468E+03  0.60510227260E+02 -0.27135910579E+03  0.32118840066E+03  0.25500000920E-02 0. -1.
</event>
<event>
 5   0  0.1141970E-01  0.4998719E+03  0.7818609E-02  0.1013812E+00
       -1   -1    0    0    0  501  0.00000000000E+00  0.00000000000E+00  0.13332232152E+03  0.13332232162E+03  0.50400001928E-02 0. -1.
        1   -1    0    0  501    0  0.00000000000E+00  0.00000000000E+00 -0.46854861411E+03  0.46854861413E+03  0.50400001928E-02 0.  1.
    10030    2    1    2    0    0  0.00000000000E+00  0.00000000000E+00 -0.33522629258E+03  0.60187093575E+03  0.49987193966E+03 0.  0.
        3    1    3    3  502    0 -0.21053217036E+03  0.11727963252E+03 -0.87839279872E+02  0.25650352093E+03  0.10100000352E+00 0. -1.
       -3    1    3    3    0  502  0.21053217036E+03 -0.11727963252E+03 -0.24738701271E+03  0.34536741482E+03  0.10100000352E+00 0.  1.
</event>
<event>
 5   0  0.1068522E-01  0.5006833E+03  0.7818609E-02  0.1013601E+00
       -1   -1    0    0    0  501  0.00000000000E+00  0.00000000000E+00  0.14106755182E+04  0.14106755182E+04  0.50400001928E-02 0.  1.
        1   -1    0    0  501    0  0.00000000000E+00  0.00000000000E+00 -0.44426195997E+02  0.44426196283E+02  0.50400001928E-02 0. -1.
    10030    2    1    2    0    0  0.00000000000E+00  0.00000000000E+00  0.13662493222E+04  0.14551017145E+04  0.50068332217E+03 0.  0.
        2    1    3    3  502    0  0.23311435067E+03 -0.80484353384E+02  0.80815734096E+03  0.84494870814E+03  0.25500000920E-02 0. -1.
       -2    1    3    3    0  502 -0.23311435067E+03  0.80484353384E+02  0.55809198125E+03  0.61015300636E+03  0.25500000920E-02 0.  1.
</event>
<event>
 5   0  0.1068522E-01  0.5040575E+03  0.7818609E-02  0.1012725E+00
        1   -1    0    0  501    0  0.00000000000E+00  0.00000000000E+00  0.17007128969E+03  0.17007128977E+03  0.50400001928E-02 0.  1.
       -1   -1    0    0    0  501  0.00000000000E+00  0.00000000000E+00 -0.37348150276E+03  0.37348150279E+03  0.50400001928E-02 0. -1.
    10030    2    1    2    0    0  0.00000000000E+00  0.00000000000E+00 -0.20341021306E+03  0.54355279255E+03  0.50405746053E+03 0.  0.
        2    1    3    3  502    0 -0.74149688534E+02  0.24012580865E+03 -0.12216262532E+03  0.27943207998E+03  0.25500000920E-02 0. -1.
       -2    1    3    3    0  502  0.74149688534E+02 -0.24012580865E+03 -0.81247587744E+02  0.26412071257E+03  0.25500000920E-02 0.  1.
</event>
<event>
 5   0  0.1123271E-01  0.4830077E+03  0.7818609E-02  0.1018312E+00
        1   -1    0    0  501    0  0.00000000000E+00  0.00000000000E+00  0.34486522995E+02  0.34486523364E+02  0.50400001928E-02 0. -1.
       -1   -1    0    0    0  501  0.00000000000E+00  0.00000000000E+00 -0.16912148535E+04  0.16912148535E+04  0.50400001928E-02 0.  1.
    10030    2    1    2    0    0  0.00000000000E+00  0.00000000000E+00 -0.16567283305E+04  0.17257013769E+04  0.48300774428E+03 0.  0.
        5    1    3    3  502    0  0.70077049643E+02  0.45980988239E+02 -0.16374093864E+04  0.16395598900E+04  0.46999998093E+01 0.  1.
       -5    1    3    3    0  502 -0.70077049643E+02 -0.45980988239E+02 -0.19318944120E+02  0.86141486905E+02  0.46999998093E+01 0. -1.
</event>
<event>
 5   0  0.1827698E-01  0.4079546E+03  0.7818609E-02  0.1041060E+00
        2   -1    0    0  501    0  0.00000000000E+00  0.00000000000E+00  0.50666856256E+03  0.50666856257E+03  0.25500000920E-02 0. -1.
       -2   -1    0    0    0  501  0.00000000000E+00  0.00000000000E+00 -0.82118243920E+02  0.82118243960E+02  0.25500000920E-02 0.  1.
    10030    2    1    2    0    0  0.00000000000E+00  0.00000000000E+00  0.42455031864E+03  0.58878680653E+03  0.40795456914E+03 0.  0.
        1    1    3    3  502    0 -0.10413156779E+03 -0.35458692314E+02  0.46018950627E+03  0.47315439761E+03  0.50400001928E-02 0. -1.
       -1    1    3    3    0  502  0.10413156779E+03  0.35458692314E+02 -0.35639187629E+02  0.11563240892E+03  0.50400001928E-02 0.  1.
</event>
<event>
 5   0  0.1709372E-01  0.4839318E+03  0.7818609E-02  0.1018060E+00
        2   -1    0    0  501    0  0.00000000000E+00  0.00000000000E+00  0.66532094445E+03  0.66532094446E+03  0.25500000920E-02 0.  1.
       -2   -1    0    0    0  501  0.00000000000E+00  0.00000000000E+00 -0.87998877655E+02  0.87998877692E+02  0.25500000920E-02 0. -1.
    10030    2    1    2    0    0  0.00000000000E+00  0.00000000000E+00  0.57732206680E+03  0.75331982215E+03  0.48393179853E+03 0.  0.
        4    1    3    3  502    0  0.23413094810E+03 -0.50917050627E+02  0.23619340938E+03  0.33645027335E+03  0.12699999809E+01 0.  1.
       -4    1    3    3    0  502 -0.23413094810E+03  0.50917050627E+02  0.34112865741E+03  0.41686954880E+03  0.12699999809E+01 0. -1.
</event>
<event>
 5   0  0.1782124E-01  0.4974651E+03  0.7818609E-02  0.1014443E+00
       -2   -1    0    0    0  501  0.00000000000E+00  0.00000000000E+00  0.13703388978E+03  0.13703388980E+03  0.25500000920E-02 0.  1.
        2   -1    0    0  501    0  0.00000000000E+00  0.00000000000E+00 -0.45147869701E+03  0.45147869702E+03  0.25500000920E-02 0. -1.
    10030    2    1    2    0    0  0.00000000000E+00  0.00000000000E+00 -0.31444480723E+03  0.58851258682E+03  0.49746510235E+03 0.  0.
        3    1    3    3  502    0 -0.21459603788E+03 -0.12446763852E+03 -0.13592078681E+03  0.28287474790E+03  0.10100000352E+00 0. -1.
       -3    1    3    3    0  502  0.21459603788E+03  0.12446763852E+03 -0.17852402042E+03  0.30563783892E+03  0.10100000352E+00 0.  1.
</event>
<event>
 5   0  0.7220250E-02  0.4707265E+03  0.7818609E-02  0.1021715E+00
        4   -1    0    0  501    0  0.00000000000E+00  0.00000000000E+00  0.43731015018E+03  0.43731199429E+03  0.12699999809E+01 0.  1.
       -4   -1    0    0    0  501  0.00000000000E+00  0.00000000000E+00 -0.12666876566E+03  0.12667513211E+03  0.12699999809E+01 0. -1.
    10030    2    1    2    0    0  0.00000000000E+00  0.00000000000E+00  0.31064138452E+03  0.56398712640E+03  0.47072646938E+03 0.  0.
        3    1    3    3  502    0 -0.10436898856E+03 -0.21088340146E+03  0.14863401342E+03  0.27831057280E+03  0.10100000352E+00 0. -1.
       -3    1    3    3    0  502  0.10436898856E+03  0.21088340146E+03  0.16200737111E+03  0.28567655360E+03  0.10100000352E+00 0.  1.
</event>
<event>
 5   0  0.7220250E-02  0.4984308E+03  0.7818609E-02  0.1014189E+00
       -4   -1    0    0    0  501  0.00000000000E+00  0.00000000000E+00  0.59348105407E+03  0.59348241291E+03  0.12699999809E+01 0. -1.
        4   -1    0    0  501    0  0.00000000000E+00  0.00000000000E+00 -0.10464556431E+03  0.10465327052E+03  0.12699999809E+01 0.  1.
    10030    2    1    2    0    0  0.00000000000E+00  0.00000000000E+00  0.48883548976E+03  0.69813568343E+03  0.49843083415E+03 0.  0.
        2    1    3    3  502    0 -0.11545625885E+03 -0.16091766908E+03  0.32533887816E+02  0.20070649664E+03  0.25500000920E-02 0.  1.
       -2    1    3    3    0  502  0.11545625885E+03  0.16091766908E+03  0.45630160194E+03  0.49742918679E+03  0.25500000920E-02 0. -1.
</event>
<event>
 5   0  0.1123271E-01  0.5064599E+03  0.7818609E-02  0.1012106E+00
        1   -1    0    0  501    0  0.00000000000E+00  0.00000000000E+00  0.30306962320E+03  0.30306962325E+03  0.50400001928E-02 0. -1.
       -1   -1    0    0    0  501  0.00000000000E+00  0.00000000000E+00 -0.21158636229E+03  0.21158636235E+03  0.50400001928E-02 0.  1.
    10030    2    1    2    0    0  0.00000000000E+00  0.00000000000E+00  0.91483260912E+02  0.51465598560E+03  0.50645986661E+03 0.  0.
        5    1    3    3  502    0  0.79026556256E+01  0.21589677197E+03  0.17989874882E+03  0.28117524418E+03  0.46999998093E+01 0. -1.
       -5    1    3    3    0  502 -0.79026556256E+01 -0.21589677197E+03 -0.88415487906E+02  0.23348074142E+03  0.46999998093E+01 0.  1.
</event>
<event>
 5   0  0.1123271E-01  0.4953065E+03  0.7818609E-02  0.1015011E+00
       -1   -1    0    0    0  501  0.00000000000E+00  0.00000000000E+00  0.38840537979E+03  0.38840537982E+03  0.50400001928E-02 0. -1.
        1   -1    0    0  501    0  0.00000000000E+00  0.00000000000E+00 -0.15790753034E+03  0.15790753043E+03  0.50400001928E-02 0.  1.
    10030    2    1    2    0    0  0.00000000000E+00  0.00000000000E+00  0.23049784944E+03  0.54631291025E+03  0.49530650844E+03 0.  0.
        5    1    3    3  502    0  0.29191865287E+02  0.24311388981E+03  0.74670132953E+02  0.25603563652E+03  0.46999998093E+01 0. -1.
       -5    1    3    3    0  502 -0.29191865287E+02 -0.24311388981E+03  0.15582771649E+03  0.29027727372E+03  0.46999998093E+01 0.  1.
</event>
<event>
 5   0  0.1074281E-01  0.4986067E+03  0.7818609E-02  0.1014143E+00
        1   -1    0    0  501    0  0.00000000000E+00  0.00000000000E+00  0.74369294226E+03  0.74369294228E+03  0.50400001928E-02 0.  1.
       -1   -1    0    0    0  501  0.00000000000E+00  0.00000000000E+00 -0.83572336032E+02  0.83572336184E+02  0.50400001928E-02 0. -1.
    10030    2    1    2    0    0  0.00000000000E+00  0.00000000000E+00  0.66012060623E+03  0.82726527846E+03  0.49860668486E+03 0.  0.
        4    1    3    3  502    0  0.19440857164E+03 -0.91160033808E+02  0.11989257843E+03  0.24592821667E+03  0.12699999809E+01 0. -1.
       -4    1    3    3    0  502 -0.19440857164E+03  0.91160033808E+02  0.54022802780E+03  0.58133706179E+03  0.12699999809E+01 0.  1.
</event>
<event>
 5   0  0.1147245E-01  0.4834482E+03  0.7818609E-02  0.1018192E+00
       -1   -1    0    0    0  501  0.00000000000E+00  0.00000000000E+00  0.47227320073E+02  0.47227320342E+02  0.50400001928E-02 0.  1.
        1   -1    0    0  501    0  0.00000000000E+00  0.00000000000E+00 -0.12372191063E+04  0.12372191063E+04  0.50400001928E-02 0. -1.
    10030    2    1    2    0    0  0.00000000000E+00  0.00000000000E+00 -0.11899917862E+04  0.12844464266E+04  0.48344820989E+03 0.  0.
        1    1    3    3  502    0  0.12452248399E+03  0.85294089953E+02 -0.93354410592E+02  0.17747105906E+03  0.50400001928E-02 0.  1.
       -1    1    3    3    0  502 -0.12452248399E+03 -0.85294089953E+02 -0.10966373756E+04  0.11069753675E+04  0.50400001928E-02 0. -1.
</event>
<event>
 5   0  0.1709372E-01  0.4698033E+03  0.7818609E-02  0.1021976E+00
       -2   -1    0    0    0  501  0.00000000000E+00  0.00000000000E+00  0.72685226738E+02  0.72685226783E+02  0.25500000920E-02 0.  1.
        2   -1    0    0  501    0  0.00000000000E+00  0.00000000000E+00 -0.75914729137E+03  0.75914729138E+03  0.25500000920E-02 0. -1.
    10030    2    1    2    0    0  0.00000000000E+00  0.00000000000E+00 -0.68646206464E+03  0.83183251816E+03  0.46980333341E+03 0.  0.
        4    1    3    3  502    0  0.33744366050E+02  0.34441280159E+02 -0.75028475386E+03  0.75183356455E+03  0.12699999809E+01 0. -1.
       -4    1    3    3    0  502 -0.33744366050E+02 -0.34441280159E+02  0.63822689220E+02  0.79998953608E+02  0.12699999809E+01 0.  1.
</event>
<event>
 5   0  0.1760649E-01  0.5020840E+03  0.7818609E-02  0.1013236E+00
       -2   -1    0    0    0  501  0.00000000000E+00  0.00000000000E+00  0.38039850693E+02  0.38039850778E+02  0.25500000920E-02 0. -1.
        2   -1    0    0  501    0  0.00000000000E+00  0.00000000000E+00 -0.16567383495E+04  0.16567383495E+04  0.25500000920E-02 0.  1.
    10030    2    1    2    0    0  0.00000000000E+00  0.00000000000E+00 -0.16186984988E+04  0.16947782003E+04  0.50208397516E+03 0.  0.
        5    1    3    3  502    0 -0.13578432885E+03  0.18826940303E+03 -0.11316550648E+04  0.11552263968E+04  0.46999998093E+01 0.  1.
       -5    1    3    3    0  502  0.13578432885E+03 -0.18826940303E+03 -0.48704343403E+03  0.53955180354E+03  0.46999998093E+01 0. -1.
</event>
<event>
 5   0  0.1123271E-01  0.4212210E+03  0.7818609E-02  0.1036670E+00
       -1   -1    0    0    0  501  0.00000000000E+00  0.00000000000E+00  0.92963485605E+02  0.92963485741E+02  0.50400001928E-02 0.  1.
        1   -1    0    0  501    0  0.00000000000E+00  0.00000000000E+00 -0.47714198342E+03  0.47714198345E+03  0.50400001928E-02 0. -1.
    10030    2    1    2    0    0  0.00000000000E+00  0.00000000000E+00 -0.38417849782E+03  0.57010546919E+03  0.42122099641E+03 0.  0.
        5    1    3    3  502    0  0.30500433718E+02 -0.99204752690E+02  0.55866681154E+02  0.11796200861E+03  0.46999998093E+01 0.  1.
       -5    1    3    3    0  502 -0.30500433718E+02  0.99204752690E+02 -0.44004517897E+03  0.45214346058E+03  0.46999998093E+01 0. -1.
</event>
<event>
 5   0  0.1827698E-01  0.5069148E+03  0.7818609E-02  0.1011990E+00
        2   -1    0    0  501    0  0.00000000000E+00  0.00000000000E+00  0.87541560677E+03  0.87541560677E+03  0.25500000920E-02 0.  1.
       -2   -1    0    0    0  501  0.00000000000E+00  0.00000000000E+00 -0.73383029671E+02  0.73383029716E+02  0.25500000920E-02 0. -1.
    10030    2    1    2    0    0  0.00000000000E+00  0.00000000000E+00  0.80203257710E+03  0.94879863649E+03  0.50691478364E+03 0.  0.
        1    1    3    3  502    0 -0.16049815798E+03 -0.16186205280E+03  0.19358811347E+03  0.29905742016E+03  0.50400001928E-02 0. -1.
       -1    1    3    3    0  502  0.16049815798E+03  0.16186205280E+03  0.60844446362E+03  0.64974121632E+03  0.50400001928E-02 0.  1.
</event>
<event>
 5   0  0.1683148E-01  0.4886216E+03  0.7818609E-02  0.1016792E+00
        2   -1    0    0  501    0  0.00000000000E+00  0.00000000000E+00  0.43340294733E+03  0.43340294734E+03  0.25500000920E-02 0. -1.
       -2   -1    0    0    0  501  0.00000000000E+00  0.00000000000E+00 -0.13771888467E+03  0.13771888470E+03  0.25500000920E-02 0.  1.
    10030    2    1    2    0    0  0.00000000000E+00  0.00000000000E+00  0.29568406266E+03  0.57112183204E+03  0.48862161446E+03 0.  0.
        2    1    3    3  502    0 -0.23761595858E+03 -0.55299319822E+02  0.13267353337E+03  0.27770780509E+03  0.25500000920E-02 0. -1.
       -2    1    3    3    0  502  0.23761595858E+03  0.55299319822E+02  0.16301052930E+03  0.29341402695E+03  0.25500000920E-02 0.  1.
</event>
<event>
 5   0  0.1683148E-01  0.4926670E+03  0.7818609E-02  0.1015711E+00
        2   -1    0    0  501    0  0.00000000000E+00  0.00000000000E+00  0.12605235498E+04  0.12605235498E+04  0.25500000920E-02 0.  1.
       -2   -1    0    0    0  501  0.00000000000E+00  0.00000000000E+00 -0.48138879531E+02  0.48138879598E+02  0.25500000920E-02 0. -1.
    10030    2    1    2    0    0  0.00000000000E+00  0.00000000000E+00  0.12123846703E+04  0.13086624294E+04  0.49266699242E+03 0.  0.
        2    1    3    3  502    0  0.10211349246E+03 -0.21810499359E+03  0.46859698811E+03  0.52685870102E+03  0.25500000920E-02 0. -1.
       -2    1    3    3    0  502 -0.10211349246E+03  0.21810499359E+03  0.74378768217E+03  0.78180372839E+03  0.25500000920E-02 0.  1.
</event>
<event>
 5   0  0.1074281E-01  0.5031913E+03  0.7818609E-02  0.1012949E+00
       -1   -1    0    0    0  501  0.00000000000E+00  0.00000000000E+00  0.76789503237E+02  0.76789503402E+02  0.50400001928E-02 0. -1.
        1   -1    0    0  501    0  0.00000000000E+00  0.00000000000E+00 -0.82433610966E+03  0.82433610967E+03  0.50400001928E-02 0.  1.
    10030    2    1    2    0    0  0.00000000000E+00  0.00000000000E+00 -0.74754660642E+03  0.90112561308E+03  0.50319125764E+03 0.  0.
        4    1    3    3  502    0  0.24946419604E+03 -0.10029869690E+02 -0.42942620151E+03  0.49673077098E+03  0.12699999809E+01 0.  1.
       -4    1    3    3    0  502 -0.24946419604E+03  0.10029869690E+02 -0.31812040491E+03  0.40439484209E+03  0.12699999809E+01 0. -1.
</event>
<event>
 5   0  0.1147245E-01  0.5007237E+03  0.7818609E-02  0.1013590E+00
        1   -1    0    0  501    0  0.00000000000E+00  0.00000000000E+00  0.36030347160E+03  0.36030347164E+03  0.50400001928E-02 0. -1.
       -1   -1    0    0    0  501  0.00000000000E+00  0.00000000000E+00 -0.17396742071E+03  0.17396742078E+03  0.50400001928E-02 0.  1.
    10030    2    1    2    0    0  0.00000000000E+00  0.00000000000E+00  0.18633605090E+03  0.53427089242E+03  0.50072373883E+03 0.  0.
        1    1    3    3  502    0 -0.16700965111E+03  0.18859907957E+01  0.29217170948E+03  0.33654136205E+03  0.50400001928E-02 0. -1.
       -1    1    3    3    0  502  0.16700965111E+03 -0.18859907957E+01 -0.10583565859E+03  0.19772953037E+03  0.50400001928E-02 0.  1.
</event>
<event>
 5   0  0.1760649E-01  0.4622870E+03  0.7818609E-02  0.1024120E+00
        2   -1    0    0  501    0  0.00000000000E+00  0.00000000000E+00  0.22675409440E+03  0.22675409442E+03  0.25500000920E-02 0. -1.
       -2   -1    0    0    0  501  0.00000000000E+00  0.00000000000E+00 -0.23561784771E+03  0.23561784772E+03  0.25500000920E-02 0.  1.
    10030    2    1    2    0    0  0.00000000000E+00  0.00000000000E+00 -0.88637533043E+01  0.46237194214E+03  0.46228697446E+03 0.  0.
        5    1    3    3  502    0  0.53283845780E+02  0.12852827892E+03 -0.18898282232E+03  0.23472384590E+03  0.46999998093E+01 0.  1.
       -5    1    3    3    0  502 -0.53283845780E+02 -0.12852827892E+03  0.18011906901E+03  0.22764809624E+03  0.46999998093E+01 0. -1.
</event>
<event>
 5   0  0.1123271E-01  0.4882431E+03  0.7818609E-02  0.1016894E+00
       -1   -1    0    0    0  501  0.00000000000E+00  0.00000000000E+00  0.19159613954E+03  0.19159613961E+03  0.50400001928E-02 0. -1.
        1   -1    0    0  501    0  0.00000000000E+00  0.00000000000E+00 -0.31104659232E+03  0.31104659236E+03  0.50400001928E-02 0.  1.
    10030    2    1    2    0    0  0.00000000000E+00  0.00000000000E+00 -0.11945045278E+03  0.50264273197E+03  0.48824308017E+03 0.  0.
        5    1    3    3  502    0  0.37937944739E+02  0.30630603770E+02  0.18648441545E+03  0.19281091448E+03  0.46999998093E+01 0. -1.
       -5    1    3    3    0  502 -0.37937944739E+02 -0.30630603770E+02 -0.30593486823E+03  0.30983181750E+03  0.46999998093E+01 0.  1.
</event>
<event>
 5   0  0.1683148E-01  0.5107021E+03  0.7818609E-02  0.1011023E+00
       -2   -1    0    0    0  501  0.00000000000E+00  0.00000000000E+00  0.30738067895E+03  0.30738067896E+03  0.25500000920E-02 0. -1.
        2   -1    0    0  501    0  0.00000000000E+00  0.00000000000E+00 -0.21212834716E+03  0.21212834717E+03  0.25500000920E-02 0.  1.
    10030    2    1    2    0    0  0.00000000000E+00  0.00000000000E+00  0.95252331793E+02  0.51950902614E+03  0.51070208686E+03 0.  0.
        2    1    3    3  502    0  0.27778990078E+00  0.25475982847E+03  0.65289589640E+02  0.26299311378E+03  0.25500000920E-02 0.  1.
       -2    1    3    3    0  502 -0.27778990078E+00 -0.25475982847E+03  0.29962742153E+02  0.25651591236E+03  0.25500000920E-02 0. -1.
</event>
<event>
 5   0  0.1709372E-01  0.5149871E+03  0.7818609E-02  0.1009939E+00
        2   -1    0    0  501    0  0.00000000000E+00  0.00000000000E+00  0.11673835558E+04  0.11673835558E+04  0.25500000920E-02 0.  1.
       -2   -1    0    0    0  501  0.00000000000E+00  0.00000000000E+00 -0.56796178502E+02  0.56796178560E+02  0.25500000920E-02 0. -1.
    10030    2    1    2    0    0  0.00000000000E+00  0.00000000000E+00  0.11105873773E+04  0.12241797344E+04  0.51498708665E+03 0.  0.
        4    1    3    3  502    0  0.17767690114E+02 -0.25538695722E+03  0.48962683895E+03  0.55251628306E+03  0.12699999809E+01 0. -1.
       -4    1    3    3    0  502 -0.17767690114E+02  0.25538695722E+03  0.62096053840E+03  0.67166345135E+03  0.12699999809E+01 0.  1.
</event>
<event>
 5   0  0.1074281E-01  0.4999139E+03  0.7818609E-02  0.1013801E+00
       -1   -1    0    0    0  501  0.00000000000E+00  0.00000000000E+00  0.20990802458E+03  0.20990802464E+03  0.50400001928E-02 0.  1.
        1   -1    0    0  501    0  0.00000000000E+00  0.00000000000E+00 -0.29764692196E+03  0.29764692200E+03  0.50400001928E-02 0. -1.
    10030    2    1    2    0    0  0.00000000000E+00  0.00000000000E+00 -0.87738897379E+02  0.50755494664E+03  0.49991390233E+03 0.  0.
        4    1    3    3  502    0  0.16131897500E+03 -0.49412667205E+02  0.14337129942E+03  0.22140994958E+03  0.12699999809E+01 0.  1.
       -4    1    3    3    0  502 -0.16131897500E+03  0.49412667205E+02 -0.23111019680E+03  0.28614499706E+03  0.12699999809E+01 0. -1.
</event>
<event>
 5   0  0.1760649E-01  0.5010681E+03  0.7818609E-02  0.1013501E+00
       -2   -1    0    0    0  501  0.00000000000E+00  0.00000000000E+00  0.66678526515E+02  0.66678526564E+02  0.25500000920E-02 0.  1.
        2   -1    0    0  501    0  0.00000000000E+00  0.00000000000E+00 -0.94134210674E+03  0.94134210674E+03  0.25500000920E-02 0. -1.
    10030    2    1    2    0    0  0.00000000000E+00  0.00000000000E+00 -0.87466358022E+03  0.10080206333E+04  0.50106807781E+03 0.  0.
        5    1    3    3  502    0  0.24554216931E+03  0.22287951138E+02 -0.52633878203E+03  0.58124204351E+03  0.46999998093E+01 0. -1.
       -5    1    3    3    0  502 -0.24554216931E+03 -0.22287951138E+02 -0.34832479819E+03  0.42677858979E+03  0.46999998093E+01 0.  1.
</event>
<event>
 5   0  0.1782124E-01  0.4978850E+03  0.7818609E-02  0.1014332E+00
        2   -1    0    0  501    0  0.00000000000E+00  0.00000000000E+00  0.23208065577E+04  0.23208065577E+04  0.25500000920E-02 0. -1.
       -2   -1    0    0    0  501  0.00000000000E+00  0.00000000000E+00 -0.26702942965E+02  0.26702943087E+02  0.25500000920E-02 0.  1.
    10030    2    1    2    0    0  0.00000000000E+00  0.00000000000E+00  0.22941036147E+04  0.23475095008E+04  0.49788498787E+03 0.  0.
        3    1    3    3  502    0  0.57558160163E+02  0.22107888065E+03  0.16134172689E+04  0.16295103888E+04  0.10100000352E+00 0.  1.
       -3    1    3    3    0  502 -0.57558160163E+02 -0.22107888065E+03  0.68068634577E+03  0.71799911197E+03  0.10100000352E+00 0. -1.
</event>
<event>
 5   0  0.1709372E-01  0.4218028E+03  0.7818609E-02  0.1036481E+00
       -2   -1    0    0    0  501  0.00000000000E+00  0.00000000000E+00  0.77555087699E+02  0.77555087741E+02  0.25500000920E-02 0.  1.
        2   -1    0    0  501    0  0.00000000000E+00  0.00000000000E+00 -0.57352007594E+03  0.57352007594E+03  0.25500000920E-02 0. -1.
    10030    2    1    2    0    0  0.00000000000E+00  0.00000000000E+00 -0.49596498824E+03  0.65107516369E+03  0.42180279659E+03 0.  0.
        4    1    3    3  502    0  0.20372440652E+03  0.13095376236E+02 -0.32969851445E+03  0.38778582493E+03  0.12699999809E+01 0. -1.
       -4    1    3    3    0  502 -0.20372440652E+03 -0.13095376236E+02 -0.16626647379E+03  0.26328933875E+03  0.12699999809E+01 0.  1.
</event>
<event>
 5   0  0.1068522E-01  0.4961468E+03  0.7818609E-02  0.1014790E+00
        1   -1    0    0  501    0  0.00000000000E+00  0.00000000000E+00  0.42026359741E+03  0.42026359744E+03  0.50400001928E-02 0. -1.
       -1   -1    0    0    0  501  0.00000000000E+00  0.00000000000E+00 -0.14643291103E+03  0.14643291111E+03  0.50400001928E-02 0.  1.
    10030    2    1    2    0    0  0.00000000000E+00  0.00000000000E+00  0.27383068638E+03  0.56669650855E+03  0.49614684117E+03 0.  0.
        2    1    3    3  502    0 -0.24188529840E+03 -0.54625756344E+01  0.74333006428E+02  0.25310814520E+03  0.25500000920E-02 0. -1.
       -2    1    3    3    0  502  0.24188529840E+03  0.54625756344E+01  0.19949767996E+03  0.31358836335E+03  0.25500000920E-02 0.  1.
</event>
<event>
 5   0  0.1782124E-01  0.4924891E+03  0.7818609E-02  0.1015758E+00
        2   -1    0    0  501    0  0.00000000000E+00  0.00000000000E+00  0.17190476808E+04  0.17190476808E+04  0.25500000920E-02 0.  1.
       -2   -1    0    0    0  501  0.00000000000E+00  0.00000000000E+00 -0.35273237535E+02  0.35273237627E+02  0.25500000920E-02 0. -1.
    10030    2    1    2    0    0  0.00000000000E+00  0.00000000000E+00  0.16837744433E+04  0.17543209185E+04  0.49248909536E+03 0.  0.
        3    1    3    3  502    0  0.13515276042E+03 -0.13712108827E+02  0.15734917762E+04  0.15793450131E+04  0.10100000352E+00 0.  1.
       -3    1    3    3    0  502 -0.13515276042E+03  0.13712108827E+02  0.11028266711E+03  0.17497590532E+03  0.10100000352E+00 0. -1.
</event>
<event>
 5   0  0.1141970E-01  0.4950759E+03  0.7818609E-02  0.1015072E+00
       -1   -1    0    0    0  501  0.00000000000E+00  0.00000000000E+00  0.28576245552E+03  0.28576245557E+03  0.50400001928E-02 0.  1.
        1   -1    0    0  501    0  0.00000000000E+00  0.00000000000E+00 -0.21442649559E+03  0.21442649565E+03  0.50400001928E-02 0. -1.
    10030    2    1    2    0    0  0.00000000000E+00  0.00000000000E+00  0.71335959930E+02  0.50018895122E+03  0.49507592119E+03 0.  0.
        3    1    3    3  502    0  0.14314242997E+03  0.19259996818E+02  0.23877735804E+03  0.27906153380E+03  0.10100000352E+00 0.  1.
       -3    1    3    3    0  502 -0.14314242997E+03 -0.19259996818E+02 -0.16744139811E+03  0.22112741742E+03  0.10100000352E+00 0. -1.
</event>
<event>
 5   0  0.1709372E-01  0.4058555E+03  0.7818609E-02  0.1041771E+00
       -2   -1    0    0    0  501  0.00000000000E+00  0.00000000000E+00  0.51792436285E+03  0.51792436286E+03  0.25500000920E-02 0. -1.
        2   -1    0    0  501    0  0.00000000000E+00  0.00000000000E+00 -0.79509026039E+02  0.79509026080E+02  0.25500000920E-02 0.  1.
    10030    2    1    2    0    0  0.00000000000E+00  0.00000000000E+00  0.43841533681E+03  0.59743338894E+03  0.40585545046E+03 0.  0.
        4    1    3    3  502    0 -0.28384630773E+02 -0.15372591878E+03  0.40966818533E+03  0.43848258841E+03  0.12699999809E+01 0. -1.
       -4    1    3    3    0  502  0.28384630773E+02  0.15372591878E+03  0.28747151484E+02  0.15895080053E+03  0.12699999809E+01 0.  1.
</event>
<event>
 5   0  0.1147245E-01  0.5014656E+03  0.7818609E-02  0.1013397E+00
       -1   -1    0    0    0  501  0.00000000000E+00  0.00000000000E+00  0.50590826088E+02  0.50590826339E+02  0.50400001928E-02 0.  1.
        1   -1    0    0  501    0  0.00000000000E+00  0.00000000000E+00 -0.12426546521E+04  0.12426546521E+04  0.50400001928E-02 0. -1.
    10030    2    1    2    0    0  0.00000000000E+00  0.00000000000E+00 -0.11920638260E+04  0.12932454784E+04  0.50146555438E+03 0.  0.
        1    1    3    3  502    0  0.16130273846E+03  0.16055489323E+01 -0.10099942046E+03  0.19032087164E+03  0.50400001928E-02 0.  1.
       -1    1    3    3    0  502 -0.16130273846E+03 -0.16055489323E+01 -0.10910644055E+04  0.11029246068E+04  0.50400001928E-02 0. -1.
</event>
<event>
 5   0  0.1760649E-01  0.4899880E+03  0.7818609E-02  0.1016426E+00
       -2   -1    0    0    0  501  0.00000000000E+00  0.00000000000E+00  0.18508865259E+04  0.18508865259E+04  0.25500000920E-02 0. -1.
        2   -1    0    0  501    0  0.00000000000E+00  0.00000000000E+00 -0.32428819715E+02  0.32428819816E+02  0.25500000920E-02 0.  1.
    10030    2    1    2    0    0  0.00000000000E+00  0.00000000000E+00  0.18184577062E+04  0.18833153457E+04  0.48998802254E+03 0.  0.
        5    1    3    3  502    0 -0.46857657894E+01  0.10176557444E+03  0.53031696450E+02  0.11494624556E+03  0.46999998093E+01 0.  1.
       -5    1    3    3    0  502  0.46857657894E+01 -0.10176557444E+03  0.17654260097E+04  0.17683691002E+04  0.46999998093E+01 0. -1.
</event>
<event>
 5   0  0.1123271E-01  0.4952554E+03  0.7818609E-02  0.1015025E+00
        1   -1    0    0  501    0  0.00000000000E+00  0.00000000000E+00  0.22748186976E+03  0.22748186982E+03  0.50400001928E-02 0.  1.
       -1   -1    0    0    0  501  0.00000000000E+00  0.00000000000E+00 -0.26955770081E+03  0.26955770086E+03  0.50400001928E-02 0. -1.
    10030    2    1    2    0    0  0.00000000000E+00  0.00000000000E+00 -0.42075831049E+02  0.49703957068E+03  0.49525544849E+03 0.  0.
        5    1    3    3  502    0 -0.22312327192E+03 -0.10718165379E+03 -0.26105703792E+02  0.24894878821E+03  0.46999998093E+01 0. -1.
       -5    1    3    3    0  502  0.22312327192E+03  0.10718165379E+03 -0.15970127257E+02  0.24809078247E+03  0.46999998093E+01 0.  1.
</event>
<event>
 5   0  0.1123271E-01  0.5861536E+03  0.7818609E-02  0.9934557E-01
        1   -1    0    0  501    0  0.00000000000E+00  0.00000000000E+00  0.12392035123E+04  0.12392035123E+04  0.50400001928E-02 0. -1.
       -1   -1    0    0    0  501  0.00000000000E+00  0.00000000000E+00 -0.69313877468E+02  0.69313877652E+02  0.50400001928E-02 0.  1.
    10030    2    1    2    0    0  0.00000000000E+00  0.00000000000E+00  0.11698896349E+04  0.13085173900E+04  0.58615356534E+03 0.  0.
        5    1    3    3  502    0 -0.44580833464E+02 -0.10187296362E+03 -0.20299253535E+02  0.11313576411E+03  0.46999998093E+01 0.  1.
       -5    1    3    3    0  502  0.44580833464E+02  0.10187296362E+03  0.11901888884E+04  0.11953816259E+04  0.46999998093E+01 0. -1.
</event>
<event>
 5   0  0.1760649E-01  0.5040811E+03  0.7818609E-02  0.1012719E+00
        2   -1    0    0  501    0  0.00000000000E+00  0.00000000000E+00  0.66891997921E+03  0.66891997921E+03  0.25500000920E-02 0.  1.
       -2   -1    0    0    0  501  0.00000000000E+00  0.00000000000E+00 -0.94965690865E+02  0.94965690899E+02  0.25500000920E-02 0. -1.
    10030    2    1    2    0    0  0.00000000000E+00  0.00000000000E+00  0.57395428834E+03  0.76388567011E+03  0.50408113622E+03 0.  0.
        5    1    3    3  502    0 -0.21104651841E+02  0.12071359468E+03 -0.46704581136E+02  0.13122723104E+03  0.46999998093E+01 0. -1.
       -5    1    3    3    0  502  0.21104651841E+02 -0.12071359468E+03  0.62065886948E+03  0.63265843907E+03  0.46999998093E+01 0.  1.
</event>
<event>
 5   0  0.1074281E-01  0.5049796E+03  0.7818609E-02  0.1012487E+00
       -1   -1    0    0    0  501  0.00000000000E+00  0.00000000000E+00  0.23108345488E+03  0.23108345494E+03  0.50400001928E-02 0.  1.
        1   -1    0    0  501    0  0.00000000000E+00  0.00000000000E+00 -0.27587913624E+03  0.27587913629E+03  0.50400001928E-02 0. -1.
    10030    2    1    2    0    0  0.00000000000E+00  0.00000000000E+00 -0.44795681355E+02  0.50696259123E+03  0.50497961923E+03 0.  0.
        4    1    3    3  502    0  0.41092002806E+02 -0.23293687846E+03  0.66274243692E+02  0.24564614859E+03  0.12699999809E+01 0.  1.
       -4    1    3    3    0  502 -0.41092002806E+02  0.23293687846E+03 -0.11106992505E+03  0.26131644263E+03  0.12699999809E+01 0. -1.
</event>
<event>
 5   0  0.1074281E-01  0.4951658E+03  0.7818609E-02  0.1015048E+00
        1   -1    0    0  501    0  0.00000000000E+00  0.00000000000E+00  0.21368554672E+03  0.21368554678E+03  0.50400001928E-02 0.  1.
       -1   -1    0    0    0  501  0.00000000000E+00  0.00000000000E+00 -0.28685744166E+03  0.28685744171E+03  0.50400001928E-02 0. -1.
    10030    2    1    2    0    0  0.00000000000E+00  0.00000000000E+00 -0.73171894939E+02  0.50054298849E+03  0.49516578750E+03 0.  0.
        4    1    3    3  502    0  0.21204892524E+03  0.12083429341E+03  0.54590381006E+01  0.24412514650E+03  0.12699999809E+01 0.  1.
       -4    1    3    3    0  502 -0.21204892524E+03 -0.12083429341E+03 -0.78630933040E+02  0.25641784199E+03  0.12699999809E+01 0. -1.
</event>
<event>
 5   0  0.1123271E-01  0.5091783E+03  0.7818609E-02  0.1011411E+00
       -1   -1    0    0    0  501  0.00000000000E+00  0.00000000000E+00  0.26189507613E+03  0.26189507617E+03  0.50400001928E-02 0. -1.
        1   -1    0    0  501    0  0.00000000000E+00  0.00000000000E+00 -0.24748700926E+03  0.24748700931E+03  0.50400001928E-02 0.  1.
    10030    2    1    2    0    0  0.00000000000E+00  0.00000000000E+00  0.14408066869E+02  0.50938208548E+03  0.50917827587E+03 0.  0.
        5    1    3    3  502    0 -0.19278523037E+03 -0.16569012454E+03  0.20406919553E+02  0.25506449142E+03  0.46999998093E+01 0.  1.
       -5    1    3    3    0  502  0.19278523037E+03  0.16569012454E+03 -0.59988526836E+01  0.25431759406E+03  0.46999998093E+01 0. -1.
</event>
<event>
 5   0  0.1068522E-01  0.4913321E+03  0.7818609E-02  0.1016066E+00
        1   -1    0    0  501    0  0.00000000000E+00  0.00000000000E+00  0.43541873889E+03  0.43541873892E+03  0.50400001928E-02 0. -1.
       -1   -1    0    0    0  501  0.00000000000E+00  0.00000000000E+00 -0.13860637210E+03  0.13860637219E+03  0.50400001928E-02 0.  1.
    10030    2    1    2    0    0  0.00000000000E+00  0.00000000000E+00  0.29681236679E+03  0.57402511112E+03  0.49133211488E+03 0.  0.
        2    1    3    3  502    0 -0.17905900154E+03 -0.81016743682E+02  0.32061102477E+03  0.37605487366E+03  0.25500000920E-02 0. -1.
       -2    1    3    3    0  502  0.17905900154E+03  0.81016743682E+02 -0.23798657980E+02  0.19797023746E+03  0.25500000920E-02 0.  1.
</event>
<event>
 5   0  0.1068522E-01  0.4988503E+03  0.7818609E-02  0.1014079E+00
       -1   -1    0    0    0  501  0.00000000000E+00  0.00000000000E+00  0.38318199838E+03  0.38318199841E+03  0.50400001928E-02 0. -1.
        1   -1    0    0  501    0  0.00000000000E+00  0.00000000000E+00 -0.16235862036E+03  0.16235862044E+03  0.50400001928E-02 0.  1.
    10030    2    1    2    0    0  0.00000000000E+00  0.00000000000E+00  0.22082337802E+03  0.54554061885E+03  0.49885028069E+03 0.  0.
        2    1    3    3  502    0  0.13576393148E+03 -0.20874786157E+03  0.12608432712E+03  0.27911426398E+03  0.25500000920E-02 0.  1.
       -2    1    3    3    0  502 -0.13576393148E+03  0.20874786157E+03  0.94739050897E+02  0.26642635488E+03  0.25500000920E-02 0. -1.
</event>
<event>
 5   0  0.1074281E-01  0.5008137E+03  0.7818609E-02  0.1013567E+00
        1   -1    0    0  501    0  0.00000000000E+00  0.00000000000E+00  0.14555947987E+04  0.14555947988E+04  0.50400001928E-02 0. -1.
       -1   -1    0    0    0  501  0.00000000000E+00  0.00000000000E+00 -0.43077643223E+02  0.43077643518E+02  0.50400001928E-02 0.  1.
    10030    2    1    2    0    0  0.00000000000E+00  0.00000000000E+00  0.14125171555E+04  0.14986724423E+04  0.50081371245E+03 0.  0.
        4    1    3    3  502    0 -0.20945648468E+03  0.94880010163E+01  0.11159101288E+04  0.11354378317E+04  0.12699999809E+01 0. -1.
       -4    1    3    3    0  502  0.20945648468E+03 -0.94880010163E+01  0.29660702674E+03  0.36323461062E+03  0.12699999809E+01 0.  1.
</event>
<event>
 5   0  0.1147245E-01  0.4917592E+03  0.7818609E-02  0.1015953E+00
        1   -1    0    0  501    0  0.00000000000E+00  0.00000000000E+00  0.29945840548E+03  0.29945840552E+03  0.50400001928E-02 0. -1.
       -1   -1    0    0    0  501  0.00000000000E+00  0.00000000000E+00 -0.20188709671E+03  0.20188709678E+03  0.50400001928E-02 0.  1.
    10030    2    1    2    0    0  0.00000000000E+00  0.00000000000E+00  0.97571308761E+02  0.50134550230E+03  0.49175924229E+03 0.  0.
        1    1    3    3  502    0 -0.57732678360E+02  0.10859687706E+03 -0.16827423614E+03  0.20842879463E+03  0.50400001928E-02 0.  1.
       -1    1    3    3    0  502  0.57732678360E+02 -0.10859687706E+03  0.26584554490E+03  0.29291670766E+03  0.50400001928E-02 0. -1.
</event>
<event>
 5   0  0.1683148E-01  0.5040566E+03  0.7818609E-02  0.1012725E+00
        2   -1    0    0  501    0  0.00000000000E+00  0.00000000000E+00  0.30134145418E+03  0.30134145419E+03  0.25500000920E-02 0.  1.
       -2   -1    0    0    0  501  0.00000000000E+00  0.00000000000E+00 -0.21078504494E+03  0.21078504496E+03  0.25500000920E-02 0. -1.
    10030    2    1    2    0    0  0.00000000000E+00  0.00000000000E+00  0.90556409233E+02  0.51212649915E+03  0.50405663162E+03 0.  0.
        2    1    3    3  502    0  0.55978264372E+02 -0.96686084772E+01 -0.20419560863E+03  0.21195021742E+03  0.25500000920E-02 0. -1.
       -2    1    3    3    0  502 -0.55978264372E+02  0.96686084772E+01  0.29475201787E+03  0.30017628173E+03  0.25500000920E-02 0.  1.
</event>
<event>
 5   0  0.1147245E-01  0.5087084E+03  0.7818609E-02  0.1011531E+00
       -1   -1    0    0    0  501  0.00000000000E+00  0.00000000000E+00  0.35651839936E+03  0.35651839939E+03  0.50400001928E-02 0.  1.
        1   -1    0    0  501    0  0.00000000000E+00  0.00000000000E+00 -0.18146628587E+03  0.18146628594E+03  0.50400001928E-02 0. -1.
    10030    2    1    2    0    0  0.00000000000E+00  0.00000000000E+00  0.17505211349E+03  0.53798468533E+03  0.50870844225E+03 0.  0.
        1    1    3    3  502    0 -0.13508885675E+03  0.19749458979E+03  0.17876363294E+03  0.29867967574E+03  0.50400001928E-02 0.  1.
       -1    1    3    3    0  502  0.13508885675E+03 -0.19749458979E+03 -0.37115194499E+01  0.23930500959E+03  0.50400001928E-02 0. -1.
</event>
<event>
 5   0  0.7220250E-02  0.4999565E+03  0.7818609E-02  0.1013790E+00
        3   -1    0    0  501    0  0.00000000000E+00  0.00000000000E+00  0.11598008779E+03  0.11598013177E+03  0.10100000352E+00 0. -1.
       -3   -1    0    0    0  501  0.00000000000E+00  0.00000000000E+00 -0.53879176847E+03  0.53879177794E+03  0.10100000352E+00 0.  1.
    10030    2    1    2    0    0  0.00000000000E+00  0.00000000000E+00 -0.42281168068E+03  0.65477190971E+03  0.49995653453E+03 0.  0.
        5    1    3    3  502    0 -0.23713812924E+03 -0.77926656976E+02 -0.22797121884E+03  0.33808286384E+03  0.46999998093E+01 0.  1.
       -5    1    3    3    0  502  0.23713812924E+03  0.77926656976E+02 -0.19484046184E+03  0.31668904587E+03  0.46999998093E+01 0. -1.
</event>
<event>
 5   0  0.1074281E-01  0.5080092E+03  0.7818609E-02  0.1011709E+00
        1   -1    0    0  501    0  0.00000000000E+00  0.00000000000E+00  0.38673104654E+03  0.38673104657E+03  0.50400001928E-02 0.  1.
       -1   -1    0    0    0  501  0.00000000000E+00  0.00000000000E+00 -0.16682999278E+03  0.16682999286E+03  0.50400001928E-02 0. -1.
    10030    2    1    2    0    0  0.00000000000E+00  0.00000000000E+00  0.21990105376E+03  0.55356103943E+03  0.50800920359E+03 0.  0.
        4    1    3    3  502    0  0.21775038639E+03  0.26011623099E+02 -0.29700831445E+02  0.22130428734E+03  0.12699999809E+01 0. -1.
       -4    1    3    3    0  502 -0.21775038639E+03 -0.26011623099E+02  0.24960188520E+03  0.33225675208E+03  0.12699999809E+01 0.  1.
</event>
<event>
 5   0  0.7220250E-02  0.5107381E+03  0.7818609E-02  0.1011014E+00
       -3   -1    0    0    0  501  0.00000000000E+00  0.00000000000E+00  0.37768275364E+03  0.37768276714E+03  0.10100000352E+00 0. -1.
        3   -1    0    0  501    0  0.00000000000E+00  0.00000000000E+00 -0.17266697707E+03  0.17266700661E+03  0.10100000352E+00 0.  1.
    10030    2    1    2    0    0  0.00000000000E+00  0.00000000000E+00  0.20501577657E+03  0.55034977375E+03  0.51073809808E+03 0.  0.
        5    1    3    3  502    0  0.51677452685E+02 -0.24821454356E+03  0.13501804640E+03  0.28728554019E+03  0.46999998093E+01 0.  1.
       -5    1    3    3    0  502 -0.51677452685E+02  0.24821454356E+03  0.69997730168E+02  0.26306423356E+03  0.46999998093E+01 0. -1.
</event>
<event>
 5   0  0.1760649E-01  0.4943842E+03  0.7818609E-02  0.1015255E+00
        2   -1    0    0  501    0  0.00000000000E+00  0.00000000000E+00  0.10657682551E+04  0.10657682551E+04  0.25500000920E-02 0.  1.
       -2   -1    0    0    0  501  0.00000000000E+00  0.00000000000E+00 -0.57333238842E+02  0.57333238899E+02  0.25500000920E-02 0. -1.
    10030    2    1    2    0    0  0.00000000000E+00  0.00000000000E+00  0.10084350163E+04  0.11231014940E+04  0.49438424714E+03 0.  0.
        5    1    3    3  502    0 -0.11449271220E+03  0.31218679283E+02  0.11727799412E+02  0.11934327949E+03  0.46999998093E+01 0. -1.
       -5    1    3    3    0  502  0.11449271220E+03 -0.31218679283E+02  0.99670721686E+03  0.10037582145E+04  0.46999998093E+01 0.  1.
</event>
<event>
 5   0  0.1760649E-01  0.4979357E+03  0.7818609E-02  0.1014319E+00
       -2   -1    0    0    0  501  0.00000000000E+00  0.00000000000E+00  0.63601909971E+03  0.63601909972E+03  0.25500000920E-02 0.  1.
        2   -1    0    0  501    0  0.00000000000E+00  0.00000000000E+00 -0.97457763581E+02  0.97457763614E+02  0.25500000920E-02 0. -1.
    10030    2    1    2    0    0  0.00000000000E+00  0.00000000000E+00  0.53856133613E+03  0.73347686333E+03  0.49793573508E+03 0.  0.
        5    1    3    3  502    0 -0.24449670596E+03  0.46591044620E+02  0.27470183858E+03  0.37071897009E+03  0.46999998093E+01 0.  1.
       -5    1    3    3    0  502  0.24449670596E+03 -0.46591044620E+02  0.26385949756E+03  0.36275789325E+03  0.46999998093E+01 0. -1.
</event>
<event>
 5   0  0.1141970E-01  0.5030199E+03  0.7818609E-02  0.1012994E+00
        1   -1    0    0  501    0  0.00000000000E+00  0.00000000000E+00  0.47682877733E+03  0.47682877735E+03  0.50400001928E-02 0. -1.
       -1   -1    0    0    0  501  0.00000000000E+00  0.00000000000E+00 -0.13266239202E+03  0.13266239211E+03  0.50400001928E-02 0.  1.
    10030    2    1    2    0    0  0.00000000000E+00  0.00000000000E+00  0.34416638531E+03  0.60949116947E+03  0.50301986530E+03 0.  0.
        3    1    3    3  502    0  0.58316242779E+02 -0.17819248729E+03 -0.31042797082E+02  0.19004476354E+03  0.10100000352E+00 0.  1.
       -3    1    3    3    0  502 -0.58316242779E+02  0.17819248729E+03  0.37520918239E+03  0.41944640593E+03  0.10100000352E+00 0. -1.
</event>
<event>
 5   0  0.1074281E-01  0.4921998E+03  0.7818609E-02  0.1015835E+00
        1   -1    0    0  501    0  0.00000000000E+00  0.00000000000E+00  0.15246820642E+03  0.15246820651E+03  0.50400001928E-02 0. -1.
       -1   -1    0    0    0  501  0.00000000000E+00  0.00000000000E+00 -0.39723141494E+03  0.39723141498E+03  0.50400001928E-02 0.  1.
    10030    2    1    2    0    0  0.00000000000E+00  0.00000000000E+00 -0.24476320852E+03  0.54969962148E+03  0.49219980253E+03 0.  0.
        4    1    3    3  502    0 -0.14669050400E+03  0.17369381962E+03 -0.22759965246E+03  0.32169995592E+03  0.12699999809E+01 0.  1.
       -4    1    3    3    0  502  0.14669050400E+03 -0.17369381962E+03 -0.17163556058E+02  0.22799966556E+03  0.12699999809E+01 0. -1.
</event>
<event>
 5   0  0.1068522E-01  0.5003063E+03  0.7818609E-02  0.1013699E+00
       -1   -1    0    0    0  501  0.00000000000E+00  0.00000000000E+00  0.31318453850E+02  0.31318454255E+02  0.50400001928E-02 0.  1.
        1   -1    0    0  501    0  0.00000000000E+00  0.00000000000E+00 -0.19980746483E+04  0.19980746483E+04  0.50400001928E-02 0. -1.
    10030    2    1    2    0    0  0.00000000000E+00  0.00000000000E+00 -0.19667561944E+04  0.20293931025E+04  0.50030634246E+03 0.  0.
        2    1    3    3  502    0  0.22986415758E+03 -0.51016733539E+02 -0.64071378007E+03  0.68260851593E+03  0.25500000920E-02 0.  1.
       -2    1    3    3    0  502 -0.22986415758E+03  0.51016733539E+02 -0.13260424143E+04  0.13467845866E+04  0.25500000920E-02 0. -1.
</event>
<event>
 5   0  0.1709372E-01  0.5294741E+03  0.7818609E-02  0.1006360E+00
        2   -1    0    0  501    0  0.00000000000E+00  0.00000000000E+00  0.14340324395E+04  0.14340324395E+04  0.25500000920E-02 0. -1.
       -2   -1    0    0    0  501  0.00000000000E+00  0.00000000000E+00 -0.48873160650E+02  0.48873160717E+02  0.25500000920E-02 0.  1.
    10030    2    1    2    0    0  0.00000000000E+00  0.00000000000E+00  0.13851592789E+04  0.14829056003E+04  0.52947407055E+03 0.  0.
        4    1    3    3  502    0  0.21834662847E+03  0.37229595935E+02  0.28649739102E+03  0.36213762707E+03  0.12699999809E+01 0.  1.
       -4    1    3    3    0  502 -0.21834662847E+03 -0.37229595935E+02  0.10986618879E+04  0.11207679732E+04  0.12699999809E+01 0. -1.
</event>
<event>
 5   0  0.1123271E-01  0.5020481E+03  0.7818609E-02  0.1013246E+00
        1   -1    0    0  501    0  0.00000000000E+00  0.00000000000E+00  0.33650376684E+03  0.33650376688E+03  0.50400001928E-02 0.  1.
       -1   -1    0    0    0  501  0.00000000000E+00  0.00000000000E+00 -0.18725814855E+03  0.18725814862E+03  0.50400001928E-02 0. -1.
    10030    2    1    2    0    0  0.00000000000E+00  0.00000000000E+00  0.14924561829E+03  0.52376191550E+03  0.50204809486E+03 0.  0.
        5    1    3    3  502    0  0.11869863614E+03  0.58429105755E+02  0.29712555288E+03  0.32528297034E+03  0.46999998093E+01 0.  1.
       -5    1    3    3    0  502 -0.11869863614E+03 -0.58429105755E+02 -0.14787993459E+03  0.19847894516E+03  0.46999998093E+01 0. -1.
</event>
<event>
 5   0  0.1141970E-01  0.4982494E+03  0.7818609E-02  0.1014237E+00
        1   -1    0    0  501    0  0.00000000000E+00  0.00000000000E+00  0.75829735729E+03  0.75829735731E+03  0.50400001928E-02 0.  1.
       -1   -1    0    0    0  501  0.00000000000E+00  0.00000000000E+00 -0.81845341114E+02  0.81845341269E+02  0.50400001928E-02 0. -1.
    10030    2    1    2    0    0  0.00000000000E+00  0.00000000000E+00  0.67645201618E+03  0.84014269858E+03  0.49824935904E+03 0.  0.
        3    1    3    3  502    0 -0.24172659183E+03  0.29607103771E+02  0.42672717104E+03  0.49132923228E+03  0.10100000352E+00 0.  1.
       -3    1    3    3    0  502  0.24172659183E+03 -0.29607103771E+02  0.24972484514E+03  0.34881346630E+03  0.10100000352E+00 0. -1.
</event>
<event>
 5   0  0.1683148E-01  0.5112016E+03  0.7818609E-02  0.1010896E+00
        2   -1    0    0  501    0  0.00000000000E+00  0.00000000000E+00  0.15227268375E+03  0.15227268377E+03  0.25500000920E-02 0.  1.
       -2   -1    0    0    0  501  0.00000000000E+00  0.00000000000E+00 -0.42904457225E+03  0.42904457225E+03  0.25500000920E-02 0. -1.
    10030    2    1    2    0    0  0.00000000000E+00  0.00000000000E+00 -0.27677188850E+03  0.58131725602E+03  0.51120159809E+03 0.  0.
        2    1    3    3  502    0 -0.15850265993E+03 -0.17439157049E+03 -0.25093738577E+03  0.34424567485E+03  0.25500000920E-02 0. -1.
       -2    1    3    3    0  502  0.15850265993E+03  0.17439157049E+03 -0.25834502726E+02  0.23707158118E+03  0.25500000920E-02 0.  1.
</event>
<event>
 5   0  0.1760649E-01  0.5009801E+03  0.7818609E-02  0.1013523E+00
       -2   -1    0    0    0  501  0.00000000000E+00  0.00000000000E+00  0.10484084568E+03  0.10484084571E+03  0.25500000920E-02 0. -1.
        2   -1    0    0  501    0  0.00000000000E+00  0.00000000000E+00 -0.59848116182E+03  0.59848116182E+03  0.25500000920E-02 0.  1.
    10030    2    1    2    0    0  0.00000000000E+00  0.00000000000E+00 -0.49364031614E+03  0.70332200753E+03  0.50098012392E+03 0.  0.
        5    1    3    3  502    0  0.54188668896E+02  0.97695086082E+02  0.67859790246E+02  0.13079672325E+03  0.46999998093E+01 0. -1.
       -5    1    3    3    0  502 -0.54188668896E+02 -0.97695086082E+02 -0.56150010638E+03  0.57252528429E+03  0.46999998093E+01 0.  1.
</event>
<event>
 5   0  0.1782124E-01  0.5077104E+03  0.7818609E-02  0.1011786E+00
       -2   -1    0    0    0  501  0.00000000000E+00  0.00000000000E+00  0.33934793164E+02  0.33934793260E+02  0.25500000920E-02 0.  1.
        2   -1    0    0  501    0  0.00000000000E+00  0.00000000000E+00 -0.18990084985E+04  0.18990084985E+04  0.25500000920E-02 0. -1.
    10030    2    1    2    0    0  0.00000000000E+00  0.00000000000E+00 -0.18650737053E+04  0.19329432917E+04  0.50771039267E+03 0.  0.
        3    1    3    3  502    0  0.13720459084E+03 -0.28004687859E+02 -0.12641185772E+03  0.18865134578E+03  0.10100000352E+00 0.  1.
       -3    1    3    3    0  502 -0.13720459084E+03  0.28004687859E+02 -0.17386618476E+04  0.17442919459E+04  0.10100000352E+00 0. -1.
</event>
<event>
 5   0  0.7220250E-02  0.4793143E+03  0.7818609E-02  0.1019324E+00
        4   -1    0    0  501    0  0.00000000000E+00  0.00000000000E+00  0.34013373342E+02  0.34037074875E+02  0.12699999809E+01 0.  1.
       -4   -1    0    0    0  501  0.00000000000E+00  0.00000000000E+00 -0.16880048777E+04  0.16880053555E+04  0.12699999809E+01 0. -1.
    10030    2    1    2    0    0  0.00000000000E+00  0.00000000000E+00 -0.16539915044E+04  0.17220424303E+04  0.47931433879E+03 0.  0.
        4    1    3    3  502    0  0.62519571659E+02  0.20938299132E+03 -0.11805459523E+04  0.12005999718E+04  0.12699999809E+01 0. -1.
       -4    1    3    3    0  502 -0.62519571659E+02 -0.20938299132E+03 -0.47344555211E+03  0.52144245858E+03  0.12699999809E+01 0.  1.
</event>
<event>
 5   0  0.1782124E-01  0.4976720E+03  0.7818609E-02  0.1014388E+00
        2   -1    0    0  501    0  0.00000000000E+00  0.00000000000E+00  0.13802561955E+04  0.13802561955E+04  0.25500000920E-02 0.  1.
       -2   -1    0    0    0  501  0.00000000000E+00  0.00000000000E+00 -0.44860778136E+02  0.44860778208E+02  0.25500000920E-02 0. -1.
    10030    2    1    2    0    0  0.00000000000E+00  0.00000000000E+00  0.13353954174E+04  0.14251169737E+04  0.49767204868E+03 0.  0.
        3    1    3    3  502    0  0.95052855437E+02  0.13320525818E+03  0.12044974354E+04  0.12155627372E+04  0.10100000352E+00 0.  1.
       -3    1    3    3    0  502 -0.95052855437E+02 -0.13320525818E+03  0.13089798199E+03  0.20955423647E+03  0.10100000352E+00 0. -1.
</event>
<event>
 5   0  0.1123271E-01  0.5377399E+03  0.7818609E-02  0.1004372E+00
        1   -1    0    0  501    0  0.00000000000E+00  0.00000000000E+00  0.10244473530E+04  0.10244473530E+04  0.50400001928E-02 0. -1.
       -1   -1    0    0    0  501  0.00000000000E+00  0.00000000000E+00 -0.70565893261E+02  0.70565893441E+02  0.50400001928E-02 0.  1.
    10030    2    1    2    0    0  0.00000000000E+00  0.00000000000E+00  0.95388145969E+03  0.10950132464E+04  0.53773987267E+03 0.  0.
        5    1    3    3  502    0 -0.24444313773E+03  0.24432495740E+02  0.69926005360E+03  0.74117211698E+03  0.46999998093E+01 0.  1.
       -5    1    3    3    0  502  0.24444313773E+03 -0.24432495740E+02  0.25462140609E+03  0.35384112942E+03  0.46999998093E+01 0. -1.
</event>
<event>
 5   0  0.1141970E-01  0.5007677E+03  0.7818609E-02  0.1013579E+00
       -1   -1    0    0    0  501  0.00000000000E+00  0.00000000000E+00  0.10344922789E+03  0.10344922801E+03  0.50400001928E-02 0. -1.
        1   -1    0    0  501    0  0.00000000000E+00  0.00000000000E+00 -0.60601776656E+03  0.60601776658E+03  0.50400001928E-02 0.  1.
    10030    2    1    2    0    0  0.00000000000E+00  0.00000000000E+00 -0.50256853867E+03  0.70946699460E+03  0.50076769101E+03 0.  0.
        3    1    3    3  502    0 -0.12276083782E+03 -0.38204198101E+01 -0.56040803979E+03  0.57370898562E+03  0.10100000352E+00 0.  1.
       -3    1    3    3    0  502  0.12276083782E+03  0.38204198101E+01  0.57839501122E+02  0.13575800898E+03  0.10100000352E+00 0. -1.
</event>
<event>
 5   0  0.7220250E-02  0.5150378E+03  0.7818609E-02  0.1009927E+00
        3   -1    0    0  501    0  0.00000000000E+00  0.00000000000E+00  0.11282201107E+03  0.11282205628E+03  0.10100000352E+00 0. -1.
       -3   -1    0    0    0  501  0.00000000000E+00  0.00000000000E+00 -0.58779290209E+03  0.58779291076E+03  0.10100000352E+00 0.  1.
    10030    2    1    2    0    0  0.00000000000E+00  0.00000000000E+00 -0.47497089101E+03  0.70061496704E+03  0.51503784787E+03 0.  0.
        4    1    3    3  502    0  0.31484083147E+02  0.12042478952E+03 -0.54414880878E+03  0.55820508456E+03  0.12699999809E+01 0.  1.
       -4    1    3    3    0  502 -0.31484083147E+02 -0.12042478952E+03  0.69177917770E+02  0.14240988249E+03  0.12699999809E+01 0. -1.
</event>
<event>
 5   0  0.1074281E-01  0.5316718E+03  0.7818609E-02  0.1005827E+00
       -1   -1    0    0    0  501  0.00000000000E+00  0.00000000000E+00  0.73232241637E+02  0.73232241810E+02  0.50400001928E-02 0.  1.
        1   -1    0    0  501    0  0.00000000000E+00  0.00000000000E+00 -0.96499484870E+03  0.96499484871E+03  0.50400001928E-02 0. -1.
    10030    2    1    2    0    0  0.00000000000E+00  0.00000000000E+00 -0.89176260706E+03  0.10382270905E+04  0.53167183877E+03 0.  0.
        4    1    3    3  502    0 -0.61727141240E+02 -0.52360092520E+02  0.48576860268E+02  0.94409446073E+02  0.12699999809E+01 0.  1.
       -4    1    3    3    0  502  0.61727141240E+02  0.52360092520E+02 -0.94033946733E+03  0.94381764445E+03  0.12699999809E+01 0. -1.
</event>
<event>
 5   0  0.1709372E-01  0.5070093E+03  0.7818609E-02  0.1011965E+00
        2   -1    0    0  501    0  0.00000000000E+00  0.00000000000E+00  0.89525812169E+03  0.89525812170E+03  0.25500000920E-02 0. -1.
       -2   -1    0    0    0  501  0.00000000000E+00  0.00000000000E+00 -0.71783328635E+02  0.71783328680E+02  0.25500000920E-02 0.  1.
    10030    2    1    2    0    0  0.00000000000E+00  0.00000000000E+00  0.82347479306E+03  0.96704145038E+03  0.50700930164E+03 0.  0.
        4    1    3    3  502    0  0.39756547647E+02 -0.28793721401E+02  0.88610029956E+03  0.88745986684E+03  0.12699999809E+01 0. -1.
       -4    1    3    3    0  502 -0.39756547647E+02  0.28793721401E+02 -0.62625506504E+02  0.79581583534E+02  0.12699999809E+01 0.  1.
</event>
<event>
 5   0  0.1074281E-01  0.5096904E+03  0.7818609E-02  0.1011280E+00
        1   -1    0    0  501    0  0.00000000000E+00  0.00000000000E+00  0.21360753115E+03  0.21360753121E+03  0.50400001928E-02 0. -1.
       -1   -1    0    0    0  501  0.00000000000E+00  0.00000000000E+00 -0.30404388776E+03  0.30404388780E+03  0.50400001928E-02 0.  1.
    10030    2    1    2    0    0  0.00000000000E+00  0.00000000000E+00 -0.90436356608E+02  0.51765141902E+03  0.50969035405E+03 0.  0.
        4    1    3    3  502    0  0.20433675564E+03 -0.28143030867E+02  0.10678212369E+03  0.23227047753E+03  0.12699999809E+01 0. -1.
       -4    1    3    3    0  502 -0.20433675564E+03  0.28143030867E+02 -0.19721848030E+03  0.28538094149E+03  0.12699999809E+01 0.  1.
</event>
<event>
 5   0  0.1760649E-01  0.5168613E+03  0.7818609E-02  0.1009469E+00
       -2   -1    0    0    0  501  0.00000000000E+00  0.00000000000E+00  0.35443147079E+03  0.35443147079E+03  0.25500000920E-02 0.  1.
        2   -1    0    0  501    0  0.00000000000E+00  0.00000000000E+00 -0.18843247141E+03  0.18843247143E+03  0.25500000920E-02 0. -1.
    10030    2    1    2    0    0  0.00000000000E+00  0.00000000000E+00  0.16599899937E+03  0.54286394223E+03  0.51686128891E+03 0.  0.
        5    1    3    3  502    0  0.14550106070E+03  0.20670162730E+03  0.26749737420E+02  0.25423170503E+03  0.46999998093E+01 0.  1.
       -5    1    3    3    0  502 -0.14550106070E+03 -0.20670162730E+03  0.13924926195E+03  0.28863223719E+03  0.46999998093E+01 0. -1.
</event>
<event>
 5   0  0.1141970E-01  0.5008988E+03  0.7818609E-02  0.1013545E+00
        1   -1    0    0  501    0  0.00000000000E+00  0.00000000000E+00  0.16941016245E+03  0.16941016252E+03  0.50400001928E-02 0.  1.
       -1   -1    0    0    0  501  0.00000000000E+00  0.00000000000E+00 -0.37025470467E+03  0.37025470470E+03  0.50400001928E-02 0. -1.
    10030    2    1    2    0    0  0.00000000000E+00  0.00000000000E+00 -0.20084454222E+03  0.53966486723E+03  0.50089883088E+03 0.  0.
        3    1    3    3  502    0 -0.18265833307E+03 -0.15535848086E+03 -0.22546990693E+02  0.24084995579E+03  0.10100000352E+00 0. -1.
       -3    1    3    3    0  502  0.18265833307E+03  0.15535848086E+03 -0.17829755153E+03  0.29881491143E+03  0.10100000352E+00 0.  1.
</event>
<event>
 5   0  0.1683148E-01  0.4963191E+03  0.7818609E-02  0.1014744E+00
       -2   -1    0    0    0  501  0.00000000000E+00  0.00000000000E+00  0.25064411765E+03  0.25064411766E+03  0.25500000920E-02 0.  1.
        2   -1    0    0  501    0  0.00000000000E+00  0.00000000000E+00 -0.24569958188E+03  0.24569958189E+03  0.25500000920E-02 0. -1.
    10030    2    1    2    0    0  0.00000000000E+00  0.00000000000E+00  0.49445357719E+01  0.49634369955E+03  0.49631907041E+03 0.  0.
        2    1    3    3  502    0  0.14444880383E+03  0.17422907851E+02 -0.19857039264E+03  0.24616907906E+03  0.25500000920E-02 0. -1.
       -2    1    3    3    0  502 -0.14444880383E+03 -0.17422907851E+02  0.20351492841E+03  0.25017462049E+03  0.25500000920E-02 0.  1.
</event>
<event>
 5   0  0.1709372E-01  0.4778543E+03  0.7818609E-02  0.1019727E+00
       -2   -1    0    0    0  501  0.00000000000E+00  0.00000000000E+00  0.51948993049E+02  0.51948993111E+02  0.25500000920E-02 0. -1.
        2   -1    0    0  501    0  0.00000000000E+00  0.00000000000E+00 -0.10988889377E+04  0.10988889378E+04  0.25500000920E-02 0.  1.
    10030    2    1    2    0    0  0.00000000000E+00  0.00000000000E+00 -0.10469399447E+04  0.11508379309E+04  0.47785426157E+03 0.  0.
        4    1    3    3  502    0 -0.14760990124E+03  0.16029045916E+03 -0.28746633221E+03  0.36072180318E+03  0.12699999809E+01 0.  1.
       -4    1    3    3    0  502  0.14760990124E+03 -0.16029045916E+03 -0.75947361250E+03  0.79011612768E+03  0.12699999809E+01 0. -1.
</event>
<event>
 5   0  0.1683148E-01  0.5018053E+03  0.7818609E-02  0.1013309E+00
        2   -1    0    0  501    0  0.00000000000E+00  0.00000000000E+00  0.86790718246E+03  0.86790718246E+03  0.25500000920E-02 0. -1.
       -2   -1    0    0    0  501  0.00000000000E+00  0.00000000000E+00 -0.72533264307E+02  0.72533264352E+02  0.25500000920E-02 0.  1.
    10030    2    1    2    0    0  0.00000000000E+00  0.00000000000E+00  0.79537391815E+03  0.94044044682E+03  0.50180530520E+03 0.  0.
        2    1    3    3  502    0 -0.12463193528E+03  0.80020065610E+02  0.77723932391E+03  0.79122518718E+03  0.25500000920E-02 0. -1.
       -2    1    3    3    0  502  0.12463193528E+03 -0.80020065610E+02  0.18134594244E+02  0.14921525963E+03  0.25500000920E-02 0.  1.
</event>
<event>
 5   0  0.1074281E-01  0.5028711E+03  0.7818609E-02  0.1013032E+00
        1   -1    0    0  501    0  0.00000000000E+00  0.00000000000E+00  0.34063452129E+03  0.34063452133E+03  0.50400001928E-02 0.  1.
       -1   -1    0    0    0  501  0.00000000000E+00  0.00000000000E+00 -0.18559434894E+03  0.18559434901E+03  0.50400001928E-02 0. -1.
    10030    2    1    2    0    0  0.00000000000E+00  0.00000000000E+00  0.15504017235E+03  0.52622887034E+03  0.50287112557E+03 0.  0.
        4    1    3    3  502    0 -0.13941393886E+02  0.17800756095E+03 -0.10772551058E+03  0.20853645424E+03  0.12699999809E+01 0. -1.
       -4    1    3    3    0  502  0.13941393886E+02 -0.17800756095E+03  0.26276568293E+03  0.31769241610E+03  0.12699999809E+01 0.  1.
</event>
<event>
 5   0  0.1760649E-01  0.4951039E+03  0.7818609E-02  0.1015065E+00
       -2   -1    0    0    0  501  0.00000000000E+00  0.00000000000E+00  0.24686709219E+03  0.24686709221E+03  0.25500000920E-02 0.  1.
        2   -1    0    0  501    0  0.00000000000E+00  0.00000000000E+00 -0.24823874557E+03  0.24823874558E+03  0.25500000920E-02 0. -1.
    10030    2    1    2    0    0  0.00000000000E+00  0.00000000000E+00 -0.13716533773E+01  0.49510583779E+03  0.49510393775E+03 0.  0.
        5    1    3    3  502    0  0.23186988484E+03 -0.74508303898E+02 -0.44785388807E+02  0.24767509340E+03  0.46999998093E+01 0. -1.
       -5    1    3    3    0  502 -0.23186988484E+03  0.74508303898E+02  0.43413735430E+02  0.24743074438E+03  0.46999998093E+01 0.  1.
</event>
<event>
 5   0  0.7220250E-02  0.5034394E+03  0.7818609E-02  0.1012885E+00
        4   -1    0    0  501    0  0.00000000000E+00  0.00000000000E+00  0.12592047819E+03  0.12592688247E+03  0.12699999809E+01 0. -1.
       -4   -1    0    0    0  501  0.00000000000E+00  0.00000000000E+00 -0.50317702242E+03  0.50317862513E+03  0.12699999809E+01 0.  1.
    10030    2    1    2    0    0  0.00000000000E+00  0.00000000000E+00 -0.37725654422E+03  0.62910550760E+03  0.50343940999E+03 0.  0.
        3    1    3    3  502    0 -0.99666370272E+02 -0.18772106950E+03 -0.35716524386E+03  0.41561954588E+03  0.10100000352E+00 0.  1.
       -3    1    3    3    0  502  0.99666370272E+02  0.18772106950E+03 -0.20091300365E+02  0.21348596171E+03  0.10100000352E+00 0. -1.
</event>
<event>
 5   0  0.1074281E-01  0.4811377E+03  0.7818609E-02  0.1018823E+00
       -1   -1    0    0    0  501  0.00000000000E+00  0.00000000000E+00  0.41613927046E+03  0.41613927050E+03  0.50400001928E-02 0. -1.
        1   -1    0    0  501    0  0.00000000000E+00  0.00000000000E+00 -0.13907213807E+03  0.13907213816E+03  0.50400001928E-02 0.  1.
    10030    2    1    2    0    0  0.00000000000E+00  0.00000000000E+00  0.27706713239E+03  0.55521140866E+03  0.48113772711E+03 0.  0.
        4    1    3    3  502    0 -0.53823054461E+02  0.11780731621E+03  0.37246588546E+03  0.39434494251E+03  0.12699999809E+01 0. -1.
       -4    1    3    3    0  502  0.53823054461E+02 -0.11780731621E+03 -0.95398753070E+02  0.16086646615E+03  0.12699999809E+01 0.  1.
</event>
<event>
 5   0  0.1141970E-01  0.5133801E+03  0.7818609E-02  0.1010344E+00
       -1   -1    0    0    0  501  0.00000000000E+00  0.00000000000E+00  0.35386436058E+03  0.35386436062E+03  0.50400001928E-02 0.  1.
        1   -1    0    0  501    0  0.00000000000E+00  0.00000000000E+00 -0.18620069983E+03  0.18620069990E+03  0.50400001928E-02 0. -1.
    10030    2    1    2    0    0  0.00000000000E+00  0.00000000000E+00  0.16766366075E+03  0.54006506052E+03  0.51338013836E+03 0.  0.
        3    1    3    3  502    0  0.22280359838E+03 -0.11056796182E+03  0.15055635337E+03  0.29074721559E+03  0.10100000352E+00 0.  1.
       -3    1    3    3    0  502 -0.22280359838E+03  0.11056796182E+03  0.17107307375E+02  0.24931784493E+03  0.10100000352E+00 0. -1.
</event>
<event>
 5   0  0.1068522E-01  0.4910393E+03  0.7818609E-02  0.1016145E+00
       -1   -1    0    0    0  501  0.00000000000E+00  0.00000000000E+00  0.40320731978E+03  0.40320731981E+03  0.50400001928E-02 0.  1.
        1   -1    0    0  501    0  0.00000000000E+00  0.00000000000E+00 -0.14950102245E+03  0.14950102254E+03  0.50400001928E-02 0. -1.
    10030    2    1    2    0    0  0.00000000000E+00  0.00000000000E+00  0.25370629732E+03  0.55270834235E+03  0.49103933285E+03 0.  0.
        2    1    3    3  502    0 -0.88563954417E+02 -0.20510418456E+03  0.12238553259E+02  0.22374334121E+03  0.25500000920E-02 0. -1.
       -2    1    3    3    0  502  0.88563954417E+02  0.20510418456E+03  0.24146774407E+03  0.32896500114E+03  0.25500000920E-02 0.  1.
</event>
<event>
 5   0  0.1827698E-01  0.5008690E+03  0.7818609E-02  0.1013552E+00
        2   -1    0    0  501    0  0.00000000000E+00  0.00000000000E+00  0.54835895805E+03  0.54835895805E+03  0.25500000920E-02 0. -1.
       -2   -1    0    0    0  501  0.00000000000E+00  0.00000000000E+00 -0.11437297770E+03  0.11437297773E+03  0.25500000920E-02 0.  1.
    10030    2    1    2    0    0  0.00000000000E+00  0.00000000000E+00  0.43398598034E+03  0.66273193578E+03  0.50086903236E+03 0.  0.
        1    1    3    3  502    0 -0.70407050363E+02 -0.17981433715E+03  0.60028703656E+01  0.19320037025E+03  0.50400001928E-02 0.  1.
       -1    1    3    3    0  502  0.70407050363E+02  0.17981433715E+03  0.42798310998E+03  0.46953156554E+03  0.50400001928E-02 0. -1.
</event>
<event>
 5   0  0.1074281E-01  0.4998942E+03  0.7818609E-02  0.1013807E+00
       -1   -1    0    0    0  501  0.00000000000E+00  0.00000000000E+00  0.48832997967E+02  0.48832998227E+02  0.50400001928E-02 0.  1.
        1   -1    0    0  501    0  0.00000000000E+00  0.00000000000E+00 -0.12793306746E+04  0.12793306746E+04  0.50400001928E-02 0. -1.
    10030    2    1    2    0    0  0.00000000000E+00  0.00000000000E+00 -0.12304976766E+04  0.13281636728E+04  0.49989419844E+03 0.  0.
        4    1    3    3  502    0  0.12487805906E+03 -0.17097354361E+03 -0.26231771414E+03  0.33710336442E+03  0.12699999809E+01 0.  1.
       -4    1    3    3    0  502 -0.12487805906E+03  0.17097354361E+03 -0.96817996247E+03  0.99106030840E+03  0.12699999809E+01 0. -1.
</event>
<event>
 5   0  0.1782124E-01  0.5018088E+03  0.7818609E-02  0.1013308E+00
       -2   -1    0    0    0  501  0.00000000000E+00  0.00000000000E+00  0.10543532112E+03  0.10543532115E+03  0.25500000920E-02 0. -1.
        2   -1    0    0  501    0  0.00000000000E+00  0.00000000000E+00 -0.59707705407E+03  0.59707705408E+03  0.25500000920E-02 0.  1.
    10030    2    1    2    0    0  0.00000000000E+00  0.00000000000E+00 -0.49164173295E+03  0.70251237523E+03  0.50180877211E+03 0.  0.
        3    1    3    3  502    0  0.79832955056E+02 -0.22024743659E+03 -0.12005200574E+03  0.26323891870E+03  0.10100000352E+00 0. -1.
       -3    1    3    3    0  502 -0.79832955056E+02  0.22024743659E+03 -0.37158972721E+03  0.43927345652E+03  0.10100000352E+00 0.  1.
</event>
<event>
 5   0  0.1827698E-01  0.4568130E+03  0.7818609E-02  0.1025710E+00
       -2   -1    0    0    0  501  0.00000000000E+00  0.00000000000E+00  0.47339273470E+02  0.47339273539E+02  0.25500000920E-02 0. -1.
        2   -1    0    0  501    0  0.00000000000E+00  0.00000000000E+00 -0.11020349542E+04  0.11020349542E+04  0.25500000920E-02 0.  1.
    10030    2    1    2    0    0  0.00000000000E+00  0.00000000000E+00 -0.10546956807E+04  0.11493742277E+04  0.45681302131E+03 0.  0.
        1    1    3    3  502    0  0.93259039751E+02 -0.60060248849E+02 -0.10297125785E+04  0.10356700615E+04  0.50400001928E-02 0.  1.
       -1    1    3    3    0  502 -0.93259039751E+02  0.60060248849E+02 -0.24983102196E+02  0.11370416619E+03  0.50400001928E-02 0. -1.
</event>
<event>
 5   0  0.1827698E-01  0.5067382E+03  0.7818609E-02  0.1012035E+00
       -2   -1    0    0    0  501  0.00000000000E+00  0.00000000000E+00  0.58584651528E+02  0.58584651584E+02  0.25500000920E-02 0.  1.
        2   -1    0    0  501    0  0.00000000000E+00  0.00000000000E+00 -0.10957802005E+04  0.10957802005E+04  0.25500000920E-02 0. -1.
    10030    2    1    2    0    0  0.00000000000E+00  0.00000000000E+00 -0.10371955489E+04  0.11543648521E+04  0.50673820156E+03 0.  0.
        1    1    3    3  502    0 -0.88372226382E+02 -0.10475365220E+03 -0.33142551458E+02  0.14100144250E+03  0.50400001928E-02 0.  1.
       -1    1    3    3    0  502  0.88372226382E+02  0.10475365220E+03 -0.10040529975E+04  0.10133634095E+04  0.50400001928E-02 0. -1.
</event>
<event>
 5   0  0.1760649E-01  0.5009896E+03  0.7818609E-02  0.1013521E+00
        2   -1    0    0  501    0  0.00000000000E+00  0.00000000000E+00  0.38775663507E+03  0.38775663508E+03  0.25500000920E-02 0. -1.
       -2   -1    0    0    0  501  0.00000000000E+00  0.00000000000E+00 -0.16182221124E+03  0.16182221126E+03  0.25500000920E-02 0.  1.
    10030    2    1    2    0    0  0.00000000000E+00  0.00000000000E+00  0.22593442383E+03  0.54957884634E+03  0.50098956524E+03 0.  0.
        5    1    3    3  502    0  0.17287109319E+03 -0.15540124718E+03  0.21523780737E+03  0.31683334137E+03  0.46999998093E+01 0.  1.
       -5    1    3    3    0  502 -0.17287109319E+03  0.15540124718E+03  0.10696616461E+02  0.23274550497E+03  0.46999998093E+01 0. -1.
</event>
<event>
 5   0  0.1123271E-01  0.5012192E+03  0.7818609E-02  0.1013461E+00
        1   -1    0    0  501    0  0.00000000000E+00  0.00000000000E+00  0.68224516106E+02  0.68224516292E+02  0.50400001928E-02 0.  1.
       -1   -1    0    0    0  501  0.00000000000E+00  0.00000000000E+00 -0.92056587005E+03  0.92056587007E+03  0.50400001928E-02 0. -1.
    10030    2    1    2    0    0  0.00000000000E+00  0.00000000000E+00 -0.85234135395E+03  0.98879038636E+03  0.50121915816E+03 0.  0.
        5    1    3    3  502    0  0.36517956465E+02  0.20365323481E+02 -0.91354787395E+03  0.91451632875E+03  0.46999998093E+01 0. -1.
       -5    1    3    3    0  502 -0.36517956465E+02 -0.20365323481E+02  0.61206520004E+02  0.74274057612E+02  0.46999998093E+01 0.  1.
</event>
<event>
 5   0  0.1782124E-01  0.5005618E+03  0.7818609E-02  0.1013632E+00
        2   -1    0    0  501    0  0.00000000000E+00  0.00000000000E+00  0.26243460424E+03  0.26243460425E+03  0.25500000920E-02 0.  1.
       -2   -1    0    0    0  501  0.00000000000E+00  0.00000000000E+00 -0.23869002374E+03  0.23869002375E+03  0.25500000920E-02 0. -1.
    10030    2    1    2    0    0  0.00000000000E+00  0.00000000000E+00  0.23744580499E+02  0.50112462801E+03  0.50056177210E+03 0.  0.
        3    1    3    3  502    0  0.42076979233E+02 -0.11927733246E+03  0.22808494408E+03  0.26080702854E+03  0.10100000352E+00 0.  1.
       -3    1    3    3    0  502 -0.42076979233E+02  0.11927733246E+03 -0.20434036358E+03  0.24031759946E+03  0.10100000352E+00 0. -1.
</event>
<event>
 5   0  0.1068522E-01  0.4685351E+03  0.7818609E-02  0.1022334E+00
       -1   -1    0    0    0  501  0.00000000000E+00  0.00000000000E+00  0.24899245243E+02  0.24899245753E+02  0.50400001928E-02 0. -1.
        1   -1    0    0  501    0  0.00000000000E+00  0.00000000000E+00 -0.22041342584E+04  0.22041342584E+04  0.50400001928E-02 0.  1.
    10030    2    1    2    0    0  0.00000000000E+00  0.00000000000E+00 -0.21792350132E+04  0.22290335042E+04  0.46853507883E+03 0.  0.
        2    1    3    3  502    0 -0.16691642842E+03  0.49104800224E+02 -0.18359298514E+04  0.18441558489E+04  0.25500000920E-02 0.  1.
       -2    1    3    3    0  502  0.16691642842E+03 -0.49104800224E+02 -0.34330516175E+03  0.38487765533E+03  0.25500000920E-02 0. -1.
</event>
<event>
 5   0  0.1147245E-01  0.4954702E+03  0.7818609E-02  0.1014968E+00
        1   -1    0    0  501    0  0.00000000000E+00  0.00000000000E+00  0.13434172802E+03  0.13434172812E+03  0.50400001928E-02 0.  1.
       -1   -1    0    0    0  501  0.00000000000E+00  0.00000000000E+00 -0.45684011510E+03  0.45684011513E+03  0.50400001928E-02 0. -1.
    10030    2    1    2    0    0  0.00000000000E+00  0.00000000000E+00 -0.32249838708E+03  0.59118184325E+03  0.49547024342E+03 0.  0.
        1    1    3    3  502    0  0.12932526764E+03  0.16733400288E+03 -0.73021111431E+01  0.21161052484E+03  0.50400001928E-02 0.  1.
       -1    1    3    3    0  502 -0.12932526764E+03 -0.16733400288E+03 -0.31519627594E+03  0.37957131841E+03  0.50400001928E-02 0. -1.
</event>
<event>
 5   0  0.1147245E-01  0.4895034E+03  0.7818609E-02  0.1016556E+00
        1   -1    0    0  501    0  0.00000000000E+00  0.00000000000E+00  0.27040207277E+03  0.27040207282E+03  0.50400001928E-02 0.  1.
       -1   -1    0    0    0  501  0.00000000000E+00  0.00000000000E+00 -0.22153454338E+03  0.22153454343E+03  0.50400001928E-02 0. -1.
    10030    2    1    2    0    0  0.00000000000E+00  0.00000000000E+00  0.48867529395E+02  0.49193661625E+03  0.48950342081E+03 0.  0.
        1    1    3    3  502    0  0.80508058684E+01  0.24290544066E+03  0.53483002333E+02  0.24885397353E+03  0.50400001928E-02 0.  1.
       -1    1    3    3    0  502 -0.80508058684E+01 -0.24290544066E+03 -0.46154729388E+01  0.24308264272E+03  0.50400001928E-02 0. -1.
</event>
<event>
 5   0  0.1141970E-01  0.4915215E+03  0.7818609E-02  0.1016016E+00
       -1   -1    0    0    0  501  0.00000000000E+00  0.00000000000E+00  0.99908738849E+02  0.99908738976E+02  0.50400001928E-02 0. -1.
        1   -1    0    0  501    0  0.00000000000E+00  0.00000000000E+00 -0.60453523849E+03  0.60453523851E+03  0.50400001928E-02 0.  1.
    10030    2    1    2    0    0  0.00000000000E+00  0.00000000000E+00 -0.50462649964E+03  0.70444397748E+03  0.49152152880E+03 0.  0.
        3    1    3    3  502    0 -0.17107556691E+03 -0.15135004515E+03 -0.12233735298E+03  0.25911411365E+03  0.10100000352E+00 0. -1.
       -3    1    3    3    0  502  0.17107556691E+03  0.15135004515E+03 -0.38228914666E+03  0.44532986383E+03  0.10100000352E+00 0.  1.
</event>
<event>
 5   0  0.1683148E-01  0.5051068E+03  0.7818609E-02  0.1012454E+00
        2   -1    0    0  501    0  0.00000000000E+00  0.00000000000E+00  0.59980039973E+03  0.59980039974E+03  0.25500000920E-02 0.  1.
       -2   -1    0    0    0  501  0.00000000000E+00  0.00000000000E+00 -0.10634075752E+03  0.10634075755E+03  0.25500000920E-02 0. -1.
    10030    2    1    2    0    0  0.00000000000E+00  0.00000000000E+00  0.49345964221E+03  0.70614115729E+03  0.50510683575E+03 0.  0.
        2    1    3    3  502    0  0.13662495383E+03 -0.21237666892E+03  0.25177065877E+03  0.35659317455E+03  0.25500000920E-02 0.  1.
       -2    1    3    3    0  502 -0.13662495383E+03  0.21237666892E+03  0.24168898344E+03  0.34954798274E+03  0.25500000920E-02 0. -1.
</event>
<event>
 5   0  0.1123271E-01  0.4976642E+03  0.7818609E-02  0.1014390E+00
        1   -1    0    0  501    0  0.00000000000E+00  0.00000000000E+00  0.17867689201E+03  0.17867689208E+03  0.50400001928E-02 0.  1.
       -1   -1    0    0    0  501  0.00000000000E+00  0.00000000000E+00 -0.34653290918E+03  0.34653290922E+03  0.50400001928E-02 0. -1.
    10030    2    1    2    0    0  0.00000000000E+00  0.00000000000E+00 -0.16785601718E+03  0.52520980130E+03  0.49766423709E+03 0.  0.
        5    1    3    3  502    0 -0.94170751014E+02  0.73892312153E+02  0.14624259655E+03  0.18904282897E+03  0.46999998093E+01 0.  1.
       -5    1    3    3    0  502  0.94170751014E+02 -0.73892312153E+02 -0.31409861372E+03  0.33616697233E+03  0.46999998093E+01 0. -1.
</event>
<event>
 5   0  0.1760649E-01  0.5010255E+03  0.7818609E-02  0.1013512E+00
       -2   -1    0    0    0  501  0.00000000000E+00  0.00000000000E+00  0.30943477949E+02  0.30943478054E+02  0.25500000920E-02 0.  1.
        2   -1    0    0  501    0  0.00000000000E+00  0.00000000000E+00 -0.20281057286E+04  0.20281057286E+04  0.25500000920E-02 0. -1.
    10030    2    1    2    0    0  0.00000000000E+00  0.00000000000E+00 -0.19971622507E+04  0.20590492067E+04  0.50102552830E+03 0.  0.
        5    1    3    3  502    0  0.56291251047E+02  0.92956228665E+02 -0.19259923444E+04  0.19290614728E+04  0.46999998093E+01 0. -1.
       -5    1    3    3    0  502 -0.56291251047E+02 -0.92956228665E+02 -0.71169906326E+02  0.12998773387E+03  0.46999998093E+01 0.  1.
</event>
<event>
 5   0  0.7220250E-02  0.4981869E+03  0.7818609E-02  0.1014253E+00
       -4   -1    0    0    0  501  0.00000000000E+00  0.00000000000E+00  0.11583133469E+03  0.11583829676E+03  0.12699999809E+01 0.  1.
        4   -1    0    0  501    0  0.00000000000E+00  0.00000000000E+00 -0.53564773552E+03  0.53564924108E+03  0.12699999809E+01 0. -1.
    10030    2    1    2    0    0  0.00000000000E+00  0.00000000000E+00 -0.41981640084E+03  0.65148753784E+03  0.49818691427E+03 0.  0.
        4    1    3    3  502    0 -0.70880983719E+02 -0.22856684269E+03 -0.30031129859E+03  0.38399922446E+03  0.12699999809E+01 0. -1.
       -4    1    3    3    0  502  0.70880983719E+02  0.22856684269E+03 -0.11950510225E+03  0.26748831337E+03  0.12699999809E+01 0.  1.
</event>
<event>
 5   0  0.1760649E-01  0.4993638E+03  0.7818609E-02  0.1013945E+00
        2   -1    0    0  501    0  0.00000000000E+00  0.00000000000E+00  0.78106472497E+03  0.78106472497E+03  0.25500000920E-02 0.  1.
       -2   -1    0    0    0  501  0.00000000000E+00  0.00000000000E+00 -0.79815458486E+02  0.79815458527E+02  0.25500000920E-02 0. -1.
    10030    2    1    2    0    0  0.00000000000E+00  0.00000000000E+00  0.70124926648E+03  0.86088018350E+03  0.49936375179E+03 0.  0.
        5    1    3    3  502    0 -0.11582553213E+03  0.21718720834E+03  0.42239397870E+03  0.48890142217E+03  0.46999998093E+01 0.  1.
       -5    1    3    3    0  502  0.11582553213E+03 -0.21718720834E+03  0.27885528778E+03  0.37197876133E+03  0.46999998093E+01 0. -1.
</event>
<event>
 5   0  0.1147245E-01  0.4725969E+03  0.7818609E-02  0.1021190E+00
       -1   -1    0    0    0  501  0.00000000000E+00  0.00000000000E+00  0.12565157713E+03  0.12565157723E+03  0.50400001928E-02 0.  1.
        1   -1    0    0  501    0  0.00000000000E+00  0.00000000000E+00 -0.44437934394E+03  0.44437934397E+03  0.50400001928E-02 0. -1.
    10030    2    1    2    0    0  0.00000000000E+00  0.00000000000E+00 -0.31872776681E+03  0.57003092120E+03  0.47259693375E+03 0.  0.
        1    1    3    3  502    0 -0.17453100649E+03  0.13228972763E+03 -0.52324979851E+02  0.22516560084E+03  0.50400001928E-02 0.  1.
       -1    1    3    3    0  502  0.17453100649E+03 -0.13228972763E+03 -0.26640278696E+03  0.34486532036E+03  0.50400001928E-02 0. -1.
</event>
<event>
 5   0  0.1068522E-01  0.5003936E+03  0.7818609E-02  0.1013676E+00
        1   -1    0    0  501    0  0.00000000000E+00  0.00000000000E+00  0.50361347577E+03  0.50361347580E+03  0.50400001928E-02 0.  1.
       -1   -1    0    0    0  501  0.00000000000E+00  0.00000000000E+00 -0.12429858931E+03  0.12429858941E+03  0.50400001928E-02 0. -1.
    10030    2    1    2    0    0  0.00000000000E+00  0.00000000000E+00  0.37931488646E+03  0.62791206521E+03  0.50039362360E+03 0.  0.
        2    1    3    3  502    0  0.19365434895E+03  0.15132169807E+03  0.24849015013E+03  0.34949623445E+03  0.25500000920E-02 0. -1.
       -2    1    3    3    0  502 -0.19365434895E+03 -0.15132169807E+03  0.13082473633E+03  0.27841583076E+03  0.25500000920E-02 0.  1.
</event>
<event>
 5   0  0.1827698E-01  0.5135958E+03  0.7818609E-02  0.1010290E+00
        2   -1    0    0  501    0  0.00000000000E+00  0.00000000000E+00  0.72891977948E+03  0.72891977948E+03  0.25500000920E-02 0. -1.
       -2   -1    0    0    0  501  0.00000000000E+00  0.00000000000E+00 -0.90469725229E+02  0.90469725265E+02  0.25500000920E-02 0.  1.
    10030    2    1    2    0    0  0.00000000000E+00  0.00000000000E+00  0.63845005425E+03  0.81938950475E+03  0.51359584181E+03 0.  0.
        1    1    3    3  502    0  0.89016363150E+02  0.16990805671E+03  0.59162489072E+03  0.62194265972E+03  0.50400001928E-02 0. -1.
       -1    1    3    3    0  502 -0.89016363150E+02 -0.16990805671E+03  0.46825163536E+02  0.19744684503E+03  0.50400001928E-02 0.  1.
</event>
<event>
 5   0  0.1827698E-01  0.4984344E+03  0.7818609E-02  0.1014188E+00
        2   -1    0    0  501    0  0.00000000000E+00  0.00000000000E+00  0.48248135647E+03  0.48248135648E+03  0.25500000920E-02 0.  1.
       -2   -1    0    0    0  501  0.00000000000E+00  0.00000000000E+00 -0.12872874862E+03  0.12872874865E+03  0.25500000920E-02 0. -1.
    10030    2    1    2    0    0  0.00000000000E+00  0.00000000000E+00  0.35375260785E+03  0.61121010512E+03  0.49843443405E+03 0.  0.
        1    1    3    3  502    0  0.26866750875E+02  0.24271063273E+03  0.11582201608E+03  0.27026840914E+03  0.50400001928E-02 0. -1.
       -1    1    3    3    0  502 -0.26866750875E+02 -0.24271063273E+03  0.23793059176E+03  0.34094169599E+03  0.50400001928E-02 0.  1.
</event>
<event>
 5   0  0.1123271E-01  0.5025760E+03  0.7818609E-02  0.1013109E+00
       -1   -1    0    0    0  501  0.00000000000E+00  0.00000000000E+00  0.92093743664E+02  0.92093743802E+02  0.50400001928E-02 0. -1.
        1   -1    0    0  501    0  0.00000000000E+00  0.00000000000E+00 -0.68566723478E+03  0.68566723480E+03  0.50400001928E-02 0.  1.
    10030    2    1    2    0    0  0.00000000000E+00  0.00000000000E+00 -0.59357349112E+03  0.77776097860E+03  0.50257601463E+03 0.  0.
        5    1    3    3  502    0  0.24487293403E+02 -0.12744727698E+03  0.36138248332E+02  0.13479799308E+03  0.46999998093E+01 0. -1.
       -5    1    3    3    0  502 -0.24487293403E+02  0.12744727698E+03 -0.62971173945E+03  0.64296298552E+03  0.46999998093E+01 0.  1.
</event>
<event>
 5   0  0.1068522E-01  0.5012585E+03  0.7818609E-02  0.1013451E+00
        1   -1    0    0  501    0  0.00000000000E+00  0.00000000000E+00  0.21042969028E+03  0.21042969034E+03  0.50400001928E-02 0.  1.
       -1   -1    0    0    0  501  0.00000000000E+00  0.00000000000E+00 -0.29850831738E+03  0.29850831742E+03  0.50400001928E-02 0. -1.
    10030    2    1    2    0    0  0.00000000000E+00  0.00000000000E+00 -0.88078627096E+02  0.50893800777E+03  0.50125846746E+03 0.  0.
        2    1    3    3  502    0 -0.23763087259E+03  0.75696199971E+02 -0.18826092034E+02  0.25010551383E+03  0.25500000920E-02 0.  1.
       -2    1    3    3    0  502  0.23763087259E+03 -0.75696199971E+02 -0.69252535062E+02  0.25883249394E+03  0.25500000920E-02 0. -1.
</event>
<event>
 5   0  0.1760649E-01  0.4984129E+03  0.7818609E-02  0.1014194E+00
        2   -1    0    0  501    0  0.00000000000E+00  0.00000000000E+00  0.42248462597E+03  0.42248462598E+03  0.25500000920E-02 0. -1.
       -2   -1    0    0    0  501  0.00000000000E+00  0.00000000000E+00 -0.14699673814E+03  0.14699673817E+03  0.25500000920E-02 0.  1.
    10030    2    1    2    0    0  0.00000000000E+00  0.00000000000E+00  0.27548788783E+03  0.56948136414E+03  0.49841292897E+03 0.  0.
        5    1    3    3  502    0  0.70212191130E+02  0.15721038119E+02 -0.13481782026E+03  0.15288831702E+03  0.46999998093E+01 0.  1.
       -5    1    3    3    0  502 -0.70212191130E+02 -0.15721038119E+02  0.41030570809E+03  0.41659304712E+03  0.46999998093E+01 0. -1.
</event>
<event>
 5   0  0.1123271E-01  0.5219774E+03  0.7818609E-02  0.1008197E+00
        1   -1    0    0  501    0  0.00000000000E+00  0.00000000000E+00  0.43339576590E+03  0.43339576593E+03  0.50400001928E-02 0. -1.
       -1   -1    0    0    0  501  0.00000000000E+00  0.00000000000E+00 -0.15716603786E+03  0.15716603794E+03  0.50400001928E-02 0.  1.
    10030    2    1    2    0    0  0.00000000000E+00  0.00000000000E+00  0.27622972805E+03  0.59056180387E+03  0.52197737646E+03 0.  0.
        5    1    3    3  502    0 -0.24937134062E+03 -0.91734719403E+00  0.22506374781E+03  0.33595042435E+03  0.46999998093E+01 0. -1.
       -5    1    3    3    0  502  0.24937134062E+03  0.91734719403E+00  0.51165980238E+02  0.25461137952E+03  0.46999998093E+01 0.  1.
</event>
<event>
 5   0  0.1068522E-01  0.4794979E+03  0.7818609E-02  0.1019273E+00
       -1   -1    0    0    0  501  0.00000000000E+00  0.00000000000E+00  0.51783882276E+02  0.51783882522E+02  0.50400001928E-02 0.  1.
        1   -1    0    0  501    0  0.00000000000E+00  0.00000000000E+00 -0.11099894192E+04  0.11099894192E+04  0.50400001928E-02 0. -1.
    10030    2    1    2    0    0  0.00000000000E+00  0.00000000000E+00 -0.10582055369E+04  0.11617733017E+04  0.47949791057E+03 0.  0.
        2    1    3    3  502    0  0.98649669441E+00  0.22414754640E+03 -0.32299330608E+03  0.39315107975E+03  0.25500000920E-02 0.  1.
       -2    1    3    3    0  502 -0.98649669441E+00 -0.22414754640E+03 -0.73521223085E+03  0.76862222199E+03  0.25500000920E-02 0. -1.
</event>
<event>
 5   0  0.1760649E-01  0.4952684E+03  0.7818609E-02  0.1015021E+00
       -2   -1    0    0    0  501  0.00000000000E+00  0.00000000000E+00  0.28053793795E+03  0.28053793796E+03  0.25500000920E-02 0.  1.
        2   -1    0    0  501    0  0.00000000000E+00  0.00000000000E+00 -0.21858971616E+03  0.21858971617E+03  0.25500000920E-02 0. -1.
    10030    2    1    2    0    0  0.00000000000E+00  0.00000000000E+00  0.61948221787E+02  0.49912765413E+03  0.49526844533E+03 0.  0.
        5    1    3    3  502    0 -0.11653306568E+03  0.14504602313E+03 -0.13364593524E+03  0.22913234217E+03  0.46999998093E+01 0. -1.
       -5    1    3    3    0  502  0.11653306568E+03 -0.14504602313E+03  0.19559415702E+03  0.26999531197E+03  0.46999998093E+01 0.  1.
</event>
<event>
 5   0  0.1827698E-01  0.4989442E+03  0.7818609E-02  0.1014055E+00
        2   -1    0    0  501    0  0.00000000000E+00  0.00000000000E+00  0.52635013664E+03  0.52635013665E+03  0.25500000920E-02 0.  1.
       -2   -1    0    0    0  501  0.00000000000E+00  0.00000000000E+00 -0.11824129728E+03  0.11824129730E+03  0.25500000920E-02 0. -1.
    10030    2    1    2    0    0  0.00000000000E+00  0.00000000000E+00  0.40810883937E+03  0.64459143396E+03  0.49894417720E+03 0.  0.
        1    1    3    3  502    0  0.31693510170E+02 -0.23389198958E+03  0.30842276605E+03  0.38837423192E+03  0.50400001928E-02 0.  1.
       -1    1    3    3    0  502 -0.31693510170E+02  0.23389198958E+03  0.99686073317E+02  0.25621720203E+03  0.50400001928E-02 0. -1.
</event>
<event>
 5   0  0.1068522E-01  0.5012597E+03  0.7818609E-02  0.1013451E+00
        1   -1    0    0  501    0  0.00000000000E+00  0.00000000000E+00  0.23107360722E+04  0.23107360722E+04  0.50400001928E-02 0. -1.
       -1   -1    0    0    0  501  0.00000000000E+00  0.00000000000E+00 -0.27184118459E+02  0.27184118927E+02  0.50400001928E-02 0.  1.
    10030    2    1    2    0    0  0.00000000000E+00  0.00000000000E+00  0.22835519538E+04  0.23379201912E+04  0.50125970781E+03 0.  0.
        2    1    3    3  502    0 -0.14781936598E+03  0.20126122958E+03  0.10418864460E+04  0.10713934917E+04  0.25500000920E-02 0.  1.
       -2    1    3    3    0  502  0.14781936598E+03 -0.20126122958E+03  0.12416655077E+04  0.12665266995E+04  0.25500000920E-02 0. -1.
</event>
<event>
 5   0  0.7220250E-02  0.4998030E+03  0.7818609E-02  0.1013830E+00
       -3   -1    0    0    0  501  0.00000000000E+00  0.00000000000E+00  0.23033290406E+03  0.23033292620E+03  0.10100000352E+00 0. -1.
        3   -1    0    0  501    0  0.00000000000E+00  0.00000000000E+00 -0.27113259444E+03  0.27113261325E+03  0.10100000352E+00 0.  1.
    10030    2    1    2    0    0  0.00000000000E+00  0.00000000000E+00 -0.40799690380E+02  0.50146553945E+03  0.49980303372E+03 0.  0.
        5    1    3    3  502    0 -0.10577771592E+03  0.20821567041E+03  0.68698625380E+02  0.24348363748E+03  0.46999998093E+01 0. -1.
       -5    1    3    3    0  502  0.10577771592E+03 -0.20821567041E+03 -0.10949831576E+03  0.25798190197E+03  0.46999998093E+01 0.  1.
</event>
<event>
 5   0  0.1123271E-01  0.4860702E+03  0.7818609E-02  0.1017480E+00
        1   -1    0    0  501    0  0.00000000000E+00  0.00000000000E+00  0.43540814219E+03  0.43540814222E+03  0.50400001928E-02 0. -1.
       -1   -1    0    0    0  501  0.00000000000E+00  0.00000000000E+00 -0.13565674919E+03  0.13565674928E+03  0.50400001928E-02 0.  1.
    10030    2    1    2    0    0  0.00000000000E+00  0.00000000000E+00  0.29975139300E+03  0.57106489150E+03  0.48607017261E+03 0.  0.
        5    1    3    3  502    0 -0.21354310165E+03 -0.91900346673E+01  0.14084683263E+02  0.21425587810E+03  0.46999998093E+01 0.  1.
       -5    1    3    3    0  502  0.21354310165E+03  0.91900346673E+01  0.28566670974E+03  0.35680901341E+03  0.46999998093E+01 0. -1.
</event>
<event>
 5   0  0.1141970E-01  0.5044372E+03  0.7818609E-02  0.1012627E+00
       -1   -1    0    0    0  501  0.00000000000E+00  0.00000000000E+00  0.84179042612E+02  0.84179042763E+02  0.50400001928E-02 0. -1.
        1   -1    0    0  501    0  0.00000000000E+00  0.00000000000E+00 -0.75570151017E+03  0.75570151019E+03  0.50400001928E-02 0.  1.
    10030    2    1    2    0    0  0.00000000000E+00  0.00000000000E+00 -0.67152246756E+03  0.83988055295E+03  0.50443722978E+03 0.  0.
        3    1    3    3  502    0 -0.98649429138E+02  0.53751629548E+02 -0.71174304269E+03  0.72055472837E+03  0.10100000352E+00 0.  1.
       -3    1    3    3    0  502  0.98649429138E+02 -0.53751629548E+02  0.40220575131E+02  0.11932582459E+03  0.10100000352E+00 0. -1.
</event>
<event>
 5   0  0.1147245E-01  0.4995537E+03  0.7818609E-02  0.1013895E+00
       -1   -1    0    0    0  501  0.00000000000E+00  0.00000000000E+00  0.16855401049E+03  0.16855401056E+03  0.50400001928E-02 0.  1.
        1   -1    0    0  501    0  0.00000000000E+00  0.00000000000E+00 -0.37013934226E+03  0.37013934230E+03  0.50400001928E-02 0. -1.
    10030    2    1    2    0    0  0.00000000000E+00  0.00000000000E+00 -0.20158533178E+03  0.53869335286E+03  0.49955368323E+03 0.  0.
        1    1    3    3  502    0 -0.15607686784E+03 -0.15034048376E+03  0.33140835801E+02  0.21922719894E+03  0.50400001928E-02 0.  1.
       -1    1    3    3    0  502  0.15607686784E+03  0.15034048376E+03 -0.23472616758E+03  0.31946615392E+03  0.50400001928E-02 0. -1.
</event>
<event>
 5   0  0.1123271E-01  0.4979510E+03  0.7818609E-02  0.1014315E+00
       -1   -1    0    0    0  501  0.00000000000E+00  0.00000000000E+00  0.10155359934E+03  0.10155359946E+03  0.50400001928E-02 0. -1.
        1   -1    0    0  501    0  0.00000000000E+00  0.00000000000E+00 -0.61040473280E+03  0.61040473282E+03  0.50400001928E-02 0.  1.
    10030    2    1    2    0    0  0.00000000000E+00  0.00000000000E+00 -0.50885113346E+03  0.71195833228E+03  0.49795099245E+03 0.  0.
        5    1    3    3  502    0 -0.22836270493E+02  0.52521980941E+02  0.91942343452E+02  0.10842295997E+03  0.46999998093E+01 0. -1.
       -5    1    3    3    0  502  0.22836270493E+02 -0.52521980941E+02 -0.60079347691E+03  0.60353537231E+03  0.46999998093E+01 0.  1.
</event>
<event>
 5   0  0.1074281E-01  0.5138801E+03  0.7818609E-02  0.1010218E+00
        1   -1    0    0  501    0  0.00000000000E+00  0.00000000000E+00  0.39310132481E+03  0.39310132484E+03  0.50400001928E-02 0.  1.
       -1   -1    0    0    0  501  0.00000000000E+00  0.00000000000E+00 -0.16794193322E+03  0.16794193330E+03  0.50400001928E-02 0. -1.
    10030    2    1    2    0    0  0.00000000000E+00  0.00000000000E+00  0.22515939159E+03  0.56104325814E+03  0.51388012793E+03 0.  0.
        4    1    3    3  502    0  0.20947969513E+03 -0.57657789746E+02  0.26231829734E+03  0.34061512798E+03  0.12699999809E+01 0.  1.
       -4    1    3    3    0  502 -0.20947969513E+03  0.57657789746E+02 -0.37158905750E+02  0.22042813016E+03  0.12699999809E+01 0. -1.
</event>
<event>
 5   0  0.1141970E-01  0.5027303E+03  0.7818609E-02  0.1013069E+00
       -1   -1    0    0    0  501  0.00000000000E+00  0.00000000000E+00  0.15014438602E+03  0.15014438610E+03  0.50400001928E-02 0.  1.
        1   -1    0    0  501    0  0.00000000000E+00  0.00000000000E+00 -0.42082444208E+03  0.42082444211E+03  0.50400001928E-02 0. -1.
    10030    2    1    2    0    0  0.00000000000E+00  0.00000000000E+00 -0.27068005606E+03  0.57096882821E+03  0.50273025574E+03 0.  0.
        3    1    3    3  502    0 -0.18424715616E+03 -0.12318803238E+03 -0.27001988399E+03  0.34933229714E+03  0.10100000352E+00 0.  1.
       -3    1    3    3    0  502  0.18424715616E+03  0.12318803238E+03 -0.66017207061E+00  0.22163653107E+03  0.10100000352E+00 0. -1.
</event>
<event>
 5   0  0.1709372E-01  0.4964899E+03  0.7818609E-02  0.1014699E+00
        2   -1    0    0  501    0  0.00000000000E+00  0.00000000000E+00  0.10144888455E+04  0.10144888455E+04  0.25500000920E-02 0.  1.
       -2   -1    0    0    0  501  0.00000000000E+00  0.00000000000E+00 -0.60745412309E+02  0.60745412363E+02  0.25500000920E-02 0. -1.
    10030    2    1    2    0    0  0.00000000000E+00  0.00000000000E+00  0.95374343322E+03  0.10752342579E+04  0.49648985180E+03 0.  0.
        4    1    3    3  502    0  0.52241708096E+00 -0.19711201781E+03  0.15007393904E+03  0.24774426444E+03  0.12699999809E+01 0. -1.
       -4    1    3    3    0  502 -0.52241708096E+00  0.19711201781E+03  0.80366949418E+03  0.82748999345E+03  0.12699999809E+01 0.  1.
</event>
<event>
 5   0  0.1141970E-01  0.4972010E+03  0.7818609E-02  0.1014512E+00
       -1   -1    0    0    0  501  0.00000000000E+00  0.00000000000E+00  0.13966859244E+03  0.13966859253E+03  0.50400001928E-02 0. -1.
        1   -1    0    0  501    0  0.00000000000E+00  0.00000000000E+00 -0.44249172893E+03  0.44249172896E+03  0.50400001928E-02 0.  1.
    10030    2    1    2    0    0  0.00000000000E+00  0.00000000000E+00 -0.30282313649E+03  0.58216032149E+03  0.49720095326E+03 0.  0.
        3    1    3    3  502    0  0.13008488823E+03  0.38827106312E+02 -0.39525900773E+03  0.41792261930E+03  0.10100000352E+00 0.  1.
       -3    1    3    3    0  502 -0.13008488823E+03 -0.38827106312E+02  0.92435871233E+02  0.16423770219E+03  0.10100000352E+00 0. -1.
</event>
<event>
 5   0  0.1782124E-01  0.5016966E+03  0.7818609E-02  0.1013337E+00
        2   -1    0    0  501    0  0.00000000000E+00  0.00000000000E+00  0.12051527550E+04  0.12051527550E+04  0.25500000920E-02 0.  1.
       -2   -1    0    0    0  501  0.00000000000E+00  0.00000000000E+00 -0.52213187244E+02  0.52213187307E+02  0.25500000920E-02 0. -1.
    10030    2    1    2    0    0  0.00000000000E+00  0.00000000000E+00  0.11529395677E+04  0.12573659423E+04  0.50169658757E+03 0.  0.
        3    1    3    3  502    0 -0.12693464207E+03  0.89810937997E+02  0.83140954885E+02  0.17632593831E+03  0.10100000352E+00 0. -1.
       -3    1    3    3    0  502  0.12693464207E+03 -0.89810937997E+02  0.10697986128E+04  0.10810400040E+04  0.10100000352E+00 0.  1.
</event>
<event>
 5   0  0.1782124E-01  0.5041643E+03  0.7818609E-02  0.1012698E+00
        2   -1    0    0  501    0  0.00000000000E+00  0.00000000000E+00  0.15881288101E+04  0.15881288101E+04  0.25500000920E-02 0.  1.
       -2   -1    0    0    0  501  0.00000000000E+00  0.00000000000E+00 -0.40012755189E+02  0.40012755271E+02  0.25500000920E-02 0. -1.
    10030    2    1    2    0    0  0.00000000000E+00  0.00000000000E+00  0.15481160549E+04  0.16281415653E+04  0.50416429605E+03 0.  0.
        3    1    3    3  502    0  0.18766680682E+03 -0.16576619471E+03  0.68000923994E+03  0.72464462897E+03  0.10100000352E+00 0. -1.
       -3    1    3    3    0  502 -0.18766680682E+03  0.16576619471E+03  0.86810681493E+03  0.90349693636E+03  0.10100000352E+00 0.  1.
</event>
<event>
 5   0  0.7220250E-02  0.5017914E+03  0.7818609E-02  0.1013312E+00
       -4   -1    0    0    0  501  0.00000000000E+00  0.00000000000E+00  0.85961395156E+02  0.85970776181E+02  0.12699999809E+01 0.  1.
        4   -1    0    0  501    0  0.00000000000E+00  0.00000000000E+00 -0.73223989874E+03  0.73224100008E+03  0.12699999809E+01 0. -1.
    10030    2    1    2    0    0  0.00000000000E+00  0.00000000000E+00 -0.64627850358E+03  0.81821177626E+03  0.50179139752E+03 0.  0.
        2    1    3    3  502    0 -0.17059163443E+03 -0.23734307459E+02 -0.25658306832E+02  0.17413549840E+03  0.25500000920E-02 0.  1.
       -2    1    3    3    0  502  0.17059163443E+03  0.23734307459E+02 -0.62062019675E+03  0.64407627786E+03  0.25500000920E-02 0. -1.
</event>
<event>
 5   0  0.1760649E-01  0.5020984E+03  0.7818609E-02  0.1013233E+00
       -2   -1    0    0    0  501  0.00000000000E+00  0.00000000000E+00  0.66347312466E+02  0.66347312515E+02  0.25500000920E-02 0.  1.
        2   -1    0    0  501    0  0.00000000000E+00  0.00000000000E+00 -0.94993607405E+03  0.94993607406E+03  0.25500000920E-02 0. -1.
    10030    2    1    2    0    0  0.00000000000E+00  0.00000000000E+00 -0.88358876159E+03  0.10162833866E+04  0.50209841886E+03 0.  0.
        5    1    3    3  502    0  0.79654046046E+01  0.25048698058E+03 -0.41342555051E+03  0.48347693939E+03  0.46999998093E+01 0. -1.
       -5    1    3    3    0  502 -0.79654046046E+01 -0.25048698058E+03 -0.47016321107E+03  0.53280644718E+03  0.46999998093E+01 0.  1.
</event>
<event>
 5   0  0.1123271E-01  0.5488957E+03  0.7818609E-02  0.1001750E+00
        1   -1    0    0  501    0  0.00000000000E+00  0.00000000000E+00  0.48602804622E+03  0.48602804625E+03  0.50400001928E-02 0. -1.
       -1   -1    0    0    0  501  0.00000000000E+00  0.00000000000E+00 -0.15497383458E+03  0.15497383466E+03  0.50400001928E-02 0.  1.
    10030    2    1    2    0    0  0.00000000000E+00  0.00000000000E+00  0.33105421164E+03  0.64100188091E+03  0.54889572806E+03 0.  0.
        5    1    3    3  502    0 -0.13739351598E+03 -0.17603707383E+02 -0.11110330730E+03  0.17763137008E+03  0.46999998093E+01 0.  1.
       -5    1    3    3    0  502  0.13739351598E+03  0.17603707383E+02  0.44215751895E+03  0.46337051083E+03  0.46999998093E+01 0. -1.
</event>
<event>
 5   0  0.1068522E-01  0.5033687E+03  0.7818609E-02  0.1012903E+00
       -1   -1    0    0    0  501  0.00000000000E+00  0.00000000000E+00  0.80560518881E+02  0.80560519039E+02  0.50400001928E-02 0. -1.
        1   -1    0    0  501    0  0.00000000000E+00  0.00000000000E+00 -0.78630328924E+03  0.78630328926E+03  0.50400001928E-02 0.  1.
    10030    2    1    2    0    0  0.00000000000E+00  0.00000000000E+00 -0.70574277036E+03  0.86686380830E+03  0.50336865637E+03 0.  0.
        2    1    3    3  502    0 -0.48182155662E+02  0.12606092112E+03 -0.71872520479E+03  0.73128571431E+03  0.25500000920E-02 0.  1.
       -2    1    3    3    0  502  0.48182155662E+02 -0.12606092112E+03  0.12982434423E+02  0.13557809399E+03  0.25500000920E-02 0. -1.
</event>
<event>
 5   0  0.1760649E-01  0.5051940E+03  0.7818609E-02  0.1012432E+00
        2   -1    0    0  501    0  0.00000000000E+00  0.00000000000E+00  0.61365285967E+03  0.61365285968E+03  0.25500000920E-02 0. -1.
       -2   -1    0    0    0  501  0.00000000000E+00  0.00000000000E+00 -0.10397611317E+03  0.10397611321E+03  0.25500000920E-02 0.  1.
    10030    2    1    2    0    0  0.00000000000E+00  0.00000000000E+00  0.50967674650E+03  0.71762897288E+03  0.50519397938E+03 0.  0.
        5    1    3    3  502    0 -0.11684171471E+03  0.14359593401E+03  0.10812155757E+02  0.18550140504E+03  0.46999998093E+01 0.  1.
       -5    1    3    3    0  502  0.11684171471E+03 -0.14359593401E+03  0.49886459074E+03  0.53212756784E+03  0.46999998093E+01 0. -1.
</event>
<event>
 5   0  0.1827698E-01  0.4974281E+03  0.7818609E-02  0.1014452E+00
       -2   -1    0    0    0  501  0.00000000000E+00  0.00000000000E+00  0.37598693788E+02  0.37598693875E+02  0.25500000920E-02 0.  1.
        2   -1    0    0  501    0  0.00000000000E+00  0.00000000000E+00 -0.16452350126E+04  0.16452350126E+04  0.25500000920E-02 0. -1.
    10030    2    1    2    0    0  0.00000000000E+00  0.00000000000E+00 -0.16076363188E+04  0.16828337065E+04  0.49742813560E+03 0.  0.
        1    1    3    3  502    0  0.22035089818E+03  0.29437030685E+02 -0.11811119687E+04  0.12018512969E+04  0.50400001928E-02 0. -1.
       -1    1    3    3    0  502 -0.22035089818E+03 -0.29437030685E+02 -0.42652435009E+03  0.48098240961E+03  0.50400001928E-02 0.  1.
</event>
<event>
 5   0  0.1068522E-01  0.5067607E+03  0.7818609E-02  0.1012029E+00
       -1   -1    0    0    0  501  0.00000000000E+00  0.00000000000E+00  0.62511688159E+03  0.62511688161E+03  0.50400001928E-02 0. -1.
        1   -1    0    0  501    0  0.00000000000E+00  0.00000000000E+00 -0.10270337358E+03  0.10270337370E+03  0.50400001928E-02 0.  1.
    10030    2    1    2    0    0  0.00000000000E+00  0.00000000000E+00  0.52241350801E+03  0.72782025532E+03  0.50676074305E+03 0.  0.
        2    1    3    3  502    0  0.89887497988E+02  0.29870805402E+02 -0.76319115689E+02  0.12164141867E+03  0.25500000920E-02 0.  1.
       -2    1    3    3    0  502 -0.89887497988E+02 -0.29870805402E+02  0.59873262370E+03  0.60617883665E+03  0.25500000920E-02 0. -1.
</event>
<event>
 5   0  0.1827698E-01  0.4936211E+03  0.7818609E-02  0.1015457E+00
        2   -1    0    0  501    0  0.00000000000E+00  0.00000000000E+00  0.31122704331E+03  0.31122704332E+03  0.25500000920E-02 0. -1.
       -2   -1    0    0    0  501  0.00000000000E+00  0.00000000000E+00 -0.19572669133E+03  0.19572669135E+03  0.25500000920E-02 0.  1.
    10030    2    1    2    0    0  0.00000000000E+00  0.00000000000E+00  0.11550035198E+03  0.50695373467E+03  0.49362106701E+03 0.  0.
        1    1    3    3  502    0 -0.28606256131E+02 -0.24079469370E+03  0.10498188139E+03  0.26423776764E+03  0.50400001928E-02 0. -1.
       -1    1    3    3    0  502  0.28606256131E+02  0.24079469370E+03  0.10518470592E+02  0.24271596703E+03  0.50400001928E-02 0.  1.
</event>
<event>
 5   0  0.1074281E-01  0.4940148E+03  0.7818609E-02  0.1015353E+00
        1   -1    0    0  501    0  0.00000000000E+00  0.00000000000E+00  0.42368231063E+03  0.42368231066E+03  0.50400001928E-02 0.  1.
       -1   -1    0    0    0  501  0.00000000000E+00  0.00000000000E+00 -0.14400566990E+03  0.14400566999E+03  0.50400001928E-02 0. -1.
    10030    2    1    2    0    0  0.00000000000E+00  0.00000000000E+00  0.27967664073E+03  0.56768798064E+03  0.49401479735E+03 0.  0.
        4    1    3    3  502    0 -0.24278854731E+03  0.31590264426E+02  0.10230516917E+03  0.26535294242E+03  0.12699999809E+01 0.  1.
       -4    1    3    3    0  502  0.24278854731E+03 -0.31590264426E+02  0.17737147156E+03  0.30233503822E+03  0.12699999809E+01 0. -1.
</event>
<event>
 5   0  0.7220250E-02  0.4950683E+03  0.7818609E-02  0.1015074E+00
        3   -1    0    0  501    0  0.00000000000E+00  0.00000000000E+00  0.10635693291E+03  0.10635698087E+03  0.10100000352E+00 0. -1.
       -3   -1    0    0    0  501  0.00000000000E+00  0.00000000000E+00 -0.57610852251E+03  0.57610853136E+03  0.10100000352E+00 0.  1.
    10030    2    1    2    0    0  0.00000000000E+00  0.00000000000E+00 -0.46975158959E+03  0.68246551223E+03  0.49506829777E+03 0.  0.
        4    1    3    3  502    0 -0.13361850263E+03  0.11148542797E+03  0.77946190240E+01  0.17419894914E+03  0.12699999809E+01 0. -1.
       -4    1    3    3    0  502  0.13361850263E+03 -0.11148542797E+03 -0.47754620862E+03  0.50826656309E+03  0.12699999809E+01 0.  1.
</event>
<event>
 5   0  0.1782124E-01  0.4966073E+03  0.7818609E-02  0.1014668E+00
        2   -1    0    0  501    0  0.00000000000E+00  0.00000000000E+00  0.52059426363E+03  0.52059426364E+03  0.25500000920E-02 0.  1.
       -2   -1    0    0    0  501  0.00000000000E+00  0.00000000000E+00 -0.11843138089E+03  0.11843138092E+03  0.25500000920E-02 0. -1.
    10030    2    1    2    0    0  0.00000000000E+00  0.00000000000E+00  0.40216288274E+03  0.63902564456E+03  0.49660727960E+03 0.  0.
        3    1    3    3  502    0  0.17183415345E+02 -0.28656361082E+02  0.51768811655E+03  0.51876531593E+03  0.10100000352E+00 0.  1.
       -3    1    3    3    0  502 -0.17183415345E+02  0.28656361082E+02 -0.11552523381E+03  0.12026032863E+03  0.10100000352E+00 0. -1.
</event>
<event>
 5   0  0.1074281E-01  0.4972108E+03  0.7818609E-02  0.1014509E+00
        1   -1    0    0  501    0  0.00000000000E+00  0.00000000000E+00  0.62617447066E+03  0.62617447068E+03  0.50400001928E-02 0. -1.
       -1   -1    0    0    0  501  0.00000000000E+00  0.00000000000E+00 -0.98701971872E+02  0.98701972001E+02  0.50400001928E-02 0.  1.
    10030    2    1    2    0    0  0.00000000000E+00  0.00000000000E+00  0.52747249879E+03  0.72487644268E+03  0.49721084077E+03 0.  0.
        4    1    3    3  502    0  0.20132591957E+03 -0.11486614265E+03  0.39475697004E+03  0.45777836877E+03  0.12699999809E+01 0. -1.
       -4    1    3    3    0  502 -0.20132591957E+03  0.11486614265E+03  0.13271552875E+03  0.26709807392E+03  0.12699999809E+01 0.  1.
</event>
<event>
 5   0  0.1782124E-01  0.5072256E+03  0.7818609E-02  0.1011910E+00
       -2   -1    0    0    0  501  0.00000000000E+00  0.00000000000E+00  0.39679096903E+03  0.39679096904E+03  0.25500000920E-02 0. -1.
        2   -1    0    0  501    0  0.00000000000E+00  0.00000000000E+00 -0.16209906936E+03  0.16209906938E+03  0.25500000920E-02 0.  1.
    10030    2    1    2    0    0  0.00000000000E+00  0.00000000000E+00  0.23469189967E+03  0.55889003842E+03  0.50722557830E+03 0.  0.
        3    1    3    3  502    0  0.53470802302E+02 -0.52093364894E+02 -0.14971879390E+03  0.16729785656E+03  0.10100000352E+00 0.  1.
       -3    1    3    3    0  502 -0.53470802302E+02  0.52093364894E+02  0.38441069356E+03  0.39159218186E+03  0.10100000352E+00 0. -1.
</event>
<event>
 5   0  0.1709372E-01  0.4818419E+03  0.7818609E-02  0.1018630E+00
       -2   -1    0    0    0  501  0.00000000000E+00  0.00000000000E+00  0.81670723820E+02  0.81670723860E+02  0.25500000920E-02 0.  1.
        2   -1    0    0  501    0  0.00000000000E+00  0.00000000000E+00 -0.71069420251E+03  0.71069420251E+03  0.25500000920E-02 0. -1.
    10030    2    1    2    0    0  0.00000000000E+00  0.00000000000E+00 -0.62902347869E+03  0.79236492637E+03  0.48184192408E+03 0.  0.
        4    1    3    3  502    0  0.13636757113E+03 -0.70026352984E+02 -0.62013838046E+03  0.63880593954E+03  0.12699999809E+01 0. -1.
       -4    1    3    3    0  502 -0.13636757113E+03  0.70026352984E+02 -0.88850982265E+01  0.15355898683E+03  0.12699999809E+01 0.  1.
</event>
<event>
 5   0  0.1683148E-01  0.5016538E+03  0.7818609E-02  0.1013348E+00
       -2   -1    0    0    0  501  0.00000000000E+00  0.00000000000E+00  0.32593038539E+02  0.32593038639E+02  0.25500000920E-02 0. -1.
        2   -1    0    0  501    0  0.00000000000E+00  0.00000000000E+00 -0.19302937832E+04  0.19302937832E+04  0.25500000920E-02 0.  1.
    10030    2    1    2    0    0  0.00000000000E+00  0.00000000000E+00 -0.18977007446E+04  0.19628868218E+04  0.50165382393E+03 0.  0.
        2    1    3    3  502    0  0.22502493972E+03  0.78712546905E+02 -0.64369339147E+03  0.68642047665E+03  0.25500000920E-02 0. -1.
       -2    1    3    3    0  502 -0.22502493972E+03 -0.78712546905E+02 -0.12540073532E+04  0.12764663452E+04  0.25500000920E-02 0.  1.
</event>
<event>
 5   0  0.1683148E-01  0.5057698E+03  0.7818609E-02  0.1012284E+00
        2   -1    0    0  501    0  0.00000000000E+00  0.00000000000E+00  0.44254358269E+03  0.44254358270E+03  0.25500000920E-02 0.  1.
       -2   -1    0    0    0  501  0.00000000000E+00  0.00000000000E+00 -0.14450731048E+03  0.14450731050E+03  0.25500000920E-02 0. -1.
    10030    2    1    2    0    0  0.00000000000E+00  0.00000000000E+00  0.29803627222E+03  0.58705089320E+03  0.50576984059E+03 0.  0.
        2    1    3    3  502    0  0.21337473545E+03  0.25595455942E+02  0.30373169718E+03  0.37207102678E+03  0.25500000920E-02 0.  1.
       -2    1    3    3    0  502 -0.21337473545E+03 -0.25595455942E+02 -0.56954249648E+01  0.21497986642E+03  0.25500000920E-02 0. -1.
</event>
<event>
 5   0  0.1068522E-01  0.5967663E+03  0.7818609E-02  0.9912138E-01
        1   -1    0    0  501    0  0.00000000000E+00  0.00000000000E+00  0.22971953663E+03  0.22971953668E+03  0.50400001928E-02 0.  1.
       -1   -1    0    0    0  501  0.00000000000E+00  0.00000000000E+00 -0.38757050525E+03  0.38757050529E+03  0.50400001928E-02 0. -1.
    10030    2    1    2    0    0  0.00000000000E+00  0.00000000000E+00 -0.15785096863E+03  0.61729004197E+03  0.59676634256E+03 0.  0.
        2    1    3    3  502    0 -0.20637054440E+02  0.29444873688E+03 -0.12409145555E+03  0.32019468455E+03  0.25500000920E-02 0. -1.
       -2    1    3    3    0  502  0.20637054440E+02 -0.29444873688E+03 -0.33759513081E+02  0.29709535742E+03  0.25500000920E-02 0.  1.
</event>
<event>
 5   0  0.1683148E-01  0.5010283E+03  0.7818609E-02  0.1013511E+00
       -2   -1    0    0    0  501  0.00000000000E+00  0.00000000000E+00  0.10455448091E+03  0.10455448094E+03  0.25500000920E-02 0.  1.
        2   -1    0    0  501    0  0.00000000000E+00  0.00000000000E+00 -0.60023581268E+03  0.60023581269E+03  0.25500000920E-02 0. -1.
    10030    2    1    2    0    0  0.00000000000E+00  0.00000000000E+00 -0.49568133178E+03  0.70479029362E+03  0.50102831788E+03 0.  0.
        2    1    3    3  502    0  0.13822259951E+03 -0.96638411733E+02 -0.50841173243E+03  0.53565563501E+03  0.25500000920E-02 0. -1.
       -2    1    3    3    0  502 -0.13822259951E+03  0.96638411733E+02  0.12730400651E+02  0.16913465862E+03  0.25500000920E-02 0.  1.
</event>
<event>
 5   0  0.1760649E-01  0.5039602E+03  0.7818609E-02  0.1012750E+00
        2   -1    0    0  501    0  0.00000000000E+00  0.00000000000E+00  0.37782302375E+03  0.37782302376E+03  0.25500000920E-02 0.  1.
       -2   -1    0    0    0  501  0.00000000000E+00  0.00000000000E+00 -0.16805212093E+03  0.16805212095E+03  0.25500000920E-02 0. -1.
    10030    2    1    2    0    0  0.00000000000E+00  0.00000000000E+00  0.20977090282E+03  0.54587514470E+03  0.50396015907E+03 0.  0.
        5    1    3    3  502    0  0.17388429453E+03  0.10737808813E+03  0.26446884757E+03  0.33426286516E+03  0.46999998093E+01 0.  1.
       -5    1    3    3    0  502 -0.17388429453E+03 -0.10737808813E+03 -0.54697944741E+02  0.21161227954E+03  0.46999998093E+01 0. -1.
</event>
<event>
 5   0  0.1760649E-01  0.5112797E+03  0.7818609E-02  0.1010876E+00
        2   -1    0    0  501    0  0.00000000000E+00  0.00000000000E+00  0.29901202339E+03  0.29901202340E+03  0.25500000920E-02 0.  1.
       -2   -1    0    0    0  501  0.00000000000E+00  0.00000000000E+00 -0.21855885511E+03  0.21855885513E+03  0.25500000920E-02 0. -1.
    10030    2    1    2    0    0  0.00000000000E+00  0.00000000000E+00  0.80453168275E+02  0.51757087852E+03  0.51127967103E+03 0.  0.
        5    1    3    3  502    0  0.10249662351E+03  0.16241788872E+03  0.21095684881E+03  0.28532439515E+03  0.46999998093E+01 0.  1.
       -5    1    3    3    0  502 -0.10249662351E+03 -0.16241788872E+03 -0.13050368054E+03  0.23224648337E+03  0.46999998093E+01 0. -1.
</event>
<event>
 5   0  0.1782124E-01  0.5068681E+03  0.7818609E-02  0.1012002E+00
        2   -1    0    0  501    0  0.00000000000E+00  0.00000000000E+00  0.12987326569E+04  0.12987326569E+04  0.25500000920E-02 0.  1.
       -2   -1    0    0    0  501  0.00000000000E+00  0.00000000000E+00 -0.49454988238E+02  0.49454988304E+02  0.25500000920E-02 0. -1.
    10030    2    1    2    0    0  0.00000000000E+00  0.00000000000E+00  0.12492776687E+04  0.13481876452E+04  0.50686806299E+03 0.  0.
        3    1    3    3  502    0  0.82933383797E+02  0.50960228875E+02  0.22483096846E+01  0.97365066489E+02  0.10100000352E+00 0. -1.
       -3    1    3    3    0  502 -0.82933383797E+02 -0.50960228875E+02  0.12470293590E+04  0.12508225788E+04  0.10100000352E+00 0.  1.
</event>
<event>
 5   0  0.1141970E-01  0.5070009E+03  0.7818609E-02  0.1011968E+00
       -1   -1    0    0    0  501  0.00000000000E+00  0.00000000000E+00  0.48254925485E+02  0.48254925749E+02  0.50400001928E-02 0.  1.
        1   -1    0    0  501    0  0.00000000000E+00  0.00000000000E+00 -0.13317289093E+04  0.13317289093E+04  0.50400001928E-02 0. -1.
    10030    2    1    2    0    0  0.00000000000E+00  0.00000000000E+00 -0.12834739839E+04  0.13799838351E+04  0.50700090523E+03 0.  0.
        3    1    3    3  502    0  0.18751209749E+03 -0.14061919515E+03 -0.37885685268E+03  0.44549643070E+03  0.10100000352E+00 0.  1.
       -3    1    3    3    0  502 -0.18751209749E+03  0.14061919515E+03 -0.90461713118E+03  0.93448740439E+03  0.10100000352E+00 0. -1.
</event>
<event>
 5   0  0.7220250E-02  0.5132038E+03  0.7818609E-02  0.1010389E+00
       -3   -1    0    0    0  501  0.00000000000E+00  0.00000000000E+00  0.70080618375E+03  0.70080619103E+03  0.10100000352E+00 0.  1.
        3   -1    0    0  501    0  0.00000000000E+00  0.00000000000E+00 -0.93955362907E+02  0.93955417194E+02  0.10100000352E+00 0. -1.
    10030    2    1    2    0    0  0.00000000000E+00  0.00000000000E+00  0.60685082084E+03  0.79476160822E+03  0.51320375597E+03 0.  0.
        3    1    3    3  502    0 -0.15801404461E+02 -0.72337173355E+02 -0.77052501046E+02  0.10686182270E+03  0.10100000352E+00 0. -1.
       -3    1    3    3    0  502  0.15801404461E+02  0.72337173355E+02  0.68390332189E+03  0.68789978552E+03  0.10100000352E+00 0.  1.
</event>
<event>
 5   0  0.1147245E-01  0.5013742E+03  0.7818609E-02  0.1013421E+00
        1   -1    0    0  501    0  0.00000000000E+00  0.00000000000E+00  0.87088485362E+02  0.87088485508E+02  0.50400001928E-02 0. -1.
       -1   -1    0    0    0  501  0.00000000000E+00  0.00000000000E+00 -0.72161104683E+03  0.72161104685E+03  0.50400001928E-02 0.  1.
    10030    2    1    2    0    0  0.00000000000E+00  0.00000000000E+00 -0.63452256147E+03  0.80869953236E+03  0.50137416429E+03 0.  0.
        1    1    3    3  502    0  0.22823853599E+03 -0.69208662064E+02 -0.44179798429E+03  0.50206386761E+03  0.50400001928E-02 0.  1.
       -1    1    3    3    0  502 -0.22823853599E+03  0.69208662064E+02 -0.19272457718E+03  0.30663566475E+03  0.50400001928E-02 0. -1.
</event>
<event>
 5   0  0.1782124E-01  0.4723925E+03  0.7818609E-02  0.1021247E+00
       -2   -1    0    0    0  501  0.00000000000E+00  0.00000000000E+00  0.28478276078E+03  0.28478276079E+03  0.25500000920E-02 0.  1.
        2   -1    0    0  501    0  0.00000000000E+00  0.00000000000E+00 -0.19589901920E+03  0.19589901921E+03  0.25500000920E-02 0. -1.
    10030    2    1    2    0    0  0.00000000000E+00  0.00000000000E+00  0.88883741584E+02  0.48068178001E+03  0.47239247889E+03 0.  0.
        3    1    3    3  502    0 -0.20792421103E+03  0.32234558811E+01  0.15841529825E+03  0.26141592362E+03  0.10100000352E+00 0. -1.
       -3    1    3    3    0  502  0.20792421103E+03 -0.32234558811E+01 -0.69531556669E+02  0.21926585638E+03  0.10100000352E+00 0.  1.
</event>
<event>
 5   0  0.7220250E-02  0.4545640E+03  0.7818609E-02  0.1026370E+00
        4   -1    0    0  501    0  0.00000000000E+00  0.00000000000E+00  0.39678728893E+02  0.39699048182E+02  0.12699999809E+01 0.  1.
       -4   -1    0    0    0  501  0.00000000000E+00  0.00000000000E+00 -0.13015303539E+04  0.13015309735E+04  0.12699999809E+01 0. -1.
    10030    2    1    2    0    0  0.00000000000E+00  0.00000000000E+00 -0.12618516250E+04  0.13412300217E+04  0.45456401922E+03 0.  0.
        4    1    3    3  502    0 -0.71695085819E+02  0.99661842096E+02 -0.11952736488E+04  0.12015628892E+04  0.12699999809E+01 0. -1.
       -4    1    3    3    0  502  0.71695085819E+02 -0.99661842096E+02 -0.66577976168E+02  0.13966713254E+03  0.12699999809E+01 0.  1.
</event>
<event>
 5   0  0.1709372E-01  0.5010178E+03  0.7818609E-02  0.1013514E+00
       -2   -1    0    0    0  501  0.00000000000E+00  0.00000000000E+00  0.94887615155E+02  0.94887615189E+02  0.25500000920E-02 0.  1.
        2   -1    0    0  501    0  0.00000000000E+00  0.00000000000E+00 -0.66135828898E+03  0.66135828898E+03  0.25500000920E-02 0. -1.
    10030    2    1    2    0    0  0.00000000000E+00  0.00000000000E+00 -0.56647067382E+03  0.75624590417E+03  0.50101780734E+03 0.  0.
        4    1    3    3  502    0 -0.19715976842E+03  0.13178489121E+03 -0.16141233797E+03  0.28687068094E+03  0.12699999809E+01 0.  1.
       -4    1    3    3    0  502  0.19715976842E+03 -0.13178489121E+03 -0.40505833586E+03  0.46937522323E+03  0.12699999809E+01 0. -1.
</event>
<event>
 5   0  0.7220250E-02  0.4951159E+03  0.7818609E-02  0.1015062E+00
       -3   -1    0    0    0  501  0.00000000000E+00  0.00000000000E+00  0.53070721086E+03  0.53070722047E+03  0.10100000352E+00 0.  1.
        3   -1    0    0  501    0  0.00000000000E+00  0.00000000000E+00 -0.11547784371E+03  0.11547788787E+03  0.10100000352E+00 0. -1.
    10030    2    1    2    0    0  0.00000000000E+00  0.00000000000E+00  0.41522936715E+03  0.64618510834E+03  0.49511591259E+03 0.  0.
        2    1    3    3  502    0 -0.21542801188E+03 -0.52372765323E+02  0.63857120176E+02  0.23071598699E+03  0.25500000920E-02 0. -1.
       -2    1    3    3    0  502  0.21542801188E+03  0.52372765323E+02  0.35137224697E+03  0.41546912135E+03  0.25500000920E-02 0.  1.
</event>
<event>
 5   0  0.1074281E-01  0.5043480E+03  0.7818609E-02  0.1012650E+00
       -1   -1    0    0    0  501  0.00000000000E+00  0.00000000000E+00  0.32255771599E+02  0.32255771993E+02  0.50400001928E-02 0. -1.
        1   -1    0    0  501    0  0.00000000000E+00  0.00000000000E+00 -0.19714834860E+04  0.19714834860E+04  0.50400001928E-02 0.  1.
    10030    2    1    2    0    0  0.00000000000E+00  0.00000000000E+00 -0.19392277144E+04  0.20037392580E+04  0.50434798081E+03 0.  0.
        4    1    3    3  502    0 -0.15946750552E+03  0.35176826552E+02 -0.17330246886E+04  0.17407020074E+04  0.12699999809E+01 0.  1.
       -4    1    3    3    0  502  0.15946750552E+03 -0.35176826552E+02 -0.20620302580E+03  0.26303725058E+03  0.12699999809E+01 0. -1.
</event>
<event>
 5   0  0.1709372E-01  0.4406121E+03  0.7818609E-02  0.1030559E+00
        2   -1    0    0  501    0  0.00000000000E+00  0.00000000000E+00  0.55590013962E+03  0.55590013962E+03  0.25500000920E-02 0.  1.
       -2   -1    0    0    0  501  0.00000000000E+00  0.00000000000E+00 -0.87308422523E+02  0.87308422560E+02  0.25500000920E-02 0. -1.
    10030    2    1    2    0    0  0.00000000000E+00  0.00000000000E+00  0.46859171709E+03  0.64320856218E+03  0.44061213912E+03 0.  0.
        4    1    3    3  502    0  0.25872998240E+02  0.10943920027E+03  0.51083889740E+03  0.52307202429E+03  0.12699999809E+01 0.  1.
       -4    1    3    3    0  502 -0.25872998240E+02 -0.10943920027E+03 -0.42247180308E+02  0.12013653790E+03  0.12699999809E+01 0. -1.
</event>
<event>
 5   0  0.1827698E-01  0.4787143E+03  0.7818609E-02  0.1019489E+00
       -2   -1    0    0    0  501  0.00000000000E+00  0.00000000000E+00  0.76084037655E+02  0.76084037698E+02  0.25500000920E-02 0.  1.
        2   -1    0    0  501    0  0.00000000000E+00  0.00000000000E+00 -0.75300726897E+03  0.75300726897E+03  0.25500000920E-02 0. -1.
    10030    2    1    2    0    0  0.00000000000E+00  0.00000000000E+00 -0.67692323131E+03  0.82909130667E+03  0.47871425058E+03 0.  0.
        1    1    3    3  502    0  0.18355079441E+03  0.13158792571E+03 -0.20115296707E+03  0.30243808046E+03  0.50400001928E-02 0.  1.
       -1    1    3    3    0  502 -0.18355079441E+03 -0.13158792571E+03 -0.47577026424E+03  0.52665322622E+03  0.50400001928E-02 0. -1.
</event>
<event>
 5   0  0.1683148E-01  0.5017303E+03  0.7818609E-02  0.1013328E+00
        2   -1    0    0  501    0  0.00000000000E+00  0.00000000000E+00  0.10992165536E+04  0.10992165536E+04  0.25500000920E-02 0. -1.
       -2   -1    0    0    0  501  0.00000000000E+00  0.00000000000E+00 -0.57252898030E+02  0.57252898087E+02  0.25500000920E-02 0.  1.
    10030    2    1    2    0    0  0.00000000000E+00  0.00000000000E+00  0.10419636556E+04  0.11564694517E+04  0.50173033909E+03 0.  0.
        2    1    3    3  502    0 -0.15201939415E+03  0.19188323319E+03  0.64731944968E+03  0.69206324951E+03  0.25500000920E-02 0. -1.
       -2    1    3    3    0  502  0.15201939415E+03 -0.19188323319E+03  0.39464420591E+03  0.46440620220E+03  0.25500000920E-02 0.  1.
</event>
<event>
 5   0  0.1141970E-01  0.5035366E+03  0.7818609E-02  0.1012860E+00
       -1   -1    0    0    0  501  0.00000000000E+00  0.00000000000E+00  0.58358260285E+02  0.58358260502E+02  0.50400001928E-02 0.  1.
        1   -1    0    0  501    0  0.00000000000E+00  0.00000000000E+00 -0.10861747667E+04  0.10861747667E+04  0.50400001928E-02 0. -1.
    10030    2    1    2    0    0  0.00000000000E+00  0.00000000000E+00 -0.10278165065E+04  0.11445330273E+04  0.50353657219E+03 0.  0.
        3    1    3    3  502    0  0.15210760410E+03  0.17357271525E+03 -0.74260130997E+03  0.77763804335E+03  0.10100000352E+00 0. -1.
       -3    1    3    3    0  502 -0.15210760410E+03 -0.17357271525E+03 -0.28521519649E+03  0.36689498390E+03  0.10100000352E+00 0.  1.
</event>
<event>
 5   0  0.1123271E-01  0.4921250E+03  0.7818609E-02  0.1015855E+00
       -1   -1    0    0    0  501  0.00000000000E+00  0.00000000000E+00  0.16273681535E+03  0.16273681542E+03  0.50400001928E-02 0. -1.
        1   -1    0    0  501    0  0.00000000000E+00  0.00000000000E+00 -0.37205315170E+03  0.37205315173E+03  0.50400001928E-02 0.  1.
    10030    2    1    2    0    0  0.00000000000E+00  0.00000000000E+00 -0.20931633635E+03  0.53478996716E+03  0.49212496412E+03 0.  0.
        5    1    3    3  502    0  0.81473512537E+02  0.20472588438E+03 -0.22357082988E+03  0.31393729780E+03  0.46999998093E+01 0.  1.
       -5    1    3    3    0  502 -0.81473512537E+02 -0.20472588438E+03  0.14254493529E+02  0.22085266936E+03  0.46999998093E+01 0. -1.
</event>
<event>
 5   0  0.1074281E-01  0.5100530E+03  0.7818609E-02  0.1011188E+00
       -1   -1    0    0    0  501  0.00000000000E+00  0.00000000000E+00  0.69128127638E+02  0.69128127822E+02  0.50400001928E-02 0. -1.
        1   -1    0    0  501    0  0.00000000000E+00  0.00000000000E+00 -0.94084028870E+03  0.94084028871E+03  0.50400001928E-02 0.  1.
    10030    2    1    2    0    0  0.00000000000E+00  0.00000000000E+00 -0.87171216106E+03  0.10099684165E+04  0.51005304690E+03 0.  0.
        4    1    3    3  502    0 -0.22468676951E+03  0.94701566117E+02 -0.28788389993E+03  0.37726818545E+03  0.12699999809E+01 0. -1.
       -4    1    3    3    0  502  0.22468676951E+03 -0.94701566117E+02 -0.58382826113E+03  0.63270023108E+03  0.12699999809E+01 0.  1.
</event>
<event>
 5   0  0.1068522E-01  0.5058311E+03  0.7818609E-02  0.1012268E+00
        1   -1    0    0  501    0  0.00000000000E+00  0.00000000000E+00  0.10621021815E+04  0.10621021816E+04  0.50400001928E-02 0.  1.
       -1   -1    0    0    0  501  0.00000000000E+00  0.00000000000E+00 -0.60226092758E+02  0.60226092969E+02  0.50400001928E-02 0. -1.
    10030    2    1    2    0    0  0.00000000000E+00  0.00000000000E+00  0.10018760888E+04  0.11223282745E+04  0.50583105729E+03 0.  0.
        2    1    3    3  502    0 -0.16055351790E+03 -0.77378124774E+02  0.10278303576E+03  0.20574051314E+03  0.25500000920E-02 0. -1.
       -2    1    3    3    0  502  0.16055351790E+03  0.77378124774E+02  0.89909305303E+03  0.91658776138E+03  0.25500000920E-02 0.  1.
</event>
<event>
 5   0  0.1683148E-01  0.5010380E+03  0.7818609E-02  0.1013508E+00
        2   -1    0    0  501    0  0.00000000000E+00  0.00000000000E+00  0.11697914577E+04  0.11697914577E+04  0.25500000920E-02 0. -1.
       -2   -1    0    0    0  501  0.00000000000E+00  0.00000000000E+00 -0.53650394102E+02  0.53650394163E+02  0.25500000920E-02 0.  1.
    10030    2    1    2    0    0  0.00000000000E+00  0.00000000000E+00  0.11161410636E+04  0.12234418518E+04  0.50103801357E+03 0.  0.
        2    1    3    3  502    0 -0.13164247837E+03 -0.17961009705E+03  0.27784380036E+03  0.35607120985E+03  0.25500000920E-02 0.  1.
       -2    1    3    3    0  502  0.13164247837E+03  0.17961009705E+03  0.83829726320E+03  0.86737064198E+03  0.25500000920E-02 0. -1.
</event>
<event>
 5   0  0.1760649E-01  0.5013546E+03  0.7818609E-02  0.1013426E+00
        2   -1    0    0  501    0  0.00000000000E+00  0.00000000000E+00  0.39523733427E+03  0.39523733427E+03  0.25500000920E-02 0. -1.
       -2   -1    0    0    0  501  0.00000000000E+00  0.00000000000E+00 -0.15899082742E+03  0.15899082744E+03  0.25500000920E-02 0.  1.
    10030    2    1    2    0    0  0.00000000000E+00  0.00000000000E+00  0.23624650685E+03  0.55422816171E+03  0.50135460828E+03 0.  0.
        5    1    3    3  502    0 -0.17907959860E+03  0.70106847918E+02 -0.59552105470E+02  0.20137779427E+03  0.46999998093E+01 0.  1.
       -5    1    3    3    0  502  0.17907959860E+03 -0.70106847918E+02  0.29579861232E+03  0.35285036745E+03  0.46999998093E+01 0. -1.
</event>
<event>
 5   0  0.1147245E-01  0.5044005E+03  0.7818609E-02  0.1012637E+00
       -1   -1    0    0    0  501  0.00000000000E+00  0.00000000000E+00  0.18255900796E+03  0.18255900803E+03  0.50400001928E-02 0.  1.
        1   -1    0    0  501    0  0.00000000000E+00  0.00000000000E+00 -0.34840769631E+03  0.34840769635E+03  0.50400001928E-02 0. -1.
    10030    2    1    2    0    0  0.00000000000E+00  0.00000000000E+00 -0.16584868835E+03  0.53096670438E+03  0.50440048943E+03 0.  0.
        1    1    3    3  502    0 -0.20337307197E+03 -0.73847401715E+02 -0.21932894308E+03  0.30808964676E+03  0.50400001928E-02 0.  1.
       -1    1    3    3    0  502  0.20337307197E+03  0.73847401715E+02  0.53480254728E+02  0.22287705762E+03  0.50400001928E-02 0. -1.
</event>
<event>
 5   0  0.1827698E-01  0.4982464E+03  0.7818609E-02  0.1014238E+00
        2   -1    0    0  501    0  0.00000000000E+00  0.00000000000E+00  0.12258076375E+04  0.12258076375E+04  0.25500000920E-02 0.  1.
       -2   -1    0    0    0  501  0.00000000000E+00  0.00000000000E+00 -0.50629772017E+02  0.50629772081E+02  0.25500000920E-02 0. -1.
    10030    2    1    2    0    0  0.00000000000E+00  0.00000000000E+00  0.11751778655E+04  0.12764374096E+04  0.49824636984E+03 0.  0.
        1    1    3    3  502    0  0.12601889188E+03  0.16231438255E+03  0.94839888173E+03  0.97040566713E+03  0.50400001928E-02 0.  1.
       -1    1    3    3    0  502 -0.12601889188E+03 -0.16231438255E+03  0.22677898373E+03  0.30603174244E+03  0.50400001928E-02 0. -1.
</event>
<event>
 5   0  0.1074281E-01  0.5003543E+03  0.7818609E-02  0.1013686E+00
       -1   -1    0    0    0  501  0.00000000000E+00  0.00000000000E+00  0.53489729655E+03  0.53489729657E+03  0.50400001928E-02 0.  1.
        1   -1    0    0  501    0  0.00000000000E+00  0.00000000000E+00 -0.11701051212E+03  0.11701051223E+03  0.50400001928E-02 0. -1.
    10030    2    1    2    0    0  0.00000000000E+00  0.00000000000E+00  0.41788678443E+03  0.65190780880E+03  0.50035430105E+03 0.  0.
        4    1    3    3  502    0  0.12624795490E+03 -0.73028591346E+02 -0.55884580835E+02  0.15619353555E+03  0.12699999809E+01 0. -1.
       -4    1    3    3    0  502 -0.12624795490E+03  0.73028591346E+02  0.47377136526E+03  0.49571427326E+03  0.12699999809E+01 0.  1.
</event>
<event>
 5   0  0.1760649E-01  0.5028013E+03  0.7818609E-02  0.1013050E+00
        2   -1    0    0  501    0  0.00000000000E+00  0.00000000000E+00  0.15686880172E+04  0.15686880172E+04  0.25500000920E-02 0.  1.
       -2   -1    0    0    0  501  0.00000000000E+00  0.00000000000E+00 -0.40289900939E+02  0.40289901020E+02  0.25500000920E-02 0. -1.
    10030    2    1    2    0    0  0.00000000000E+00  0.00000000000E+00  0.15283981162E+04  0.16089779182E+04  0.50280129229E+03 0.  0.
        5    1    3    3  502    0  0.19628201828E+03 -0.15532971164E+03  0.83760777517E+03  0.87422126778E+03  0.46999998093E+01 0.  1.
       -5    1    3    3    0  502 -0.19628201828E+03  0.15532971164E+03  0.69079034104E+03  0.73475665039E+03  0.46999998093E+01 0. -1.
</event>
<event>
 5   0  0.1709372E-01  0.5052595E+03  0.7818609E-02  0.1012415E+00
       -2   -1    0    0    0  501  0.00000000000E+00  0.00000000000E+00  0.32299658781E+03  0.32299658782E+03  0.25500000920E-02 0.  1.
        2   -1    0    0  501    0  0.00000000000E+00  0.00000000000E+00 -0.19759280060E+03  0.19759280062E+03  0.25500000920E-02 0. -1.
    10030    2    1    2    0    0  0.00000000000E+00  0.00000000000E+00  0.12540378721E+03  0.52058938844E+03  0.50525953876E+03 0.  0.
        4    1    3    3  502    0  0.44411944210E+02  0.24780737696E+03  0.41107209030E+02  0.25509279174E+03  0.12699999809E+01 0. -1.
       -4    1    3    3    0  502 -0.44411944210E+02 -0.24780737696E+03  0.84296578180E+02  0.26549659670E+03  0.12699999809E+01 0.  1.
</event>
<event>
 5   0  0.1760649E-01  0.5122541E+03  0.7818609E-02  0.1010629E+00
       -2   -1    0    0    0  501  0.00000000000E+00  0.00000000000E+00  0.82155043804E+03  0.82155043805E+03  0.25500000920E-02 0.  1.
        2   -1    0    0  501    0  0.00000000000E+00  0.00000000000E+00 -0.79850314752E+02  0.79850314793E+02  0.25500000920E-02 0. -1.
    10030    2    1    2    0    0  0.00000000000E+00  0.00000000000E+00  0.74170012329E+03  0.90140075284E+03  0.51225408181E+03 0.  0.
        5    1    3    3  502    0 -0.10450850451E+03  0.17453434698E+03  0.97138805983E+02  0.22548237940E+03  0.46999998093E+01 0. -1.
       -5    1    3    3    0  502  0.10450850451E+03 -0.17453434698E+03  0.64456131731E+03  0.67591837345E+03  0.46999998093E+01 0.  1.
</event>
<event>
 5   0  0.1760649E-01  0.5014048E+03  0.7818609E-02  0.1013413E+00
       -2   -1    0    0    0  501  0.00000000000E+00  0.00000000000E+00  0.81389117182E+02  0.81389117222E+02  0.25500000920E-02 0.  1.
        2   -1    0    0  501    0  0.00000000000E+00  0.00000000000E+00 -0.77223707701E+03  0.77223707701E+03  0.25500000920E-02 0. -1.
    10030    2    1    2    0    0  0.00000000000E+00  0.00000000000E+00 -0.69084795982E+03  0.85362619423E+03  0.50140480242E+03 0.  0.
        5    1    3    3  502    0  0.58376530738E+02  0.46843987646E+02 -0.75269297422E+03  0.75641984504E+03  0.46999998093E+01 0. -1.
       -5    1    3    3    0  502 -0.58376530738E+02 -0.46843987646E+02  0.61845014401E+02  0.97206349196E+02  0.46999998093E+01 0.  1.
</event>
<event>
 5   0  0.7220250E-02  0.5063486E+03  0.7818609E-02  0.1012135E+00
        4   -1    0    0  501    0  0.00000000000E+00  0.00000000000E+00  0.20626719067E+03  0.20627110036E+03  0.12699999809E+01 0.  1.
       -4   -1    0    0    0  501  0.00000000000E+00  0.00000000000E+00 -0.31074037482E+03  0.31074297006E+03  0.12699999809E+01 0. -1.
    10030    2    1    2    0    0  0.00000000000E+00  0.00000000000E+00 -0.10447318415E+03  0.51701407042E+03  0.50634859811E+03 0.  0.
        2    1    3    3  502    0  0.15876124533E+03  0.11487706311E+03 -0.21591072359E+03  0.29158071475E+03  0.25500000920E-02 0. -1.
       -2    1    3    3    0  502 -0.15876124533E+03 -0.11487706311E+03  0.11143753944E+03  0.22543335567E+03  0.25500000920E-02 0.  1.
</event>
<event>
 5   0  0.1827698E-01  0.5035372E+03  0.7818609E-02  0.1012860E+00
        2   -1    0    0  501    0  0.00000000000E+00  0.00000000000E+00  0.16006437304E+03  0.16006437306E+03  0.25500000920E-02 0. -1.
       -2   -1    0    0    0  501  0.00000000000E+00  0.00000000000E+00 -0.39601211100E+03  0.39601211101E+03  0.25500000920E-02 0.  1.
    10030    2    1    2    0    0  0.00000000000E+00  0.00000000000E+00 -0.23594773796E+03  0.55607648407E+03  0.50353720924E+03 0.  0.
        1    1    3    3  502    0 -0.24470889397E+03  0.51826478739E+02 -0.86369592225E+02  0.26462829246E+03  0.50400001928E-02 0. -1.
       -1    1    3    3    0  502  0.24470889397E+03 -0.51826478739E+02 -0.14957814573E+03  0.29144819161E+03  0.50400001928E-02 0.  1.
</event>
<event>
 5   0  0.1068522E-01  0.4934505E+03  0.7818609E-02  0.1015503E+00
       -1   -1    0    0    0  501  0.00000000000E+00  0.00000000000E+00  0.11185237487E+04  0.11185237487E+04  0.50400001928E-02 0.  1.
        1   -1    0    0  501    0  0.00000000000E+00  0.00000000000E+00 -0.54422931353E+02  0.54422931586E+02  0.50400001928E-02 0. -1.
    10030    2    1    2    0    0  0.00000000000E+00  0.00000000000E+00  0.10641008173E+04  0.11729466803E+04  0.49345046898E+03 0.  0.
        2    1    3    3  502    0 -0.23308102296E+03 -0.55137172776E+02  0.39129347964E+03  0.45877822344E+03  0.25500000920E-02 0. -1.
       -2    1    3    3    0  502  0.23308102296E+03  0.55137172776E+02  0.67280733766E+03  0.71416845681E+03  0.25500000920E-02 0.  1.
</event>
<event>
 5   0  0.1709372E-01  0.4931500E+03  0.7818609E-02  0.1015582E+00
        2   -1    0    0  501    0  0.00000000000E+00  0.00000000000E+00  0.70530759884E+03  0.70530759884E+03  0.25500000920E-02 0.  1.
       -2   -1    0    0    0  501  0.00000000000E+00  0.00000000000E+00 -0.86202430595E+02  0.86202430633E+02  0.25500000920E-02 0. -1.
    10030    2    1    2    0    0  0.00000000000E+00  0.00000000000E+00  0.61910516824E+03  0.79151002948E+03  0.49314999484E+03 0.  0.
        4    1    3    3  502    0 -0.68810402696E+02  0.22598715572E+03  0.42295925914E+03  0.48445971336E+03  0.12699999809E+01 0.  1.
       -4    1    3    3    0  502  0.68810402696E+02 -0.22598715572E+03  0.19614590910E+03  0.30705031612E+03  0.12699999809E+01 0. -1.
</event>
<event>
 5   0  0.1141970E-01  0.5005713E+03  0.7818609E-02  0.1013630E+00
        1   -1    0    0  501    0  0.00000000000E+00  0.00000000000E+00  0.29341535036E+03  0.29341535040E+03  0.50400001928E-02 0. -1.
       -1   -1    0    0    0  501  0.00000000000E+00  0.00000000000E+00 -0.21349565170E+03  0.21349565176E+03  0.50400001928E-02 0.  1.
    10030    2    1    2    0    0  0.00000000000E+00  0.00000000000E+00  0.79919698664E+02  0.50691100216E+03  0.50057127952E+03 0.  0.
        3    1    3    3  502    0  0.68746027897E+02  0.29962174374E+02 -0.20185119468E+03  0.21533151938E+03  0.10100000352E+00 0.  1.
       -3    1    3    3    0  502 -0.68746027897E+02 -0.29962174374E+02  0.28177089334E+03  0.29157948278E+03  0.10100000352E+00 0. -1.
</event>
<event>
 5   0  0.1782124E-01  0.4608123E+03  0.7818609E-02  0.1024546E+00
       -2   -1    0    0    0  501  0.00000000000E+00  0.00000000000E+00  0.18167327498E+03  0.18167327499E+03  0.25500000920E-02 0. -1.
        2   -1    0    0  501    0  0.00000000000E+00  0.00000000000E+00 -0.29221136295E+03  0.29221136296E+03  0.25500000920E-02 0.  1.
    10030    2    1    2    0    0  0.00000000000E+00  0.00000000000E+00 -0.11053808798E+03  0.47388463796E+03  0.46081230582E+03 0.  0.
        3    1    3    3  502    0 -0.13112929543E+03  0.65221227437E+02 -0.23818644638E+03  0.27960953859E+03  0.10100000352E+00 0.  1.
       -3    1    3    3    0  502  0.13112929543E+03 -0.65221227437E+02  0.12764835841E+03  0.19427509937E+03  0.10100000352E+00 0. -1.
</event>
<event>
 5   0  0.1074281E-01  0.4948263E+03  0.7818609E-02  0.1015138E+00
        1   -1    0    0  501    0  0.00000000000E+00  0.00000000000E+00  0.64644277794E+03  0.64644277796E+03  0.50400001928E-02 0.  1.
       -1   -1    0    0    0  501  0.00000000000E+00  0.00000000000E+00 -0.94692486271E+02  0.94692486405E+02  0.50400001928E-02 0. -1.
    10030    2    1    2    0    0  0.00000000000E+00  0.00000000000E+00  0.55175029167E+03  0.74113526437E+03  0.49482632886E+03 0.  0.
        4    1    3    3  502    0 -0.16323473853E+03 -0.18279135486E+03  0.22500827960E+03  0.33269896012E+03  0.12699999809E+01 0.  1.
       -4    1    3    3    0  502  0.16323473853E+03  0.18279135486E+03  0.32674201208E+03  0.40843630425E+03  0.12699999809E+01 0. -1.
</event>
<event>
 5   0  0.1827698E-01  0.4335347E+03  0.7818609E-02  0.1032749E+00
        2   -1    0    0  501    0  0.00000000000E+00  0.00000000000E+00  0.15013053624E+04  0.15013053624E+04  0.25500000920E-02 0. -1.
       -2   -1    0    0    0  501  0.00000000000E+00  0.00000000000E+00 -0.31298157245E+02  0.31298157349E+02  0.25500000920E-02 0.  1.
    10030    2    1    2    0    0  0.00000000000E+00  0.00000000000E+00  0.14700072051E+04  0.15326035197E+04  0.43353473395E+03 0.  0.
        1    1    3    3  502    0  0.20339183700E+03 -0.63833917139E+02  0.59604615410E+03  0.63301976760E+03  0.50400001928E-02 0. -1.
       -1    1    3    3    0  502 -0.20339183700E+03  0.63833917139E+02  0.87396105102E+03  0.89958375211E+03  0.50400001928E-02 0.  1.
</event>
<event>
 5   0  0.1123271E-01  0.5030693E+03  0.7818609E-02  0.1012981E+00
        1   -1    0    0  501    0  0.00000000000E+00  0.00000000000E+00  0.30873910306E+03  0.30873910311E+03  0.50400001928E-02 0.  1.
       -1   -1    0    0    0  501  0.00000000000E+00  0.00000000000E+00 -0.20492925829E+03  0.20492925835E+03  0.50400001928E-02 0. -1.
    10030    2    1    2    0    0  0.00000000000E+00  0.00000000000E+00  0.10380984478E+03  0.51366836146E+03  0.50306928120E+03 0.  0.
        5    1    3    3  502    0  0.10389396298E+03 -0.69648304297E+02 -0.17087241552E+03  0.21181197846E+03  0.46999998093E+01 0. -1.
       -5    1    3    3    0  502 -0.10389396298E+03  0.69648304297E+02  0.27468226030E+03  0.30185638300E+03  0.46999998093E+01 0.  1.
</event>
<event>
 5   0  0.1074281E-01  0.4778732E+03  0.7818609E-02  0.1019721E+00
       -1   -1    0    0    0  501  0.00000000000E+00  0.00000000000E+00  0.48432814290E+02  0.48432814552E+02  0.50400001928E-02 0.  1.
        1   -1    0    0  501    0  0.00000000000E+00  0.00000000000E+00 -0.11787605169E+04  0.11787605169E+04  0.50400001928E-02 0. -1.
    10030    2    1    2    0    0  0.00000000000E+00  0.00000000000E+00 -0.11303277026E+04  0.12271933315E+04  0.47787316048E+03 0.  0.
        4    1    3    3  502    0  0.44367872067E+02 -0.14736232423E+03 -0.95804445798E+02  0.18128504463E+03  0.12699999809E+01 0.  1.
       -4    1    3    3    0  502 -0.44367872067E+02  0.14736232423E+03 -0.10345232568E+04  0.10459082869E+04  0.12699999809E+01 0. -1.
</event>
<event>
 5   0  0.1782124E-01  0.5017836E+03  0.7818609E-02  0.1013314E+00
       -2   -1    0    0    0  501  0.00000000000E+00  0.00000000000E+00  0.17075104887E+03  0.17075104889E+03  0.25500000920E-02 0. -1.
        2   -1    0    0  501    0  0.00000000000E+00  0.00000000000E+00 -0.36864601703E+03  0.36864601704E+03  0.25500000920E-02 0.  1.
    10030    2    1    2    0    0  0.00000000000E+00  0.00000000000E+00 -0.19789496816E+03  0.53939706592E+03  0.50178359509E+03 0.  0.
        3    1    3    3  502    0  0.17870014720E+02 -0.18291656698E+03 -0.28253872950E+03  0.33705482012E+03  0.10100000352E+00 0.  1.
       -3    1    3    3    0  502 -0.17870014720E+02  0.18291656698E+03  0.84643761337E+02  0.20234224580E+03  0.10100000352E+00 0. -1.
</event>
<event>
 5   0  0.1123271E-01  0.5048651E+03  0.7818609E-02  0.1012517E+00
       -1   -1    0    0    0  501  0.00000000000E+00  0.00000000000E+00  0.24761660809E+02  0.24761661322E+02  0.50400001928E-02 0. -1.
        1   -1    0    0  501    0  0.00000000000E+00  0.00000000000E+00 -0.25734216058E+04  0.25734216058E+04  0.50400001928E-02 0.  1.
    10030    2    1    2    0    0  0.00000000000E+00  0.00000000000E+00 -0.25486599450E+04  0.25981832672E+04  0.50486510513E+03 0.  0.
        5    1    3    3  502    0 -0.11563664673E+03 -0.27768784458E+02 -0.24199686048E+04  0.24228935342E+04  0.46999998093E+01 0.  1.
       -5    1    3    3    0  502  0.11563664673E+03  0.27768784458E+02 -0.12869134017E+03  0.17528973299E+03  0.46999998093E+01 0. -1.
</event>
<event>
 5   0  0.1141970E-01  0.4986834E+03  0.7818609E-02  0.1014123E+00
        1   -1    0    0  501    0  0.00000000000E+00  0.00000000000E+00  0.96638201994E+03  0.96638201996E+03  0.50400001928E-02 0. -1.
       -1   -1    0    0    0  501  0.00000000000E+00  0.00000000000E+00 -0.64334054721E+02  0.64334054919E+02  0.50400001928E-02 0.  1.
    10030    2    1    2    0    0  0.00000000000E+00  0.00000000000E+00  0.90204796522E+03  0.10307160749E+04  0.49868336191E+03 0.  0.
        3    1    3    3  502    0  0.21320323197E+03  0.58232112738E+01  0.71797697248E+03  0.74898629568E+03  0.10100000352E+00 0. -1.
       -3    1    3    3    0  502 -0.21320323197E+03 -0.58232112738E+01  0.18407099275E+03  0.28172977919E+03  0.10100000352E+00 0.  1.
</event>
<event>
 5   0  0.1068522E-01  0.4900363E+03  0.7818609E-02  0.1016413E+00
       -1   -1    0    0    0  501  0.00000000000E+00  0.00000000000E+00  0.12894137246E+03  0.12894137256E+03  0.50400001928E-02 0.  1.
        1   -1    0    0  501    0  0.00000000000E+00  0.00000000000E+00 -0.46559066084E+03  0.46559066086E+03  0.50400001928E-02 0. -1.
    10030    2    1    2    0    0  0.00000000000E+00  0.00000000000E+00 -0.33664928837E+03  0.59453203342E+03  0.49003632050E+03 0.  0.
        2    1    3    3  502    0 -0.19575925000E+03  0.12592688255E+03 -0.75492815327E+02  0.24470069245E+03  0.25500000920E-02 0. -1.
       -2    1    3    3    0  502  0.19575925000E+03 -0.12592688255E+03 -0.26115647305E+03  0.34983134098E+03  0.25500000920E-02 0.  1.
</event>
<event>
 5   0  0.1683148E-01  0.4955141E+03  0.7818609E-02  0.1014956E+00
       -2   -1    0    0    0  501  0.00000000000E+00  0.00000000000E+00  0.83060925802E+02  0.83060925841E+02  0.25500000920E-02 0. -1.
        2   -1    0    0  501    0  0.00000000000E+00  0.00000000000E+00 -0.73901849500E+03  0.73901849501E+03  0.25500000920E-02 0.  1.
    10030    2    1    2    0    0  0.00000000000E+00  0.00000000000E+00 -0.65595756920E+03  0.82207942085E+03  0.49551411846E+03 0.  0.
        2    1    3    3  502    0  0.20084489728E+03 -0.58988419140E+02 -0.54785839613E+03  0.58648710861E+03  0.25500000920E-02 0.  1.
       -2    1    3    3    0  502 -0.20084489728E+03  0.58988419140E+02 -0.10809917307E+03  0.23559231223E+03  0.25500000920E-02 0. -1.
</event>
<event>
 5   0  0.1068522E-01  0.5126680E+03  0.7818609E-02  0.1010524E+00
       -1   -1    0    0    0  501  0.00000000000E+00  0.00000000000E+00  0.23151682279E+03  0.23151682285E+03  0.50400001928E-02 0. -1.
        1   -1    0    0  501    0  0.00000000000E+00  0.00000000000E+00 -0.28381140541E+03  0.28381140545E+03  0.50400001928E-02 0.  1.
    10030    2    1    2    0    0  0.00000000000E+00  0.00000000000E+00 -0.52294582615E+02  0.51532822830E+03  0.51266798175E+03 0.  0.
        2    1    3    3  502    0 -0.10311993972E+03 -0.12501417986E+03 -0.22578513933E+03  0.27792300424E+03  0.25500000920E-02 0.  1.
       -2    1    3    3    0  502  0.10311993972E+03  0.12501417986E+03  0.17349055672E+03  0.23740522406E+03  0.25500000920E-02 0. -1.
</event>
<event>
 5   0  0.1068522E-01  0.5039197E+03  0.7818609E-02  0.1012761E+00
        1   -1    0    0  501    0  0.00000000000E+00  0.00000000000E+00  0.40223658517E+03  0.40223658520E+03  0.50400001928E-02 0. -1.
       -1   -1    0    0    0  501  0.00000000000E+00  0.00000000000E+00 -0.15782690855E+03  0.15782690863E+03  0.50400001928E-02 0.  1.
    10030    2    1    2    0    0  0.00000000000E+00  0.00000000000E+00  0.24440967662E+03  0.56006349383E+03  0.50391966333E+03 0.  0.
        2    1    3    3  502    0  0.21072778377E+03 -0.76069320732E+02  0.25033608636E+03  0.33594775866E+03  0.25500000920E-02 0. -1.
       -2    1    3    3    0  502 -0.21072778377E+03  0.76069320732E+02 -0.59264097415E+01  0.22411573517E+03  0.25500000920E-02 0.  1.
</event>
<event>
 5   0  0.1141970E-01  0.5012423E+03  0.7818609E-02  0.1013455E+00
        1   -1    0    0  501    0  0.00000000000E+00  0.00000000000E+00  0.73244973370E+03  0.73244973372E+03  0.50400001928E-02 0.  1.
       -1   -1    0    0    0  501  0.00000000000E+00  0.00000000000E+00 -0.85754637134E+02  0.85754637283E+02  0.50400001928E-02 0. -1.
    10030    2    1    2    0    0  0.00000000000E+00  0.00000000000E+00  0.64669509656E+03  0.81820437100E+03  0.50124230149E+03 0.  0.
        3    1    3    3  502    0  0.78536355686E+02  0.22601556835E+02  0.71008832288E+03  0.71477564733E+03  0.10100000352E+00 0.  1.
       -3    1    3    3    0  502 -0.78536355686E+02 -0.22601556835E+02 -0.63393226311E+02  0.10342872367E+03  0.10100000352E+00 0. -1.
</event>
<event>
 5   0  0.1827698E-01  0.4342401E+03  0.7818609E-02  0.1032529E+00
        2   -1    0    0  501    0  0.00000000000E+00  0.00000000000E+00  0.11719793285E+04  0.11719793285E+04  0.25500000920E-02 0. -1.
       -2   -1    0    0    0  501  0.00000000000E+00  0.00000000000E+00 -0.40223502589E+02  0.40223502670E+02  0.25500000920E-02 0.  1.
    10030    2    1    2    0    0  0.00000000000E+00  0.00000000000E+00  0.11317558259E+04  0.12122028311E+04  0.43424008845E+03 0.  0.
        1    1    3    3  502    0 -0.14424243194E+03  0.77770757809E+02  0.16827121585E+03  0.23488161284E+03  0.50400001928E-02 0.  1.
       -1    1    3    3    0  502  0.14424243194E+03 -0.77770757809E+02  0.96348461004E+03  0.97732121830E+03  0.50400001928E-02 0. -1.
</event>
<event>
 5   0  0.7220250E-02  0.4709284E+03  0.7818609E-02  0.1021658E+00
       -3   -1    0    0    0  501  0.00000000000E+00  0.00000000000E+00  0.41919202422E+03  0.41919203639E+03  0.10100000352E+00 0.  1.
        3   -1    0    0  501    0  0.00000000000E+00  0.00000000000E+00 -0.13226249580E+03  0.13226253436E+03  0.10100000352E+00 0. -1.
    10030    2    1    2    0    0  0.00000000000E+00  0.00000000000E+00  0.28692952842E+03  0.55145457074E+03  0.47092843333E+03 0.  0.
        4    1    3    3  502    0 -0.16458540379E+03  0.31722559403E+02  0.33711165797E+03  0.37648447346E+03  0.12699999809E+01 0.  1.
       -4    1    3    3    0  502  0.16458540379E+03 -0.31722559403E+02 -0.50182129550E+02  0.17497009728E+03  0.12699999809E+01 0. -1.
</event>
<event>
 5   0  0.1709372E-01  0.4974273E+03  0.7818609E-02  0.1014453E+00
       -2   -1    0    0    0  501  0.00000000000E+00  0.00000000000E+00  0.66665396916E+03  0.66665396916E+03  0.25500000920E-02 0. -1.
        2   -1    0    0  501    0  0.00000000000E+00  0.00000000000E+00 -0.92789500867E+02  0.92789500902E+02  0.25500000920E-02 0.  1.
    10030    2    1    2    0    0  0.00000000000E+00  0.00000000000E+00  0.57386446829E+03  0.75944347006E+03  0.49742733767E+03 0.  0.
        4    1    3    3  502    0 -0.96768645324E+02  0.58785572874E+02  0.62501854015E+03  0.63519265009E+03  0.12699999809E+01 0. -1.
       -4    1    3    3    0  502  0.96768645324E+02 -0.58785572874E+02 -0.51154071862E+02  0.12425081997E+03  0.12699999809E+01 0.  1.
</event>
<event>
 5   0  0.1147245E-01  0.5023149E+03  0.7818609E-02  0.1013176E+00
        1   -1    0    0  501    0  0.00000000000E+00  0.00000000000E+00  0.74004156610E+03  0.74004156612E+03  0.50400001928E-02 0.  1.
       -1   -1    0    0    0  501  0.00000000000E+00  0.00000000000E+00 -0.85238534984E+02  0.85238535133E+02  0.50400001928E-02 0. -1.
    10030    2    1    2    0    0  0.00000000000E+00  0.00000000000E+00  0.65480303112E+03  0.82528010125E+03  0.50231487730E+03 0.  0.
        1    1    3    3  502    0 -0.12290991419E+03 -0.10824069511E+03  0.64024149413E+03  0.66085706920E+03  0.50400001928E-02 0.  1.
       -1    1    3    3    0  502  0.12290991419E+03  0.10824069511E+03  0.14561536989E+02  0.16442303205E+03  0.50400001928E-02 0. -1.
</event>
<event>
 5   0  0.1827698E-01  0.4976475E+03  0.7818609E-02  0.1014395E+00
       -2   -1    0    0    0  501  0.00000000000E+00  0.00000000000E+00  0.33798859004E+02  0.33798859100E+02  0.25500000920E-02 0.  1.
        2   -1    0    0  501    0  0.00000000000E+00  0.00000000000E+00 -0.18318150387E+04  0.18318150387E+04  0.25500000920E-02 0. -1.
    10030    2    1    2    0    0  0.00000000000E+00  0.00000000000E+00 -0.17980161797E+04  0.18656138978E+04  0.49764749897E+03 0.  0.
        1    1    3    3  502    0  0.48525653202E+02  0.97893892829E+02 -0.17370730235E+04  0.17405058582E+04  0.50400001928E-02 0. -1.
       -1    1    3    3    0  502 -0.48525653202E+02 -0.97893892829E+02 -0.60943156194E+02  0.12510803965E+03  0.50400001928E-02 0.  1.
</event>
<event>
 5   0  0.7220250E-02  0.5097871E+03  0.7818609E-02  0.1011255E+00
        3   -1    0    0  501    0  0.00000000000E+00  0.00000000000E+00  0.14439748169E+03  0.14439751701E+03  0.10100000352E+00 0. -1.
       -3   -1    0    0    0  501  0.00000000000E+00  0.00000000000E+00 -0.44994349431E+03  0.44994350565E+03  0.10100000352E+00 0.  1.
    10030    2    1    2    0    0  0.00000000000E+00  0.00000000000E+00 -0.30554601262E+03  0.59434102266E+03  0.50978709810E+03 0.  0.
        1    1    3    3  502    0 -0.15827878574E+01 -0.18202744540E+03  0.55241685412E+02  0.19023180578E+03  0.50400001928E-02 0. -1.
       -1    1    3    3    0  502  0.15827878574E+01  0.18202744540E+03 -0.36078769804E+03  0.40410921689E+03  0.50400001928E-02 0.  1.
</event>
<event>
 5   0  0.1709372E-01  0.4862305E+03  0.7818609E-02  0.1017437E+00
        2   -1    0    0  501    0  0.00000000000E+00  0.00000000000E+00  0.19321009126E+04  0.19321009126E+04  0.25500000920E-02 0. -1.
       -2   -1    0    0    0  501  0.00000000000E+00  0.00000000000E+00 -0.30591062517E+02  0.30591062623E+02  0.25500000920E-02 0.  1.
    10030    2    1    2    0    0  0.00000000000E+00  0.00000000000E+00  0.19015098500E+04  0.19626919752E+04  0.48623047996E+03 0.  0.
        4    1    3    3  502    0 -0.15079449878E+03 -0.16839614665E+03  0.13119562439E+04  0.13312877382E+04  0.12699999809E+01 0. -1.
       -4    1    3    3    0  502  0.15079449878E+03  0.16839614665E+03  0.58955360618E+03  0.63140423703E+03  0.12699999809E+01 0.  1.
</event>
<event>
 5   0  0.1760649E-01  0.4479697E+03  0.7818609E-02  0.1028329E+00
       -2   -1    0    0    0  501  0.00000000000E+00  0.00000000000E+00  0.26616689755E+02  0.26616689877E+02  0.25500000920E-02 0.  1.
        2   -1    0    0  501    0  0.00000000000E+00  0.00000000000E+00 -0.18848783010E+04  0.18848783010E+04  0.25500000920E-02 0. -1.
    10030    2    1    2    0    0  0.00000000000E+00  0.00000000000E+00 -0.18582616112E+04  0.19114949908E+04  0.44796973594E+03 0.  0.
        5    1    3    3  502    0  0.13678071059E+03 -0.12314697492E+03 -0.38480593285E+03  0.42658157036E+03  0.46999998093E+01 0.  1.
       -5    1    3    3    0  502 -0.13678071059E+03  0.12314697492E+03 -0.14734556784E+04  0.14849134205E+04  0.46999998093E+01 0. -1.
</event>
<event>
 5   0  0.1827698E-01  0.5038343E+03  0.7818609E-02  0.1012783E+00
        2   -1    0    0  501    0  0.00000000000E+00  0.00000000000E+00  0.11219807014E+04  0.11219807014E+04  0.25500000920E-02 0. -1.
       -2   -1    0    0    0  501  0.00000000000E+00  0.00000000000E+00 -0.56562682680E+02  0.56562682737E+02  0.25500000920E-02 0.  1.
    10030    2    1    2    0    0  0.00000000000E+00  0.00000000000E+00  0.10654180188E+04  0.11785433842E+04  0.50383425221E+03 0.  0.
        1    1    3    3  502    0 -0.14559483203E+03  0.20029473496E+03  0.64108010437E+03  0.68724052283E+03  0.50400001928E-02 0. -1.
       -1    1    3    3    0  502  0.14559483203E+03 -0.20029473496E+03  0.42433791439E+03  0.49130286136E+03  0.50400001928E-02 0.  1.
</event>
<event>
 5   0  0.1760649E-01  0.4909435E+03  0.7818609E-02  0.1016170E+00
        2   -1    0    0  501    0  0.00000000000E+00  0.00000000000E+00  0.35953670671E+03  0.35953670672E+03  0.25500000920E-02 0.  1.
       -2   -1    0    0    0  501  0.00000000000E+00  0.00000000000E+00 -0.16759453728E+03  0.16759453730E+03  0.25500000920E-02 0. -1.
    10030    2    1    2    0    0  0.00000000000E+00  0.00000000000E+00  0.19194216944E+03  0.52713124402E+03  0.49094353241E+03 0.  0.
        5    1    3    3  502    0 -0.19772266426E+03 -0.43911019613E+02 -0.52852587605E+02  0.20937505969E+03  0.46999998093E+01 0. -1.
       -5    1    3    3    0  502  0.19772266426E+03  0.43911019613E+02  0.24479475704E+03  0.31775618433E+03  0.46999998093E+01 0.  1.
</event>
<event>
 5   0  0.1827698E-01  0.5052442E+03  0.7818609E-02  0.1012419E+00
        2   -1    0    0  501    0  0.00000000000E+00  0.00000000000E+00  0.75680041706E+03  0.75680041706E+03  0.25500000920E-02 0. -1.
       -2   -1    0    0    0  501  0.00000000000E+00  0.00000000000E+00 -0.84325955370E+02  0.84325955409E+02  0.25500000920E-02 0.  1.
    10030    2    1    2    0    0  0.00000000000E+00  0.00000000000E+00  0.67247446169E+03  0.84112637247E+03  0.50524417151E+03 0.  0.
        1    1    3    3  502    0 -0.84749379963E+02  0.14181417118E+03  0.18073768890E+02  0.16619379561E+03  0.50400001928E-02 0.  1.
       -1    1    3    3    0  502  0.84749379963E+02 -0.14181417118E+03  0.65440069280E+03  0.67493257686E+03  0.50400001928E-02 0. -1.
</event>
<event>
 5   0  0.1074281E-01  0.4950420E+03  0.7818609E-02  0.1015081E+00
       -1   -1    0    0    0  501  0.00000000000E+00  0.00000000000E+00  0.49435410698E+03  0.49435410701E+03  0.50400001928E-02 0.  1.
        1   -1    0    0  501    0  0.00000000000E+00  0.00000000000E+00 -0.12393269766E+03  0.12393269776E+03  0.50400001928E-02 0. -1.
    10030    2    1    2    0    0  0.00000000000E+00  0.00000000000E+00  0.37042140932E+03  0.61828680477E+03  0.49504197041E+03 0.  0.
        4    1    3    3  502    0  0.12575195664E+03  0.41634350237E+02  0.44635368489E+03  0.46559660505E+03  0.12699999809E+01 0.  1.
       -4    1    3    3    0  502 -0.12575195664E+03 -0.41634350237E+02 -0.75932275566E+02  0.15269019972E+03  0.12699999809E+01 0. -1.
</event>
<event>
 5   0  0.1147245E-01  0.4859059E+03  0.7818609E-02  0.1017525E+00
       -1   -1    0    0    0  501  0.00000000000E+00  0.00000000000E+00  0.85320707475E+02  0.85320707623E+02  0.50400001928E-02 0.  1.
        1   -1    0    0  501    0  0.00000000000E+00  0.00000000000E+00 -0.69181500805E+03  0.69181500807E+03  0.50400001928E-02 0. -1.
    10030    2    1    2    0    0  0.00000000000E+00  0.00000000000E+00 -0.60649430058E+03  0.77713571570E+03  0.48590594149E+03 0.  0.
        1    1    3    3  502    0 -0.67503888418E+00 -0.13397415964E+03  0.20899831530E+02  0.13559621718E+03  0.50400001928E-02 0.  1.
       -1    1    3    3    0  502  0.67503888418E+00  0.13397415964E+03 -0.62739413211E+03  0.64153949852E+03  0.50400001928E-02 0. -1.
</event>
<event>
 5   0  0.1827698E-01  0.4551076E+03  0.7818609E-02  0.1026210E+00
       -2   -1    0    0    0  501  0.00000000000E+00  0.00000000000E+00  0.13550123129E+03  0.13550123131E+03  0.25500000920E-02 0.  1.
        2   -1    0    0  501    0  0.00000000000E+00  0.00000000000E+00 -0.38214207391E+03  0.38214207392E+03  0.25500000920E-02 0. -1.
    10030    2    1    2    0    0  0.00000000000E+00  0.00000000000E+00 -0.24664084262E+03  0.51764330523E+03  0.45510755454E+03 0.  0.
        1    1    3    3  502    0  0.80514462666E+01  0.41808774951E+02 -0.37757114734E+03  0.37996417039E+03  0.50400001928E-02 0. -1.
       -1    1    3    3    0  502 -0.80514462666E+01 -0.41808774951E+02  0.13093030472E+03  0.13767913484E+03  0.50400001928E-02 0.  1.
</event>
<event>
 5   0  0.1068522E-01  0.4941087E+03  0.7818609E-02  0.1015328E+00
        1   -1    0    0  501    0  0.00000000000E+00  0.00000000000E+00  0.20704706018E+04  0.20704706018E+04  0.50400001928E-02 0.  1.
       -1   -1    0    0    0  501  0.00000000000E+00  0.00000000000E+00 -0.29479219525E+02  0.29479219956E+02  0.50400001928E-02 0. -1.
    10030    2    1    2    0    0  0.00000000000E+00  0.00000000000E+00  0.20409913823E+04  0.20999498218E+04  0.49410872427E+03 0.  0.
        2    1    3    3  502    0  0.87034935140E+02 -0.58834013021E+02  0.70178649649E+02  0.12633908301E+03  0.25500000920E-02 0. -1.
       -2    1    3    3    0  502 -0.87034935140E+02  0.58834013021E+02  0.19708127326E+04  0.19736107388E+04  0.25500000920E-02 0.  1.
</event>
<event>
 5   0  0.1683148E-01  0.4969390E+03  0.7818609E-02  0.1014581E+00
       -2   -1    0    0    0  501  0.00000000000E+00  0.00000000000E+00  0.58293560655E+02  0.58293560710E+02  0.25500000920E-02 0.  1.
        2   -1    0    0  501    0  0.00000000000E+00  0.00000000000E+00 -0.10590720724E+04  0.10590720724E+04  0.25500000920E-02 0. -1.
    10030    2    1    2    0    0  0.00000000000E+00  0.00000000000E+00 -0.10007785117E+04  0.11173656331E+04  0.49693895852E+03 0.  0.
        2    1    3    3  502    0  0.13495950292E+03 -0.36069384673E+02 -0.38368232468E+02  0.14486955929E+03  0.25500000920E-02 0.  1.
       -2    1    3    3    0  502 -0.13495950292E+03  0.36069384673E+02 -0.96241027928E+03  0.97249607382E+03  0.25500000920E-02 0. -1.
</event>
<event>
 5   0  0.1074281E-01  0.4977680E+03  0.7818609E-02  0.1014363E+00
       -1   -1    0    0    0  501  0.00000000000E+00  0.00000000000E+00  0.39423474217E+03  0.39423474220E+03  0.50400001928E-02 0. -1.
        1   -1    0    0  501    0  0.00000000000E+00  0.00000000000E+00 -0.15712276198E+03  0.15712276207E+03  0.50400001928E-02 0.  1.
    10030    2    1    2    0    0  0.00000000000E+00  0.00000000000E+00  0.23711198018E+03  0.55135750427E+03  0.49776802465E+03 0.  0.
        4    1    3    3  502    0  0.21920318469E+03  0.86504219541E+02  0.29883553926E+02  0.23754506072E+03  0.12699999809E+01 0.  1.
       -4    1    3    3    0  502 -0.21920318469E+03 -0.86504219541E+02  0.20722842626E+03  0.31381244355E+03  0.12699999809E+01 0. -1.
</event>
<event>
 5   0  0.1760649E-01  0.5062973E+03  0.7818609E-02  0.1012148E+00
       -2   -1    0    0    0  501  0.00000000000E+00  0.00000000000E+00  0.55347833985E+03  0.55347833986E+03  0.25500000920E-02 0.  1.
        2   -1    0    0  501    0  0.00000000000E+00  0.00000000000E+00 -0.11578452804E+03  0.11578452806E+03  0.25500000920E-02 0. -1.
    10030    2    1    2    0    0  0.00000000000E+00  0.00000000000E+00  0.43769381182E+03  0.66926286792E+03  0.50629725802E+03 0.  0.
        5    1    3    3  502    0 -0.39501255508E+02 -0.20485993354E+03  0.29425081617E+02  0.21075072238E+03  0.46999998093E+01 0. -1.
       -5    1    3    3    0  502  0.39501255508E+02  0.20485993354E+03  0.40826873020E+03  0.45851214555E+03  0.46999998093E+01 0.  1.
</event>
<event>
 5   0  0.1074281E-01  0.4719517E+03  0.7818609E-02  0.1021371E+00
       -1   -1    0    0    0  501  0.00000000000E+00  0.00000000000E+00  0.10709550805E+03  0.10709550817E+03  0.50400001928E-02 0. -1.
        1   -1    0    0  501    0  0.00000000000E+00  0.00000000000E+00 -0.51995279158E+03  0.51995279160E+03  0.50400001928E-02 0.  1.
    10030    2    1    2    0    0  0.00000000000E+00  0.00000000000E+00 -0.41285728352E+03  0.62704829977E+03  0.47195172814E+03 0.  0.
        4    1    3    3  502    0 -0.71440865186E+02 -0.14282468240E+03 -0.43724429104E+03  0.46549636955E+03  0.12699999809E+01 0.  1.
       -4    1    3    3    0  502  0.71440865186E+02  0.14282468240E+03  0.24387007517E+02  0.16155193022E+03  0.12699999809E+01 0. -1.
</event>
<event>
 5   0  0.1827698E-01  0.4998544E+03  0.7818609E-02  0.1013817E+00
       -2   -1    0    0    0  501  0.00000000000E+00  0.00000000000E+00  0.14940387468E+03  0.14940387470E+03  0.25500000920E-02 0.  1.
        2   -1    0    0  501    0  0.00000000000E+00  0.00000000000E+00 -0.41808558133E+03  0.41808558134E+03  0.25500000920E-02 0. -1.
    10030    2    1    2    0    0  0.00000000000E+00  0.00000000000E+00 -0.26868170665E+03  0.56748945603E+03  0.49985440202E+03 0.  0.
        1    1    3    3  502    0 -0.21266700797E+03 -0.11335123462E+03 -0.59137012931E+02  0.24813896307E+03  0.50400001928E-02 0.  1.
       -1    1    3    3    0  502  0.21266700797E+03  0.11335123462E+03 -0.20954469372E+03  0.31935049297E+03  0.50400001928E-02 0. -1.
</event>
<event>
 5   0  0.1068522E-01  0.5005212E+03  0.7818609E-02  0.1013643E+00
       -1   -1    0    0    0  501  0.00000000000E+00  0.00000000000E+00  0.42829099832E+03  0.42829099834E+03  0.50400001928E-02 0. -1.
        1   -1    0    0  501    0  0.00000000000E+00  0.00000000000E+00 -0.14623318848E+03  0.14623318856E+03  0.50400001928E-02 0.  1.
    10030    2    1    2    0    0  0.00000000000E+00  0.00000000000E+00  0.28205780984E+03  0.57452418691E+03  0.50052116164E+03 0.  0.
        2    1    3    3  502    0 -0.78119976489E+01 -0.23534873978E+03  0.43763764354E+02  0.23951059204E+03  0.25500000920E-02 0.  1.
       -2    1    3    3    0  502  0.78119976489E+01  0.23534873978E+03  0.23829404548E+03  0.33501359486E+03  0.25500000920E-02 0. -1.
</event>
<event>
 5   0  0.7220250E-02  0.4968583E+03  0.7818609E-02  0.1014602E+00
       -4   -1    0    0    0  501  0.00000000000E+00  0.00000000000E+00  0.37912896787E+03  0.37913109497E+03  0.12699999809E+01 0. -1.
        4   -1    0    0  501    0  0.00000000000E+00  0.00000000000E+00 -0.16278137540E+03  0.16278632951E+03  0.12699999809E+01 0.  1.
    10030    2    1    2    0    0  0.00000000000E+00  0.00000000000E+00  0.21634759247E+03  0.54191742448E+03  0.49685834419E+03 0.  0.
        1    1    3    3  502    0 -0.98376774138E+02 -0.10084909336E+03  0.33134818503E+03  0.36005575828E+03  0.50400001928E-02 0. -1.
       -1    1    3    3    0  502  0.98376774138E+02  0.10084909336E+03 -0.11500059256E+03  0.18186166621E+03  0.50400001928E-02 0.  1.
</event>
<event>
 5   0  0.1141970E-01  0.5088547E+03  0.7818609E-02  0.1011493E+00
       -1   -1    0    0    0  501  0.00000000000E+00  0.00000000000E+00  0.68018048500E+03  0.68018048502E+03  0.50400001928E-02 0.  1.
        1   -1    0    0  501    0  0.00000000000E+00  0.00000000000E+00 -0.95170719603E+02  0.95170719737E+02  0.50400001928E-02 0. -1.
    10030    2    1    2    0    0  0.00000000000E+00  0.00000000000E+00  0.58500976540E+03  0.77535120476E+03  0.50885466010E+03 0.  0.
        3    1    3    3  502    0  0.50065994711E+02  0.81552325850E+02  0.65171440960E+03  0.65870256380E+03  0.10100000352E+00 0.  1.
       -3    1    3    3    0  502 -0.50065994711E+02 -0.81552325850E+02 -0.66704644201E+02  0.11664864096E+03  0.10100000352E+00 0. -1.
</event>
<event>
 5   0  0.1123271E-01  0.5019029E+03  0.7818609E-02  0.1013283E+00
        1   -1    0    0  501    0  0.00000000000E+00  0.00000000000E+00  0.61624536642E+03  0.61624536644E+03  0.50400001928E-02 0. -1.
       -1   -1    0    0    0  501  0.00000000000E+00  0.00000000000E+00 -0.10219406631E+03  0.10219406644E+03  0.50400001928E-02 0.  1.
    10030    2    1    2    0    0  0.00000000000E+00  0.00000000000E+00  0.51405130011E+03  0.71843943288E+03  0.50190285870E+03 0.  0.
        5    1    3    3  502    0  0.23962234643E+03  0.18354172283E+02  0.15381573157E+03  0.28537188689E+03  0.46999998093E+01 0. -1.
       -5    1    3    3    0  502 -0.23962234643E+03 -0.18354172283E+02  0.36023556854E+03  0.43306754599E+03  0.46999998093E+01 0.  1.
</event>
<event>
 5   0  0.1068522E-01  0.4955840E+03  0.7818609E-02  0.1014938E+00
       -1   -1    0    0    0  501  0.00000000000E+00  0.00000000000E+00  0.86506448197E+02  0.86506448344E+02  0.50400001928E-02 0.  1.
        1   -1    0    0  501    0  0.00000000000E+00  0.00000000000E+00 -0.70978381701E+03  0.70978381702E+03  0.50400001928E-02 0. -1.
    10030    2    1    2    0    0  0.00000000000E+00  0.00000000000E+00 -0.62327736881E+03  0.79629026537E+03  0.49558400726E+03 0.  0.
        2    1    3    3  502    0 -0.19378754266E+03 -0.74220086156E+02 -0.52922808485E+03  0.56845808876E+03  0.25500000920E-02 0. -1.
       -2    1    3    3    0  502  0.19378754266E+03  0.74220086156E+02 -0.94049283962E+02  0.22783217661E+03  0.25500000920E-02 0.  1.
</event>
<event>
 5   0  0.1709372E-01  0.5097181E+03  0.7818609E-02  0.1011273E+00
       -2   -1    0    0    0  501  0.00000000000E+00  0.00000000000E+00  0.35185585360E+03  0.35185585361E+03  0.25500000920E-02 0.  1.
        2   -1    0    0  501    0  0.00000000000E+00  0.00000000000E+00 -0.18460157125E+03  0.18460157127E+03  0.25500000920E-02 0. -1.
    10030    2    1    2    0    0  0.00000000000E+00  0.00000000000E+00  0.16725428235E+03  0.53645742488E+03  0.50971813166E+03 0.  0.
        4    1    3    3  502    0 -0.14399167509E+03  0.17806280775E+03  0.20135005098E+03  0.30493183161E+03  0.12699999809E+01 0.  1.
       -4    1    3    3    0  502  0.14399167509E+03 -0.17806280775E+03 -0.34095768630E+02  0.23152559327E+03  0.12699999809E+01 0. -1.
</event>
<event>
 5   0  0.1827698E-01  0.5092017E+03  0.7818609E-02  0.1011405E+00
       -2   -1    0    0    0  501  0.00000000000E+00  0.00000000000E+00  0.96620718219E+02  0.96620718252E+02  0.25500000920E-02 0.  1.
        2   -1    0    0  501    0  0.00000000000E+00  0.00000000000E+00 -0.67088706493E+03  0.67088706494E+03  0.25500000920E-02 0. -1.
    10030    2    1    2    0    0  0.00000000000E+00  0.00000000000E+00 -0.57426634671E+03  0.76750778319E+03  0.50920168920E+03 0.  0.
        1    1    3    3  502    0 -0.41017221819E+02  0.97788492876E+02  0.61750366104E+02  0.12271148913E+03  0.50400001928E-02 0.  1.
       -1    1    3    3    0  502  0.41017221819E+02 -0.97788492876E+02 -0.63601671282E+03  0.64479629406E+03  0.50400001928E-02 0. -1.
</event>
<event>
 5   0  0.1760649E-01  0.4950229E+03  0.7818609E-02  0.1015086E+00
        2   -1    0    0  501    0  0.00000000000E+00  0.00000000000E+00  0.16681416262E+03  0.16681416264E+03  0.25500000920E-02 0.  1.
       -2   -1    0    0    0  501  0.00000000000E+00  0.00000000000E+00 -0.36724657190E+03  0.36724657191E+03  0.25500000920E-02 0. -1.
    10030    2    1    2    0    0  0.00000000000E+00  0.00000000000E+00 -0.20043240927E+03  0.53406073455E+03  0.49502294644E+03 0.  0.
        5    1    3    3  502    0  0.17017293056E+03 -0.90826231520E+02 -0.26746259001E+03  0.32979775269E+03  0.46999998093E+01 0. -1.
       -5    1    3    3    0  502 -0.17017293056E+03  0.90826231520E+02  0.67030180734E+02  0.20426298186E+03  0.46999998093E+01 0.  1.
</event>
<event>
 5   0  0.1683148E-01  0.4961690E+03  0.7818609E-02  0.1014784E+00
        2   -1    0    0  501    0  0.00000000000E+00  0.00000000000E+00  0.21334661612E+04  0.21334661612E+04  0.25500000920E-02 0.  1.
       -2   -1    0    0    0  501  0.00000000000E+00  0.00000000000E+00 -0.28847852068E+02  0.28847852180E+02  0.25500000920E-02 0. -1.
    10030    2    1    2    0    0  0.00000000000E+00  0.00000000000E+00  0.21046183091E+04  0.21623140134E+04  0.49616898868E+03 0.  0.
        2    1    3    3  502    0  0.11029614820E+03 -0.19657123338E+03  0.60066134914E+03  0.64156024382E+03  0.25500000920E-02 0. -1.
       -2    1    3    3    0  502 -0.11029614820E+03  0.19657123338E+03  0.15039569600E+04  0.15207537696E+04  0.25500000920E-02 0.  1.
</event>
<event>
 5   0  0.7220250E-02  0.4932190E+03  0.7818609E-02  0.1015564E+00
        4   -1    0    0  501    0  0.00000000000E+00  0.00000000000E+00  0.10695448228E+03  0.10696202214E+03  0.12699999809E+01 0. -1.
       -4   -1    0    0    0  501  0.00000000000E+00  0.00000000000E+00 -0.56858963912E+03  0.56859105746E+03  0.12699999809E+01 0.  1.
    10030    2    1    2    0    0  0.00000000000E+00  0.00000000000E+00 -0.46163515684E+03  0.67555307959E+03  0.49321896284E+03 0.  0.
        1    1    3    3  502    0 -0.79376672104E+02 -0.91905305292E+02  0.63166683747E+02  0.13688415239E+03  0.50400001928E-02 0. -1.
       -1    1    3    3    0  502  0.79376672104E+02  0.91905305292E+02 -0.52480184059E+03  0.53866892720E+03  0.50400001928E-02 0.  1.
</event>
<event>
 5   0  0.1147245E-01  0.4962074E+03  0.7818609E-02  0.1014774E+00
        1   -1    0    0  501    0  0.00000000000E+00  0.00000000000E+00  0.18395568198E+04  0.18395568198E+04  0.50400001928E-02 0.  1.
       -1   -1    0    0    0  501  0.00000000000E+00  0.00000000000E+00 -0.33462101218E+02  0.33462101597E+02  0.50400001928E-02 0. -1.
    10030    2    1    2    0    0  0.00000000000E+00  0.00000000000E+00  0.18060947186E+04  0.18730189214E+04  0.49620736336E+03 0.  0.
        1    1    3    3  502    0 -0.36985000242E+02 -0.21886667210E+03  0.13214218919E+04  0.13399351950E+04  0.50400001928E-02 0.  1.
       -1    1    3    3    0  502  0.36985000242E+02  0.21886667210E+03  0.48467282669E+03  0.53308372641E+03  0.50400001928E-02 0. -1.
</event>
<event>
 5   0  0.1760649E-01  0.4891082E+03  0.7818609E-02  0.1016662E+00
       -2   -1    0    0    0  501  0.00000000000E+00  0.00000000000E+00  0.34208795726E+02  0.34208795821E+02  0.25500000920E-02 0. -1.
        2   -1    0    0  501    0  0.00000000000E+00  0.00000000000E+00 -0.17482847914E+04  0.17482847914E+04  0.25500000920E-02 0.  1.
    10030    2    1    2    0    0  0.00000000000E+00  0.00000000000E+00 -0.17140759957E+04  0.17824935872E+04  0.48910823909E+03 0.  0.
        5    1    3    3  502    0  0.24050362803E+03  0.52044026530E+01 -0.69753481804E+03  0.73786583690E+03  0.46999998093E+01 0.  1.
       -5    1    3    3    0  502 -0.24050362803E+03 -0.52044026530E+01 -0.10165411776E+04  0.10446277503E+04  0.46999998093E+01 0. -1.
</event>
<event>
 5   0  0.1827698E-01  0.5003570E+03  0.7818609E-02  0.1013686E+00
        2   -1    0    0  501    0  0.00000000000E+00  0.00000000000E+00  0.82509232428E+03  0.82509232429E+03  0.25500000920E-02 0. -1.
       -2   -1    0    0    0  501  0.00000000000E+00  0.00000000000E+00 -0.75857307566E+02  0.75857307609E+02  0.25500000920E-02 0.  1.
    10030    2    1    2    0    0  0.00000000000E+00  0.00000000000E+00  0.74923501672E+03  0.90094963189E+03  0.50035700149E+03 0.  0.
        1    1    3    3  502    0  0.16263922609E+02  0.14143584725E+03  0.41954943349E+01  0.14242968885E+03  0.50400001928E-02 0.  1.
       -1    1    3    3    0  502 -0.16263922609E+02 -0.14143584725E+03  0.74503952238E+03  0.75851994305E+03  0.50400001928E-02 0. -1.
</event>
<event>
 5   0  0.1123271E-01  0.5137407E+03  0.7818609E-02  0.1010253E+00
        1   -1    0    0  501    0  0.00000000000E+00  0.00000000000E+00  0.37604272637E+03  0.37604272640E+03  0.50400001928E-02 0.  1.
       -1   -1    0    0    0  501  0.00000000000E+00  0.00000000000E+00 -0.17546508192E+03  0.17546508199E+03  0.50400001928E-02 0. -1.
    10030    2    1    2    0    0  0.00000000000E+00  0.00000000000E+00  0.20057764445E+03  0.55150780840E+03  0.51374066538E+03 0.  0.
        5    1    3    3  502    0 -0.16017627662E+02 -0.11327657134E+03  0.34713200219E+03  0.36552819720E+03  0.46999998093E+01 0.  1.
       -5    1    3    3    0  502  0.16017627662E+02  0.11327657134E+03 -0.14655435774E+03  0.18597961119E+03  0.46999998093E+01 0. -1.
</event>
<event>
 5   0  0.1147245E-01  0.5020425E+03  0.7818609E-02  0.1013247E+00
       -1   -1    0    0    0  501  0.00000000000E+00  0.00000000000E+00  0.67480779488E+02  0.67480779676E+02  0.50400001928E-02 0.  1.
        1   -1    0    0  501    0  0.00000000000E+00  0.00000000000E+00 -0.93377197928E+03  0.93377197930E+03  0.50400001928E-02 0. -1.
    10030    2    1    2    0    0  0.00000000000E+00  0.00000000000E+00 -0.86629119979E+03  0.10012527590E+04  0.50204247281E+03 0.  0.
        1    1    3    3  502    0 -0.17373417472E+03 -0.13357578245E+03 -0.18900475147E+03  0.28939393433E+03  0.50400001928E-02 0.  1.
       -1    1    3    3    0  502  0.17373417472E+03  0.13357578245E+03 -0.67728644832E+03  0.71185882464E+03  0.50400001928E-02 0. -1.
</event>
<event>
 5   0  0.1760649E-01  0.5027845E+03  0.7818609E-02  0.1013055E+00
        2   -1    0    0  501    0  0.00000000000E+00  0.00000000000E+00  0.20237897253E+03  0.20237897255E+03  0.25500000920E-02 0.  1.
       -2   -1    0    0    0  501  0.00000000000E+00  0.00000000000E+00 -0.31227583603E+03  0.31227583604E+03  0.25500000920E-02 0. -1.
    10030    2    1    2    0    0  0.00000000000E+00  0.00000000000E+00 -0.10989686350E+03  0.51465480859E+03  0.50278449797E+03 0.  0.
        5    1    3    3  502    0  0.91520225293E+02  0.90368663424E+02 -0.27599474837E+03  0.30452855054E+03  0.46999998093E+01 0. -1.
       -5    1    3    3    0  502 -0.91520225293E+02 -0.90368663424E+02  0.16609788487E+03  0.21012625805E+03  0.46999998093E+01 0.  1.
</event>
<event>
 5   0  0.1147245E-01  0.4998439E+03  0.7818609E-02  0.1013820E+00
        1   -1    0    0  501    0  0.00000000000E+00  0.00000000000E+00  0.59703360130E+02  0.59703360343E+02  0.50400001928E-02 0.  1.
       -1   -1    0    0    0  501  0.00000000000E+00  0.00000000000E+00 -0.10461885178E+04  0.10461885179E+04  0.50400001928E-02 0. -1.
    10030    2    1    2    0    0  0.00000000000E+00  0.00000000000E+00 -0.98648515771E+03  0.11058918782E+04  0.49984385549E+03 0.  0.
        1    1    3    3  502    0  0.97061788277E+02  0.23521782136E+02  0.13634864974E+02  0.10079769118E+03  0.50400001928E-02 0.  1.
       -1    1    3    3    0  502 -0.97061788277E+02 -0.23521782136E+02 -0.10001200227E+04  0.10050941870E+04  0.50400001928E-02 0. -1.
</event>
<event>
 5   0  0.1782124E-01  0.4985937E+03  0.7818609E-02  0.1014147E+00
       -2   -1    0    0    0  501  0.00000000000E+00  0.00000000000E+00  0.47005218775E+02  0.47005218844E+02  0.25500000920E-02 0. -1.
        2   -1    0    0  501    0  0.00000000000E+00  0.00000000000E+00 -0.13221704901E+04  0.13221704901E+04  0.25500000920E-02 0.  1.
    10030    2    1    2    0    0  0.00000000000E+00  0.00000000000E+00 -0.12751652713E+04  0.13691757090E+04  0.49859367503E+03 0.  0.
        3    1    3    3  502    0 -0.21722486040E+03  0.12226133416E+03 -0.64801381444E+03  0.69430280693E+03  0.10100000352E+00 0.  1.
       -3    1    3    3    0  502  0.21722486040E+03 -0.12226133416E+03 -0.62715145690E+03  0.67487290203E+03  0.10100000352E+00 0. -1.
</event>
<event>
 5   0  0.7220250E-02  0.4973038E+03  0.7818609E-02  0.1014485E+00
        4   -1    0    0  501    0  0.00000000000E+00  0.00000000000E+00  0.23666927652E+03  0.23667268400E+03  0.12699999809E+01 0.  1.
       -4   -1    0    0    0  501  0.00000000000E+00  0.00000000000E+00 -0.26123436114E+03  0.26123744819E+03  0.12699999809E+01 0. -1.
    10030    2    1    2    0    0  0.00000000000E+00  0.00000000000E+00 -0.24565084613E+02  0.49791013219E+03  0.49730378679E+03 0.  0.
        5    1    3    3  502    0  0.19619797169E+03  0.11744609132E+03  0.85398933955E+02  0.24413581544E+03  0.46999998093E+01 0. -1.
       -5    1    3    3    0  502 -0.19619797169E+03 -0.11744609132E+03 -0.10996401857E+03  0.25377431675E+03  0.46999998093E+01 0.  1.
</event>
<event>
 5   0  0.1827698E-01  0.4998471E+03  0.7818609E-02  0.1013819E+00
       -2   -1    0    0    0  501  0.00000000000E+00  0.00000000000E+00  0.72362854059E+02  0.72362854104E+02  0.25500000920E-02 0. -1.
        2   -1    0    0  501    0  0.00000000000E+00  0.00000000000E+00 -0.86317451720E+03  0.86317451720E+03  0.25500000920E-02 0.  1.
    10030    2    1    2    0    0  0.00000000000E+00  0.00000000000E+00 -0.79081166314E+03  0.93553737131E+03  0.49984706316E+03 0.  0.
        1    1    3    3  502    0 -0.36749016934E+02  0.24167699081E+03 -0.49272273145E+03  0.55003086118E+03  0.50400001928E-02 0.  1.
       -1    1    3    3    0  502  0.36749016934E+02 -0.24167699081E+03 -0.29808893169E+03  0.38550651013E+03  0.50400001928E-02 0. -1.
</event>
<event>
 5   0  0.7220250E-02  0.4983455E+03  0.7818609E-02  0.1014212E+00
       -4   -1    0    0    0  501  0.00000000000E+00  0.00000000000E+00  0.52014654410E+02  0.52030156384E+02  0.12699999809E+01 0.  1.
        4   -1    0    0  501    0  0.00000000000E+00  0.00000000000E+00 -0.11934517332E+04  0.11934524089E+04  0.12699999809E+01 0. -1.
    10030    2    1    2    0    0  0.00000000000E+00  0.00000000000E+00 -0.11414370788E+04  0.12454825653E+04  0.49834547822E+03 0.  0.
        3    1    3    3  502    0 -0.23768068254E+02  0.22337316362E+03 -0.30123477366E+03  0.37576973050E+03  0.10100000352E+00 0.  1.
       -3    1    3    3    0  502  0.23768068254E+02 -0.22337316362E+03 -0.84020230511E+03  0.86971283480E+03  0.10100000352E+00 0. -1.
</event>
<event>
 5   0  0.7220250E-02  0.5081767E+03  0.7818609E-02  0.1011666E+00
       -3   -1    0    0    0  501  0.00000000000E+00  0.00000000000E+00  0.59097489029E+03  0.59097489892E+03  0.10100000352E+00 0. -1.
        3   -1    0    0  501    0  0.00000000000E+00  0.00000000000E+00 -0.10924471062E+03  0.10924475731E+03  0.10100000352E+00 0.  1.
    10030    2    1    2    0    0  0.00000000000E+00  0.00000000000E+00  0.48173017967E+03  0.70021965623E+03  0.50817674186E+03 0.  0.
        1    1    3    3  502    0  0.16210938446E+03 -0.14672718820E+03  0.62520326116E+02  0.22741396503E+03  0.50400001928E-02 0.  1.
       -1    1    3    3    0  502 -0.16210938446E+03  0.14672718820E+03  0.41920985355E+03  0.47280569120E+03  0.50400001928E-02 0. -1.
</event>
<event>
 5   0  0.1709372E-01  0.5075981E+03  0.7818609E-02  0.1011815E+00
       -2   -1    0    0    0  501  0.00000000000E+00  0.00000000000E+00  0.30589007755E+02  0.30589007862E+02  0.25500000920E-02 0. -1.
        2   -1    0    0  501    0  0.00000000000E+00  0.00000000000E+00 -0.21057875283E+04  0.21057875283E+04  0.25500000920E-02 0.  1.
    10030    2    1    2    0    0  0.00000000000E+00  0.00000000000E+00 -0.20751985206E+04  0.21363765362E+04  0.50759807387E+03 0.  0.
        4    1    3    3  502    0  0.31276474893E+02  0.45677238010E+02 -0.20800535313E+04  0.20807904589E+04  0.12699999809E+01 0.  1.
       -4    1    3    3    0  502 -0.31276474893E+02 -0.45677238010E+02  0.48550107566E+01  0.55586077243E+02  0.12699999809E+01 0. -1.
</event>
<event>
 5   0  0.1068522E-01  0.5093335E+03  0.7818609E-02  0.1011371E+00
        1   -1    0    0  501    0  0.00000000000E+00  0.00000000000E+00  0.43582230857E+03  0.43582230860E+03  0.50400001928E-02 0. -1.
       -1   -1    0    0    0  501  0.00000000000E+00  0.00000000000E+00 -0.14881099430E+03  0.14881099439E+03  0.50400001928E-02 0.  1.
    10030    2    1    2    0    0  0.00000000000E+00  0.00000000000E+00  0.28701131427E+03  0.58463330299E+03  0.50933349040E+03 0.  0.
        2    1    3    3  502    0 -0.18898231639E+02  0.25396404809E+03  0.14290897337E+03  0.29202372430E+03  0.25500000920E-02 0.  1.
       -2    1    3    3    0  502  0.18898231639E+02 -0.25396404809E+03  0.14410234090E+03  0.29260957869E+03  0.25500000920E-02 0. -1.
</event>
<event>
 5   0  0.7220250E-02  0.5013430E+03  0.7818609E-02  0.1013429E+00
        4   -1    0    0  501    0  0.00000000000E+00  0.00000000000E+00  0.11241626570E+03  0.11242343925E+03  0.12699999809E+01 0.  1.
       -4   -1    0    0    0  501  0.00000000000E+00  0.00000000000E+00 -0.55893441196E+03  0.55893585479E+03  0.12699999809E+01 0. -1.
    10030    2    1    2    0    0  0.00000000000E+00  0.00000000000E+00 -0.44651814626E+03  0.67135929404E+03  0.50134304300E+03 0.  0.
        2    1    3    3  502    0 -0.13776607452E+03  0.13266217363E+03 -0.44025242877E+03  0.48000098401E+03  0.25500000920E-02 0. -1.
       -2    1    3    3    0  502  0.13776607452E+03 -0.13266217363E+03 -0.62657174848E+01  0.19135831004E+03  0.25500000920E-02 0.  1.
</event>
<event>
 5   0  0.1141970E-01  0.5000628E+03  0.7818609E-02  0.1013763E+00
        1   -1    0    0  501    0  0.00000000000E+00  0.00000000000E+00  0.19277323864E+03  0.19277323870E+03  0.50400001928E-02 0.  1.
       -1   -1    0    0    0  501  0.00000000000E+00  0.00000000000E+00 -0.32429651992E+03  0.32429651996E+03  0.50400001928E-02 0. -1.
    10030    2    1    2    0    0  0.00000000000E+00  0.00000000000E+00 -0.13152328129E+03  0.51706975866E+03  0.50006275787E+03 0.  0.
        3    1    3    3  502    0  0.24404241273E+03 -0.40885886779E+02 -0.28662078902E+02  0.24909813310E+03  0.10100000352E+00 0. -1.
       -3    1    3    3    0  502 -0.24404241273E+03  0.40885886779E+02 -0.10286120238E+03  0.26797162556E+03  0.10100000352E+00 0.  1.
</event>
<event>
 5   0  0.1068522E-01  0.5053474E+03  0.7818609E-02  0.1012393E+00
       -1   -1    0    0    0  501  0.00000000000E+00  0.00000000000E+00  0.17702664536E+03  0.17702664543E+03  0.50400001928E-02 0.  1.
        1   -1    0    0  501    0  0.00000000000E+00  0.00000000000E+00 -0.36064631179E+03  0.36064631183E+03  0.50400001928E-02 0. -1.
    10030    2    1    2    0    0  0.00000000000E+00  0.00000000000E+00 -0.18361966643E+03  0.53767295726E+03  0.50534743204E+03 0.  0.
        2    1    3    3  502    0  0.17745605392E+02  0.15498091051E+03  0.11967622485E+03  0.19661227819E+03  0.25500000920E-02 0.  1.
       -2    1    3    3    0  502 -0.17745605392E+02 -0.15498091051E+03 -0.30329589128E+03  0.34106067907E+03  0.25500000920E-02 0. -1.
</event>
<event>
 5   0  0.1147245E-01  0.5062626E+03  0.7818609E-02  0.1012157E+00
       -1   -1    0    0    0  501  0.00000000000E+00  0.00000000000E+00  0.35267299407E+02  0.35267299767E+02  0.50400001928E-02 0.  1.
        1   -1    0    0  501    0  0.00000000000E+00  0.00000000000E+00 -0.18168514633E+04  0.18168514633E+04  0.50400001928E-02 0. -1.
    10030    2    1    2    0    0  0.00000000000E+00  0.00000000000E+00 -0.17815841638E+04  0.18521187630E+04  0.50626255983E+03 0.  0.
        1    1    3    3  502    0  0.16659311297E+03  0.15200408640E+03 -0.47020257338E+03  0.52148726505E+03  0.50400001928E-02 0.  1.
       -1    1    3    3    0  502 -0.16659311297E+03 -0.15200408640E+03 -0.13113815905E+04  0.13306314980E+04  0.50400001928E-02 0. -1.
</event>
<event>
 5   0  0.7220250E-02  0.4998373E+03  0.7818609E-02  0.1013821E+00
       -3   -1    0    0    0  501  0.00000000000E+00  0.00000000000E+00  0.62970062325E+03  0.62970063135E+03  0.10100000352E+00 0. -1.
        3   -1    0    0  501    0  0.00000000000E+00  0.00000000000E+00 -0.99188912354E+02  0.99188963776E+02  0.10100000352E+00 0.  1.
    10030    2    1    2    0    0  0.00000000000E+00  0.00000000000E+00  0.53051171089E+03  0.72888959512E+03  0.49983734003E+03 0.  0.
        5    1    3    3  502    0 -0.18504220646E+03 -0.97756526401E+02  0.46435043881E+03  0.50935289991E+03  0.46999998093E+01 0. -1.
       -5    1    3    3    0  502  0.18504220646E+03  0.97756526401E+02  0.66161272081E+02  0.21953669521E+03  0.46999998093E+01 0.  1.
</event>
<event>
 5   0  0.1141970E-01  0.4993996E+03  0.7818609E-02  0.1013936E+00
        1   -1    0    0  501    0  0.00000000000E+00  0.00000000000E+00  0.33259606695E+03  0.33259606699E+03  0.50400001928E-02 0.  1.
       -1   -1    0    0    0  501  0.00000000000E+00  0.00000000000E+00 -0.18746457476E+03  0.18746457483E+03  0.50400001928E-02 0. -1.
    10030    2    1    2    0    0  0.00000000000E+00  0.00000000000E+00  0.14513149219E+03  0.52006064182E+03  0.49939956062E+03 0.  0.
        3    1    3    3  502    0 -0.58644289592E+02 -0.73600255038E+01 -0.18007511436E+03  0.18952672553E+03  0.10100000352E+00 0. -1.
       -3    1    3    3    0  502  0.58644289592E+02  0.73600255038E+01  0.32520660655E+03  0.33053391629E+03  0.10100000352E+00 0.  1.
</event>
<event>
 5   0  0.1123271E-01  0.5030310E+03  0.7818609E-02  0.1012991E+00
       -1   -1    0    0    0  501  0.00000000000E+00  0.00000000000E+00  0.93760097539E+02  0.93760097675E+02  0.50400001928E-02 0.  1.
        1   -1    0    0  501    0  0.00000000000E+00  0.00000000000E+00 -0.67470106700E+03  0.67470106702E+03  0.50400001928E-02 0. -1.
    10030    2    1    2    0    0  0.00000000000E+00  0.00000000000E+00 -0.58094096946E+03  0.76846116469E+03  0.50303096490E+03 0.  0.
        5    1    3    3  502    0  0.16218452013E+03 -0.14700299274E+03 -0.47958149374E+03  0.52719464866E+03  0.46999998093E+01 0. -1.
       -5    1    3    3    0  502 -0.16218452013E+03  0.14700299274E+03 -0.10135947572E+03  0.24126651603E+03  0.46999998093E+01 0.  1.
</event>
<event>
 5   0  0.1123271E-01  0.4997916E+03  0.7818609E-02  0.1013833E+00
       -1   -1    0    0    0  501  0.00000000000E+00  0.00000000000E+00  0.15384612985E+03  0.15384612993E+03  0.50400001928E-02 0.  1.
        1   -1    0    0  501    0  0.00000000000E+00  0.00000000000E+00 -0.40591147380E+03  0.40591147383E+03  0.50400001928E-02 0. -1.
    10030    2    1    2    0    0  0.00000000000E+00  0.00000000000E+00 -0.25206534395E+03  0.55975760377E+03  0.49979159392E+03 0.  0.
        5    1    3    3  502    0  0.18074277875E+03  0.79458910350E+02  0.45453177573E+02  0.20265673405E+03  0.46999998093E+01 0.  1.
       -5    1    3    3    0  502 -0.18074277875E+03 -0.79458910350E+02 -0.29751852152E+03  0.35710086972E+03  0.46999998093E+01 0. -1.
</event>
<event>
 5   0  0.1709372E-01  0.5050454E+03  0.7818609E-02  0.1012470E+00
       -2   -1    0    0    0  501  0.00000000000E+00  0.00000000000E+00  0.61664401731E+02  0.61664401783E+02  0.25500000920E-02 0.  1.
        2   -1    0    0  501    0  0.00000000000E+00  0.00000000000E+00 -0.10341090314E+04  0.10341090314E+04  0.25500000920E-02 0. -1.
    10030    2    1    2    0    0  0.00000000000E+00  0.00000000000E+00 -0.97244462963E+03  0.10957734331E+04  0.50504540300E+03 0.  0.
        4    1    3    3  502    0  0.21437269454E+03 -0.11128208615E+03 -0.64605298931E+03  0.68972852106E+03  0.12699999809E+01 0. -1.
       -4    1    3    3    0  502 -0.21437269454E+03  0.11128208615E+03 -0.32639164032E+03  0.40604491209E+03  0.12699999809E+01 0.  1.
</event>
<event>
 5   0  0.1074281E-01  0.4945027E+03  0.7818609E-02  0.1015224E+00
       -1   -1    0    0    0  501  0.00000000000E+00  0.00000000000E+00  0.30271664405E+03  0.30271664409E+03  0.50400001928E-02 0.  1.
        1   -1    0    0  501    0  0.00000000000E+00  0.00000000000E+00 -0.20194866946E+03  0.20194866952E+03  0.50400001928E-02 0. -1.
    10030    2    1    2    0    0  0.00000000000E+00  0.00000000000E+00  0.10076797459E+03  0.50466531361E+03  0.49450267346E+03 0.  0.
        4    1    3    3  502    0  0.19003563078E+03 -0.31291008017E+02  0.20861532192E+03  0.28392716247E+03  0.12699999809E+01 0.  1.
       -4    1    3    3    0  502 -0.19003563078E+03  0.31291008017E+02 -0.10784734732E+03  0.22073815115E+03  0.12699999809E+01 0. -1.
</event>
<event>
 5   0  0.1782124E-01  0.5106584E+03  0.7818609E-02  0.1011034E+00
       -2   -1    0    0    0  501  0.00000000000E+00  0.00000000000E+00  0.81505267617E+02  0.81505267657E+02  0.25500000920E-02 0. -1.
        2   -1    0    0  501    0  0.00000000000E+00  0.00000000000E+00 -0.79986240624E+03  0.79986240624E+03  0.25500000920E-02 0.  1.
    10030    2    1    2    0    0  0.00000000000E+00  0.00000000000E+00 -0.71835713862E+03  0.88136767390E+03  0.51065839657E+03 0.  0.
        3    1    3    3  502    0 -0.14820787200E+03  0.39551522490E+02 -0.71147025591E+03  0.72781854297E+03  0.10100000352E+00 0.  1.
       -3    1    3    3    0  502  0.14820787200E+03 -0.39551522490E+02 -0.68868827160E+01  0.15354913093E+03  0.10100000352E+00 0. -1.
</event>
<event>
 5   0  0.7220250E-02  0.5394365E+03  0.7818609E-02  0.1003969E+00
       -3   -1    0    0    0  501  0.00000000000E+00  0.00000000000E+00  0.55393179045E+03  0.55393179966E+03  0.10100000352E+00 0.  1.
        3   -1    0    0  501    0  0.00000000000E+00  0.00000000000E+00 -0.13133012086E+03  0.13133015970E+03  0.10100000352E+00 0. -1.
    10030    2    1    2    0    0  0.00000000000E+00  0.00000000000E+00  0.42260166959E+03  0.68526195936E+03  0.53943654104E+03 0.  0.
        3    1    3    3  502    0  0.36169993184E+01  0.22655393584E+03  0.25432246266E+02  0.22800565317E+03  0.10100000352E+00 0. -1.
       -3    1    3    3    0  502 -0.36169993184E+01 -0.22655393584E+03  0.39716942333E+03  0.45725630619E+03  0.10100000352E+00 0.  1.
</event>
<event>
 5   0  0.1827698E-01  0.5072848E+03  0.7818609E-02  0.1011895E+00
        2   -1    0    0  501    0  0.00000000000E+00  0.00000000000E+00  0.34650624694E+03  0.34650624695E+03  0.25500000920E-02 0. -1.
       -2   -1    0    0    0  501  0.00000000000E+00  0.00000000000E+00 -0.18566608917E+03  0.18566608919E+03  0.25500000920E-02 0.  1.
    10030    2    1    2    0    0  0.00000000000E+00  0.00000000000E+00  0.16084015777E+03  0.53217233614E+03  0.50728477111E+03 0.  0.
        1    1    3    3  502    0  0.11524154562E+03 -0.18244651081E+03  0.22025284415E+03  0.30834827472E+03  0.50400001928E-02 0. -1.
       -1    1    3    3    0  502 -0.11524154562E+03  0.18244651081E+03 -0.59412686379E+02  0.22382406142E+03  0.50400001928E-02 0.  1.
</event>
<event>
 5   0  0.1068522E-01  0.4999909E+03  0.7818609E-02  0.1013781E+00
       -1   -1    0    0    0  501  0.00000000000E+00  0.00000000000E+00  0.40668754437E+02  0.40668754749E+02  0.50400001928E-02 0.  1.
        1   -1    0    0  501    0  0.00000000000E+00  0.00000000000E+00 -0.15367505415E+04  0.15367505415E+04  0.50400001928E-02 0. -1.
    10030    2    1    2    0    0  0.00000000000E+00  0.00000000000E+00 -0.14960817870E+04  0.15774192962E+04  0.49999092254E+03 0.  0.
        2    1    3    3  502    0  0.17038333011E+03  0.26024256463E+02 -0.13193296392E+04  0.13305406562E+04  0.25500000920E-02 0. -1.
       -2    1    3    3    0  502 -0.17038333011E+03 -0.26024256463E+02 -0.17675214787E+03  0.24687863999E+03  0.25500000920E-02 0.  1.
</event>
<event>
 5   0  0.1827698E-01  0.5012030E+03  0.7818609E-02  0.1013465E+00
        2   -1    0    0  501    0  0.00000000000E+00  0.00000000000E+00  0.60193936578E+03  0.60193936578E+03  0.25500000920E-02 0. -1.
       -2   -1    0    0    0  501  0.00000000000E+00  0.00000000000E+00 -0.10433130475E+03  0.10433130478E+03  0.25500000920E-02 0.  1.
    10030    2    1    2    0    0  0.00000000000E+00  0.00000000000E+00  0.49760806102E+03  0.70627067057E+03  0.50120303042E+03 0.  0.
        1    1    3    3  502    0 -0.95133392184E+02  0.16802001251E+03  0.47391574459E+03  0.51173940625E+03  0.50400001928E-02 0. -1.
       -1    1    3    3    0  502  0.95133392184E+02 -0.16802001251E+03  0.23692316434E+02  0.19453126432E+03  0.50400001928E-02 0.  1.
</event>
<event>
 5   0  0.1827698E-01  0.5025688E+03  0.7818609E-02  0.1013111E+00
       -2   -1    0    0    0  501  0.00000000000E+00  0.00000000000E+00  0.39573076756E+03  0.39573076756E+03  0.25500000920E-02 0. -1.
        2   -1    0    0  501    0  0.00000000000E+00  0.00000000000E+00 -0.15956262546E+03  0.15956262548E+03  0.25500000920E-02 0.  1.
    10030    2    1    2    0    0  0.00000000000E+00  0.00000000000E+00  0.23616814209E+03  0.55529339305E+03  0.50256876248E+03 0.  0.
        1    1    3    3  502    0 -0.13630018768E+03 -0.35328761969E+02 -0.11188058939E+03  0.17984195531E+03  0.50400001928E-02 0.  1.
       -1    1    3    3    0  502  0.13630018768E+03  0.35328761969E+02  0.34804873148E+03  0.37545143773E+03  0.50400001928E-02 0. -1.
</event>
<event>
 5   0  0.1068522E-01  0.4724242E+03  0.7818609E-02  0.1021238E+00
       -1   -1    0    0    0  501  0.00000000000E+00  0.00000000000E+00  0.28908952962E+03  0.28908952966E+03  0.50400001928E-02 0.  1.
        1   -1    0    0  501    0  0.00000000000E+00  0.00000000000E+00 -0.19300648618E+03  0.19300648625E+03  0.50400001928E-02 0. -1.
    10030    2    1    2    0    0  0.00000000000E+00  0.00000000000E+00  0.96083043435E+02  0.48209601591E+03  0.47242419215E+03 0.  0.
        2    1    3    3  502    0  0.43807773494E+01 -0.30151212907E+02  0.28707594818E+03  0.28868821742E+03  0.25500000920E-02 0.  1.
       -2    1    3    3    0  502 -0.43807773494E+01  0.30151212907E+02 -0.19099290474E+03  0.19340779849E+03  0.25500000920E-02 0. -1.
</event>
<event>
 5   0  0.1827698E-01  0.5004697E+03  0.7818609E-02  0.1013656E+00
       -2   -1    0    0    0  501  0.00000000000E+00  0.00000000000E+00  0.84925647757E+02  0.84925647796E+02  0.25500000920E-02 0. -1.
        2   -1    0    0  501    0  0.00000000000E+00  0.00000000000E+00 -0.73732123719E+03  0.73732123719E+03  0.25500000920E-02 0.  1.
    10030    2    1    2    0    0  0.00000000000E+00  0.00000000000E+00 -0.65239558943E+03  0.82224688499E+03  0.50046971413E+03 0.  0.
        1    1    3    3  502    0 -0.16335384474E+03 -0.11366703285E+03 -0.76962658063E+02  0.21337273422E+03  0.50400001928E-02 0. -1.
       -1    1    3    3    0  502  0.16335384474E+03  0.11366703285E+03 -0.57543293137E+03  0.60887415077E+03  0.50400001928E-02 0.  1.
</event>
<event>
 5   0  0.1074281E-01  0.4933750E+03  0.7818609E-02  0.1015523E+00
        1   -1    0    0  501    0  0.00000000000E+00  0.00000000000E+00  0.13239387724E+03  0.13239387733E+03  0.50400001928E-02 0.  1.
       -1   -1    0    0    0  501  0.00000000000E+00  0.00000000000E+00 -0.45964900400E+03  0.45964900403E+03  0.50400001928E-02 0. -1.
    10030    2    1    2    0    0  0.00000000000E+00  0.00000000000E+00 -0.32725512677E+03  0.59204288136E+03  0.49337496428E+03 0.  0.
        4    1    3    3  502    0  0.18056686400E+03 -0.15385685245E+02 -0.36446655455E+03  0.40703635460E+03  0.12699999809E+01 0. -1.
       -4    1    3    3    0  502 -0.18056686400E+03  0.15385685245E+02  0.37211427779E+02  0.18500652676E+03  0.12699999809E+01 0.  1.
</event>
<event>
 5   0  0.7220250E-02  0.4963063E+03  0.7818609E-02  0.1014748E+00
       -4   -1    0    0    0  501  0.00000000000E+00  0.00000000000E+00  0.16867601101E+03  0.16868079200E+03  0.12699999809E+01 0.  1.
        4   -1    0    0  501    0  0.00000000000E+00  0.00000000000E+00 -0.36506750507E+03  0.36506971411E+03  0.12699999809E+01 0. -1.
    10030    2    1    2    0    0  0.00000000000E+00  0.00000000000E+00 -0.19639149406E+03  0.53375050611E+03  0.49630634071E+03 0.  0.
        4    1    3    3  502    0 -0.91148785731E+02 -0.17937285562E+03 -0.25439718974E+03  0.32434898724E+03  0.12699999809E+01 0.  1.
       -4    1    3    3    0  502  0.91148785731E+02  0.17937285562E+03  0.58005695682E+02  0.20940151887E+03  0.12699999809E+01 0. -1.
</event>
<event>
 5   0  0.1074281E-01  0.4980015E+03  0.7818609E-02  0.1014302E+00
        1   -1    0    0  501    0  0.00000000000E+00  0.00000000000E+00  0.10488020400E+04  0.10488020400E+04  0.50400001928E-02 0.  1.
       -1   -1    0    0    0  501  0.00000000000E+00  0.00000000000E+00 -0.59116380211E+02  0.59116380426E+02  0.50400001928E-02 0. -1.
    10030    2    1    2    0    0  0.00000000000E+00  0.00000000000E+00  0.98968565976E+03  0.11079184204E+04  0.49800152725E+03 0.  0.
        4    1    3    3  502    0 -0.89091929585E+02 -0.12685766807E+03  0.61337236989E+02  0.16671565435E+03  0.12699999809E+01 0. -1.
       -4    1    3    3    0  502  0.89091929585E+02  0.12685766807E+03  0.92834842277E+03  0.94120276605E+03  0.12699999809E+01 0.  1.
</event>
<event>
 5   0  0.1827698E-01  0.4919904E+03  0.7818609E-02  0.1015891E+00
        2   -1    0    0  501    0  0.00000000000E+00  0.00000000000E+00  0.75290719872E+03  0.75290719873E+03  0.25500000920E-02 0.  1.
       -2   -1    0    0    0  501  0.00000000000E+00  0.00000000000E+00 -0.80373305744E+02  0.80373305784E+02  0.25500000920E-02 0. -1.
    10030    2    1    2    0    0  0.00000000000E+00  0.00000000000E+00  0.67253389298E+03  0.83328050451E+03  0.49199040844E+03 0.  0.
        1    1    3    3  502    0  0.23651074827E+03  0.49963834072E+01  0.22200428177E+03  0.32441978831E+03  0.50400001928E-02 0.  1.
       -1    1    3    3    0  502 -0.23651074827E+03 -0.49963834072E+01  0.45052961121E+03  0.50886071621E+03  0.50400001928E-02 0. -1.
</event>
<event>
 5   0  0.1074281E-01  0.5003225E+03  0.7818609E-02  0.1013695E+00
        1   -1    0    0  501    0  0.00000000000E+00  0.00000000000E+00  0.33293909009E+03  0.33293909013E+03  0.50400001928E-02 0.  1.
       -1   -1    0    0    0  501  0.00000000000E+00  0.00000000000E+00 -0.18796425925E+03  0.18796425931E+03  0.50400001928E-02 0. -1.
    10030    2    1    2    0    0  0.00000000000E+00  0.00000000000E+00  0.14497483085E+03  0.52090334944E+03  0.50032249388E+03 0.  0.
        4    1    3    3  502    0  0.71147914834E+02  0.18622288798E+03  0.22982649324E+03  0.30424138392E+03  0.12699999809E+01 0.  1.
       -4    1    3    3    0  502 -0.71147914834E+02 -0.18622288798E+03 -0.84851662396E+02  0.21666196552E+03  0.12699999809E+01 0. -1.
</event>
<event>
 5   0  0.1068522E-01  0.4881916E+03  0.7818609E-02  0.1016908E+00
        1   -1    0    0  501    0  0.00000000000E+00  0.00000000000E+00  0.45668046009E+03  0.45668046011E+03  0.50400001928E-02 0. -1.
       -1   -1    0    0    0  501  0.00000000000E+00  0.00000000000E+00 -0.13046923494E+03  0.13046923504E+03  0.50400001928E-02 0.  1.
    10030    2    1    2    0    0  0.00000000000E+00  0.00000000000E+00  0.32621122515E+03  0.58714969515E+03  0.48819156189E+03 0.  0.
        2    1    3    3  502    0 -0.20822078530E+02  0.32287729990E+02 -0.12681003346E+03  0.13250223038E+03  0.25500000920E-02 0.  1.
       -2    1    3    3    0  502  0.20822078530E+02 -0.32287729990E+02  0.45302125861E+03  0.45464746477E+03  0.25500000920E-02 0. -1.
</event>
<event>
 5   0  0.1683148E-01  0.4976689E+03  0.7818609E-02  0.1014389E+00
       -2   -1    0    0    0  501  0.00000000000E+00  0.00000000000E+00  0.21747073983E+03  0.21747073985E+03  0.25500000920E-02 0.  1.
        2   -1    0    0  501    0  0.00000000000E+00  0.00000000000E+00 -0.28472145507E+03  0.28472145508E+03  0.25500000920E-02 0. -1.
    10030    2    1    2    0    0  0.00000000000E+00  0.00000000000E+00 -0.67250715236E+02  0.50219219492E+03  0.49766890795E+03 0.  0.
        2    1    3    3  502    0  0.11639298253E+03  0.44260246809E+02 -0.25101855329E+03  0.28020815465E+03  0.25500000920E-02 0. -1.
       -2    1    3    3    0  502 -0.11639298253E+03 -0.44260246809E+02  0.18376783805E+03  0.22198404028E+03  0.25500000920E-02 0.  1.
</event>
<event>
 5   0  0.1683148E-01  0.5073968E+03  0.7818609E-02  0.1011866E+00
        2   -1    0    0  501    0  0.00000000000E+00  0.00000000000E+00  0.10713260277E+04  0.10713260277E+04  0.25500000920E-02 0. -1.
       -2   -1    0    0    0  501  0.00000000000E+00  0.00000000000E+00 -0.60077770075E+02  0.60077770129E+02  0.25500000920E-02 0.  1.
    10030    2    1    2    0    0  0.00000000000E+00  0.00000000000E+00  0.10112482576E+04  0.11314037978E+04  0.50739680251E+03 0.  0.
        2    1    3    3  502    0 -0.14782243479E+03 -0.86643561455E+02  0.88437285592E+02  0.19282046691E+03  0.25500000920E-02 0.  1.
       -2    1    3    3    0  502  0.14782243479E+03  0.86643561455E+02  0.92281097203E+03  0.93858333092E+03  0.25500000920E-02 0. -1.
</event>
<event>
 5   0  0.1760649E-01  0.5012984E+03  0.7818609E-02  0.1013441E+00
        2   -1    0    0  501    0  0.00000000000E+00  0.00000000000E+00  0.52038522840E+03  0.52038522841E+03  0.25500000920E-02 0.  1.
       -2   -1    0    0    0  501  0.00000000000E+00  0.00000000000E+00 -0.12072789645E+03  0.12072789648E+03  0.25500000920E-02 0. -1.
    10030    2    1    2    0    0  0.00000000000E+00  0.00000000000E+00  0.39965733195E+03  0.64111312489E+03  0.50129837016E+03 0.  0.
        5    1    3    3  502    0 -0.63373358328E+02 -0.66441713182E+02  0.49804195222E+03  0.50645686881E+03  0.46999998093E+01 0.  1.
       -5    1    3    3    0  502  0.63373358328E+02  0.66441713182E+02 -0.98384620271E+02  0.13465625608E+03  0.46999998093E+01 0. -1.
</event>
<event>
 5   0  0.1827698E-01  0.5017474E+03  0.7818609E-02  0.1013324E+00
       -2   -1    0    0    0  501  0.00000000000E+00  0.00000000000E+00  0.29589299119E+02  0.29589299229E+02  0.25500000920E-02 0. -1.
        2   -1    0    0  501    0  0.00000000000E+00  0.00000000000E+00 -0.21270395659E+04  0.21270395659E+04  0.25500000920E-02 0.  1.
    10030    2    1    2    0    0  0.00000000000E+00  0.00000000000E+00 -0.20974502668E+04  0.21566288652E+04  0.50174738694E+03 0.  0.
        1    1    3    3  502    0 -0.16563711999E+03  0.17077485046E+03 -0.70653840921E+03  0.74551742353E+03  0.50400001928E-02 0. -1.
       -1    1    3    3    0  502  0.16563711999E+03 -0.17077485046E+03 -0.13909118576E+04  0.14111114416E+04  0.50400001928E-02 0.  1.
</event>
<event>
 5   0  0.1147245E-01  0.4973246E+03  0.7818609E-02  0.1014480E+00
       -1   -1    0    0    0  501  0.00000000000E+00  0.00000000000E+00  0.66412203837E+02  0.66412204029E+02  0.50400001928E-02 0. -1.
        1   -1    0    0  501    0  0.00000000000E+00  0.00000000000E+00 -0.93104790740E+03  0.93104790742E+03  0.50400001928E-02 0.  1.
    10030    2    1    2    0    0  0.00000000000E+00  0.00000000000E+00 -0.86463570357E+03  0.99746011145E+03  0.49732461637E+03 0.  0.
        1    1    3    3  502    0  0.21241369728E+02 -0.24174142182E+03 -0.54112022432E+03  0.59304401860E+03  0.50400001928E-02 0.  1.
       -1    1    3    3    0  502 -0.21241369728E+02  0.24174142182E+03 -0.32351547925E+03  0.40441609284E+03  0.50400001928E-02 0. -1.
</event>
<event>
 5   0  0.1709372E-01  0.4790276E+03  0.7818609E-02  0.1019403E+00
        2   -1    0    0  501    0  0.00000000000E+00  0.00000000000E+00  0.21784088009E+03  0.21784088011E+03  0.25500000920E-02 0.  1.
       -2   -1    0    0    0  501  0.00000000000E+00  0.00000000000E+00 -0.26334294341E+03  0.26334294342E+03  0.25500000920E-02 0. -1.
    10030    2    1    2    0    0  0.00000000000E+00  0.00000000000E+00 -0.45502063317E+02  0.48118382353E+03  0.47902759238E+03 0.  0.
        4    1    3    3  502    0 -0.21419731428E+03  0.10695909610E+03 -0.29452492003E+02  0.24122562025E+03  0.12699999809E+01 0.  1.
       -4    1    3    3    0  502  0.21419731428E+03 -0.10695909610E+03 -0.16049571313E+02  0.23995820328E+03  0.12699999809E+01 0. -1.
</event>
<event>
 5   0  0.1760649E-01  0.5005184E+03  0.7818609E-02  0.1013644E+00
       -2   -1    0    0    0  501  0.00000000000E+00  0.00000000000E+00  0.31517035031E+02  0.31517035134E+02  0.25500000920E-02 0. -1.
        2   -1    0    0  501    0  0.00000000000E+00  0.00000000000E+00 -0.19871689737E+04  0.19871689737E+04  0.25500000920E-02 0.  1.
    10030    2    1    2    0    0  0.00000000000E+00  0.00000000000E+00 -0.19556519387E+04  0.20186860088E+04  0.50051842828E+03 0.  0.
        5    1    3    3  502    0  0.18899128809E+02  0.47048982155E+02  0.10402749188E+02  0.51972021131E+02  0.46999998093E+01 0. -1.
       -5    1    3    3    0  502 -0.18899128809E+02 -0.47048982155E+02 -0.19660546879E+04  0.19667139877E+04  0.46999998093E+01 0.  1.
</event>
<event>
 5   0  0.1827698E-01  0.4962655E+03  0.7818609E-02  0.1014758E+00
        2   -1    0    0  501    0  0.00000000000E+00  0.00000000000E+00  0.17453708045E+04  0.17453708045E+04  0.25500000920E-02 0.  1.
       -2   -1    0    0    0  501  0.00000000000E+00  0.00000000000E+00 -0.35276088085E+02  0.35276088177E+02  0.25500000920E-02 0. -1.
    10030    2    1    2    0    0  0.00000000000E+00  0.00000000000E+00  0.17100947164E+04  0.17806468927E+04  0.49626547059E+03 0.  0.
        1    1    3    3  502    0 -0.11713754475E+03  0.69698000610E+02  0.11108372621E+03  0.17583688445E+03  0.50400001928E-02 0. -1.
       -1    1    3    3    0  502  0.11713754475E+03 -0.69698000610E+02  0.15990109902E+04  0.16048100083E+04  0.50400001928E-02 0.  1.
</event>
<event>
 5   0  0.1147245E-01  0.4896111E+03  0.7818609E-02  0.1016527E+00
       -1   -1    0    0    0  501  0.00000000000E+00  0.00000000000E+00  0.30118358202E+03  0.30118358206E+03  0.50400001928E-02 0. -1.
        1   -1    0    0  501    0  0.00000000000E+00  0.00000000000E+00 -0.19898082929E+03  0.19898082935E+03  0.50400001928E-02 0.  1.
    10030    2    1    2    0    0  0.00000000000E+00  0.00000000000E+00  0.10220275273E+03  0.50016441141E+03  0.48961110667E+03 0.  0.
        1    1    3    3  502    0  0.21830901107E+03 -0.35950535190E+02 -0.55935370855E+02  0.22821049721E+03  0.50400001928E-02 0.  1.
       -1    1    3    3    0  502 -0.21830901107E+03  0.35950535190E+02  0.15813812358E+03  0.27195391421E+03  0.50400001928E-02 0. -1.
</event>
<event>
 5   0  0.7220250E-02  0.4861745E+03  0.7818609E-02  0.1017452E+00
        4   -1    0    0  501    0  0.00000000000E+00  0.00000000000E+00  0.23108236649E+03  0.23108585634E+03  0.12699999809E+01 0. -1.
       -4   -1    0    0    0  501  0.00000000000E+00  0.00000000000E+00 -0.25570883985E+03  0.25571199362E+03  0.12699999809E+01 0.  1.
    10030    2    1    2    0    0  0.00000000000E+00  0.00000000000E+00 -0.24626473365E+02  0.48679784996E+03  0.48617454019E+03 0.  0.
        2    1    3    3  502    0  0.55685998370E+02 -0.23153219361E+03  0.36568752884E+02  0.24092604837E+03  0.25500000920E-02 0. -1.
       -2    1    3    3    0  502 -0.55685998370E+02  0.23153219361E+03 -0.61195226250E+02  0.24587180158E+03  0.25500000920E-02 0.  1.
</event>
<event>
 5   0  0.1068522E-01  0.5036441E+03  0.7818609E-02  0.1012832E+00
       -1   -1    0    0    0  501  0.00000000000E+00  0.00000000000E+00  0.53757481664E+02  0.53757481900E+02  0.50400001928E-02 0.  1.
        1   -1    0    0  501    0  0.00000000000E+00  0.00000000000E+00 -0.11796374002E+04  0.11796374002E+04  0.50400001928E-02 0. -1.
    10030    2    1    2    0    0  0.00000000000E+00  0.00000000000E+00 -0.11258799185E+04  0.12333948821E+04  0.50364406504E+03 0.  0.
        2    1    3    3  502    0 -0.21472812803E+02  0.16067002859E+02 -0.11761302099E+04  0.11764359315E+04  0.25500000920E-02 0. -1.
       -2    1    3    3    0  502  0.21472812803E+02 -0.16067002859E+02  0.50250291344E+02  0.56958950633E+02  0.25500000920E-02 0.  1.
</event>
<event>
 5   0  0.1683148E-01  0.4942535E+03  0.7818609E-02  0.1015290E+00
        2   -1    0    0  501    0  0.00000000000E+00  0.00000000000E+00  0.75953931272E+03  0.75953931273E+03  0.25500000920E-02 0.  1.
       -2   -1    0    0    0  501  0.00000000000E+00  0.00000000000E+00 -0.80406135916E+02  0.80406135956E+02  0.25500000920E-02 0. -1.
    10030    2    1    2    0    0  0.00000000000E+00  0.00000000000E+00  0.67913317681E+03  0.83994544868E+03  0.49425346223E+03 0.  0.
        2    1    3    3  502    0 -0.12379631561E+03 -0.68007715876E+02 -0.50478167179E+01  0.14133668186E+03  0.25500000920E-02 0. -1.
       -2    1    3    3    0  502  0.12379631561E+03  0.68007715876E+02  0.68418099352E+03  0.69860876682E+03  0.25500000920E-02 0.  1.
</event>
<event>
 5   0  0.1709372E-01  0.4843872E+03  0.7818609E-02  0.1017936E+00
        2   -1    0    0  501    0  0.00000000000E+00  0.00000000000E+00  0.15013887624E+04  0.15013887624E+04  0.25500000920E-02 0.  1.
       -2   -1    0    0    0  501  0.00000000000E+00  0.00000000000E+00 -0.39068982653E+02  0.39068982736E+02  0.25500000920E-02 0. -1.
    10030    2    1    2    0    0  0.00000000000E+00  0.00000000000E+00  0.14623197798E+04  0.15404577452E+04  0.48438716573E+03 0.  0.
        4    1    3    3  502    0  0.69012887241E+02  0.21468456518E+03  0.45022066132E+03  0.50353996655E+03  0.12699999809E+01 0. -1.
       -4    1    3    3    0  502 -0.69012887241E+02 -0.21468456518E+03  0.10120991185E+04  0.10369177786E+04  0.12699999809E+01 0.  1.
</event>
<event>
 5   0  0.1760649E-01  0.4987608E+03  0.7818609E-02  0.1014103E+00
        2   -1    0    0  501    0  0.00000000000E+00  0.00000000000E+00  0.59672792779E+03  0.59672792780E+03  0.25500000920E-02 0.  1.
       -2   -1    0    0    0  501  0.00000000000E+00  0.00000000000E+00 -0.10421933715E+03  0.10421933718E+03  0.25500000920E-02 0. -1.
    10030    2    1    2    0    0  0.00000000000E+00  0.00000000000E+00  0.49250859064E+03  0.70094726498E+03  0.49876082087E+03 0.  0.
        5    1    3    3  502    0 -0.12296542302E+03 -0.86737139353E+02  0.52565477962E+03  0.54678959750E+03  0.46999998093E+01 0.  1.
       -5    1    3    3    0  502  0.12296542302E+03  0.86737139353E+02 -0.33146188980E+02  0.15415766748E+03  0.46999998093E+01 0. -1.
</event>
<event>
 5   0  0.1074281E-01  0.5063758E+03  0.7818609E-02  0.1012128E+00
       -1   -1    0    0    0  501  0.00000000000E+00  0.00000000000E+00  0.22378961741E+03  0.22378961747E+03  0.50400001928E-02 0. -1.
        1   -1    0    0  501    0  0.00000000000E+00  0.00000000000E+00 -0.28644810414E+03  0.28644810419E+03  0.50400001928E-02 0.  1.
    10030    2    1    2    0    0  0.00000000000E+00  0.00000000000E+00 -0.62658486733E+02  0.51023772166E+03  0.50637579587E+03 0.  0.
        4    1    3    3  502    0 -0.20283000332E+03  0.46621512376E+02  0.11395403130E+03  0.23727770610E+03  0.12699999809E+01 0. -1.
       -4    1    3    3    0  502  0.20283000332E+03 -0.46621512376E+02 -0.17661251803E+03  0.27296001555E+03  0.12699999809E+01 0.  1.
</event>
<event>
 5   0  0.1074281E-01  0.5238347E+03  0.7818609E-02  0.1007738E+00
        1   -1    0    0  501    0  0.00000000000E+00  0.00000000000E+00  0.98233466069E+03  0.98233466070E+03  0.50400001928E-02 0. -1.
       -1   -1    0    0    0  501  0.00000000000E+00  0.00000000000E+00 -0.69834332636E+02  0.69834332817E+02  0.50400001928E-02 0.  1.
    10030    2    1    2    0    0  0.00000000000E+00  0.00000000000E+00  0.91250032806E+03  0.10521689935E+04  0.52383465161E+03 0.  0.
        4    1    3    3  502    0 -0.12953496077E+02 -0.15442948514E+03  0.88035674632E+03  0.89389365846E+03  0.12699999809E+01 0. -1.
       -4    1    3    3    0  502  0.12953496077E+02  0.15442948514E+03  0.32143581734E+02  0.15827533506E+03  0.12699999809E+01 0.  1.
</event>
<event>
 5   0  0.1683148E-01  0.4825526E+03  0.7818609E-02  0.1018436E+00
       -2   -1    0    0    0  501  0.00000000000E+00  0.00000000000E+00  0.30672997506E+02  0.30672997612E+02  0.25500000920E-02 0. -1.
        2   -1    0    0  501    0  0.00000000000E+00  0.00000000000E+00 -0.18978993441E+04  0.18978993441E+04  0.25500000920E-02 0.  1.
    10030    2    1    2    0    0  0.00000000000E+00  0.00000000000E+00 -0.18672263466E+04  0.19285723417E+04  0.48255263735E+03 0.  0.
        2    1    3    3  502    0 -0.20364650191E+02 -0.18511996335E+03 -0.32055241810E+03  0.37072627714E+03  0.25500000920E-02 0. -1.
       -2    1    3    3    0  502  0.20364650191E+02  0.18511996335E+03 -0.15466739285E+04  0.15578460646E+04  0.25500000920E-02 0.  1.
</event>
<event>
 5   0  0.1827698E-01  0.5074048E+03  0.7818609E-02  0.1011864E+00
        2   -1    0    0  501    0  0.00000000000E+00  0.00000000000E+00  0.11921215725E+04  0.11921215725E+04  0.25500000920E-02 0.  1.
       -2   -1    0    0    0  501  0.00000000000E+00  0.00000000000E+00 -0.53991907802E+02  0.53991907863E+02  0.25500000920E-02 0. -1.
    10030    2    1    2    0    0  0.00000000000E+00  0.00000000000E+00  0.11381296647E+04  0.12461134804E+04  0.50740484063E+03 0.  0.
        1    1    3    3  502    0  0.14876687694E+03  0.21716561666E+01  0.64396069957E+02  0.16212079946E+03  0.50400001928E-02 0. -1.
       -1    1    3    3    0  502 -0.14876687694E+03 -0.21716561666E+01  0.10737335948E+04  0.10839926809E+04  0.50400001928E-02 0.  1.
</event>
<event>
 5   0  0.1709372E-01  0.4970368E+03  0.7818609E-02  0.1014555E+00
       -2   -1    0    0    0  501  0.00000000000E+00  0.00000000000E+00  0.32706894881E+02  0.32706894981E+02  0.25500000920E-02 0.  1.
        2   -1    0    0  501    0  0.00000000000E+00  0.00000000000E+00 -0.18883297690E+04  0.18883297690E+04  0.25500000920E-02 0. -1.
    10030    2    1    2    0    0  0.00000000000E+00  0.00000000000E+00 -0.18556228741E+04  0.19210366640E+04  0.49703683305E+03 0.  0.
        4    1    3    3  502    0 -0.14057823466E+03 -0.17625117905E+03 -0.13319387375E+04  0.13508845737E+04  0.12699999809E+01 0. -1.
       -4    1    3    3    0  502  0.14057823466E+03  0.17625117905E+03 -0.52368413659E+03  0.57015209023E+03  0.12699999809E+01 0.  1.
</event>
<event>
 5   0  0.7220250E-02  0.5082767E+03  0.7818609E-02  0.1011641E+00
        4   -1    0    0  501    0  0.00000000000E+00  0.00000000000E+00  0.21158190466E+03  0.21158571615E+03  0.12699999809E+01 0.  1.
       -4   -1    0    0    0  501  0.00000000000E+00  0.00000000000E+00 -0.30524645909E+03  0.30524910104E+03  0.12699999809E+01 0. -1.
    10030    2    1    2    0    0  0.00000000000E+00  0.00000000000E+00 -0.93664554428E+02  0.51683481719E+03  0.50827667613E+03 0.  0.
        1    1    3    3  502    0  0.20812545695E+03 -0.29798346417E+02 -0.19200216875E+03  0.28472614933E+03  0.50400001928E-02 0. -1.
       -1    1    3    3    0  502 -0.20812545695E+03  0.29798346417E+02  0.98337614320E+02  0.23210866786E+03  0.50400001928E-02 0.  1.
</event>
<event>
 5   0  0.1760649E-01  0.4821279E+03  0.7818609E-02  0.1018552E+00
        2   -1    0    0  501    0  0.00000000000E+00  0.00000000000E+00  0.43575597824E+03  0.43575597825E+03  0.25500000920E-02 0.  1.
       -2   -1    0    0    0  501  0.00000000000E+00  0.00000000000E+00 -0.13335866663E+03  0.13335866665E+03  0.25500000920E-02 0. -1.
    10030    2    1    2    0    0  0.00000000000E+00  0.00000000000E+00  0.30239731162E+03  0.56911464490E+03  0.48212793424E+03 0.  0.
        5    1    3    3  502    0 -0.50240224126E+02  0.13978199347E+03 -0.72853676635E+02  0.16550780651E+03  0.46999998093E+01 0. -1.
       -5    1    3    3    0  502  0.50240224126E+02 -0.13978199347E+03  0.37525098825E+03  0.40360683840E+03  0.46999998093E+01 0.  1.
</event>
<event>
 5   0  0.1074281E-01  0.5007501E+03  0.7818609E-02  0.1013583E+00
       -1   -1    0    0    0  501  0.00000000000E+00  0.00000000000E+00  0.73509954672E+03  0.73509954673E+03  0.50400001928E-02 0. -1.
        1   -1    0    0  501    0  0.00000000000E+00  0.00000000000E+00 -0.85277793116E+02  0.85277793265E+02  0.50400001928E-02 0.  1.
    10030    2    1    2    0    0  0.00000000000E+00  0.00000000000E+00  0.64982175360E+03  0.82037734000E+03  0.50075010587E+03 0.  0.
        4    1    3    3  502    0 -0.13753460048E+03  0.24368993306E+02  0.66533162509E+03  0.67983630266E+03  0.12699999809E+01 0. -1.
       -4    1    3    3    0  502  0.13753460048E+03 -0.24368993306E+02 -0.15509871489E+02  0.14054103734E+03  0.12699999809E+01 0.  1.
</event>
<event>
 5   0  0.1147245E-01  0.4878817E+03  0.7818609E-02  0.1016991E+00
       -1   -1    0    0    0  501  0.00000000000E+00  0.00000000000E+00  0.16956236642E+03  0.16956236649E+03  0.50400001928E-02 0. -1.
        1   -1    0    0  501    0  0.00000000000E+00  0.00000000000E+00 -0.35094542017E+03  0.35094542020E+03  0.50400001928E-02 0.  1.
    10030    2    1    2    0    0  0.00000000000E+00  0.00000000000E+00 -0.18138305375E+03  0.52050778670E+03  0.48788169040E+03 0.  0.
        1    1    3    3  502    0 -0.18458797663E+03  0.10254064480E+03  0.39623549404E+02  0.21484257177E+03  0.50400001928E-02 0. -1.
       -1    1    3    3    0  502  0.18458797663E+03 -0.10254064480E+03 -0.22100660315E+03  0.30566521493E+03  0.50400001928E-02 0.  1.
</event>
<event>
 5   0  0.1147245E-01  0.4950301E+03  0.7818609E-02  0.1015084E+00
        1   -1    0    0  501    0  0.00000000000E+00  0.00000000000E+00  0.29378250881E+03  0.29378250886E+03  0.50400001928E-02 0. -1.
       -1   -1    0    0    0  501  0.00000000000E+00  0.00000000000E+00 -0.20853420336E+03  0.20853420342E+03  0.50400001928E-02 0.  1.
    10030    2    1    2    0    0  0.00000000000E+00  0.00000000000E+00  0.85248305454E+02  0.50231671228E+03  0.49503010601E+03 0.  0.
        1    1    3    3  502    0  0.21268991869E+02 -0.15612492978E+03 -0.15106860163E+03  0.21828670628E+03  0.50400001928E-02 0.  1.
       -1    1    3    3    0  502 -0.21268991869E+02  0.15612492978E+03  0.23631690708E+03  0.28403000600E+03  0.50400001928E-02 0. -1.
</event>
<event>
 5   0  0.7220250E-02  0.5016594E+03  0.7818609E-02  0.1013347E+00
        4   -1    0    0  501    0  0.00000000000E+00  0.00000000000E+00  0.17140367516E+03  0.17140838007E+03  0.12699999809E+01 0.  1.
       -4   -1    0    0    0  501  0.00000000000E+00  0.00000000000E+00 -0.36704979141E+03  0.36705198852E+03  0.12699999809E+01 0. -1.
    10030    2    1    2    0    0  0.00000000000E+00  0.00000000000E+00 -0.19564611625E+03  0.53846036859E+03  0.50165941209E+03 0.  0.
        1    1    3    3  502    0 -0.19558744453E+02 -0.24317891578E+03 -0.35263552249E+02  0.24649958967E+03  0.50400001928E-02 0.  1.
       -1    1    3    3    0  502  0.19558744453E+02  0.24317891578E+03 -0.16038256400E+03  0.29196077892E+03  0.50400001928E-02 0. -1.
</event>
<event>
 5   0  0.7220250E-02  0.4744884E+03  0.7818609E-02  0.1020661E+00
       -3   -1    0    0    0  501  0.00000000000E+00  0.00000000000E+00  0.79360281948E+02  0.79360346218E+02  0.10100000352E+00 0.  1.
        3   -1    0    0  501    0  0.00000000000E+00  0.00000000000E+00 -0.70923098430E+03  0.70923099150E+03  0.10100000352E+00 0. -1.
    10030    2    1    2    0    0  0.00000000000E+00  0.00000000000E+00 -0.62987070236E+03  0.78859133771E+03  0.47448835205E+03 0.  0.
        4    1    3    3  502    0  0.14977977957E+03  0.97779101149E+02 -0.57395121108E+03  0.60117912521E+03  0.12699999809E+01 0. -1.
       -4    1    3    3    0  502 -0.14977977957E+03 -0.97779101149E+02 -0.55919491275E+02  0.18741221250E+03  0.12699999809E+01 0.  1.
</event>
<event>
 5   0  0.1147245E-01  0.5279604E+03  0.7818609E-02  0.1006728E+00
        1   -1    0    0  501    0  0.00000000000E+00  0.00000000000E+00  0.18719369109E+03  0.18719369116E+03  0.50400001928E-02 0. -1.
       -1   -1    0    0    0  501  0.00000000000E+00  0.00000000000E+00 -0.37226439520E+03  0.37226439524E+03  0.50400001928E-02 0.  1.
    10030    2    1    2    0    0  0.00000000000E+00  0.00000000000E+00 -0.18507070411E+03  0.55945808640E+03  0.52796040090E+03 0.  0.
        1    1    3    3  502    0 -0.19852048100E+03 -0.14564270339E+03 -0.19341673036E+03  0.31310095822E+03  0.50400001928E-02 0.  1.
       -1    1    3    3    0  502  0.19852048100E+03  0.14564270339E+03  0.83460262540E+01  0.24635712818E+03  0.50400001928E-02 0. -1.
</event>
<event>
 5   0  0.1827698E-01  0.5020002E+03  0.7818609E-02  0.1013258E+00
        2   -1    0    0  501    0  0.00000000000E+00  0.00000000000E+00  0.18960732108E+04  0.18960732108E+04  0.25500000920E-02 0.  1.
       -2   -1    0    0    0  501  0.00000000000E+00  0.00000000000E+00 -0.33227113453E+02  0.33227113551E+02  0.25500000920E-02 0. -1.
    10030    2    1    2    0    0  0.00000000000E+00  0.00000000000E+00  0.18628460974E+04  0.19293003244E+04  0.50200015852E+03 0.  0.
        1    1    3    3  502    0 -0.15772097722E+03  0.17710439186E+02  0.16787450768E+04  0.16862308855E+04  0.50400001928E-02 0. -1.
       -1    1    3    3    0  502  0.15772097722E+03 -0.17710439186E+02  0.18410102053E+03  0.24306943883E+03  0.50400001928E-02 0.  1.
</event>
<event>
 5   0  0.1147245E-01  0.4991436E+03  0.7818609E-02  0.1014003E+00
        1   -1    0    0  501    0  0.00000000000E+00  0.00000000000E+00  0.16165191859E+03  0.16165191867E+03  0.50400001928E-02 0. -1.
       -1   -1    0    0    0  501  0.00000000000E+00  0.00000000000E+00 -0.38530981827E+03  0.38530981831E+03  0.50400001928E-02 0.  1.
    10030    2    1    2    0    0  0.00000000000E+00  0.00000000000E+00 -0.22365789969E+03  0.54696173697E+03  0.49914355212E+03 0.  0.
        1    1    3    3  502    0  0.10306387996E+03 -0.75721064678E+02 -0.34667366056E+03  0.36951112289E+03  0.50400001928E-02 0.  1.
       -1    1    3    3    0  502 -0.10306387996E+03  0.75721064678E+02  0.12301576087E+03  0.17745061408E+03  0.50400001928E-02 0. -1.
</event>
<event>
 5   0  0.1709372E-01  0.5685301E+03  0.7818609E-02  0.9972937E-01
       -2   -1    0    0    0  501  0.00000000000E+00  0.00000000000E+00  0.23505115142E+03  0.23505115144E+03  0.25500000920E-02 0.  1.
        2   -1    0    0  501    0  0.00000000000E+00  0.00000000000E+00 -0.34378311056E+03  0.34378311057E+03  0.25500000920E-02 0. -1.
    10030    2    1    2    0    0  0.00000000000E+00  0.00000000000E+00 -0.10873195914E+03  0.57883426201E+03  0.56853009062E+03 0.  0.
        4    1    3    3  502    0  0.94320053569E+02  0.21828842622E+03 -0.21294154498E+03  0.31920498744E+03  0.12699999809E+01 0. -1.
       -4    1    3    3    0  502 -0.94320053569E+02 -0.21828842622E+03  0.10420958585E+03  0.25962927456E+03  0.12699999809E+01 0.  1.
</event>
<event>
 5   0  0.1782124E-01  0.5004876E+03  0.7818609E-02  0.1013652E+00
       -2   -1    0    0    0  501  0.00000000000E+00  0.00000000000E+00  0.76486459898E+03  0.76486459899E+03  0.25500000920E-02 0. -1.
        2   -1    0    0  501    0  0.00000000000E+00  0.00000000000E+00 -0.81873273774E+02  0.81873273814E+02  0.25500000920E-02 0.  1.
    10030    2    1    2    0    0  0.00000000000E+00  0.00000000000E+00  0.68299132521E+03  0.84673787280E+03  0.50048763714E+03 0.  0.
        3    1    3    3  502    0 -0.20324793761E+03 -0.31202462086E+01  0.94567342216E+02  0.22419289126E+03  0.10100000352E+00 0.  1.
       -3    1    3    3    0  502  0.20324793761E+03  0.31202462086E+01  0.58842398299E+03  0.62254498154E+03  0.10100000352E+00 0. -1.
</event>
<event>
 5   0  0.1683148E-01  0.4989929E+03  0.7818609E-02  0.1014042E+00
        2   -1    0    0  501    0  0.00000000000E+00  0.00000000000E+00  0.89373854806E+03  0.89373854806E+03  0.25500000920E-02 0. -1.
       -2   -1    0    0    0  501  0.00000000000E+00  0.00000000000E+00 -0.69649526584E+02  0.69649526631E+02  0.25500000920E-02 0.  1.
    10030    2    1    2    0    0  0.00000000000E+00  0.00000000000E+00  0.82408902148E+03  0.96338807469E+03  0.49899285280E+03 0.  0.
        2    1    3    3  502    0  0.12751529914E+03 -0.12709886193E+03  0.74552013923E+03  0.76695146537E+03  0.25500000920E-02 0. -1.
       -2    1    3    3    0  502 -0.12751529914E+03  0.12709886193E+03  0.78568882242E+02  0.19643660933E+03  0.25500000920E-02 0.  1.
</event>
<event>
 5   0  0.1123271E-01  0.4951146E+03  0.7818609E-02  0.1015062E+00
        1   -1    0    0  501    0  0.00000000000E+00  0.00000000000E+00  0.46953567861E+03  0.46953567864E+03  0.50400001928E-02 0. -1.
       -1   -1    0    0    0  501  0.00000000000E+00  0.00000000000E+00 -0.13052172888E+03  0.13052172898E+03  0.50400001928E-02 0.  1.
    10030    2    1    2    0    0  0.00000000000E+00  0.00000000000E+00  0.33901394973E+03  0.60005740762E+03  0.49511456687E+03 0.  0.
        5    1    3    3  502    0 -0.60807106041E+02  0.18907721720E+02  0.45938388906E+03  0.46380023028E+03  0.46999998093E+01 0. -1.
       -5    1    3    3    0  502  0.60807106041E+02 -0.18907721720E+02 -0.12036993932E+03  0.13625717734E+03  0.46999998093E+01 0.  1.
</event>
<event>
 5   0  0.1147245E-01  0.5079115E+03  0.7818609E-02  0.1011734E+00
       -1   -1    0    0    0  501  0.00000000000E+00  0.00000000000E+00  0.95574522571E+02  0.95574522703E+02  0.50400001928E-02 0. -1.
        1   -1    0    0  501    0  0.00000000000E+00  0.00000000000E+00 -0.67479816375E+03  0.67479816377E+03  0.50400001928E-02 0.  1.
    10030    2    1    2    0    0  0.00000000000E+00  0.00000000000E+00 -0.57922364118E+03  0.77037268647E+03  0.50791145839E+03 0.  0.
        1    1    3    3  502    0 -0.97233784285E+02  0.18892974830E+03 -0.50056853192E+03  0.54379933227E+03  0.50400001928E-02 0.  1.
       -1    1    3    3    0  502  0.97233784285E+02 -0.18892974830E+03 -0.78655109256E+02  0.22657335420E+03  0.50400001928E-02 0. -1.
</event>
<event>
 5   0  0.1709372E-01  0.4948480E+03  0.7818609E-02  0.1015132E+00
       -2   -1    0    0    0  501  0.00000000000E+00  0.00000000000E+00  0.44945701419E+03  0.44945701420E+03  0.25500000920E-02 0. -1.
        2   -1    0    0  501    0  0.00000000000E+00  0.00000000000E+00 -0.13620575795E+03  0.13620575797E+03  0.25500000920E-02 0.  1.
    10030    2    1    2    0    0  0.00000000000E+00  0.00000000000E+00  0.31325125624E+03  0.58566277217E+03  0.49484798996E+03 0.  0.
        4    1    3    3  502    0  0.65172355358E+02 -0.23347160635E+02 -0.12450596075E+03  0.14246358473E+03  0.12699999809E+01 0.  1.
       -4    1    3    3    0  502 -0.65172355358E+02  0.23347160635E+02  0.43775721699E+03  0.44319918743E+03  0.12699999809E+01 0. -1.
</event>
<event>
 5   0  0.1709372E-01  0.5089708E+03  0.7818609E-02  0.1011464E+00
       -2   -1    0    0    0  501  0.00000000000E+00  0.00000000000E+00  0.95749396026E+02  0.95749396060E+02  0.25500000920E-02 0.  1.
        2   -1    0    0  501    0  0.00000000000E+00  0.00000000000E+00 -0.67637822834E+03  0.67637822835E+03  0.25500000920E-02 0. -1.
    10030    2    1    2    0    0  0.00000000000E+00  0.00000000000E+00 -0.58062883232E+03  0.77212762441E+03  0.50897075304E+03 0.  0.
        4    1    3    3  502    0  0.12251984387E+03 -0.63110386912E+02  0.34229333412E+02  0.14201159546E+03  0.12699999809E+01 0.  1.
       -4    1    3    3    0  502 -0.12251984387E+03  0.63110386912E+02 -0.61485816573E+03  0.63011602895E+03  0.12699999809E+01 0. -1.
</event>
<event>
 5   0  0.1760649E-01  0.4982168E+03  0.7818609E-02  0.1014245E+00
        2   -1    0    0  501    0  0.00000000000E+00  0.00000000000E+00  0.27495955446E+04  0.27495955446E+04  0.25500000920E-02 0.  1.
       -2   -1    0    0    0  501  0.00000000000E+00  0.00000000000E+00 -0.22568770058E+02  0.22568770202E+02  0.25500000920E-02 0. -1.
    10030    2    1    2    0    0  0.00000000000E+00  0.00000000000E+00  0.27270267746E+04  0.27721643148E+04  0.49821677933E+03 0.  0.
        5    1    3    3  502    0 -0.99184999967E+02  0.32395295516E+02  0.26218751804E+04  0.26239547769E+04  0.46999998093E+01 0.  1.
       -5    1    3    3    0  502  0.99184999967E+02 -0.32395295516E+02  0.10515159415E+03  0.14820953795E+03  0.46999998093E+01 0. -1.
</event>
<event>
 5   0  0.1782124E-01  0.5068197E+03  0.7818609E-02  0.1012014E+00
       -2   -1    0    0    0  501  0.00000000000E+00  0.00000000000E+00  0.42527798093E+03  0.42527798094E+03  0.25500000920E-02 0.  1.
        2   -1    0    0  501    0  0.00000000000E+00  0.00000000000E+00 -0.15099898061E+03  0.15099898063E+03  0.25500000920E-02 0. -1.
    10030    2    1    2    0    0  0.00000000000E+00  0.00000000000E+00  0.27427900033E+03  0.57627696157E+03  0.50681965867E+03 0.  0.
        3    1    3    3  502    0  0.33170705941E+02 -0.24138949221E+03  0.57975097738E+02  0.25046018613E+03  0.10100000352E+00 0. -1.
       -3    1    3    3    0  502 -0.33170705941E+02  0.24138949221E+03  0.21630390259E+03  0.32581677544E+03  0.10100000352E+00 0.  1.
</event>
<event>
 5   0  0.7220250E-02  0.4010118E+03  0.7818609E-02  0.1043430E+00
        3   -1    0    0  501    0  0.00000000000E+00  0.00000000000E+00  0.11375694148E+04  0.11375694193E+04  0.10100000352E+00 0. -1.
       -3   -1    0    0    0  501  0.00000000000E+00  0.00000000000E+00 -0.35340717030E+02  0.35340861353E+02  0.10100000352E+00 0.  1.
    10030    2    1    2    0    0  0.00000000000E+00  0.00000000000E+00  0.11022286978E+04  0.11729102806E+04  0.40101175075E+03 0.  0.
        1    1    3    3  502    0 -0.14784839888E+02 -0.64891010938E+02 -0.20910563288E+01  0.66586840540E+02  0.50400001928E-02 0.  1.
       -1    1    3    3    0  502  0.14784839888E+02  0.64891010938E+02  0.11043197541E+04  0.11063234401E+04  0.50400001928E-02 0. -1.
</event>
<event>
 5   0  0.1709372E-01  0.4984521E+03  0.7818609E-02  0.1014184E+00
        2   -1    0    0  501    0  0.00000000000E+00  0.00000000000E+00  0.36095728341E+03  0.36095728342E+03  0.25500000920E-02 0.  1.
       -2   -1    0    0    0  501  0.00000000000E+00  0.00000000000E+00 -0.17208029048E+03  0.17208029050E+03  0.25500000920E-02 0. -1.
    10030    2    1    2    0    0  0.00000000000E+00  0.00000000000E+00  0.18887699292E+03  0.53303757392E+03  0.49845214089E+03 0.  0.
        4    1    3    3  502    0 -0.11784831848E+03 -0.10737891793E+03 -0.11040835861E+03  0.19393317595E+03  0.12699999809E+01 0. -1.
       -4    1    3    3    0  502  0.11784831848E+03  0.10737891793E+03  0.29928535153E+03  0.33910439797E+03  0.12699999809E+01 0.  1.
</event>
<event>
 5   0  0.7220250E-02  0.5018314E+03  0.7818609E-02  0.1013302E+00
       -3   -1    0    0    0  501  0.00000000000E+00  0.00000000000E+00  0.65786967246E+03  0.65786968021E+03  0.10100000352E+00 0.  1.
        3   -1    0    0  501    0  0.00000000000E+00  0.00000000000E+00 -0.95700831988E+02  0.95700885284E+02  0.10100000352E+00 0. -1.
    10030    2    1    2    0    0  0.00000000000E+00  0.00000000000E+00  0.56216884047E+03  0.75357056549E+03  0.50183143782E+03 0.  0.
        4    1    3    3  502    0 -0.23808186911E+03 -0.67479438938E+02  0.21879557004E+03  0.33031737079E+03  0.12699999809E+01 0.  1.
       -4    1    3    3    0  502  0.23808186911E+03  0.67479438938E+02  0.34337327043E+03  0.42325319470E+03  0.12699999809E+01 0. -1.
</event>
<event>
 5   0  0.1141970E-01  0.5017574E+03  0.7818609E-02  0.1013321E+00
       -1   -1    0    0    0  501  0.00000000000E+00  0.00000000000E+00  0.12174690110E+03  0.12174690121E+03  0.50400001928E-02 0. -1.
        1   -1    0    0  501    0  0.00000000000E+00  0.00000000000E+00 -0.51697515521E+03  0.51697515523E+03  0.50400001928E-02 0.  1.
    10030    2    1    2    0    0  0.00000000000E+00  0.00000000000E+00 -0.39522825410E+03  0.63872205644E+03  0.50175740407E+03 0.  0.
        3    1    3    3  502    0  0.17315531461E+03 -0.14643279280E+03 -0.61015579673E+02  0.23483661757E+03  0.10100000352E+00 0. -1.
       -3    1    3    3    0  502 -0.17315531461E+03  0.14643279280E+03 -0.33421267443E+03  0.40388543888E+03  0.10100000352E+00 0.  1.
</event>
<event>
 5   0  0.1068522E-01  0.4988807E+03  0.7818609E-02  0.1014071E+00
        1   -1    0    0  501    0  0.00000000000E+00  0.00000000000E+00  0.40732611302E+03  0.40732611305E+03  0.50400001928E-02 0. -1.
       -1   -1    0    0    0  501  0.00000000000E+00  0.00000000000E+00 -0.15275352308E+03  0.15275352316E+03  0.50400001928E-02 0.  1.
    10030    2    1    2    0    0  0.00000000000E+00  0.00000000000E+00  0.25457258994E+03  0.56007963622E+03  0.49888074262E+03 0.  0.
        2    1    3    3  502    0 -0.11216512512E+03  0.14532469963E+03  0.31688241337E+03  0.36621680399E+03  0.25500000920E-02 0. -1.
       -2    1    3    3    0  502  0.11216512512E+03 -0.14532469963E+03 -0.62309823427E+02  0.19386283222E+03  0.25500000920E-02 0.  1.
</event>
<event>
 5   0  0.7220250E-02  0.5044976E+03  0.7818609E-02  0.1012612E+00
        3   -1    0    0  501    0  0.00000000000E+00  0.00000000000E+00  0.16253736957E+03  0.16253740095E+03  0.10100000352E+00 0. -1.
       -3   -1    0    0    0  501  0.00000000000E+00  0.00000000000E+00 -0.39147577959E+03  0.39147579262E+03  0.10100000352E+00 0.  1.
    10030    2    1    2    0    0  0.00000000000E+00  0.00000000000E+00 -0.22893841002E+03  0.55401319357E+03  0.50449759471E+03 0.  0.
        2    1    3    3  502    0 -0.19473631671E+03  0.14550963971E+03 -0.40524039465E+02  0.24644976380E+03  0.25500000920E-02 0. -1.
       -2    1    3    3    0  502  0.19473631671E+03 -0.14550963971E+03 -0.18841437055E+03  0.30756342977E+03  0.25500000920E-02 0.  1.
</event>
<event>
 5   0  0.1709372E-01  0.5040301E+03  0.7818609E-02  0.1012732E+00
       -2   -1    0    0    0  501  0.00000000000E+00  0.00000000000E+00  0.44313160302E+03  0.44313160303E+03  0.25500000920E-02 0.  1.
        2   -1    0    0  501    0  0.00000000000E+00  0.00000000000E+00 -0.14332443354E+03  0.14332443357E+03  0.25500000920E-02 0. -1.
    10030    2    1    2    0    0  0.00000000000E+00  0.00000000000E+00  0.29980716947E+03  0.58645603659E+03  0.50403010226E+03 0.  0.
        4    1    3    3  502    0  0.16711818234E+03  0.98520833298E+02  0.33706670216E+03  0.38890926457E+03  0.12699999809E+01 0.  1.
       -4    1    3    3    0  502 -0.16711818234E+03 -0.98520833298E+02 -0.37259532686E+02  0.19754677202E+03  0.12699999809E+01 0. -1.
</event>
<event>
 5   0  0.1782124E-01  0.5053464E+03  0.7818609E-02  0.1012393E+00
       -2   -1    0    0    0  501  0.00000000000E+00  0.00000000000E+00  0.36980646107E+02  0.36980646195E+02  0.25500000920E-02 0.  1.
        2   -1    0    0  501    0  0.00000000000E+00  0.00000000000E+00 -0.17264095932E+04  0.17264095932E+04  0.25500000920E-02 0. -1.
    10030    2    1    2    0    0  0.00000000000E+00  0.00000000000E+00 -0.16894289471E+04  0.17633902394E+04  0.50534638528E+03 0.  0.
        3    1    3    3  502    0 -0.12585397344E+03 -0.15198979616E+03 -0.13953832266E+04  0.14092673557E+04  0.10100000352E+00 0. -1.
       -3    1    3    3    0  502  0.12585397344E+03  0.15198979616E+03 -0.29404572051E+03  0.35412288364E+03  0.10100000352E+00 0.  1.
</event>
<event>
 5   0  0.1123271E-01  0.5016042E+03  0.7818609E-02  0.1013361E+00
        1   -1    0    0  501    0  0.00000000000E+00  0.00000000000E+00  0.11850106130E+04  0.11850106130E+04  0.50400001928E-02 0. -1.
       -1   -1    0    0    0  501  0.00000000000E+00  0.00000000000E+00 -0.53081120348E+02  0.53081120587E+02  0.50400001928E-02 0.  1.
    10030    2    1    2    0    0  0.00000000000E+00  0.00000000000E+00  0.11319294927E+04  0.12380917336E+04  0.50160419105E+03 0.  0.
        5    1    3    3  502    0 -0.94201677531E+02 -0.14684908567E+03  0.10105332842E+04  0.10254941338E+04  0.46999998093E+01 0. -1.
       -5    1    3    3    0  502  0.94201677531E+02  0.14684908567E+03  0.12139620846E+03  0.21259759980E+03  0.46999998093E+01 0.  1.
</event>
<event>
 5   0  0.1683148E-01  0.5016500E+03  0.7818609E-02  0.1013349E+00
        2   -1    0    0  501    0  0.00000000000E+00  0.00000000000E+00  0.13182139172E+04  0.13182139172E+04  0.25500000920E-02 0. -1.
       -2   -1    0    0    0  501  0.00000000000E+00  0.00000000000E+00 -0.47726069169E+02  0.47726069238E+02  0.25500000920E-02 0.  1.
    10030    2    1    2    0    0  0.00000000000E+00  0.00000000000E+00  0.12704878481E+04  0.13659399865E+04  0.50164995223E+03 0.  0.
        2    1    3    3  502    0  0.11957489326E+03  0.20728242027E+03  0.43059141007E+03  0.49261863473E+03  0.25500000920E-02 0.  1.
       -2    1    3    3    0  502 -0.11957489326E+03 -0.20728242027E+03  0.83989643800E+03  0.87332135175E+03  0.25500000920E-02 0. -1.
</event>
<event>
 5   0  0.7220250E-02  0.5020691E+03  0.7818609E-02  0.1013240E+00
        3   -1    0    0  501    0  0.00000000000E+00  0.00000000000E+00  0.76560326239E+03  0.76560326906E+03  0.10100000352E+00 0. -1.
       -3   -1    0    0    0  501  0.00000000000E+00  0.00000000000E+00 -0.82311961091E+02  0.82312023057E+02  0.10100000352E+00 0.  1.
    10030    2    1    2    0    0  0.00000000000E+00  0.00000000000E+00  0.68329130130E+03  0.84791529211E+03  0.50206905916E+03 0.  0.
        1    1    3    3  502    0 -0.13139001366E+03 -0.21080292537E+03  0.40293749192E+03  0.47334958694E+03  0.50400001928E-02 0. -1.
       -1    1    3    3    0  502  0.13139001366E+03  0.21080292537E+03  0.28035380938E+03  0.37456570517E+03  0.50400001928E-02 0.  1.
</event>
<event>
 5   0  0.1709372E-01  0.5089771E+03  0.7818609E-02  0.1011462E+00
       -2   -1    0    0    0  501  0.00000000000E+00  0.00000000000E+00  0.97699757754E+02  0.97699757787E+02  0.25500000920E-02 0.  1.
        2   -1    0    0  501    0  0.00000000000E+00  0.00000000000E+00 -0.66289244235E+03  0.66289244235E+03  0.25500000920E-02 0. -1.
    10030    2    1    2    0    0  0.00000000000E+00  0.00000000000E+00 -0.56519268459E+03  0.76059220014E+03  0.50897713524E+03 0.  0.
        4    1    3    3  502    0  0.38007547312E+02 -0.23239215047E+02  0.91822733200E+02  0.10206694862E+03  0.12699999809E+01 0.  1.
       -4    1    3    3    0  502 -0.38007547312E+02  0.23239215047E+02 -0.65701541779E+03  0.65852525152E+03  0.12699999809E+01 0. -1.
</event>
<event>
 5   0  0.1074281E-01  0.4942511E+03  0.7818609E-02  0.1015290E+00
        1   -1    0    0  501    0  0.00000000000E+00  0.00000000000E+00  0.26164151521E+03  0.26164151526E+03  0.50400001928E-02 0.  1.
       -1   -1    0    0    0  501  0.00000000000E+00  0.00000000000E+00 -0.23341496561E+03  0.23341496566E+03  0.50400001928E-02 0. -1.
    10030    2    1    2    0    0  0.00000000000E+00  0.00000000000E+00  0.28226549601E+02  0.49505648092E+03  0.49425113171E+03 0.  0.
        4    1    3    3  502    0 -0.20304593591E+02  0.22436900380E+03  0.11584503440E+03  0.25332866257E+03  0.12699999809E+01 0.  1.
       -4    1    3    3    0  502  0.20304593591E+02 -0.22436900380E+03 -0.87618484797E+02  0.24172781835E+03  0.12699999809E+01 0. -1.
</event>
<event>
 5   0  0.1683148E-01  0.5056172E+03  0.7818609E-02  0.1012323E+00
       -2   -1    0    0    0  501  0.00000000000E+00  0.00000000000E+00  0.39881229858E+02  0.39881229940E+02  0.25500000920E-02 0.  1.
        2   -1    0    0  501    0  0.00000000000E+00  0.00000000000E+00 -0.16025629598E+04  0.16025629598E+04  0.25500000920E-02 0. -1.
    10030    2    1    2    0    0  0.00000000000E+00  0.00000000000E+00 -0.15626817300E+04  0.16424441898E+04  0.50561717467E+03 0.  0.
        2    1    3    3  502    0  0.18007933093E+03  0.11136594555E+02 -0.20609433173E+03  0.27391141404E+03  0.25500000920E-02 0.  1.
       -2    1    3    3    0  502 -0.18007933093E+03 -0.11136594555E+02 -0.13565873982E+04  0.13685327757E+04  0.25500000920E-02 0. -1.
</event>
<event>
 5   0  0.1123271E-01  0.4451407E+03  0.7818609E-02  0.1029181E+00
       -1   -1    0    0    0  501  0.00000000000E+00  0.00000000000E+00  0.93420681678E+02  0.93420681814E+02  0.50400001928E-02 0. -1.
        1   -1    0    0  501    0  0.00000000000E+00  0.00000000000E+00 -0.53026330049E+03  0.53026330051E+03  0.50400001928E-02 0.  1.
    10030    2    1    2    0    0  0.00000000000E+00  0.00000000000E+00 -0.43684261881E+03  0.62368398232E+03  0.44514069259E+03 0.  0.
        5    1    3    3  502    0 -0.10966590898E+03 -0.90583485011E+02 -0.45818240165E+03  0.47977617962E+03  0.46999998093E+01 0.  1.
       -5    1    3    3    0  502  0.10966590898E+03  0.90583485011E+02  0.21339782845E+02  0.14390780270E+03  0.46999998093E+01 0. -1.
</event>
<event>
 5   0  0.7220250E-02  0.4817374E+03  0.7818609E-02  0.1018659E+00
       -3   -1    0    0    0  501  0.00000000000E+00  0.00000000000E+00  0.49809941756E+03  0.49809942780E+03  0.10100000352E+00 0.  1.
        3   -1    0    0  501    0  0.00000000000E+00  0.00000000000E+00 -0.11647817057E+03  0.11647821436E+03  0.10100000352E+00 0. -1.
    10030    2    1    2    0    0  0.00000000000E+00  0.00000000000E+00  0.38162124700E+03  0.61457764216E+03  0.48173737875E+03 0.  0.
        2    1    3    3  502    0  0.17769863045E+03  0.16251844005E+03  0.18397862761E+03  0.30304650146E+03  0.25500000920E-02 0.  1.
       -2    1    3    3    0  502 -0.17769863045E+03 -0.16251844005E+03  0.19764261939E+03  0.31153114070E+03  0.25500000920E-02 0. -1.
</event>
<event>
 5   0  0.1147245E-01  0.5228209E+03  0.7818609E-02  0.1007988E+00
        1   -1    0    0  501    0  0.00000000000E+00  0.00000000000E+00  0.71599654363E+03  0.71599654365E+03  0.50400001928E-02 0.  1.
       -1   -1    0    0    0  501  0.00000000000E+00  0.00000000000E+00 -0.95441000163E+02  0.95441000296E+02  0.50400001928E-02 0. -1.
    10030    2    1    2    0    0  0.00000000000E+00  0.00000000000E+00  0.62055554347E+03  0.81143754394E+03  0.52282091121E+03 0.  0.
        1    1    3    3  502    0 -0.51698399887E+02  0.71503423407E+02 -0.71630518895E+02  0.11365032060E+03  0.50400001928E-02 0. -1.
       -1    1    3    3    0  502  0.51698399887E+02 -0.71503423407E+02  0.69218606236E+03  0.69778722334E+03  0.50400001928E-02 0.  1.
</event>
<event>
 5   0  0.1760649E-01  0.4944196E+03  0.7818609E-02  0.1015246E+00
        2   -1    0    0  501    0  0.00000000000E+00  0.00000000000E+00  0.40932774432E+03  0.40932774433E+03  0.25500000920E-02 0. -1.
       -2   -1    0    0    0  501  0.00000000000E+00  0.00000000000E+00 -0.14930013129E+03  0.14930013131E+03  0.25500000920E-02 0.  1.
    10030    2    1    2    0    0  0.00000000000E+00  0.00000000000E+00  0.26002761303E+03  0.55862787565E+03  0.49441960308E+03 0.  0.
        5    1    3    3  502    0 -0.34787965576E+02  0.22628097608E+03  0.24764423015E+02  0.23032292402E+03  0.46999998093E+01 0.  1.
       -5    1    3    3    0  502  0.34787965576E+02 -0.22628097608E+03  0.23526319002E+03  0.32830495162E+03  0.46999998093E+01 0. -1.
</event>
<event>
 5   0  0.1123271E-01  0.5072635E+03  0.7818609E-02  0.1011900E+00
        1   -1    0    0  501    0  0.00000000000E+00  0.00000000000E+00  0.49417810417E+03  0.49417810419E+03  0.50400001928E-02 0. -1.
       -1   -1    0    0    0  501  0.00000000000E+00  0.00000000000E+00 -0.13017386639E+03  0.13017386649E+03  0.50400001928E-02 0.  1.
    10030    2    1    2    0    0  0.00000000000E+00  0.00000000000E+00  0.36400423778E+03  0.62435197068E+03  0.50726353917E+03 0.  0.
        5    1    3    3  502    0  0.16582981570E+03  0.18659695008E+03  0.23689512954E+03  0.34417922940E+03  0.46999998093E+01 0. -1.
       -5    1    3    3    0  502 -0.16582981570E+03 -0.18659695008E+03  0.12710910824E+03  0.28017274127E+03  0.46999998093E+01 0.  1.
</event>
<event>
 5   0  0.1782124E-01  0.5315681E+03  0.7818609E-02  0.1005853E+00
       -2   -1    0    0    0  501  0.00000000000E+00  0.00000000000E+00  0.10075183524E+03  0.10075183527E+03  0.25500000920E-02 0. -1.
        2   -1    0    0  501    0  0.00000000000E+00  0.00000000000E+00 -0.70114014206E+03  0.70114014207E+03  0.25500000920E-02 0.  1.
    10030    2    1    2    0    0  0.00000000000E+00  0.00000000000E+00 -0.60038830682E+03  0.80189197734E+03  0.53156808063E+03 0.  0.
        3    1    3    3  502    0 -0.68736753558E+02  0.20582582825E+03 -0.68682905172E+02  0.22761011517E+03  0.10100000352E+00 0. -1.
       -3    1    3    3    0  502  0.68736753558E+02 -0.20582582825E+03 -0.53170540165E+03  0.57428186216E+03  0.10100000352E+00 0.  1.
</event>
<event>
 5   0  0.1074281E-01  0.5047085E+03  0.7818609E-02  0.1012557E+00
       -1   -1    0    0    0  501  0.00000000000E+00  0.00000000000E+00  0.61085220731E+02  0.61085220938E+02  0.50400001928E-02 0. -1.
        1   -1    0    0  501    0  0.00000000000E+00  0.00000000000E+00 -0.10425215756E+04  0.10425215756E+04  0.50400001928E-02 0.  1.
    10030    2    1    2    0    0  0.00000000000E+00  0.00000000000E+00 -0.98143635490E+03  0.11036067966E+04  0.50470847302E+03 0.  0.
        4    1    3    3  502    0  0.13032001457E+03 -0.21326220058E+03 -0.41443747768E+03  0.48396705280E+03  0.12699999809E+01 0.  1.
       -4    1    3    3    0  502 -0.13032001457E+03  0.21326220058E+03 -0.56699887722E+03  0.61963974377E+03  0.12699999809E+01 0. -1.
</event>
<event>
 5   0  0.1141970E-01  0.4967775E+03  0.7818609E-02  0.1014623E+00
       -1   -1    0    0    0  501  0.00000000000E+00  0.00000000000E+00  0.27089145736E+03  0.27089145741E+03  0.50400001928E-02 0. -1.
        1   -1    0    0  501    0  0.00000000000E+00  0.00000000000E+00 -0.22775529889E+03  0.22775529895E+03  0.50400001928E-02 0.  1.
    10030    2    1    2    0    0  0.00000000000E+00  0.00000000000E+00  0.43136158471E+02  0.49864675636E+03  0.49677747479E+03 0.  0.
        3    1    3    3  502    0  0.52484691127E+02  0.90912370111E+02 -0.20439507832E+03  0.22977610860E+03  0.10100000352E+00 0.  1.
       -3    1    3    3    0  502 -0.52484691127E+02 -0.90912370111E+02  0.24753123679E+03  0.26887064776E+03  0.10100000352E+00 0. -1.
</event>
<event>
 5   0  0.1782124E-01  0.5017445E+03  0.7818609E-02  0.1013325E+00
       -2   -1    0    0    0  501  0.00000000000E+00  0.00000000000E+00  0.31977711023E+03  0.31977711024E+03  0.25500000920E-02 0. -1.
        2   -1    0    0  501    0  0.00000000000E+00  0.00000000000E+00 -0.19681482747E+03  0.19681482749E+03  0.25500000920E-02 0.  1.
    10030    2    1    2    0    0  0.00000000000E+00  0.00000000000E+00  0.12296228276E+03  0.51659193773E+03  0.50174446399E+03 0.  0.
        3    1    3    3  502    0  0.13343107420E+03  0.42361349478E+02 -0.15285831668E+03  0.20727761739E+03  0.10100000352E+00 0.  1.
       -3    1    3    3    0  502 -0.13343107420E+03 -0.42361349478E+02  0.27582059944E+03  0.30931432034E+03  0.10100000352E+00 0. -1.
</event>
<event>
 5   0  0.1760649E-01  0.5028186E+03  0.7818609E-02  0.1013046E+00
        2   -1    0    0  501    0  0.00000000000E+00  0.00000000000E+00  0.36343766352E+03  0.36343766353E+03  0.25500000920E-02 0. -1.
       -2   -1    0    0    0  501  0.00000000000E+00  0.00000000000E+00 -0.17391324591E+03  0.17391324593E+03  0.25500000920E-02 0.  1.
    10030    2    1    2    0    0  0.00000000000E+00  0.00000000000E+00  0.18952441761E+03  0.53735090946E+03  0.50281855080E+03 0.  0.
        5    1    3    3  502    0  0.12221700615E+03  0.21402351456E+03  0.41957505807E+02  0.25005116210E+03  0.46999998093E+01 0.  1.
       -5    1    3    3    0  502 -0.12221700615E+03 -0.21402351456E+03  0.14756691181E+03  0.28729974736E+03  0.46999998093E+01 0. -1.
</event>
<event>
 5   0  0.1760649E-01  0.4911035E+03  0.7818609E-02  0.1016127E+00
       -2   -1    0    0    0  501  0.00000000000E+00  0.00000000000E+00  0.11702036516E+03  0.11702036519E+03  0.25500000920E-02 0.  1.
        2   -1    0    0  501    0  0.00000000000E+00  0.00000000000E+00 -0.51525775407E+03  0.51525775408E+03  0.25500000920E-02 0. -1.
    10030    2    1    2    0    0  0.00000000000E+00  0.00000000000E+00 -0.39823738892E+03  0.63227811927E+03  0.49110345364E+03 0.  0.
        5    1    3    3  502    0  0.66221660004E+02  0.22931795024E+03 -0.27309502547E+03  0.36273270253E+03  0.46999998093E+01 0. -1.
       -5    1    3    3    0  502 -0.66221660004E+02 -0.22931795024E+03 -0.12514236345E+03  0.26954541673E+03  0.46999998093E+01 0.  1.
</event>
<event>
 5   0  0.1074281E-01  0.4917258E+03  0.7818609E-02  0.1015961E+00
        1   -1    0    0  501    0  0.00000000000E+00  0.00000000000E+00  0.21680453527E+03  0.21680453533E+03  0.50400001928E-02 0.  1.
       -1   -1    0    0    0  501  0.00000000000E+00  0.00000000000E+00 -0.27881598626E+03  0.27881598631E+03  0.50400001928E-02 0. -1.
    10030    2    1    2    0    0  0.00000000000E+00  0.00000000000E+00 -0.62011450995E+02  0.49562052163E+03  0.49172581934E+03 0.  0.
        4    1    3    3  502    0  0.69693756485E+02  0.20969559871E+02 -0.26770617709E+03  0.27742594018E+03  0.12699999809E+01 0. -1.
       -4    1    3    3    0  502 -0.69693756485E+02 -0.20969559871E+02  0.20569472609E+03  0.21819458145E+03  0.12699999809E+01 0.  1.
</event>
<event>
 5   0  0.1123271E-01  0.5012247E+03  0.7818609E-02  0.1013460E+00
        1   -1    0    0  501    0  0.00000000000E+00  0.00000000000E+00  0.78009553768E+02  0.78009553930E+02  0.50400001928E-02 0. -1.
       -1   -1    0    0    0  501  0.00000000000E+00  0.00000000000E+00 -0.80511364483E+03  0.80511364485E+03  0.50400001928E-02 0.  1.
    10030    2    1    2    0    0  0.00000000000E+00  0.00000000000E+00 -0.72710409107E+03  0.88312319878E+03  0.50122472503E+03 0.  0.
        5    1    3    3  502    0  0.23450969474E+03  0.82765096213E+02 -0.30954353519E+03  0.39709463388E+03  0.46999998093E+01 0. -1.
       -5    1    3    3    0  502 -0.23450969474E+03 -0.82765096213E+02 -0.41756055587E+03  0.48602856490E+03  0.46999998093E+01 0.  1.
</event>
<event>
 5   0  0.1068522E-01  0.5040548E+03  0.7818609E-02  0.1012726E+00
        1   -1    0    0  501    0  0.00000000000E+00  0.00000000000E+00  0.42991193398E+03  0.42991193401E+03  0.50400001928E-02 0. -1.
       -1   -1    0    0    0  501  0.00000000000E+00  0.00000000000E+00 -0.14774608275E+03  0.14774608284E+03  0.50400001928E-02 0.  1.
    10030    2    1    2    0    0  0.00000000000E+00  0.00000000000E+00  0.28216585123E+03  0.57765801684E+03  0.50405477562E+03 0.  0.
        2    1    3    3  502    0 -0.12191836142E+03  0.10616836489E+02  0.39357481448E+03  0.41216251488E+03  0.25500000920E-02 0. -1.
       -2    1    3    3    0  502  0.12191836142E+03 -0.10616836489E+02 -0.11140896326E+03  0.16549550196E+03  0.25500000920E-02 0.  1.
</event>
<event>
 5   0  0.1147245E-01  0.5068920E+03  0.7818609E-02  0.1011996E+00
       -1   -1    0    0    0  501  0.00000000000E+00  0.00000000000E+00  0.89176112625E+02  0.89176112767E+02  0.50400001928E-02 0. -1.
        1   -1    0    0  501    0  0.00000000000E+00  0.00000000000E+00 -0.72031477461E+03  0.72031477462E+03  0.50400001928E-02 0.  1.
    10030    2    1    2    0    0  0.00000000000E+00  0.00000000000E+00 -0.63113866198E+03  0.80949088739E+03  0.50689198664E+03 0.  0.
        1    1    3    3  502    0 -0.30594259639E+02 -0.22443355442E+03 -0.13398864958E+03  0.26317178290E+03  0.50400001928E-02 0. -1.
       -1    1    3    3    0  502  0.30594259639E+02  0.22443355442E+03 -0.49715001240E+03  0.54631910449E+03  0.50400001928E-02 0.  1.
</event>
<event>
 5   0  0.7220250E-02  0.4973958E+03  0.7818609E-02  0.1014461E+00
        3   -1    0    0  501    0  0.00000000000E+00  0.00000000000E+00  0.82424176594E+02  0.82424238475E+02  0.10100000352E+00 0.  1.
       -3   -1    0    0    0  501  0.00000000000E+00  0.00000000000E+00 -0.75039426133E+03  0.75039426813E+03  0.10100000352E+00 0. -1.
    10030    2    1    2    0    0  0.00000000000E+00  0.00000000000E+00 -0.66797008474E+03  0.83281850660E+03  0.49739584924E+03 0.  0.
        4    1    3    3  502    0  0.12890718625E+03 -0.15524222456E+03 -0.57738292973E+03  0.61162886737E+03  0.12699999809E+01 0. -1.
       -4    1    3    3    0  502 -0.12890718625E+03  0.15524222456E+03 -0.90587155008E+02  0.22118963924E+03  0.12699999809E+01 0.  1.
</event>
<event>
 5   0  0.1074281E-01  0.4878527E+03  0.7818609E-02  0.1016999E+00
        1   -1    0    0  501    0  0.00000000000E+00  0.00000000000E+00  0.10855154933E+04  0.10855154933E+04  0.50400001928E-02 0. -1.
       -1   -1    0    0    0  501  0.00000000000E+00  0.00000000000E+00 -0.54812728705E+02  0.54812728937E+02  0.50400001928E-02 0.  1.
    10030    2    1    2    0    0  0.00000000000E+00  0.00000000000E+00  0.10307027646E+04  0.11403282222E+04  0.48785270883E+03 0.  0.
        4    1    3    3  502    0  0.10881980639E+02  0.23636519186E+03  0.65386404258E+03  0.69536085632E+03  0.12699999809E+01 0.  1.
       -4    1    3    3    0  502 -0.10881980639E+02 -0.23636519186E+03  0.37683872199E+03  0.44496736590E+03  0.12699999809E+01 0. -1.
</event>
<event>
 5   0  0.1782124E-01  0.4780520E+03  0.7818609E-02  0.1019672E+00
        2   -1    0    0  501    0  0.00000000000E+00  0.00000000000E+00  0.38128580706E+03  0.38128580707E+03  0.25500000920E-02 0. -1.
       -2   -1    0    0    0  501  0.00000000000E+00  0.00000000000E+00 -0.14984409122E+03  0.14984409124E+03  0.25500000920E-02 0.  1.
    10030    2    1    2    0    0  0.00000000000E+00  0.00000000000E+00  0.23144171584E+03  0.53112989831E+03  0.47805198571E+03 0.  0.
        3    1    3    3  502    0  0.65369231992E+02 -0.87175638755E+01 -0.13953630314E+03  0.15433574604E+03  0.10100000352E+00 0.  1.
       -3    1    3    3    0  502 -0.65369231992E+02  0.87175638755E+01  0.37097801898E+03  0.37679415227E+03  0.10100000352E+00 0. -1.
</event>
<event>
 5   0  0.7220250E-02  0.4943948E+03  0.7818609E-02  0.1015252E+00
        3   -1    0    0  501    0  0.00000000000E+00  0.00000000000E+00  0.95294532838E+02  0.95294586361E+02  0.10100000352E+00 0. -1.
       -3   -1    0    0    0  501  0.00000000000E+00  0.00000000000E+00 -0.64123847872E+03  0.64123848667E+03  0.10100000352E+00 0.  1.
    10030    2    1    2    0    0  0.00000000000E+00  0.00000000000E+00 -0.54594394588E+03  0.73653307303E+03  0.49439475688E+03 0.  0.
        5    1    3    3  502    0  0.83169623164E+02  0.14583931106E+03 -0.27602286426E+01  0.16797618798E+03  0.46999998093E+01 0. -1.
       -5    1    3    3    0  502 -0.83169623164E+02 -0.14583931106E+03 -0.54318371724E+03  0.56855688505E+03  0.46999998093E+01 0.  1.
</event>
<event>
 5   0  0.1760649E-01  0.5021190E+03  0.7818609E-02  0.1013227E+00
        2   -1    0    0  501    0  0.00000000000E+00  0.00000000000E+00  0.12678484578E+04  0.12678484578E+04  0.25500000920E-02 0.  1.
       -2   -1    0    0    0  501  0.00000000000E+00  0.00000000000E+00 -0.49714832791E+02  0.49714832857E+02  0.25500000920E-02 0. -1.
    10030    2    1    2    0    0  0.00000000000E+00  0.00000000000E+00  0.12181336250E+04  0.13175632907E+04  0.50211900633E+03 0.  0.
        5    1    3    3  502    0 -0.22294532609E+03 -0.77773748996E+02  0.38555741119E+03  0.45213933890E+03  0.46999998093E+01 0. -1.
       -5    1    3    3    0  502  0.22294532609E+03  0.77773748996E+02  0.83257621381E+03  0.86542395175E+03  0.46999998093E+01 0.  1.
</event>
<event>
 5   0  0.1760649E-01  0.5032739E+03  0.7818609E-02  0.1012928E+00
        2   -1    0    0  501    0  0.00000000000E+00  0.00000000000E+00  0.40947648575E+03  0.40947648576E+03  0.25500000920E-02 0.  1.
       -2   -1    0    0    0  501  0.00000000000E+00  0.00000000000E+00 -0.15463932436E+03  0.15463932438E+03  0.25500000920E-02 0. -1.
    10030    2    1    2    0    0  0.00000000000E+00  0.00000000000E+00  0.25483716139E+03  0.56411581015E+03  0.50327394968E+03 0.  0.
        5    1    3    3  502    0  0.12024700524E+03  0.12637185174E+03  0.33063694215E+03  0.37386102323E+03  0.46999998093E+01 0.  1.
       -5    1    3    3    0  502 -0.12024700524E+03 -0.12637185174E+03 -0.75799780759E+02  0.19025478691E+03  0.46999998093E+01 0. -1.
</event>
<event>
 5   0  0.1147245E-01  0.5012015E+03  0.7818609E-02  0.1013466E+00
       -1   -1    0    0    0  501  0.00000000000E+00  0.00000000000E+00  0.33078840366E+03  0.33078840370E+03  0.50400001928E-02 0.  1.
        1   -1    0    0  501    0  0.00000000000E+00  0.00000000000E+00 -0.18985170325E+03  0.18985170331E+03  0.50400001928E-02 0. -1.
    10030    2    1    2    0    0  0.00000000000E+00  0.00000000000E+00  0.14093670041E+03  0.52064010701E+03  0.50120152384E+03 0.  0.
        1    1    3    3  502    0 -0.10953619015E+03 -0.91189148895E+02 -0.14364995776E+03  0.20235846465E+03  0.50400001928E-02 0. -1.
       -1    1    3    3    0  502  0.10953619015E+03  0.91189148895E+02  0.28458665817E+03  0.31828164235E+03  0.50400001928E-02 0.  1.
</event>
<event>
 5   0  0.1827698E-01  0.5019885E+03  0.7818609E-02  0.1013261E+00
       -2   -1    0    0    0  501  0.00000000000E+00  0.00000000000E+00  0.12221829391E+03  0.12221829394E+03  0.25500000920E-02 0. -1.
        2   -1    0    0  501    0  0.00000000000E+00  0.00000000000E+00 -0.51545571190E+03  0.51545571190E+03  0.25500000920E-02 0.  1.
    10030    2    1    2    0    0  0.00000000000E+00  0.00000000000E+00 -0.39323741799E+03  0.63767400584E+03  0.50198851662E+03 0.  0.
        1    1    3    3  502    0  0.18340046258E+03  0.11169529449E+03 -0.36169145888E+03  0.42063318929E+03  0.50400001928E-02 0.  1.
       -1    1    3    3    0  502 -0.18340046258E+03 -0.11169529449E+03 -0.31545959106E+02  0.21704081654E+03  0.50400001928E-02 0. -1.
</event>
<event>
 5   0  0.1827698E-01  0.4912764E+03  0.7818609E-02  0.1016081E+00
        2   -1    0    0  501    0  0.00000000000E+00  0.00000000000E+00  0.12288731340E+04  0.12288731340E+04  0.25500000920E-02 0. -1.
       -2   -1    0    0    0  501  0.00000000000E+00  0.00000000000E+00 -0.49100374000E+02  0.49100374067E+02  0.25500000920E-02 0.  1.
    10030    2    1    2    0    0  0.00000000000E+00  0.00000000000E+00  0.11797727600E+04  0.12779735081E+04  0.49127642126E+03 0.  0.
        1    1    3    3  502    0 -0.11022242623E+03 -0.44086400122E+02  0.30475586162E+02  0.12256163876E+03  0.50400001928E-02 0.  1.
       -1    1    3    3    0  502  0.11022242623E+03  0.44086400122E+02  0.11492971738E+04  0.11554118693E+04  0.50400001928E-02 0. -1.
</event>
<event>
 5   0  0.1147245E-01  0.4928194E+03  0.7818609E-02  0.1015670E+00
        1   -1    0    0  501    0  0.00000000000E+00  0.00000000000E+00  0.40293163937E+03  0.40293163940E+03  0.50400001928E-02 0. -1.
       -1   -1    0    0    0  501  0.00000000000E+00  0.00000000000E+00 -0.15068990977E+03  0.15068990985E+03  0.50400001928E-02 0.  1.
    10030    2    1    2    0    0  0.00000000000E+00  0.00000000000E+00  0.25224172961E+03  0.55362154925E+03  0.49281936817E+03 0.  0.
        1    1    3    3  502    0 -0.20262272490E+03  0.13831965344E+03  0.10027253716E+03  0.26503372787E+03  0.50400001928E-02 0. -1.
       -1    1    3    3    0  502  0.20262272490E+03 -0.13831965344E+03  0.15196919245E+03  0.28858782139E+03  0.50400001928E-02 0.  1.
</event>
<event>
 5   0  0.1709372E-01  0.5023940E+03  0.7818609E-02  0.1013156E+00
        2   -1    0    0  501    0  0.00000000000E+00  0.00000000000E+00  0.21777366953E+04  0.21777366953E+04  0.25500000920E-02 0. -1.
       -2   -1    0    0    0  501  0.00000000000E+00  0.00000000000E+00 -0.28975005721E+02  0.28975005833E+02  0.25500000920E-02 0.  1.
    10030    2    1    2    0    0  0.00000000000E+00  0.00000000000E+00  0.21487616895E+04  0.22067117011E+04  0.50239400207E+03 0.  0.
        4    1    3    3  502    0 -0.84184920092E+02 -0.23115210320E+03  0.85127822020E+03  0.88611207907E+03  0.12699999809E+01 0.  1.
       -4    1    3    3    0  502  0.84184920092E+02  0.23115210320E+03  0.12974834694E+04  0.13205996220E+04  0.12699999809E+01 0. -1.
</event>
<event>
 5   0  0.1068522E-01  0.5061766E+03  0.7818609E-02  0.1012179E+00
        1   -1    0    0  501    0  0.00000000000E+00  0.00000000000E+00  0.22082816033E+03  0.22082816039E+03  0.50400001928E-02 0. -1.
       -1   -1    0    0    0  501  0.00000000000E+00  0.00000000000E+00 -0.29006121907E+03  0.29006121911E+03  0.50400001928E-02 0.  1.
    10030    2    1    2    0    0  0.00000000000E+00  0.00000000000E+00 -0.69233058734E+02  0.51088937950E+03  0.50617659138E+03 0.  0.
        2    1    3    3  502    0 -0.12207223068E+03  0.12613949906E+03 -0.21863486204E+03  0.28038189249E+03  0.25500000920E-02 0.  1.
       -2    1    3    3    0  502  0.12207223068E+03 -0.12613949906E+03  0.14940180331E+03  0.23050748701E+03  0.25500000920E-02 0. -1.
</event>
<event>
 5   0  0.1683148E-01  0.4888163E+03  0.7818609E-02  0.1016740E+00
       -2   -1    0    0    0  501  0.00000000000E+00  0.00000000000E+00  0.89446759634E+02  0.89446759670E+02  0.25500000920E-02 0. -1.
        2   -1    0    0  501    0  0.00000000000E+00  0.00000000000E+00 -0.66783115153E+03  0.66783115154E+03  0.25500000920E-02 0.  1.
    10030    2    1    2    0    0  0.00000000000E+00  0.00000000000E+00 -0.57838439190E+03  0.75727791121E+03  0.48881625383E+03 0.  0.
        2    1    3    3  502    0 -0.55472298384E+01 -0.21325553798E+03 -0.10440972738E+03  0.23750807864E+03  0.25500000920E-02 0. -1.
       -2    1    3    3    0  502  0.55472298384E+01  0.21325553798E+03 -0.47397466452E+03  0.51976983257E+03  0.25500000920E-02 0.  1.
</event>
<event>
 5   0  0.1147245E-01  0.4967816E+03  0.7818609E-02  0.1014622E+00
        1   -1    0    0  501    0  0.00000000000E+00  0.00000000000E+00  0.15683885235E+04  0.15683885235E+04  0.50400001928E-02 0. -1.
       -1   -1    0    0    0  501  0.00000000000E+00  0.00000000000E+00 -0.39338465919E+02  0.39338466242E+02  0.50400001928E-02 0.  1.
    10030    2    1    2    0    0  0.00000000000E+00  0.00000000000E+00  0.15290500576E+04  0.16077269897E+04  0.49678163712E+03 0.  0.
        1    1    3    3  502    0  0.51484084350E+02  0.19712536256E+03  0.12243620664E+04  0.12411976028E+04  0.50400001928E-02 0. -1.
       -1    1    3    3    0  502 -0.51484084350E+02 -0.19712536256E+03  0.30468799113E+03  0.36652938691E+03  0.50400001928E-02 0.  1.
</event>
<event>
 5   0  0.1683148E-01  0.4707866E+03  0.7818609E-02  0.1021698E+00
        2   -1    0    0  501    0  0.00000000000E+00  0.00000000000E+00  0.89033794672E+03  0.89033794672E+03  0.25500000920E-02 0. -1.
       -2   -1    0    0    0  501  0.00000000000E+00  0.00000000000E+00 -0.62234795257E+02  0.62234795309E+02  0.25500000920E-02 0.  1.
    10030    2    1    2    0    0  0.00000000000E+00  0.00000000000E+00  0.82810315146E+03  0.95257274203E+03  0.47078657521E+03 0.  0.
        2    1    3    3  502    0 -0.37836050288E+02  0.14820325265E+03  0.52020705947E+02  0.16156090075E+03  0.25500000920E-02 0.  1.
       -2    1    3    3    0  502  0.37836050288E+02 -0.14820325265E+03  0.77608244551E+03  0.79101184128E+03  0.25500000920E-02 0. -1.
</event>
<event>
 5   0  0.1760649E-01  0.4963018E+03  0.7818609E-02  0.1014749E+00
        2   -1    0    0  501    0  0.00000000000E+00  0.00000000000E+00  0.17331966919E+03  0.17331966921E+03  0.25500000920E-02 0. -1.
       -2   -1    0    0    0  501  0.00000000000E+00  0.00000000000E+00 -0.35529068423E+03  0.35529068424E+03  0.25500000920E-02 0.  1.
    10030    2    1    2    0    0  0.00000000000E+00  0.00000000000E+00 -0.18197101504E+03  0.52861035345E+03  0.49630177861E+03 0.  0.
        5    1    3    3  502    0 -0.19574652681E+03 -0.55172800501E+01  0.71279154241E+02  0.20844651823E+03  0.46999998093E+01 0. -1.
       -5    1    3    3    0  502  0.19574652681E+03  0.55172800501E+01 -0.25325016929E+03  0.32016383521E+03  0.46999998093E+01 0.  1.
</event>
<event>
 5   0  0.1760649E-01  0.4928258E+03  0.7818609E-02  0.1015669E+00
       -2   -1    0    0    0  501  0.00000000000E+00  0.00000000000E+00  0.69707682845E+02  0.69707682891E+02  0.25500000920E-02 0.  1.
        2   -1    0    0  501    0  0.00000000000E+00  0.00000000000E+00 -0.87105620337E+03  0.87105620337E+03  0.25500000920E-02 0. -1.
    10030    2    1    2    0    0  0.00000000000E+00  0.00000000000E+00 -0.80134852052E+03  0.94076388626E+03  0.49282576876E+03 0.  0.
        5    1    3    3  502    0  0.11921160274E+03  0.20524786299E+03 -0.52670806450E+03  0.57773832026E+03  0.46999998093E+01 0. -1.
       -5    1    3    3    0  502 -0.11921160274E+03 -0.20524786299E+03 -0.27464045603E+03  0.36302556601E+03  0.46999998093E+01 0.  1.
</event>
<event>
 5   0  0.1760649E-01  0.4936419E+03  0.7818609E-02  0.1015452E+00
        2   -1    0    0  501    0  0.00000000000E+00  0.00000000000E+00  0.85492431766E+03  0.85492431766E+03  0.25500000920E-02 0.  1.
       -2   -1    0    0    0  501  0.00000000000E+00  0.00000000000E+00 -0.71258438038E+02  0.71258438083E+02  0.25500000920E-02 0. -1.
    10030    2    1    2    0    0  0.00000000000E+00  0.00000000000E+00  0.78366587962E+03  0.92618275575E+03  0.49364186022E+03 0.  0.
        5    1    3    3  502    0 -0.83239084956E+02  0.23051640454E+03  0.44594902982E+03  0.50888032505E+03  0.46999998093E+01 0. -1.
       -5    1    3    3    0  502  0.83239084956E+02 -0.23051640454E+03  0.33771684980E+03  0.41730243070E+03  0.46999998093E+01 0.  1.
</event>
<event>
 5   0  0.1147245E-01  0.4609951E+03  0.7818609E-02  0.1024493E+00
       -1   -1    0    0    0  501  0.00000000000E+00  0.00000000000E+00  0.78449570354E+03  0.78449570356E+03  0.50400001928E-02 0. -1.
        1   -1    0    0  501    0  0.00000000000E+00  0.00000000000E+00 -0.67723920703E+02  0.67723920890E+02  0.50400001928E-02 0.  1.
    10030    2    1    2    0    0  0.00000000000E+00  0.00000000000E+00  0.71677178284E+03  0.85221962445E+03  0.46099511887E+03 0.  0.
        1    1    3    3  502    0  0.24659328189E+02  0.41926889295E+02  0.77489989442E+03  0.77642500792E+03  0.50400001928E-02 0. -1.
       -1    1    3    3    0  502 -0.24659328189E+02 -0.41926889295E+02 -0.58128111588E+02  0.75794616530E+02  0.50400001928E-02 0.  1.
</event>
<event>
 5   0  0.7220250E-02  0.5031677E+03  0.7818609E-02  0.1012955E+00
       -3   -1    0    0    0  501  0.00000000000E+00  0.00000000000E+00  0.29009113509E+03  0.29009115267E+03  0.10100000352E+00 0. -1.
        3   -1    0    0  501    0  0.00000000000E+00  0.00000000000E+00 -0.21818804230E+03  0.21818806568E+03  0.10100000352E+00 0.  1.
    10030    2    1    2    0    0  0.00000000000E+00  0.00000000000E+00  0.71903092792E+02  0.50827921835E+03  0.50316767489E+03 0.  0.
        3    1    3    3  502    0  0.65785878908E+01 -0.18028013713E+03  0.21309033625E+03  0.27919832963E+03  0.10100000352E+00 0. -1.
       -3    1    3    3    0  502 -0.65785878908E+01  0.18028013713E+03 -0.14118724346E+03  0.22908088872E+03  0.10100000352E+00 0.  1.
</event>
<event>
 5   0  0.1147245E-01  0.4839182E+03  0.7818609E-02  0.1018064E+00
        1   -1    0    0  501    0  0.00000000000E+00  0.00000000000E+00  0.88271374555E+02  0.88271374699E+02  0.50400001928E-02 0.  1.
       -1   -1    0    0    0  501  0.00000000000E+00  0.00000000000E+00 -0.66322990333E+03  0.66322990335E+03  0.50400001928E-02 0. -1.
    10030    2    1    2    0    0  0.00000000000E+00  0.00000000000E+00 -0.57495852878E+03  0.75150127805E+03  0.48391823803E+03 0.  0.
        1    1    3    3  502    0 -0.11791592008E+03  0.23084483019E+02 -0.61362542428E+03  0.62527851307E+03  0.50400001928E-02 0. -1.
       -1    1    3    3    0  502  0.11791592008E+03 -0.23084483019E+02  0.38666895504E+02  0.12622276497E+03  0.50400001928E-02 0.  1.
</event>
<event>
 5   0  0.1141970E-01  0.4948026E+03  0.7818609E-02  0.1015144E+00
       -1   -1    0    0    0  501  0.00000000000E+00  0.00000000000E+00  0.69257795081E+02  0.69257795264E+02  0.50400001928E-02 0.  1.
        1   -1    0    0  501    0  0.00000000000E+00  0.00000000000E+00 -0.88376198767E+03  0.88376198769E+03  0.50400001928E-02 0. -1.
    10030    2    1    2    0    0  0.00000000000E+00  0.00000000000E+00 -0.81450419259E+03  0.95301978295E+03  0.49480261413E+03 0.  0.
        3    1    3    3  502    0  0.22390395374E+03  0.30799177238E+02 -0.60106611025E+03  0.64215422518E+03  0.10100000352E+00 0. -1.
       -3    1    3    3    0  502 -0.22390395374E+03 -0.30799177238E+02 -0.21343808234E+03  0.31086555778E+03  0.10100000352E+00 0.  1.
</event>
<event>
 5   0  0.1827698E-01  0.5030956E+03  0.7818609E-02  0.1012974E+00
       -2   -1    0    0    0  501  0.00000000000E+00  0.00000000000E+00  0.93956077839E+02  0.93956077873E+02  0.25500000920E-02 0.  1.
        2   -1    0    0  501    0  0.00000000000E+00  0.00000000000E+00 -0.67346675052E+03  0.67346675052E+03  0.25500000920E-02 0. -1.
    10030    2    1    2    0    0  0.00000000000E+00  0.00000000000E+00 -0.57951067268E+03  0.76742282839E+03  0.50309559508E+03 0.  0.
        1    1    3    3  502    0 -0.81963868867E+02 -0.23781090440E+03 -0.29287863996E+03  0.38606994161E+03  0.50400001928E-02 0. -1.
       -1    1    3    3    0  502  0.81963868867E+02  0.23781090440E+03 -0.28663203272E+03  0.38135288678E+03  0.50400001928E-02 0.  1.
</event>
<event>
 5   0  0.1141970E-01  0.4910993E+03  0.7818609E-02  0.1016129E+00
       -1   -1    0    0    0  501  0.00000000000E+00  0.00000000000E+00  0.10429974732E+04  0.10429974732E+04  0.50400001928E-02 0. -1.
        1   -1    0    0  501    0  0.00000000000E+00  0.00000000000E+00 -0.57808998176E+02  0.57808998395E+02  0.50400001928E-02 0.  1.
    10030    2    1    2    0    0  0.00000000000E+00  0.00000000000E+00  0.98518847501E+03  0.11008064716E+04  0.49109933477E+03 0.  0.
        3    1    3    3  502    0  0.19996317586E+03  0.10667435289E+03  0.28077476065E+03  0.36083121495E+03  0.10100000352E+00 0. -1.
       -3    1    3    3    0  502 -0.19996317586E+03 -0.10667435289E+03  0.70441371436E+03  0.73997525664E+03  0.10100000352E+00 0.  1.
</event>
<event>
 5   0  0.1827698E-01  0.4357014E+03  0.7818609E-02  0.1032074E+00
       -2   -1    0    0    0  501  0.00000000000E+00  0.00000000000E+00  0.32430659957E+02  0.32430660057E+02  0.25500000920E-02 0.  1.
        2   -1    0    0  501    0  0.00000000000E+00  0.00000000000E+00 -0.14633966399E+04  0.14633966399E+04  0.25500000920E-02 0. -1.
    10030    2    1    2    0    0  0.00000000000E+00  0.00000000000E+00 -0.14309659800E+04  0.14958273000E+04  0.43570136051E+03 0.  0.
        1    1    3    3  502    0  0.22272606578E+01  0.18326508251E+03 -0.31118890813E+03  0.36115036720E+03  0.50400001928E-02 0.  1.
       -1    1    3    3    0  502 -0.22272606578E+01 -0.18326508251E+03 -0.11197770718E+04  0.11346769328E+04  0.50400001928E-02 0. -1.
</event>
<event>
 5   0  0.1782124E-01  0.5302669E+03  0.7818609E-02  0.1006167E+00
        2   -1    0    0  501    0  0.00000000000E+00  0.00000000000E+00  0.11570899857E+03  0.11570899860E+03  0.25500000920E-02 0. -1.
       -2   -1    0    0    0  501  0.00000000000E+00  0.00000000000E+00 -0.60752176513E+03  0.60752176513E+03  0.25500000920E-02 0.  1.
    10030    2    1    2    0    0  0.00000000000E+00  0.00000000000E+00 -0.49181276656E+03  0.72323076373E+03  0.53026685759E+03 0.  0.
        3    1    3    3  502    0 -0.90753243085E+02 -0.18890574423E+03 -0.46740550147E+03  0.51223963566E+03  0.10100000352E+00 0.  1.
       -3    1    3    3    0  502  0.90753243085E+02  0.18890574423E+03 -0.24407265084E+02  0.21099112807E+03  0.10100000352E+00 0. -1.
</event>
<event>
 5   0  0.1683148E-01  0.4984800E+03  0.7818609E-02  0.1014176E+00
        2   -1    0    0  501    0  0.00000000000E+00  0.00000000000E+00  0.37494824379E+03  0.37494824379E+03  0.25500000920E-02 0.  1.
       -2   -1    0    0    0  501  0.00000000000E+00  0.00000000000E+00 -0.16567774173E+03  0.16567774175E+03  0.25500000920E-02 0. -1.
    10030    2    1    2    0    0  0.00000000000E+00  0.00000000000E+00  0.20927050206E+03  0.54062598554E+03  0.49848000282E+03 0.  0.
        2    1    3    3  502    0  0.76664828792E+02 -0.42305401893E+02 -0.14844684267E+03  0.17234763738E+03  0.25500000920E-02 0. -1.
       -2    1    3    3    0  502 -0.76664828792E+02  0.42305401893E+02  0.35771734473E+03  0.36827834817E+03  0.25500000920E-02 0.  1.
</event>
<event>
 5   0  0.1068522E-01  0.4304787E+03  0.7818609E-02  0.1033709E+00
       -1   -1    0    0    0  501  0.00000000000E+00  0.00000000000E+00  0.79029338146E+02  0.79029338307E+02  0.50400001928E-02 0.  1.
        1   -1    0    0  501    0  0.00000000000E+00  0.00000000000E+00 -0.58621241364E+03  0.58621241366E+03  0.50400001928E-02 0. -1.
    10030    2    1    2    0    0  0.00000000000E+00  0.00000000000E+00 -0.50718307550E+03  0.66524175197E+03  0.43047870620E+03 0.  0.
        2    1    3    3  502    0 -0.10293952215E+03 -0.12866787403E+03 -0.39594888973E+02  0.16946894189E+03  0.25500000920E-02 0.  1.
       -2    1    3    3    0  502  0.10293952215E+03  0.12866787403E+03 -0.46758818652E+03  0.49577281008E+03  0.25500000920E-02 0. -1.
</event>
<event>
 5   0  0.1760649E-01  0.4924277E+03  0.7818609E-02  0.1015775E+00
       -2   -1    0    0    0  501  0.00000000000E+00  0.00000000000E+00  0.75289357355E+02  0.75289357398E+02  0.25500000920E-02 0.  1.
        2   -1    0    0  501    0  0.00000000000E+00  0.00000000000E+00 -0.80517685206E+03  0.80517685207E+03  0.25500000920E-02 0. -1.
    10030    2    1    2    0    0  0.00000000000E+00  0.00000000000E+00 -0.72988749471E+03  0.88046620947E+03  0.49242765060E+03 0.  0.
        5    1    3    3  502    0  0.37322906697E+02  0.80512811656E+02  0.45613574414E+02  0.99889941306E+02  0.46999998093E+01 0.  1.
       -5    1    3    3    0  502 -0.37322906697E+02 -0.80512811656E+02 -0.77550106912E+03  0.78057626816E+03  0.46999998093E+01 0. -1.
</event>
<event>
 5   0  0.1123271E-01  0.5006157E+03  0.7818609E-02  0.1013618E+00
       -1   -1    0    0    0  501  0.00000000000E+00  0.00000000000E+00  0.68417527011E+02  0.68417527197E+02  0.50400001928E-02 0.  1.
        1   -1    0    0  501    0  0.00000000000E+00  0.00000000000E+00 -0.91575995035E+03  0.91575995036E+03  0.50400001928E-02 0. -1.
    10030    2    1    2    0    0  0.00000000000E+00  0.00000000000E+00 -0.84734242334E+03  0.98417747756E+03  0.50061574580E+03 0.  0.
        5    1    3    3  502    0 -0.18798271577E+02 -0.13521787772E+03 -0.11318308498E+02  0.13706729579E+03  0.46999998093E+01 0.  1.
       -5    1    3    3    0  502  0.18798271577E+02  0.13521787772E+03 -0.83602411484E+03  0.84711018177E+03  0.46999998093E+01 0. -1.
</event>
<event>
 5   0  0.1760649E-01  0.4884533E+03  0.7818609E-02  0.1016837E+00
       -2   -1    0    0    0  501  0.00000000000E+00  0.00000000000E+00  0.98949809632E+02  0.98949809665E+02  0.25500000920E-02 0.  1.
        2   -1    0    0  501    0  0.00000000000E+00  0.00000000000E+00 -0.60279713881E+03  0.60279713882E+03  0.25500000920E-02 0. -1.
    10030    2    1    2    0    0  0.00000000000E+00  0.00000000000E+00 -0.50384732918E+03  0.70174694849E+03  0.48845332283E+03 0.  0.
        5    1    3    3  502    0  0.21751109291E+03  0.51257343837E+02 -0.11052875924E+03  0.24935333857E+03  0.46999998093E+01 0.  1.
       -5    1    3    3    0  502 -0.21751109291E+03 -0.51257343837E+02 -0.39331856994E+03  0.45239360992E+03  0.46999998093E+01 0. -1.
</event>
<event>
 5   0  0.1827698E-01  0.4971436E+03  0.7818609E-02  0.1014527E+00
       -2   -1    0    0    0  501  0.00000000000E+00  0.00000000000E+00  0.13147633374E+03  0.13147633377E+03  0.25500000920E-02 0.  1.
        2   -1    0    0  501    0  0.00000000000E+00  0.00000000000E+00 -0.46995484694E+03  0.46995484694E+03  0.25500000920E-02 0. -1.
    10030    2    1    2    0    0  0.00000000000E+00  0.00000000000E+00 -0.33847851320E+03  0.60143118071E+03  0.49714360223E+03 0.  0.
        1    1    3    3  502    0  0.22457499075E+03  0.25146615887E+01 -0.29811103516E+03  0.37324313698E+03  0.50400001928E-02 0. -1.
       -1    1    3    3    0  502 -0.22457499075E+03 -0.25146615887E+01 -0.40367478034E+02  0.22818804373E+03  0.50400001928E-02 0.  1.
</event>
<event>
 5   0  0.1709372E-01  0.5150392E+03  0.7818609E-02  0.1009926E+00
       -2   -1    0    0    0  501  0.00000000000E+00  0.00000000000E+00  0.65285605612E+02  0.65285605662E+02  0.25500000920E-02 0. -1.
        2   -1    0    0  501    0  0.00000000000E+00  0.00000000000E+00 -0.10157880291E+04  0.10157880291E+04  0.25500000920E-02 0.  1.
    10030    2    1    2    0    0  0.00000000000E+00  0.00000000000E+00 -0.95050242347E+03  0.10810736348E+04  0.51503917009E+03 0.  0.
        4    1    3    3  502    0 -0.45863727376E+02  0.20411309418E+03 -0.79044634137E+03  0.81766293067E+03  0.12699999809E+01 0.  1.
       -4    1    3    3    0  502  0.45863727376E+02 -0.20411309418E+03 -0.16005608210E+03  0.26341070408E+03  0.12699999809E+01 0. -1.
</event>
<event>
 5   0  0.7220250E-02  0.5028708E+03  0.7818609E-02  0.1013032E+00
       -3   -1    0    0    0  501  0.00000000000E+00  0.00000000000E+00  0.12243092664E+03  0.12243096830E+03  0.10100000352E+00 0. -1.
        3   -1    0    0  501    0  0.00000000000E+00  0.00000000000E+00 -0.51637063366E+03  0.51637064354E+03  0.10100000352E+00 0.  1.
    10030    2    1    2    0    0  0.00000000000E+00  0.00000000000E+00 -0.39393970702E+03  0.63880161184E+03  0.50287076523E+03 0.  0.
        3    1    3    3  502    0  0.11751447272E+03 -0.53192005902E+02  0.77195532518E+02  0.15032698105E+03  0.10100000352E+00 0. -1.
       -3    1    3    3    0  502 -0.11751447272E+03  0.53192005902E+02 -0.47113523954E+03  0.48847463079E+03  0.10100000352E+00 0.  1.
</event>
<event>
 5   0  0.1068522E-01  0.5036736E+03  0.7818609E-02  0.1012824E+00
       -1   -1    0    0    0  501  0.00000000000E+00  0.00000000000E+00  0.64995781659E+02  0.64995781854E+02  0.50400001928E-02 0.  1.
        1   -1    0    0  501    0  0.00000000000E+00  0.00000000000E+00 -0.97578311031E+03  0.97578311032E+03  0.50400001928E-02 0. -1.
    10030    2    1    2    0    0  0.00000000000E+00  0.00000000000E+00 -0.91078732865E+03  0.10407788922E+04  0.50367364867E+03 0.  0.
        2    1    3    3  502    0  0.41716423788E+02 -0.81532622250E+02 -0.94015125497E+03  0.94460161482E+03  0.25500000920E-02 0. -1.
       -2    1    3    3    0  502 -0.41716423788E+02  0.81532622250E+02  0.29363926313E+02  0.96177277356E+02  0.25500000920E-02 0.  1.
</event>
<event>
 5   0  0.1068522E-01  0.4973319E+03  0.7818609E-02  0.1014478E+00
       -1   -1    0    0    0  501  0.00000000000E+00  0.00000000000E+00  0.12338869899E+03  0.12338869910E+03  0.50400001928E-02 0.  1.
        1   -1    0    0  501    0  0.00000000000E+00  0.00000000000E+00 -0.50113791596E+03  0.50113791598E+03  0.50400001928E-02 0. -1.
    10030    2    1    2    0    0  0.00000000000E+00  0.00000000000E+00 -0.37774921696E+03  0.62452661508E+03  0.49733190328E+03 0.  0.
        2    1    3    3  502    0 -0.20907946810E+03 -0.14907002820E+02 -0.20874068253E+02  0.21064702572E+03  0.25500000920E-02 0.  1.
       -2    1    3    3    0  502  0.20907946810E+03  0.14907002820E+02 -0.35687514871E+03  0.41387958936E+03  0.25500000920E-02 0. -1.
</event>
<event>
 5   0  0.1760649E-01  0.4943047E+03  0.7818609E-02  0.1015276E+00
        2   -1    0    0  501    0  0.00000000000E+00  0.00000000000E+00  0.25838132301E+03  0.25838132303E+03  0.25500000920E-02 0.  1.
       -2   -1    0    0    0  501  0.00000000000E+00  0.00000000000E+00 -0.23641135794E+03  0.23641135796E+03  0.25500000920E-02 0. -1.
    10030    2    1    2    0    0  0.00000000000E+00  0.00000000000E+00  0.21969965071E+02  0.49479268099E+03  0.49430468113E+03 0.  0.
        5    1    3    3  502    0  0.62200470422E+02  0.12789130591E+02 -0.22805976074E+03  0.23678218862E+03  0.46999998093E+01 0. -1.
       -5    1    3    3    0  502 -0.62200470422E+02 -0.12789130591E+02  0.25002972581E+03  0.25801049236E+03  0.46999998093E+01 0.  1.
</event>
<event>
 5   0  0.1782124E-01  0.5052470E+03  0.7818609E-02  0.1012418E+00
        2   -1    0    0  501    0  0.00000000000E+00  0.00000000000E+00  0.34049739189E+03  0.34049739190E+03  0.25500000920E-02 0.  1.
       -2   -1    0    0    0  501  0.00000000000E+00  0.00000000000E+00 -0.18742763550E+03  0.18742763552E+03  0.25500000920E-02 0. -1.
    10030    2    1    2    0    0  0.00000000000E+00  0.00000000000E+00  0.15306975639E+03  0.52792502741E+03  0.50524695373E+03 0.  0.
        3    1    3    3  502    0  0.86364271923E+02 -0.13107139843E+03 -0.13028933626E+03  0.20399465752E+03  0.10100000352E+00 0. -1.
       -3    1    3    3    0  502 -0.86364271923E+02  0.13107139843E+03  0.28335909265E+03  0.32393036990E+03  0.10100000352E+00 0.  1.
</event>
<event>
 5   0  0.7220250E-02  0.4942739E+03  0.7818609E-02  0.1015284E+00
       -4   -1    0    0    0  501  0.00000000000E+00  0.00000000000E+00  0.90260293966E+02  0.90269228239E+02  0.12699999809E+01 0. -1.
        4   -1    0    0  501    0  0.00000000000E+00  0.00000000000E+00 -0.67662953582E+03  0.67663072768E+03  0.12699999809E+01 0.  1.
    10030    2    1    2    0    0  0.00000000000E+00  0.00000000000E+00 -0.58636924185E+03  0.76689995592E+03  0.49427386599E+03 0.  0.
        3    1    3    3  502    0  0.14350481059E+03  0.17731591095E+03 -0.14564607825E+03  0.27064248235E+03  0.10100000352E+00 0. -1.
       -3    1    3    3    0  502 -0.14350481059E+03 -0.17731591095E+03 -0.44072316360E+03  0.49625747357E+03  0.10100000352E+00 0.  1.
</event>
<event>
 5   0  0.1683148E-01  0.5006534E+03  0.7818609E-02  0.1013609E+00
        2   -1    0    0  501    0  0.00000000000E+00  0.00000000000E+00  0.35232940939E+03  0.35232940939E+03  0.25500000920E-02 0.  1.
       -2   -1    0    0    0  501  0.00000000000E+00  0.00000000000E+00 -0.17785474175E+03  0.17785474177E+03  0.25500000920E-02 0. -1.
    10030    2    1    2    0    0  0.00000000000E+00  0.00000000000E+00  0.17447466763E+03  0.53018415117E+03  0.50065339757E+03 0.  0.
        2    1    3    3  502    0 -0.20348302340E+03  0.10345983203E+03 -0.21555875964E+02  0.22929006401E+03  0.25500000920E-02 0. -1.
       -2    1    3    3    0  502  0.20348302340E+03 -0.10345983203E+03  0.19603054360E+03  0.30089408716E+03  0.25500000920E-02 0.  1.
</event>
<event>
 5   0  0.1068522E-01  0.5041990E+03  0.7818609E-02  0.1012689E+00
        1   -1    0    0  501    0  0.00000000000E+00  0.00000000000E+00  0.13330290408E+04  0.13330290408E+04  0.50400001928E-02 0. -1.
       -1   -1    0    0    0  501  0.00000000000E+00  0.00000000000E+00 -0.47676501970E+02  0.47676502236E+02  0.50400001928E-02 0.  1.
    10030    2    1    2    0    0  0.00000000000E+00  0.00000000000E+00  0.12853525388E+04  0.13807055430E+04  0.50419901579E+03 0.  0.
        2    1    3    3  502    0  0.12723826063E+03  0.14212021797E+03  0.19132427641E+03  0.27017163077E+03  0.25500000920E-02 0.  1.
       -2    1    3    3    0  502 -0.12723826063E+03 -0.14212021797E+03  0.10940282624E+04  0.11105339123E+04  0.25500000920E-02 0. -1.
</event>
<event>
 5   0  0.7220250E-02  0.4888202E+03  0.7818609E-02  0.1016739E+00
        3   -1    0    0  501    0  0.00000000000E+00  0.00000000000E+00  0.34130655074E+03  0.34130656568E+03  0.10100000352E+00 0. -1.
       -3   -1    0    0    0  501  0.00000000000E+00  0.00000000000E+00 -0.17502235614E+03  0.17502238528E+03  0.10100000352E+00 0.  1.
    10030    2    1    2    0    0  0.00000000000E+00  0.00000000000E+00  0.16628419460E+03  0.51632895096E+03  0.48882016348E+03 0.  0.
        4    1    3    3  502    0 -0.26488972676E+01 -0.39016168480E+02  0.33797704910E+03  0.34023429674E+03  0.12699999809E+01 0. -1.
       -4    1    3    3    0  502  0.26488972676E+01  0.39016168480E+02 -0.17169285450E+03  0.17609465422E+03  0.12699999809E+01 0.  1.
</event>
<event>
 5   0  0.1141970E-01  0.5035904E+03  0.7818609E-02  0.1012846E+00
       -1   -1    0    0    0  501  0.00000000000E+00  0.00000000000E+00  0.92461009939E+02  0.92461010077E+02  0.50400001928E-02 0.  1.
        1   -1    0    0  501    0  0.00000000000E+00  0.00000000000E+00 -0.68570320293E+03  0.68570320295E+03  0.50400001928E-02 0. -1.
    10030    2    1    2    0    0  0.00000000000E+00  0.00000000000E+00 -0.59324219299E+03  0.77816421302E+03  0.50359035226E+03 0.  0.
        3    1    3    3  502    0 -0.20563744131E+03  0.32823814634E+02 -0.51535006521E+03  0.55583258269E+03  0.10100000352E+00 0. -1.
       -3    1    3    3    0  502  0.20563744131E+03 -0.32823814634E+02 -0.77892127785E+02  0.22233163033E+03  0.10100000352E+00 0.  1.
</event>
<event>
 5   0  0.1827698E-01  0.5275664E+03  0.7818609E-02  0.1006824E+00
       -2   -1    0    0    0  501  0.00000000000E+00  0.00000000000E+00  0.32673873120E+03  0.32673873121E+03  0.25500000920E-02 0.  1.
        2   -1    0    0  501    0  0.00000000000E+00  0.00000000000E+00 -0.21295788342E+03  0.21295788344E+03  0.25500000920E-02 0. -1.
    10030    2    1    2    0    0  0.00000000000E+00  0.00000000000E+00  0.11378084778E+03  0.53969661464E+03  0.52756644561E+03 0.  0.
        1    1    3    3  502    0 -0.14891975472E+03 -0.14181351205E+03  0.22589619376E+03  0.30547873237E+03  0.50400001928E-02 0.  1.
       -1    1    3    3    0  502  0.14891975472E+03  0.14181351205E+03 -0.11211534599E+03  0.23421788228E+03  0.50400001928E-02 0. -1.
</event>
<event>
 5   0  0.1068522E-01  0.5044705E+03  0.7818609E-02  0.1012619E+00
        1   -1    0    0  501    0  0.00000000000E+00  0.00000000000E+00  0.60066903680E+02  0.60066903891E+02  0.50400001928E-02 0. -1.
       -1   -1    0    0    0  501  0.00000000000E+00  0.00000000000E+00 -0.10591957653E+04  0.10591957653E+04  0.50400001928E-02 0.  1.
    10030    2    1    2    0    0  0.00000000000E+00  0.00000000000E+00 -0.99912886158E+03  0.11192626692E+04  0.50447045557E+03 0.  0.
        2    1    3    3  502    0  0.21748022281E+03 -0.27077736355E+00 -0.78304376709E+03  0.81268398644E+03  0.25500000920E-02 0.  1.
       -2    1    3    3    0  502 -0.21748022281E+03  0.27077736355E+00 -0.21608509449E+03  0.30657868273E+03  0.25500000920E-02 0. -1.
</event>
<event>
 5   0  0.1827698E-01  0.4799041E+03  0.7818609E-02  0.1019162E+00
        2   -1    0    0  501    0  0.00000000000E+00  0.00000000000E+00  0.11395421303E+04  0.11395421303E+04  0.25500000920E-02 0. -1.
       -2   -1    0    0    0  501  0.00000000000E+00  0.00000000000E+00 -0.50526427310E+02  0.50526427374E+02  0.25500000920E-02 0.  1.
    10030    2    1    2    0    0  0.00000000000E+00  0.00000000000E+00  0.10890157030E+04  0.11900685577E+04  0.47990412649E+03 0.  0.
        1    1    3    3  502    0  0.17619914035E+03 -0.13333253344E+02  0.94707023089E+03  0.96341368839E+03  0.50400001928E-02 0. -1.
       -1    1    3    3    0  502 -0.17619914035E+03  0.13333253344E+02  0.14194547213E+03  0.22665486933E+03  0.50400001928E-02 0.  1.
</event>
<event>
 5   0  0.7220250E-02  0.4971281E+03  0.7818609E-02  0.1014531E+00
       -3   -1    0    0    0  501  0.00000000000E+00  0.00000000000E+00  0.21917185232E+03  0.21917187559E+03  0.10100000352E+00 0. -1.
        3   -1    0    0  501    0  0.00000000000E+00  0.00000000000E+00 -0.28189781640E+03  0.28189783449E+03  0.10100000352E+00 0.  1.
    10030    2    1    2    0    0  0.00000000000E+00  0.00000000000E+00 -0.62725964080E+02  0.50106971008E+03  0.49712805975E+03 0.  0.
        1    1    3    3  502    0 -0.11384516763E+03  0.22095117976E+03 -0.29364614408E+02  0.25028469117E+03  0.50400001928E-02 0.  1.
       -1    1    3    3    0  502  0.11384516763E+03 -0.22095117976E+03 -0.33361349672E+02  0.25078501891E+03  0.50400001928E-02 0. -1.
</event>
<event>
 5   0  0.1782124E-01  0.5041633E+03  0.7818609E-02  0.1012698E+00
       -2   -1    0    0    0  501  0.00000000000E+00  0.00000000000E+00  0.16017883156E+03  0.16017883158E+03  0.25500000920E-02 0. -1.
        2   -1    0    0  501    0  0.00000000000E+00  0.00000000000E+00 -0.39671380704E+03  0.39671380705E+03  0.25500000920E-02 0.  1.
    10030    2    1    2    0    0  0.00000000000E+00  0.00000000000E+00 -0.23653497548E+03  0.55689263863E+03  0.50416328341E+03 0.  0.
        3    1    3    3  502    0  0.11022494501E+03  0.19886464601E+03  0.19675872677E+01  0.22737758803E+03  0.10100000352E+00 0. -1.
       -3    1    3    3    0  502 -0.11022494501E+03 -0.19886464601E+03 -0.23850256275E+03  0.32951505061E+03  0.10100000352E+00 0.  1.
</event>
<event>
 5   0  0.1147245E-01  0.5005183E+03  0.7818609E-02  0.1013644E+00
        1   -1    0    0  501    0  0.00000000000E+00  0.00000000000E+00  0.31789258124E+03  0.31789258128E+03  0.50400001928E-02 0. -1.
       -1   -1    0    0    0  501  0.00000000000E+00  0.00000000000E+00 -0.19701512489E+03  0.19701512496E+03  0.50400001928E-02 0.  1.
    10030    2    1    2    0    0  0.00000000000E+00  0.00000000000E+00  0.12087745634E+03  0.51490770623E+03  0.50051831783E+03 0.  0.
        1    1    3    3  502    0 -0.39006114121E+02  0.85461578566E+02  0.29906522623E+03  0.31347275467E+03  0.50400001928E-02 0. -1.
       -1    1    3    3    0  502  0.39006114121E+02 -0.85461578566E+02 -0.17818776989E+03  0.20143495157E+03  0.50400001928E-02 0.  1.
</event>
<event>
 5   0  0.1074281E-01  0.4976649E+03  0.7818609E-02  0.1014390E+00
        1   -1    0    0  501    0  0.00000000000E+00  0.00000000000E+00  0.86005342986E+03  0.86005342988E+03  0.50400001928E-02 0. -1.
       -1   -1    0    0    0  501  0.00000000000E+00  0.00000000000E+00 -0.71992719347E+02  0.71992719523E+02  0.50400001928E-02 0.  1.
    10030    2    1    2    0    0  0.00000000000E+00  0.00000000000E+00  0.78806071051E+03  0.93204614940E+03  0.49766488841E+03 0.  0.
        4    1    3    3  502    0 -0.13180473245E+03 -0.98304800268E+02  0.74380351607E+03  0.76176217067E+03  0.12699999809E+01 0. -1.
       -4    1    3    3    0  502  0.13180473245E+03  0.98304800268E+02  0.44257194449E+02  0.17028397873E+03  0.12699999809E+01 0.  1.
</event>
<event>
 5   0  0.1827698E-01  0.5006073E+03  0.7818609E-02  0.1013621E+00
       -2   -1    0    0    0  501  0.00000000000E+00  0.00000000000E+00  0.10934374039E+03  0.10934374042E+03  0.25500000920E-02 0.  1.
        2   -1    0    0  501    0  0.00000000000E+00  0.00000000000E+00 -0.57298125878E+03  0.57298125878E+03  0.25500000920E-02 0. -1.
    10030    2    1    2    0    0  0.00000000000E+00  0.00000000000E+00 -0.46363751839E+03  0.68232499920E+03  0.50060728728E+03 0.  0.
        1    1    3    3  502    0  0.97447612511E+02  0.62059658958E+02  0.70828878105E+02  0.13551445847E+03  0.50400001928E-02 0.  1.
       -1    1    3    3    0  502 -0.97447612511E+02 -0.62059658958E+02 -0.53446639649E+03  0.54681054074E+03  0.50400001928E-02 0. -1.
</event>
<event>
 5   0  0.7220250E-02  0.4138076E+03  0.7818609E-02  0.1039101E+00
       -4   -1    0    0    0  501  0.00000000000E+00  0.00000000000E+00  0.55939635581E+02  0.55954050157E+02  0.12699999809E+01 0.  1.
        4   -1    0    0  501    0  0.00000000000E+00  0.00000000000E+00 -0.76516121652E+03  0.76516227048E+03  0.12699999809E+01 0. -1.
    10030    2    1    2    0    0  0.00000000000E+00  0.00000000000E+00 -0.70922158093E+03  0.82111632063E+03  0.41380763785E+03 0.  0.
        1    1    3    3  502    0 -0.36996385226E+02  0.48396562830E+02 -0.74697079687E+03  0.74945068631E+03  0.50400001928E-02 0. -1.
       -1    1    3    3    0  502  0.36996385226E+02 -0.48396562830E+02  0.37749215934E+02  0.71665634321E+02  0.50400001928E-02 0.  1.
</event>
<event>
 5   0  0.1147245E-01  0.5012837E+03  0.7818609E-02  0.1013444E+00
       -1   -1    0    0    0  501  0.00000000000E+00  0.00000000000E+00  0.36042975702E+03  0.36042975706E+03  0.50400001928E-02 0. -1.
        1   -1    0    0  501    0  0.00000000000E+00  0.00000000000E+00 -0.17429562219E+03  0.17429562227E+03  0.50400001928E-02 0.  1.
    10030    2    1    2    0    0  0.00000000000E+00  0.00000000000E+00  0.18613413483E+03  0.53472537932E+03  0.50128366734E+03 0.  0.
        1    1    3    3  502    0  0.26452561203E+02  0.36132249048E+02  0.35612799786E+03  0.35893234502E+03  0.50400001928E-02 0. -1.
       -1    1    3    3    0  502 -0.26452561203E+02 -0.36132249048E+02 -0.16999386303E+03  0.17579303430E+03  0.50400001928E-02 0.  1.
</event>
<event>
 5   0  0.1782124E-01  0.5343967E+03  0.7818609E-02  0.1005171E+00
       -2   -1    0    0    0  501  0.00000000000E+00  0.00000000000E+00  0.57182673394E+03  0.57182673394E+03  0.25500000920E-02 0. -1.
        2   -1    0    0  501    0  0.00000000000E+00  0.00000000000E+00 -0.12485420044E+03  0.12485420047E+03  0.25500000920E-02 0.  1.
    10030    2    1    2    0    0  0.00000000000E+00  0.00000000000E+00  0.44697253349E+03  0.69668093441E+03  0.53439674276E+03 0.  0.
        3    1    3    3  502    0  0.25575184274E+03 -0.75599132245E+02  0.20203589658E+03  0.33457846250E+03  0.10100000352E+00 0. -1.
       -3    1    3    3    0  502 -0.25575184274E+03  0.75599132245E+02  0.24493663691E+03  0.36210247191E+03  0.10100000352E+00 0.  1.
</event>
<event>
 5   0  0.1074281E-01  0.5061037E+03  0.7818609E-02  0.1012198E+00
        1   -1    0    0  501    0  0.00000000000E+00  0.00000000000E+00  0.37543848350E+03  0.37543848354E+03  0.50400001928E-02 0.  1.
       -1   -1    0    0    0  501  0.00000000000E+00  0.00000000000E+00 -0.17056123118E+03  0.17056123126E+03  0.50400001928E-02 0. -1.
    10030    2    1    2    0    0  0.00000000000E+00  0.00000000000E+00  0.20487725232E+03  0.54599971480E+03  0.50610374435E+03 0.  0.
        4    1    3    3  502    0  0.10485572226E+03  0.15048308651E+03 -0.85642426470E+02  0.20242559109E+03  0.12699999809E+01 0. -1.
       -4    1    3    3    0  502 -0.10485572226E+03 -0.15048308651E+03  0.29051967879E+03  0.34357412371E+03  0.12699999809E+01 0.  1.
</event>
<event>
 5   0  0.1074281E-01  0.4737358E+03  0.7818609E-02  0.1020871E+00
        1   -1    0    0  501    0  0.00000000000E+00  0.00000000000E+00  0.13245997571E+04  0.13245997571E+04  0.50400001928E-02 0.  1.
       -1   -1    0    0    0  501  0.00000000000E+00  0.00000000000E+00 -0.42357242122E+02  0.42357242421E+02  0.50400001928E-02 0. -1.
    10030    2    1    2    0    0  0.00000000000E+00  0.00000000000E+00  0.12822425150E+04  0.13669569995E+04  0.47373576110E+03 0.  0.
        4    1    3    3  502    0  0.24165469856E+02 -0.14003320030E+03  0.94312408970E+02  0.17055705938E+03  0.12699999809E+01 0. -1.
       -4    1    3    3    0  502 -0.24165469856E+02  0.14003320030E+03  0.11879301060E+04  0.11963999402E+04  0.12699999809E+01 0.  1.
</event>
<event>
 5   0  0.1074281E-01  0.4970848E+03  0.7818609E-02  0.1014543E+00
       -1   -1    0    0    0  501  0.00000000000E+00  0.00000000000E+00  0.10095837408E+03  0.10095837420E+03  0.50400001928E-02 0. -1.
        1   -1    0    0  501    0  0.00000000000E+00  0.00000000000E+00 -0.61186926912E+03  0.61186926914E+03  0.50400001928E-02 0.  1.
    10030    2    1    2    0    0  0.00000000000E+00  0.00000000000E+00 -0.51091089505E+03  0.71282764335E+03  0.49708480810E+03 0.  0.
        4    1    3    3  502    0 -0.77814541108E+02 -0.12927901454E+03  0.27752930250E+02  0.15342752180E+03  0.12699999809E+01 0. -1.
       -4    1    3    3    0  502  0.77814541108E+02  0.12927901454E+03 -0.53866382530E+03  0.55940012155E+03  0.12699999809E+01 0.  1.
</event>
<event>
 5   0  0.1683148E-01  0.5005798E+03  0.7818609E-02  0.1013628E+00
       -2   -1    0    0    0  501  0.00000000000E+00  0.00000000000E+00  0.17513204371E+03  0.17513204373E+03  0.25500000920E-02 0.  1.
        2   -1    0    0  501    0  0.00000000000E+00  0.00000000000E+00 -0.35770170807E+03  0.35770170808E+03  0.25500000920E-02 0. -1.
    10030    2    1    2    0    0  0.00000000000E+00  0.00000000000E+00 -0.18256966436E+03  0.53283375181E+03  0.50057978857E+03 0.  0.
        2    1    3    3  502    0 -0.13376159779E+03  0.56050609049E+01  0.13381561188E+03  0.18928866775E+03  0.25500000920E-02 0.  1.
       -2    1    3    3    0  502  0.13376159779E+03 -0.56050609049E+01 -0.31638527624E+03  0.34354508405E+03  0.25500000920E-02 0. -1.
</event>
<event>
 5   0  0.1709372E-01  0.4938886E+03  0.7818609E-02  0.1015386E+00
        2   -1    0    0  501    0  0.00000000000E+00  0.00000000000E+00  0.99526422152E+03  0.99526422152E+03  0.25500000920E-02 0.  1.
       -2   -1    0    0    0  501  0.00000000000E+00  0.00000000000E+00 -0.61271668177E+02  0.61271668231E+02  0.25500000920E-02 0. -1.
    10030    2    1    2    0    0  0.00000000000E+00  0.00000000000E+00  0.93399255334E+03  0.10565358898E+04  0.49388864801E+03 0.  0.
        4    1    3    3  502    0 -0.21011524739E+03 -0.12939840087E+03  0.44698309564E+03  0.51057601199E+03  0.12699999809E+01 0.  1.
       -4    1    3    3    0  502  0.21011524739E+03  0.12939840087E+03  0.48700945770E+03  0.54595987776E+03  0.12699999809E+01 0. -1.
</event>
<event>
 5   0  0.1782124E-01  0.4042407E+03  0.7818609E-02  0.1042321E+00
        2   -1    0    0  501    0  0.00000000000E+00  0.00000000000E+00  0.28469805973E+03  0.28469805974E+03  0.25500000920E-02 0. -1.
       -2   -1    0    0    0  501  0.00000000000E+00  0.00000000000E+00 -0.14349461865E+03  0.14349461867E+03  0.25500000920E-02 0.  1.
    10030    2    1    2    0    0  0.00000000000E+00  0.00000000000E+00  0.14120344108E+03  0.42819267842E+03  0.40424071798E+03 0.  0.
        3    1    3    3  502    0  0.93717235147E+02 -0.17828455100E+03  0.88462854085E+02  0.21998633604E+03  0.10100000352E+00 0.  1.
       -3    1    3    3    0  502 -0.93717235147E+02  0.17828455100E+03  0.52740586994E+02  0.20820634238E+03  0.10100000352E+00 0. -1.
</event>
<event>
 5   0  0.1141970E-01  0.4964098E+03  0.7818609E-02  0.1014720E+00
       -1   -1    0    0    0  501  0.00000000000E+00  0.00000000000E+00  0.99877522836E+02  0.99877522963E+02  0.50400001928E-02 0.  1.
        1   -1    0    0  501    0  0.00000000000E+00  0.00000000000E+00 -0.61681222947E+03  0.61681222949E+03  0.50400001928E-02 0. -1.
    10030    2    1    2    0    0  0.00000000000E+00  0.00000000000E+00 -0.51693470664E+03  0.71668975245E+03  0.49640982096E+03 0.  0.
        3    1    3    3  502    0 -0.11830208935E+03  0.45272425988E+02  0.49699538774E+02  0.13606994986E+03  0.10100000352E+00 0.  1.
       -3    1    3    3    0  502  0.11830208935E+03 -0.45272425988E+02 -0.56663424541E+03  0.58061980260E+03  0.10100000352E+00 0. -1.
</event>
<event>
 5   0  0.1782124E-01  0.4954472E+03  0.7818609E-02  0.1014974E+00
        2   -1    0    0  501    0  0.00000000000E+00  0.00000000000E+00  0.71853753129E+03  0.71853753130E+03  0.25500000920E-02 0. -1.
       -2   -1    0    0    0  501  0.00000000000E+00  0.00000000000E+00 -0.85405399686E+02  0.85405399724E+02  0.25500000920E-02 0.  1.
    10030    2    1    2    0    0  0.00000000000E+00  0.00000000000E+00  0.63313213161E+03  0.80394293102E+03  0.49544721239E+03 0.  0.
        3    1    3    3  502    0 -0.12739297478E+03  0.12613357825E+03  0.59398097488E+03  0.62044504858E+03  0.10100000352E+00 0. -1.
       -3    1    3    3    0  502  0.12739297478E+03 -0.12613357825E+03  0.39151156722E+02  0.18349788244E+03  0.10100000352E+00 0.  1.
</event>
<event>
 5   0  0.7220250E-02  0.4982712E+03  0.7818609E-02  0.1014231E+00
       -3   -1    0    0    0  501  0.00000000000E+00  0.00000000000E+00  0.61492518333E+03  0.61492519163E+03  0.10100000352E+00 0. -1.
        3   -1    0    0  501    0  0.00000000000E+00  0.00000000000E+00 -0.10093672803E+03  0.10093677856E+03  0.10100000352E+00 0.  1.
    10030    2    1    2    0    0  0.00000000000E+00  0.00000000000E+00  0.51398845531E+03  0.71586197019E+03  0.49827123955E+03 0.  0.
        4    1    3    3  502    0  0.77923743398E+02 -0.21561569805E+03  0.11692820556E+03  0.25736366718E+03  0.12699999809E+01 0.  1.
       -4    1    3    3    0  502 -0.77923743398E+02  0.21561569805E+03  0.39706024974E+03  0.45849830300E+03  0.12699999809E+01 0. -1.
</event>
<event>
 5   0  0.7220250E-02  0.4961180E+03  0.7818609E-02  0.1014797E+00
        3   -1    0    0  501    0  0.00000000000E+00  0.00000000000E+00  0.33554341735E+02  0.33554493742E+02  0.10100000352E+00 0. -1.
       -3   -1    0    0    0  501  0.00000000000E+00  0.00000000000E+00 -0.18338350321E+04  0.18338350349E+04  0.10100000352E+00 0.  1.
    10030    2    1    2    0    0  0.00000000000E+00  0.00000000000E+00 -0.18002806903E+04  0.18673895286E+04  0.49611801772E+03 0.  0.
        5    1    3    3  502    0  0.21689455197E+03  0.11863101076E+03 -0.82536840750E+03  0.86160992420E+03  0.46999998093E+01 0. -1.
       -5    1    3    3    0  502 -0.21689455197E+03 -0.11863101076E+03 -0.97491228284E+03  0.10057796044E+04  0.46999998093E+01 0.  1.
</event>
<event>
 5   0  0.1683148E-01  0.4712592E+03  0.7818609E-02  0.1021565E+00
       -2   -1    0    0    0  501  0.00000000000E+00  0.00000000000E+00  0.25296058215E+02  0.25296058343E+02  0.25500000920E-02 0.  1.
        2   -1    0    0  501    0  0.00000000000E+00  0.00000000000E+00 -0.21948599035E+04  0.21948599035E+04  0.25500000920E-02 0. -1.
    10030    2    1    2    0    0  0.00000000000E+00  0.00000000000E+00 -0.21695638453E+04  0.22201559618E+04  0.47125918150E+03 0.  0.
        2    1    3    3  502    0 -0.12292045459E+03  0.13802784665E+02 -0.13995561857E+03  0.18678203927E+03  0.25500000920E-02 0.  1.
       -2    1    3    3    0  502  0.12292045459E+03 -0.13802784665E+02 -0.20296082267E+04  0.20333739226E+04  0.25500000920E-02 0. -1.
</event>
<event>
 5   0  0.1141970E-01  0.4932503E+03  0.7818609E-02  0.1015556E+00
        1   -1    0    0  501    0  0.00000000000E+00  0.00000000000E+00  0.98338365710E+02  0.98338365839E+02  0.50400001928E-02 0.  1.
       -1   -1    0    0    0  501  0.00000000000E+00  0.00000000000E+00 -0.61851709524E+03  0.61851709526E+03  0.50400001928E-02 0. -1.
    10030    2    1    2    0    0  0.00000000000E+00  0.00000000000E+00 -0.52017872953E+03  0.71685546110E+03  0.49325028277E+03 0.  0.
        3    1    3    3  502    0 -0.12065859323E+03 -0.13203170072E+03 -0.13309453258E+02  0.17935444757E+03  0.10100000352E+00 0.  1.
       -3    1    3    3    0  502  0.12065859323E+03  0.13203170072E+03 -0.50686927627E+03  0.53750101353E+03  0.10100000352E+00 0. -1.
</event>
<event>
 5   0  0.1760649E-01  0.4777044E+03  0.7818609E-02  0.1019768E+00
       -2   -1    0    0    0  501  0.00000000000E+00  0.00000000000E+00  0.14041687590E+03  0.14041687592E+03  0.25500000920E-02 0. -1.
        2   -1    0    0  501    0  0.00000000000E+00  0.00000000000E+00 -0.40629282013E+03  0.40629282014E+03  0.25500000920E-02 0.  1.
    10030    2    1    2    0    0  0.00000000000E+00  0.00000000000E+00 -0.26587594423E+03  0.54670969606E+03  0.47770437935E+03 0.  0.
        5    1    3    3  502    0 -0.22656409081E+03  0.22509705669E+02 -0.50487343913E+02  0.23325744573E+03  0.46999998093E+01 0. -1.
       -5    1    3    3    0  502  0.22656409081E+03 -0.22509705669E+02 -0.21538860032E+03  0.31345225034E+03  0.46999998093E+01 0.  1.
</event>
<event>
 5   0  0.1123271E-01  0.5039655E+03  0.7818609E-02  0.1012749E+00
       -1   -1    0    0    0  501  0.00000000000E+00  0.00000000000E+00  0.57446389707E+02  0.57446389928E+02  0.50400001928E-02 0. -1.
        1   -1    0    0  501    0  0.00000000000E+00  0.00000000000E+00 -0.11052966502E+04  0.11052966502E+04  0.50400001928E-02 0.  1.
    10030    2    1    2    0    0  0.00000000000E+00  0.00000000000E+00 -0.10478502605E+04  0.11627430401E+04  0.50396548391E+03 0.  0.
        5    1    3    3  502    0 -0.22728006492E+02  0.64691354809E+02  0.35403439340E+02  0.77311235803E+02  0.46999998093E+01 0. -1.
       -5    1    3    3    0  502  0.22728006492E+02 -0.64691354809E+02 -0.10832536998E+04  0.10854318043E+04  0.46999998093E+01 0.  1.
</event>
<event>
 5   0  0.1760649E-01  0.5019265E+03  0.7818609E-02  0.1013277E+00
       -2   -1    0    0    0  501  0.00000000000E+00  0.00000000000E+00  0.16957567290E+03  0.16957567292E+03  0.25500000920E-02 0. -1.
        2   -1    0    0  501    0  0.00000000000E+00  0.00000000000E+00 -0.37141264148E+03  0.37141264149E+03  0.25500000920E-02 0.  1.
    10030    2    1    2    0    0  0.00000000000E+00  0.00000000000E+00 -0.20183696858E+03  0.54098831441E+03  0.50192648310E+03 0.  0.
        5    1    3    3  502    0  0.40209467166E+02  0.18489712731E+03  0.76699259063E+02  0.20422687207E+03  0.46999998093E+01 0. -1.
       -5    1    3    3    0  502 -0.40209467166E+02 -0.18489712731E+03 -0.27853622765E+03  0.33676144234E+03  0.46999998093E+01 0.  1.
</event>
<event>
 5   0  0.1827698E-01  0.5033521E+03  0.7818609E-02  0.1012908E+00
        2   -1    0    0  501    0  0.00000000000E+00  0.00000000000E+00  0.49807441125E+03  0.49807441126E+03  0.25500000920E-02 0.  1.
       -2   -1    0    0    0  501  0.00000000000E+00  0.00000000000E+00 -0.12717142852E+03  0.12717142855E+03  0.25500000920E-02 0. -1.
    10030    2    1    2    0    0  0.00000000000E+00  0.00000000000E+00  0.37090298273E+03  0.62524583981E+03  0.50335210101E+03 0.  0.
        1    1    3    3  502    0 -0.35823137256E+02 -0.57550241367E+02 -0.11561765620E+03  0.13402525842E+03  0.50400001928E-02 0. -1.
       -1    1    3    3    0  502  0.35823137256E+02  0.57550241367E+02  0.48652063893E+03  0.49122058139E+03  0.50400001928E-02 0.  1.
</event>
<event>
 5   0  0.1709372E-01  0.4933669E+03  0.7818609E-02  0.1015525E+00
        2   -1    0    0  501    0  0.00000000000E+00  0.00000000000E+00  0.14242911953E+04  0.14242911953E+04  0.25500000920E-02 0. -1.
       -2   -1    0    0    0  501  0.00000000000E+00  0.00000000000E+00 -0.42724921498E+02  0.42724921574E+02  0.25500000920E-02 0.  1.
    10030    2    1    2    0    0  0.00000000000E+00  0.00000000000E+00  0.13815662738E+04  0.14670161169E+04  0.49336692053E+03 0.  0.
        4    1    3    3  502    0  0.65193384530E+02  0.11265210599E+03  0.67696031794E+02  0.14671414380E+03  0.12699999809E+01 0.  1.
       -4    1    3    3    0  502 -0.65193384530E+02 -0.11265210599E+03  0.13138702420E+04  0.13203019731E+04  0.12699999809E+01 0. -1.
</event>
<event>
 5   0  0.1141970E-01  0.5009345E+03  0.7818609E-02  0.1013535E+00
       -1   -1    0    0    0  501  0.00000000000E+00  0.00000000000E+00  0.39933053601E+03  0.39933053604E+03  0.50400001928E-02 0.  1.
        1   -1    0    0  501    0  0.00000000000E+00  0.00000000000E+00 -0.15709755479E+03  0.15709755487E+03  0.50400001928E-02 0. -1.
    10030    2    1    2    0    0  0.00000000000E+00  0.00000000000E+00  0.24223298122E+03  0.55642809091E+03  0.50093452981E+03 0.  0.
        3    1    3    3  502    0 -0.76620966799E+02  0.23034385765E+03  0.18963258256E+03  0.30804154246E+03  0.10100000352E+00 0. -1.
       -3    1    3    3    0  502  0.76620966799E+02 -0.23034385765E+03  0.52600398662E+02  0.24838654845E+03  0.10100000352E+00 0.  1.
</event>
<event>
 5   0  0.1074281E-01  0.4943790E+03  0.7818609E-02  0.1015257E+00
       -1   -1    0    0    0  501  0.00000000000E+00  0.00000000000E+00  0.31730055164E+02  0.31730055564E+02  0.50400001928E-02 0.  1.
        1   -1    0    0  501    0  0.00000000000E+00  0.00000000000E+00 -0.19257024337E+04  0.19257024337E+04  0.50400001928E-02 0. -1.
    10030    2    1    2    0    0  0.00000000000E+00  0.00000000000E+00 -0.18939723785E+04  0.19574324893E+04  0.49437898357E+03 0.  0.
        4    1    3    3  502    0  0.20018140286E+03 -0.13174913173E+03 -0.70710534432E+03  0.74661235499E+03  0.12699999809E+01 0.  1.
       -4    1    3    3    0  502 -0.20018140286E+03  0.13174913173E+03 -0.11868670342E+04  0.12108201343E+04  0.12699999809E+01 0. -1.
</event>
<event>
 5   0  0.1827698E-01  0.4930302E+03  0.7818609E-02  0.1015614E+00
        2   -1    0    0  501    0  0.00000000000E+00  0.00000000000E+00  0.79532293746E+03  0.79532293747E+03  0.25500000920E-02 0. -1.
       -2   -1    0    0    0  501  0.00000000000E+00  0.00000000000E+00 -0.76408836130E+02  0.76408836172E+02  0.25500000920E-02 0.  1.
    10030    2    1    2    0    0  0.00000000000E+00  0.00000000000E+00  0.71891410133E+03  0.87173177364E+03  0.49303022228E+03 0.  0.
        1    1    3    3  502    0  0.29988026277E+02  0.11896273622E+02  0.79157427831E+03  0.79223143156E+03  0.50400001928E-02 0. -1.
       -1    1    3    3    0  502 -0.29988026277E+02 -0.11896273622E+02 -0.72660176979E+02  0.79500342076E+02  0.50400001928E-02 0.  1.
</event>
<event>
 5   0  0.1074281E-01  0.5040749E+03  0.7818609E-02  0.1012721E+00
       -1   -1    0    0    0  501  0.00000000000E+00  0.00000000000E+00  0.19546215745E+03  0.19546215752E+03  0.50400001928E-02 0.  1.
        1   -1    0    0  501    0  0.00000000000E+00  0.00000000000E+00 -0.32498810351E+03  0.32498810355E+03  0.50400001928E-02 0. -1.
    10030    2    1    2    0    0  0.00000000000E+00  0.00000000000E+00 -0.12952594605E+03  0.52045026106E+03  0.50407489874E+03 0.  0.
        4    1    3    3  502    0 -0.10005666756E+03 -0.21566643156E+03 -0.15113409061E+03  0.28172055777E+03  0.12699999809E+01 0. -1.
       -4    1    3    3    0  502  0.10005666756E+03  0.21566643156E+03  0.21608144554E+02  0.23872970330E+03  0.12699999809E+01 0.  1.
</event>
<event>
 5   0  0.1709372E-01  0.5195705E+03  0.7818609E-02  0.1008793E+00
        2   -1    0    0  501    0  0.00000000000E+00  0.00000000000E+00  0.85333761495E+02  0.85333761533E+02  0.25500000920E-02 0. -1.
       -2   -1    0    0    0  501  0.00000000000E+00  0.00000000000E+00 -0.79087533311E+03  0.79087533312E+03  0.25500000920E-02 0.  1.
    10030    2    1    2    0    0  0.00000000000E+00  0.00000000000E+00 -0.70554157162E+03  0.87620909465E+03  0.51957046516E+03 0.  0.
        4    1    3    3  502    0 -0.15803292804E+03  0.20361097062E+03 -0.40754462218E+03  0.48220956613E+03  0.12699999809E+01 0. -1.
       -4    1    3    3    0  502  0.15803292804E+03 -0.20361097062E+03 -0.29799694944E+03  0.39399952852E+03  0.12699999809E+01 0.  1.
</event>
<event>
 5   0  0.1760649E-01  0.4997131E+03  0.7818609E-02  0.1013854E+00
       -2   -1    0    0    0  501  0.00000000000E+00  0.00000000000E+00  0.22337099440E+03  0.22337099442E+03  0.25500000920E-02 0. -1.
        2   -1    0    0  501    0  0.00000000000E+00  0.00000000000E+00 -0.27948250009E+03  0.27948250010E+03  0.25500000920E-02 0.  1.
    10030    2    1    2    0    0  0.00000000000E+00  0.00000000000E+00 -0.56111505687E+02  0.50285349452E+03  0.49971305354E+03 0.  0.
        5    1    3    3  502    0  0.19417647410E+03 -0.11246762479E+03  0.82419089028E+02  0.23909928054E+03  0.46999998093E+01 0. -1.
       -5    1    3    3    0  502 -0.19417647410E+03  0.11246762479E+03 -0.13853059471E+03  0.26375421398E+03  0.46999998093E+01 0.  1.
</event>
<event>
 5   0  0.1760649E-01  0.5092056E+03  0.7818609E-02  0.1011404E+00
       -2   -1    0    0    0  501  0.00000000000E+00  0.00000000000E+00  0.80006562722E+02  0.80006562762E+02  0.25500000920E-02 0.  1.
        2   -1    0    0  501    0  0.00000000000E+00  0.00000000000E+00 -0.81021596899E+03  0.81021596900E+03  0.25500000920E-02 0. -1.
    10030    2    1    2    0    0  0.00000000000E+00  0.00000000000E+00 -0.73020940627E+03  0.89022253176E+03  0.50920563532E+03 0.  0.
        5    1    3    3  502    0 -0.95197324544E+02 -0.81489039654E+02  0.22273443580E+02  0.12736243744E+03  0.46999998093E+01 0.  1.
       -5    1    3    3    0  502  0.95197324544E+02  0.81489039654E+02 -0.75248284985E+03  0.76286009432E+03  0.46999998093E+01 0. -1.
</event>
<event>
 5   0  0.1068522E-01  0.4785492E+03  0.7818609E-02  0.1019535E+00
        1   -1    0    0  501    0  0.00000000000E+00  0.00000000000E+00  0.64688192089E+03  0.64688192091E+03  0.50400001928E-02 0. -1.
       -1   -1    0    0    0  501  0.00000000000E+00  0.00000000000E+00 -0.88505093457E+02  0.88505093601E+02  0.50400001928E-02 0.  1.
    10030    2    1    2    0    0  0.00000000000E+00  0.00000000000E+00  0.55837682744E+03  0.73538701452E+03  0.47854924480E+03 0.  0.
        2    1    3    3  502    0  0.23219543471E+03 -0.53384495696E+02  0.24525130121E+03  0.34192517461E+03  0.25500000920E-02 0.  1.
       -2    1    3    3    0  502 -0.23219543471E+03  0.53384495696E+02  0.31312552623E+03  0.39346183991E+03  0.25500000920E-02 0. -1.
</event>
<event>
 5   0  0.1068522E-01  0.5009009E+03  0.7818609E-02  0.1013544E+00
       -1   -1    0    0    0  501  0.00000000000E+00  0.00000000000E+00  0.12768953643E+03  0.12768953653E+03  0.50400001928E-02 0. -1.
        1   -1    0    0  501    0  0.00000000000E+00  0.00000000000E+00 -0.49123386456E+03  0.49123386459E+03  0.50400001928E-02 0.  1.
    10030    2    1    2    0    0  0.00000000000E+00  0.00000000000E+00 -0.36354432813E+03  0.61892340112E+03  0.50090088634E+03 0.  0.
        2    1    3    3  502    0 -0.16679202183E+03  0.16970709795E+03 -0.85224832823E+02  0.25275155742E+03  0.25500000920E-02 0. -1.
       -2    1    3    3    0  502  0.16679202183E+03 -0.16970709795E+03 -0.27831949531E+03  0.36617184370E+03  0.25500000920E-02 0.  1.
</event>
<event>
 5   0  0.7220250E-02  0.4950131E+03  0.7818609E-02  0.1015089E+00
       -3   -1    0    0    0  501  0.00000000000E+00  0.00000000000E+00  0.47986672730E+03  0.47986673793E+03  0.10100000352E+00 0.  1.
        3   -1    0    0  501    0  0.00000000000E+00  0.00000000000E+00 -0.12765936861E+03  0.12765940856E+03  0.10100000352E+00 0. -1.
    10030    2    1    2    0    0  0.00000000000E+00  0.00000000000E+00  0.35220735869E+03  0.60752614649E+03  0.49501312624E+03 0.  0.
        2    1    3    3  502    0 -0.24719141819E+03 -0.38953821025E+01  0.19066288992E+03  0.31220363359E+03  0.25500000920E-02 0. -1.
       -2    1    3    3    0  502  0.24719141819E+03  0.38953821025E+01  0.16154446877E+03  0.29532251290E+03  0.25500000920E-02 0.  1.
</event>
<event>
 5   0  0.1147245E-01  0.5037374E+03  0.7818609E-02  0.1012808E+00
        1   -1    0    0  501    0  0.00000000000E+00  0.00000000000E+00  0.21983504540E+03  0.21983504546E+03  0.50400001928E-02 0.  1.
       -1   -1    0    0    0  501  0.00000000000E+00  0.00000000000E+00 -0.28857024436E+03  0.28857024441E+03  0.50400001928E-02 0. -1.
    10030    2    1    2    0    0  0.00000000000E+00  0.00000000000E+00 -0.68735198960E+02  0.50840528987E+03  0.50373744271E+03 0.  0.
        1    1    3    3  502    0 -0.10961543742E+03 -0.17925725770E+03 -0.17453993439E+03  0.27315361480E+03  0.50400001928E-02 0. -1.
       -1    1    3    3    0  502  0.10961543742E+03  0.17925725770E+03  0.10580473543E+03  0.23525167507E+03  0.50400001928E-02 0.  1.
</event>
<event>
 5   0  0.1760649E-01  0.4995531E+03  0.7818609E-02  0.1013896E+00
        2   -1    0    0  501    0  0.00000000000E+00  0.00000000000E+00  0.60706290426E+02  0.60706290480E+02  0.25500000920E-02 0.  1.
       -2   -1    0    0    0  501  0.00000000000E+00  0.00000000000E+00 -0.10277075930E+04  0.10277075930E+04  0.25500000920E-02 0. -1.
    10030    2    1    2    0    0  0.00000000000E+00  0.00000000000E+00 -0.96700130257E+03  0.10884138835E+04  0.49955306282E+03 0.  0.
        5    1    3    3  502    0 -0.67444453048E+02 -0.95076094456E+02 -0.96469938480E+03  0.97172795113E+03  0.46999998093E+01 0. -1.
       -5    1    3    3    0  502  0.67444453048E+02  0.95076094456E+02 -0.23019177726E+01  0.11668593235E+03  0.46999998093E+01 0.  1.
</event>
<event>
 5   0  0.1709372E-01  0.5259334E+03  0.7818609E-02  0.1007223E+00
        2   -1    0    0  501    0  0.00000000000E+00  0.00000000000E+00  0.73356458904E+02  0.73356458948E+02  0.25500000920E-02 0. -1.
       -2   -1    0    0    0  501  0.00000000000E+00  0.00000000000E+00 -0.94267767316E+03  0.94267767316E+03  0.25500000920E-02 0.  1.
    10030    2    1    2    0    0  0.00000000000E+00  0.00000000000E+00 -0.86932121425E+03  0.10160341321E+04  0.52593344071E+03 0.  0.
        4    1    3    3  502    0  0.16392157910E+02  0.26165974155E+03 -0.47403281862E+03  0.54170402363E+03  0.12699999809E+01 0.  1.
       -4    1    3    3    0  502 -0.16392157910E+02 -0.26165974155E+03 -0.39528839563E+03  0.47433010848E+03  0.12699999809E+01 0. -1.
</event>
<event>
 5   0  0.1827698E-01  0.4984543E+03  0.7818609E-02  0.1014183E+00
        2   -1    0    0  501    0  0.00000000000E+00  0.00000000000E+00  0.61074565642E+03  0.61074565642E+03  0.25500000920E-02 0.  1.
       -2   -1    0    0    0  501  0.00000000000E+00  0.00000000000E+00 -0.10170220880E+03  0.10170220883E+03  0.25500000920E-02 0. -1.
    10030    2    1    2    0    0  0.00000000000E+00  0.00000000000E+00  0.50904344762E+03  0.71244786526E+03  0.49845434009E+03 0.  0.
        1    1    3    3  502    0  0.11719305686E+03 -0.30271707023E+02  0.56591412855E+03  0.57871356450E+03  0.50400001928E-02 0.  1.
       -1    1    3    3    0  502 -0.11719305686E+03  0.30271707023E+02 -0.56870680934E+02  0.13373430075E+03  0.50400001928E-02 0. -1.
</event>
<event>
 5   0  0.1827698E-01  0.4910885E+03  0.7818609E-02  0.1016131E+00
       -2   -1    0    0    0  501  0.00000000000E+00  0.00000000000E+00  0.54737378919E+02  0.54737378979E+02  0.25500000920E-02 0. -1.
        2   -1    0    0  501    0  0.00000000000E+00  0.00000000000E+00 -0.11014773330E+04  0.11014773330E+04  0.25500000920E-02 0.  1.
    10030    2    1    2    0    0  0.00000000000E+00  0.00000000000E+00 -0.10467399540E+04  0.11562147119E+04  0.49108851414E+03 0.  0.
        1    1    3    3  502    0  0.25708175657E+02  0.12756942193E+03 -0.10136101534E+04  0.10219297484E+04  0.50400001928E-02 0.  1.
       -1    1    3    3    0  502 -0.25708175657E+02 -0.12756942193E+03 -0.33129800687E+02  0.13428496352E+03  0.50400001928E-02 0. -1.
</event>
<event>
 5   0  0.1068522E-01  0.4980087E+03  0.7818609E-02  0.1014300E+00
        1   -1    0    0  501    0  0.00000000000E+00  0.00000000000E+00  0.87995313313E+02  0.87995313457E+02  0.50400001928E-02 0.  1.
       -1   -1    0    0    0  501  0.00000000000E+00  0.00000000000E+00 -0.70461885379E+03  0.70461885380E+03  0.50400001928E-02 0. -1.
    10030    2    1    2    0    0  0.00000000000E+00  0.00000000000E+00 -0.61662354047E+03  0.79261416726E+03  0.49800866205E+03 0.  0.
        2    1    3    3  502    0  0.11396139343E+03 -0.62712337340E+02 -0.64624579286E+03  0.65920684254E+03  0.25500000920E-02 0. -1.
       -2    1    3    3    0  502 -0.11396139343E+03  0.62712337340E+02  0.29622252390E+02  0.13340732472E+03  0.25500000920E-02 0.  1.
</event>
<event>
 5   0  0.1123271E-01  0.5000274E+03  0.7818609E-02  0.1013772E+00
        1   -1    0    0  501    0  0.00000000000E+00  0.00000000000E+00  0.12914902754E+04  0.12914902754E+04  0.50400001928E-02 0. -1.
       -1   -1    0    0    0  501  0.00000000000E+00  0.00000000000E+00 -0.48399010646E+02  0.48399010908E+02  0.50400001928E-02 0.  1.
    10030    2    1    2    0    0  0.00000000000E+00  0.00000000000E+00  0.12430912648E+04  0.13398892863E+04  0.50002740633E+03 0.  0.
        5    1    3    3  502    0  0.56720962196E+02 -0.12162781718E+03  0.56440796663E+02  0.14566484473E+03  0.46999998093E+01 0.  1.
       -5    1    3    3    0  502 -0.56720962196E+02  0.12162781718E+03  0.11866504681E+04  0.11942244416E+04  0.46999998093E+01 0. -1.
</event>
<event>
 5   0  0.1760649E-01  0.5098491E+03  0.7818609E-02  0.1011240E+00
       -2   -1    0    0    0  501  0.00000000000E+00  0.00000000000E+00  0.30425346560E+03  0.30425346561E+03  0.25500000920E-02 0.  1.
        2   -1    0    0  501    0  0.00000000000E+00  0.00000000000E+00 -0.21359334312E+03  0.21359334313E+03  0.25500000920E-02 0. -1.
    10030    2    1    2    0    0  0.00000000000E+00  0.00000000000E+00  0.90660122488E+02  0.51784680874E+03  0.50984905562E+03 0.  0.
        5    1    3    3  502    0 -0.14444045791E+03  0.20824193420E+03  0.72897593967E+02  0.26374968862E+03  0.46999998093E+01 0. -1.
       -5    1    3    3    0  502  0.14444045791E+03 -0.20824193420E+03  0.17762528522E+02  0.25409712013E+03  0.46999998093E+01 0.  1.
</event>
<event>
 5   0  0.1068522E-01  0.4980923E+03  0.7818609E-02  0.1014278E+00
        1   -1    0    0  501    0  0.00000000000E+00  0.00000000000E+00  0.34465346571E+03  0.34465346575E+03  0.50400001928E-02 0.  1.
       -1   -1    0    0    0  501  0.00000000000E+00  0.00000000000E+00 -0.17996040614E+03  0.17996040622E+03  0.50400001928E-02 0. -1.
    10030    2    1    2    0    0  0.00000000000E+00  0.00000000000E+00  0.16469305957E+03  0.52461387196E+03  0.49809227136E+03 0.  0.
        2    1    3    3  502    0 -0.93735690118E+02  0.11765539236E+03 -0.12670312475E+03  0.19667956879E+03  0.25500000920E-02 0. -1.
       -2    1    3    3    0  502  0.93735690118E+02 -0.11765539236E+03  0.29139618432E+03  0.32793430317E+03  0.25500000920E-02 0.  1.
</event>
<event>
 5   0  0.1683148E-01  0.5161817E+03  0.7818609E-02  0.1009639E+00
       -2   -1    0    0    0  501  0.00000000000E+00  0.00000000000E+00  0.28448532282E+03  0.28448532283E+03  0.25500000920E-02 0.  1.
        2   -1    0    0  501    0  0.00000000000E+00  0.00000000000E+00 -0.23414524286E+03  0.23414524287E+03  0.25500000920E-02 0. -1.
    10030    2    1    2    0    0  0.00000000000E+00  0.00000000000E+00  0.50340079959E+02  0.51863056570E+03  0.51618169284E+03 0.  0.
        2    1    3    3  502    0  0.32708689497E+02  0.20916094649E+03 -0.12315390953E+03  0.24491844631E+03  0.25500000920E-02 0. -1.
       -2    1    3    3    0  502 -0.32708689497E+02 -0.20916094649E+03  0.17349398948E+03  0.27371211939E+03  0.25500000920E-02 0.  1.
</event>
<event>
 5   0  0.1147245E-01  0.4942209E+03  0.7818609E-02  0.1015298E+00
       -1   -1    0    0    0  501  0.00000000000E+00  0.00000000000E+00  0.56890177550E+03  0.56890177552E+03  0.50400001928E-02 0. -1.
        1   -1    0    0  501    0  0.00000000000E+00  0.00000000000E+00 -0.10733586405E+03  0.10733586416E+03  0.50400001928E-02 0.  1.
    10030    2    1    2    0    0  0.00000000000E+00  0.00000000000E+00  0.46156591145E+03  0.67623763969E+03  0.49422085621E+03 0.  0.
        1    1    3    3  502    0  0.15729272018E+03  0.44052528098E+02 -0.22930471303E+02  0.16494675381E+03  0.50400001928E-02 0.  1.
       -1    1    3    3    0  502 -0.15729272018E+03 -0.44052528098E+02  0.48449638276E+03  0.51129088588E+03  0.50400001928E-02 0. -1.
</event>
<event>
 5   0  0.1782124E-01  0.4962181E+03  0.7818609E-02  0.1014771E+00
        2   -1    0    0  501    0  0.00000000000E+00  0.00000000000E+00  0.24769336706E+03  0.24769336708E+03  0.25500000920E-02 0.  1.
       -2   -1    0    0    0  501  0.00000000000E+00  0.00000000000E+00 -0.24852543243E+03  0.24852543245E+03  0.25500000920E-02 0. -1.
    10030    2    1    2    0    0  0.00000000000E+00  0.00000000000E+00 -0.83206536925E+00  0.49621879952E+03  0.49621810191E+03 0.  0.
        3    1    3    3  502    0  0.86087772290E+02  0.17945646698E+03 -0.14854578858E+03  0.24835778543E+03  0.10100000352E+00 0. -1.
       -3    1    3    3    0  502 -0.86087772290E+02 -0.17945646698E+03  0.14771372322E+03  0.24786101409E+03  0.10100000352E+00 0.  1.
</event>
<event>
 5   0  0.1760649E-01  0.4984324E+03  0.7818609E-02  0.1014189E+00
        2   -1    0    0  501    0  0.00000000000E+00  0.00000000000E+00  0.75311057118E+03  0.75311057119E+03  0.25500000920E-02 0. -1.
       -2   -1    0    0    0  501  0.00000000000E+00  0.00000000000E+00 -0.82469595054E+02  0.82469595094E+02  0.25500000920E-02 0.  1.
    10030    2    1    2    0    0  0.00000000000E+00  0.00000000000E+00  0.67064097613E+03  0.83558016628E+03  0.49843243817E+03 0.  0.
        5    1    3    3  502    0 -0.11003313887E+03 -0.37387314466E+02 -0.34182047046E+02  0.12122543162E+03  0.46999998093E+01 0.  1.
       -5    1    3    3    0  502  0.11003313887E+03  0.37387314466E+02  0.70482302318E+03  0.71435473466E+03  0.46999998093E+01 0. -1.
</event>
<event>
 5   0  0.1147245E-01  0.5024653E+03  0.7818609E-02  0.1013137E+00
       -1   -1    0    0    0  501  0.00000000000E+00  0.00000000000E+00  0.45788865816E+02  0.45788866094E+02  0.50400001928E-02 0.  1.
        1   -1    0    0  501    0  0.00000000000E+00  0.00000000000E+00 -0.13784538140E+04  0.13784538141E+04  0.50400001928E-02 0. -1.
    10030    2    1    2    0    0  0.00000000000E+00  0.00000000000E+00 -0.13326649482E+04  0.14242426802E+04  0.50246527016E+03 0.  0.
        1    1    3    3  502    0  0.24834435191E+02 -0.71156014347E+01 -0.13746789762E+04  0.13749216955E+04  0.50400001928E-02 0. -1.
       -1    1    3    3    0  502 -0.24834435191E+02  0.71156014347E+01  0.42014028004E+02  0.49320984677E+02  0.50400001928E-02 0.  1.
</event>
<event>
 5   0  0.1074281E-01  0.5030417E+03  0.7818609E-02  0.1012988E+00
       -1   -1    0    0    0  501  0.00000000000E+00  0.00000000000E+00  0.24955741913E+03  0.24955741918E+03  0.50400001928E-02 0.  1.
        1   -1    0    0  501    0  0.00000000000E+00  0.00000000000E+00 -0.25349971255E+03  0.25349971260E+03  0.50400001928E-02 0. -1.
    10030    2    1    2    0    0  0.00000000000E+00  0.00000000000E+00 -0.39422934240E+01  0.50305713178E+03  0.50304168432E+03 0.  0.
        4    1    3    3  502    0 -0.24282455569E+03 -0.16351178446E+02  0.61513046357E+02  0.25103106113E+03  0.12699999809E+01 0.  1.
       -4    1    3    3    0  502  0.24282455569E+03  0.16351178446E+02 -0.65455339781E+02  0.25202607065E+03  0.12699999809E+01 0. -1.
</event>
<event>
 5   0  0.1123271E-01  0.5004145E+03  0.7818609E-02  0.1013671E+00
       -1   -1    0    0    0  501  0.00000000000E+00  0.00000000000E+00  0.72895636145E+02  0.72895636319E+02  0.50400001928E-02 0.  1.
        1   -1    0    0  501    0  0.00000000000E+00  0.00000000000E+00 -0.85881241784E+03  0.85881241785E+03  0.50400001928E-02 0. -1.
    10030    2    1    2    0    0  0.00000000000E+00  0.00000000000E+00 -0.78591678169E+03  0.93170805417E+03  0.50041453862E+03 0.  0.
        5    1    3    3  502    0 -0.20163389447E+02  0.21279552143E+03 -0.15096444730E+03  0.26172667148E+03  0.46999998093E+01 0. -1.
       -5    1    3    3    0  502  0.20163389447E+02 -0.21279552143E+03 -0.63495233439E+03  0.66998138269E+03  0.46999998093E+01 0.  1.
</event>
<event>
 5   0  0.1123271E-01  0.4862204E+03  0.7818609E-02  0.1017440E+00
        1   -1    0    0  501    0  0.00000000000E+00  0.00000000000E+00  0.28676227910E+03  0.28676227915E+03  0.50400001928E-02 0.  1.
       -1   -1    0    0    0  501  0.00000000000E+00  0.00000000000E+00 -0.20610299255E+03  0.20610299261E+03  0.50400001928E-02 0. -1.
    10030    2    1    2    0    0  0.00000000000E+00  0.00000000000E+00  0.80659286551E+02  0.49286527176E+03  0.48622037761E+03 0.  0.
        5    1    3    3  502    0  0.23692437925E+03 -0.50734972277E+02  0.59914009332E+02  0.24963769228E+03  0.46999998093E+01 0.  1.
       -5    1    3    3    0  502 -0.23692437925E+03  0.50734972277E+02  0.20745277219E+02  0.24322757948E+03  0.46999998093E+01 0. -1.
</event>
<event>
 5   0  0.1760649E-01  0.5103084E+03  0.7818609E-02  0.1011123E+00
        2   -1    0    0  501    0  0.00000000000E+00  0.00000000000E+00  0.12379343876E+04  0.12379343876E+04  0.25500000920E-02 0. -1.
       -2   -1    0    0    0  501  0.00000000000E+00  0.00000000000E+00 -0.52590564398E+02  0.52590564460E+02  0.25500000920E-02 0.  1.
    10030    2    1    2    0    0  0.00000000000E+00  0.00000000000E+00  0.11853438232E+04  0.12905249520E+04  0.51030840938E+03 0.  0.
        5    1    3    3  502    0  0.17130782690E+03  0.64114608996E+02  0.10423955093E+04  0.10583324347E+04  0.46999998093E+01 0. -1.
       -5    1    3    3    0  502 -0.17130782690E+03 -0.64114608996E+02  0.14294831388E+03  0.23219251729E+03  0.46999998093E+01 0.  1.
</event>
<event>
 5   0  0.1760649E-01  0.4075357E+03  0.7818609E-02  0.1041201E+00
       -2   -1    0    0    0  501  0.00000000000E+00  0.00000000000E+00  0.44318488765E+02  0.44318488839E+02  0.25500000920E-02 0.  1.
        2   -1    0    0  501    0  0.00000000000E+00  0.00000000000E+00 -0.93688526988E+03  0.93688526989E+03  0.25500000920E-02 0. -1.
    10030    2    1    2    0    0  0.00000000000E+00  0.00000000000E+00 -0.89256678112E+03  0.98120375872E+03  0.40753571301E+03 0.  0.
        5    1    3    3  502    0 -0.95095544098E+02 -0.15291934213E+03 -0.21696475665E+03  0.28199872931E+03  0.46999998093E+01 0.  1.
       -5    1    3    3    0  502  0.95095544098E+02  0.15291934213E+03 -0.67560202446E+03  0.69920502942E+03  0.46999998093E+01 0. -1.
</event>
<event>
 5   0  0.1782124E-01  0.4909076E+03  0.7818609E-02  0.1016180E+00
       -2   -1    0    0    0  501  0.00000000000E+00  0.00000000000E+00  0.10026664680E+03  0.10026664683E+03  0.25500000920E-02 0. -1.
        2   -1    0    0  501    0  0.00000000000E+00  0.00000000000E+00 -0.60087347867E+03  0.60087347867E+03  0.25500000920E-02 0.  1.
    10030    2    1    2    0    0  0.00000000000E+00  0.00000000000E+00 -0.50060683187E+03  0.70114012551E+03  0.49090760382E+03 0.  0.
        3    1    3    3  502    0  0.18400254148E+03 -0.12946154849E+03 -0.39046392527E+03  0.45064322357E+03  0.10100000352E+00 0.  1.
       -3    1    3    3    0  502 -0.18400254148E+03  0.12946154849E+03 -0.11014290660E+03  0.25049690194E+03  0.10100000352E+00 0. -1.
</event>
<event>
 5   0  0.1760649E-01  0.4031081E+03  0.7818609E-02  0.1042709E+00
       -2   -1    0    0    0  501  0.00000000000E+00  0.00000000000E+00  0.70169985284E+02  0.70169985330E+02  0.25500000920E-02 0.  1.
        2   -1    0    0  501    0  0.00000000000E+00  0.00000000000E+00 -0.57893744696E+03  0.57893744696E+03  0.25500000920E-02 0. -1.
    10030    2    1    2    0    0  0.00000000000E+00  0.00000000000E+00 -0.50876746167E+03  0.64910743229E+03  0.40310808551E+03 0.  0.
        5    1    3    3  502    0 -0.87199733355E+02  0.11468076138E+03 -0.48123265624E+03  0.50235687510E+03  0.46999998093E+01 0. -1.
       -5    1    3    3    0  502  0.87199733355E+02 -0.11468076138E+03 -0.27534805432E+02  0.14675055719E+03  0.46999998093E+01 0.  1.
</event>
<event>
 5   0  0.1068522E-01  0.4996159E+03  0.7818609E-02  0.1013879E+00
       -1   -1    0    0    0  501  0.00000000000E+00  0.00000000000E+00  0.21005674860E+03  0.21005674866E+03  0.50400001928E-02 0.  1.
        1   -1    0    0  501    0  0.00000000000E+00  0.00000000000E+00 -0.29708162474E+03  0.29708162478E+03  0.50400001928E-02 0. -1.
    10030    2    1    2    0    0  0.00000000000E+00  0.00000000000E+00 -0.87024876134E+02  0.50713837344E+03  0.49961585318E+03 0.  0.
        2    1    3    3  502    0  0.56201313690E+02  0.56214188514E+00 -0.29058042042E+03  0.29596601900E+03  0.25500000920E-02 0. -1.
       -2    1    3    3    0  502 -0.56201313690E+02 -0.56214188514E+00  0.20355554429E+03  0.21117235444E+03  0.25500000920E-02 0.  1.
</event>
<event>
 5   0  0.1782124E-01  0.5026237E+03  0.7818609E-02  0.1013096E+00
        2   -1    0    0  501    0  0.00000000000E+00  0.00000000000E+00  0.38483735677E+03  0.38483735678E+03  0.25500000920E-02 0. -1.
       -2   -1    0    0    0  501  0.00000000000E+00  0.00000000000E+00 -0.16411515594E+03  0.16411515596E+03  0.25500000920E-02 0.  1.
    10030    2    1    2    0    0  0.00000000000E+00  0.00000000000E+00  0.22072220083E+03  0.54895251274E+03  0.50262368757E+03 0.  0.
        3    1    3    3  502    0 -0.12947452490E+03 -0.44012580387E+02  0.34064378318E+03  0.36706805507E+03  0.10100000352E+00 0. -1.
       -3    1    3    3    0  502  0.12947452490E+03  0.44012580387E+02 -0.11992158235E+03  0.18188445767E+03  0.10100000352E+00 0.  1.
</event>
<event>
 5   0  0.1683148E-01  0.4992761E+03  0.7818609E-02  0.1013968E+00
        2   -1    0    0  501    0  0.00000000000E+00  0.00000000000E+00  0.38076347376E+03  0.38076347377E+03  0.25500000920E-02 0. -1.
       -2   -1    0    0    0  501  0.00000000000E+00  0.00000000000E+00 -0.16366893318E+03  0.16366893320E+03  0.25500000920E-02 0.  1.
    10030    2    1    2    0    0  0.00000000000E+00  0.00000000000E+00  0.21709454057E+03  0.54443240697E+03  0.49927608215E+03 0.  0.
        2    1    3    3  502    0  0.17166299600E+03  0.18118817649E+03  0.11364000952E+03  0.27424695307E+03  0.25500000920E-02 0. -1.
       -2    1    3    3    0  502 -0.17166299600E+03 -0.18118817649E+03  0.10345453105E+03  0.27018545390E+03  0.25500000920E-02 0.  1.
</event>
<event>
 5   0  0.1782124E-01  0.4082303E+03  0.7818609E-02  0.1040967E+00
        2   -1    0    0  501    0  0.00000000000E+00  0.00000000000E+00  0.14360387483E+04  0.14360387483E+04  0.25500000920E-02 0.  1.
       -2   -1    0    0    0  501  0.00000000000E+00  0.00000000000E+00 -0.29012442956E+02  0.29012443068E+02  0.25500000920E-02 0. -1.
    10030    2    1    2    0    0  0.00000000000E+00  0.00000000000E+00  0.14070263054E+04  0.14650511914E+04  0.40823028968E+03 0.  0.
        3    1    3    3  502    0 -0.20007980260E+03  0.38096152983E+02  0.65539960597E+03  0.68631763637E+03  0.10100000352E+00 0. -1.
       -3    1    3    3    0  502  0.20007980260E+03 -0.38096152983E+02  0.75162669940E+03  0.77873355503E+03  0.10100000352E+00 0.  1.
</event>
<event>
 5   0  0.7220250E-02  0.5016712E+03  0.7818609E-02  0.1013344E+00
       -4   -1    0    0    0  501  0.00000000000E+00  0.00000000000E+00  0.21704795709E+03  0.21705167259E+03  0.12699999809E+01 0.  1.
        4   -1    0    0  501    0  0.00000000000E+00  0.00000000000E+00 -0.28987538895E+03  0.28987817099E+03  0.12699999809E+01 0. -1.
    10030    2    1    2    0    0  0.00000000000E+00  0.00000000000E+00 -0.72827431862E+02  0.50692984359E+03  0.50167123845E+03 0.  0.
        1    1    3    3  502    0  0.12758551904E+03 -0.17155509185E+03  0.96145576993E+02  0.23442095941E+03  0.50400001928E-02 0.  1.
       -1    1    3    3    0  502 -0.12758551904E+03  0.17155509185E+03 -0.16897300885E+03  0.27250888418E+03  0.50400001928E-02 0. -1.
</event>
<event>
 5   0  0.1683148E-01  0.4862504E+03  0.7818609E-02  0.1017431E+00
       -2   -1    0    0    0  501  0.00000000000E+00  0.00000000000E+00  0.19690621832E+03  0.19690621833E+03  0.25500000920E-02 0. -1.
        2   -1    0    0  501    0  0.00000000000E+00  0.00000000000E+00 -0.30019298214E+03  0.30019298216E+03  0.25500000920E-02 0.  1.
    10030    2    1    2    0    0  0.00000000000E+00  0.00000000000E+00 -0.10328676383E+03  0.49709920049E+03  0.48625040827E+03 0.  0.
        2    1    3    3  502    0  0.27110732464E+02 -0.23987350324E+03 -0.81194637404E+02  0.25468972991E+03  0.25500000920E-02 0.  1.
       -2    1    3    3    0  502 -0.27110732464E+02  0.23987350324E+03 -0.22092126424E+02  0.24240947058E+03  0.25500000920E-02 0. -1.
</event>
<event>
 5   0  0.1068522E-01  0.5056952E+03  0.7818609E-02  0.1012303E+00
       -1   -1    0    0    0  501  0.00000000000E+00  0.00000000000E+00  0.56001789625E+02  0.56001789852E+02  0.50400001928E-02 0.  1.
        1   -1    0    0  501    0  0.00000000000E+00  0.00000000000E+00 -0.11416049342E+04  0.11416049342E+04  0.50400001928E-02 0. -1.
    10030    2    1    2    0    0  0.00000000000E+00  0.00000000000E+00 -0.10856031446E+04  0.11976067241E+04  0.50569524223E+03 0.  0.
        2    1    3    3  502    0  0.63308353930E+02 -0.89905486550E+02 -0.35866035214E+01  0.11001730737E+03  0.25500000920E-02 0.  1.
       -2    1    3    3    0  502 -0.63308353930E+02  0.89905486550E+02 -0.10820165411E+04  0.10875894167E+04  0.25500000920E-02 0. -1.
</event>
<event>
 5   0  0.1068522E-01  0.5094497E+03  0.7818609E-02  0.1011341E+00
       -1   -1    0    0    0  501  0.00000000000E+00  0.00000000000E+00  0.15703755939E+03  0.15703755947E+03  0.50400001928E-02 0. -1.
        1   -1    0    0  501    0  0.00000000000E+00  0.00000000000E+00 -0.41317985852E+03  0.41317985855E+03  0.50400001928E-02 0.  1.
    10030    2    1    2    0    0  0.00000000000E+00  0.00000000000E+00 -0.25614229912E+03  0.57021741802E+03  0.50944972904E+03 0.  0.
        2    1    3    3  502    0  0.25252275737E+03 -0.33409264240E+02 -0.12909372842E+03  0.28556805258E+03  0.25500000920E-02 0. -1.
       -2    1    3    3    0  502 -0.25252275737E+03  0.33409264240E+02 -0.12704857070E+03  0.28464936545E+03  0.25500000920E-02 0.  1.
</event>
<event>
 5   0  0.7220250E-02  0.4988352E+03  0.7818609E-02  0.1014083E+00
        3   -1    0    0  501    0  0.00000000000E+00  0.00000000000E+00  0.39648662606E+03  0.39648663893E+03  0.10100000352E+00 0. -1.
       -3   -1    0    0    0  501  0.00000000000E+00  0.00000000000E+00 -0.15690097683E+03  0.15690100934E+03  0.10100000352E+00 0.  1.
    10030    2    1    2    0    0  0.00000000000E+00  0.00000000000E+00  0.23958564924E+03  0.55338764827E+03  0.49883524929E+03 0.  0.
        5    1    3    3  502    0  0.23719745909E+03  0.29941063831E+02  0.19845540996E+03  0.31075028824E+03  0.46999998093E+01 0. -1.
       -5    1    3    3    0  502 -0.23719745909E+03 -0.29941063831E+02  0.41130239274E+02  0.24263736003E+03  0.46999998093E+01 0.  1.
</event>
<event>
 5   0  0.1709372E-01  0.4986137E+03  0.7818609E-02  0.1014141E+00
        2   -1    0    0  501    0  0.00000000000E+00  0.00000000000E+00  0.20831583228E+04  0.20831583228E+04  0.25500000920E-02 0. -1.
       -2   -1    0    0    0  501  0.00000000000E+00  0.00000000000E+00 -0.29836379721E+02  0.29836379830E+02  0.25500000920E-02 0.  1.
    10030    2    1    2    0    0  0.00000000000E+00  0.00000000000E+00  0.20533219431E+04  0.21129947026E+04  0.49861368957E+03 0.  0.
        4    1    3    3  502    0  0.92762262057E+02 -0.16458969041E+03  0.17159639314E+04  0.17263338120E+04  0.12699999809E+01 0. -1.
       -4    1    3    3    0  502 -0.92762262057E+02  0.16458969041E+03  0.33735801165E+03  0.38666089067E+03  0.12699999809E+01 0.  1.
</event>
<event>
 5   0  0.7220250E-02  0.4935886E+03  0.7818609E-02  0.1015466E+00
        3   -1    0    0  501    0  0.00000000000E+00  0.00000000000E+00  0.18310729723E+04  0.18310729751E+04  0.10100000352E+00 0.  1.
       -3   -1    0    0    0  501  0.00000000000E+00  0.00000000000E+00 -0.33263166405E+02  0.33263319742E+02  0.10100000352E+00 0. -1.
    10030    2    1    2    0    0  0.00000000000E+00  0.00000000000E+00  0.17978098059E+04  0.18643362948E+04  0.49358861620E+03 0.  0.
        3    1    3    3  502    0  0.11633995382E+03 -0.12311971464E+03  0.15768292843E+04  0.15859016524E+04  0.10100000352E+00 0.  1.
       -3    1    3    3    0  502 -0.11633995382E+03  0.12311971464E+03  0.22098052156E+03  0.27843464242E+03  0.10100000352E+00 0. -1.
</event>
<event>
 5   0  0.1141970E-01  0.5019878E+03  0.7818609E-02  0.1013261E+00
       -1   -1    0    0    0  501  0.00000000000E+00  0.00000000000E+00  0.24478516528E+03  0.24478516533E+03  0.50400001928E-02 0. -1.
        1   -1    0    0  501    0  0.00000000000E+00  0.00000000000E+00 -0.25736010412E+03  0.25736010417E+03  0.50400001928E-02 0.  1.
    10030    2    1    2    0    0  0.00000000000E+00  0.00000000000E+00 -0.12574938843E+02  0.50214526951E+03  0.50198779129E+03 0.  0.
        3    1    3    3  502    0 -0.10213634249E+03  0.20206299397E+03 -0.11465722719E+03  0.25378647706E+03  0.10100000352E+00 0.  1.
       -3    1    3    3    0  502  0.10213634249E+03 -0.20206299397E+03  0.10208228835E+03  0.24835879245E+03  0.10100000352E+00 0. -1.
</event>
<event>
 5   0  0.7220250E-02  0.5032396E+03  0.7818609E-02  0.1012937E+00
        4   -1    0    0  501    0  0.00000000000E+00  0.00000000000E+00  0.11291868057E+03  0.11292582221E+03  0.12699999809E+01 0.  1.
       -4   -1    0    0    0  501  0.00000000000E+00  0.00000000000E+00 -0.56066582844E+03  0.56066726681E+03  0.12699999809E+01 0. -1.
    10030    2    1    2    0    0  0.00000000000E+00  0.00000000000E+00 -0.44774714787E+03  0.67359308902E+03  0.50323964585E+03 0.  0.
        2    1    3    3  502    0 -0.85693332130E+01  0.13942956431E+03 -0.50399890662E+03  0.52299993763E+03  0.25500000920E-02 0. -1.
       -2    1    3    3    0  502  0.85693332130E+01 -0.13942956431E+03  0.56251758757E+02  0.15059315139E+03  0.25500000920E-02 0.  1.
</event>
<event>
 5   0  0.1827698E-01  0.5034832E+03  0.7818609E-02  0.1012874E+00
       -2   -1    0    0    0  501  0.00000000000E+00  0.00000000000E+00  0.25495103485E+03  0.25495103486E+03  0.25500000920E-02 0. -1.
        2   -1    0    0  501    0  0.00000000000E+00  0.00000000000E+00 -0.24857252563E+03  0.24857252564E+03  0.25500000920E-02 0.  1.
    10030    2    1    2    0    0  0.00000000000E+00  0.00000000000E+00  0.63785092210E+01  0.50352356050E+03  0.50348315821E+03 0.  0.
        1    1    3    3  502    0 -0.10149989028E+03  0.16896181370E+03 -0.15342312157E+03  0.24977785425E+03  0.50400001928E-02 0.  1.
       -1    1    3    3    0  502  0.10149989028E+03 -0.16896181370E+03  0.15980163079E+03  0.25374570626E+03  0.50400001928E-02 0. -1.
</event>
<event>
 5   0  0.1782124E-01  0.4908083E+03  0.7818609E-02  0.1016206E+00
        2   -1    0    0  501    0  0.00000000000E+00  0.00000000000E+00  0.44093104087E+03  0.44093104088E+03  0.25500000920E-02 0.  1.
       -2   -1    0    0    0  501  0.00000000000E+00  0.00000000000E+00 -0.13658191965E+03  0.13658191968E+03  0.25500000920E-02 0. -1.
    10030    2    1    2    0    0  0.00000000000E+00  0.00000000000E+00  0.30434912122E+03  0.57751296055E+03  0.49080834551E+03 0.  0.
        3    1    3    3  502    0  0.55603652319E+02  0.24034381865E+02  0.43199576144E+03  0.43622215185E+03  0.10100000352E+00 0.  1.
       -3    1    3    3    0  502 -0.55603652319E+02 -0.24034381865E+02 -0.12764664022E+03  0.14129080870E+03  0.10100000352E+00 0. -1.
</event>
<event>
 5   0  0.1683148E-01  0.4810500E+03  0.7818609E-02  0.1018847E+00
       -2   -1    0    0    0  501  0.00000000000E+00  0.00000000000E+00  0.35739075409E+03  0.35739075410E+03  0.25500000920E-02 0. -1.
        2   -1    0    0  501    0  0.00000000000E+00  0.00000000000E+00 -0.16187401062E+03  0.16187401064E+03  0.25500000920E-02 0.  1.
    10030    2    1    2    0    0  0.00000000000E+00  0.00000000000E+00  0.19551674347E+03  0.51926476474E+03  0.48104999629E+03 0.  0.
        2    1    3    3  502    0 -0.22172463119E+03 -0.63253947129E+02  0.17167758160E+03  0.28746489513E+03  0.25500000920E-02 0. -1.
       -2    1    3    3    0  502  0.22172463119E+03  0.63253947129E+02  0.23839161868E+02  0.23179986961E+03  0.25500000920E-02 0.  1.
</event>
<event>
 5   0  0.1147245E-01  0.5119394E+03  0.7818609E-02  0.1010709E+00
        1   -1    0    0  501    0  0.00000000000E+00  0.00000000000E+00  0.12316531081E+03  0.12316531091E+03  0.50400001928E-02 0. -1.
       -1   -1    0    0    0  501  0.00000000000E+00  0.00000000000E+00 -0.53197196749E+03  0.53197196752E+03  0.50400001928E-02 0.  1.
    10030    2    1    2    0    0  0.00000000000E+00  0.00000000000E+00 -0.40880665668E+03  0.65513727843E+03  0.51193942126E+03 0.  0.
        1    1    3    3  502    0 -0.27592663127E+02  0.22362013337E+03 -0.48965590958E+02  0.23057525503E+03  0.50400001928E-02 0. -1.
       -1    1    3    3    0  502  0.27592663127E+02 -0.22362013337E+03 -0.35984106573E+03  0.42456202340E+03  0.50400001928E-02 0.  1.
</event>
<event>
 5   0  0.1709372E-01  0.4919648E+03  0.7818609E-02  0.1015898E+00
       -2   -1    0    0    0  501  0.00000000000E+00  0.00000000000E+00  0.51796022385E+03  0.51796022386E+03  0.25500000920E-02 0. -1.
        2   -1    0    0  501    0  0.00000000000E+00  0.00000000000E+00 -0.11681852076E+03  0.11681852079E+03  0.25500000920E-02 0.  1.
    10030    2    1    2    0    0  0.00000000000E+00  0.00000000000E+00  0.40114170310E+03  0.63477874465E+03  0.49196482465E+03 0.  0.
        4    1    3    3  502    0 -0.52601708986E+02  0.62515508063E+02  0.49993718453E+03  0.50657075509E+03  0.12699999809E+01 0. -1.
       -4    1    3    3    0  502  0.52601708986E+02 -0.62515508063E+02 -0.98795481429E+02  0.12820798956E+03  0.12699999809E+01 0.  1.
</event>
<event>
 5   0  0.1147245E-01  0.5039379E+03  0.7818609E-02  0.1012756E+00
       -1   -1    0    0    0  501  0.00000000000E+00  0.00000000000E+00  0.13070123852E+03  0.13070123862E+03  0.50400001928E-02 0. -1.
        1   -1    0    0  501    0  0.00000000000E+00  0.00000000000E+00 -0.48575178077E+03  0.48575178080E+03  0.50400001928E-02 0.  1.
    10030    2    1    2    0    0  0.00000000000E+00  0.00000000000E+00 -0.35505054225E+03  0.61645301942E+03  0.50393793030E+03 0.  0.
        1    1    3    3  502    0 -0.90775633287E+01 -0.24502951416E+03 -0.24850133074E+03  0.34910568081E+03  0.50400001928E-02 0.  1.
       -1    1    3    3    0  502  0.90775633287E+01  0.24502951416E+03 -0.10654921151E+03  0.26734733861E+03  0.50400001928E-02 0. -1.
</event>
<event>
 5   0  0.1782124E-01  0.4963787E+03  0.7818609E-02  0.1014728E+00
        2   -1    0    0  501    0  0.00000000000E+00  0.00000000000E+00  0.68972949824E+03  0.68972949824E+03  0.25500000920E-02 0. -1.
       -2   -1    0    0    0  501  0.00000000000E+00  0.00000000000E+00 -0.89307423205E+02  0.89307423241E+02  0.25500000920E-02 0.  1.
    10030    2    1    2    0    0  0.00000000000E+00  0.00000000000E+00  0.60042207503E+03  0.77903692148E+03  0.49637874335E+03 0.  0.
        3    1    3    3  502    0  0.19495998127E+03 -0.69372216423E+02  0.85157275799E+02  0.22377146943E+03  0.10100000352E+00 0.  1.
       -3    1    3    3    0  502 -0.19495998127E+03  0.69372216423E+02  0.51526479923E+03  0.55526545205E+03  0.10100000352E+00 0. -1.
</event>
<event>
 5   0  0.1782124E-01  0.4923057E+03  0.7818609E-02  0.1015807E+00
       -2   -1    0    0    0  501  0.00000000000E+00  0.00000000000E+00  0.47641883403E+02  0.47641883472E+02  0.25500000920E-02 0.  1.
        2   -1    0    0  501    0  0.00000000000E+00  0.00000000000E+00 -0.12718057214E+04  0.12718057214E+04  0.25500000920E-02 0. -1.
    10030    2    1    2    0    0  0.00000000000E+00  0.00000000000E+00 -0.12241638380E+04  0.13194476049E+04  0.49230567714E+03 0.  0.
        3    1    3    3  502    0  0.20477915286E+03 -0.19623017215E+02 -0.24980043732E+03  0.32360443899E+03  0.10100000352E+00 0.  1.
       -3    1    3    3    0  502 -0.20477915286E+03  0.19623017215E+02 -0.97436340067E+03  0.99584316587E+03  0.10100000352E+00 0. -1.
</event>
<event>
 5   0  0.1074281E-01  0.5098025E+03  0.7818609E-02  0.1011252E+00
        1   -1    0    0  501    0  0.00000000000E+00  0.00000000000E+00  0.24020075025E+03  0.24020075030E+03  0.50400001928E-02 0.  1.
       -1   -1    0    0    0  501  0.00000000000E+00  0.00000000000E+00 -0.27050146190E+03  0.27050146194E+03  0.50400001928E-02 0. -1.
    10030    2    1    2    0    0  0.00000000000E+00  0.00000000000E+00 -0.30300711652E+02  0.51070221224E+03  0.50980252693E+03 0.  0.
        4    1    3    3  502    0  0.14472075952E+03 -0.29768179993E+02  0.19292464802E+03  0.24300571082E+03  0.12699999809E+01 0.  1.
       -4    1    3    3    0  502 -0.14472075952E+03  0.29768179993E+02 -0.22322535967E+03  0.26769650143E+03  0.12699999809E+01 0. -1.
</event>
<event>
 5   0  0.1147245E-01  0.4993109E+03  0.7818609E-02  0.1013959E+00
        1   -1    0    0  501    0  0.00000000000E+00  0.00000000000E+00  0.54244595002E+03  0.54244595005E+03  0.50400001928E-02 0.  1.
       -1   -1    0    0    0  501  0.00000000000E+00  0.00000000000E+00 -0.11490146291E+03  0.11490146302E+03  0.50400001928E-02 0. -1.
    10030    2    1    2    0    0  0.00000000000E+00  0.00000000000E+00  0.42754448712E+03  0.65734741306E+03  0.49931085808E+03 0.  0.
        1    1    3    3  502    0 -0.14808776977E+03 -0.20098842217E+03  0.21215995172E+03  0.32762505787E+03  0.50400001928E-02 0. -1.
       -1    1    3    3    0  502  0.14808776977E+03  0.20098842217E+03  0.21538453540E+03  0.32972235520E+03  0.50400001928E-02 0.  1.
</event>
<event>
 5   0  0.1827698E-01  0.5007135E+03  0.7818609E-02  0.1013593E+00
       -2   -1    0    0    0  501  0.00000000000E+00  0.00000000000E+00  0.13072942561E+03  0.13072942564E+03  0.25500000920E-02 0. -1.
        2   -1    0    0  501    0  0.00000000000E+00  0.00000000000E+00 -0.47945223020E+03  0.47945223021E+03  0.25500000920E-02 0.  1.
    10030    2    1    2    0    0  0.00000000000E+00  0.00000000000E+00 -0.34872280459E+03  0.61018165585E+03  0.50071354954E+03 0.  0.
        1    1    3    3  502    0  0.16134468447E+03 -0.78540022384E+02 -0.38710775634E+03  0.42667675982E+03  0.50400001928E-02 0.  1.
       -1    1    3    3    0  502 -0.16134468447E+03  0.78540022384E+02  0.38384951752E+02  0.18350489603E+03  0.50400001928E-02 0. -1.
</event>
<event>
 5   0  0.1068522E-01  0.5193437E+03  0.7818609E-02  0.1008850E+00
       -1   -1    0    0    0  501  0.00000000000E+00  0.00000000000E+00  0.46856764042E+03  0.46856764044E+03  0.50400001928E-02 0. -1.
        1   -1    0    0  501    0  0.00000000000E+00  0.00000000000E+00 -0.14390553684E+03  0.14390553693E+03  0.50400001928E-02 0.  1.
    10030    2    1    2    0    0  0.00000000000E+00  0.00000000000E+00  0.32466210358E+03  0.61247317737E+03  0.51934373155E+03 0.  0.
        2    1    3    3  502    0  0.23063047769E+03  0.73747443885E+02  0.27296356363E+03  0.36488108994E+03  0.25500000920E-02 0. -1.
       -2    1    3    3    0  502 -0.23063047769E+03 -0.73747443885E+02  0.51698539946E+02  0.24759208743E+03  0.25500000920E-02 0.  1.
</event>
<event>
 5   0  0.1760649E-01  0.4982505E+03  0.7818609E-02  0.1014237E+00
       -2   -1    0    0    0  501  0.00000000000E+00  0.00000000000E+00  0.24003637922E+03  0.24003637923E+03  0.25500000920E-02 0.  1.
        2   -1    0    0  501    0  0.00000000000E+00  0.00000000000E+00 -0.25855831824E+03  0.25855831825E+03  0.25500000920E-02 0. -1.
    10030    2    1    2    0    0  0.00000000000E+00  0.00000000000E+00 -0.18521939023E+02  0.49859469748E+03  0.49825054956E+03 0.  0.
        5    1    3    3  502    0  0.16897096833E+03  0.11513295045E+03 -0.15160734375E+03  0.25458527274E+03  0.46999998093E+01 0. -1.
       -5    1    3    3    0  502 -0.16897096833E+03 -0.11513295045E+03  0.13308540473E+03  0.24400942475E+03  0.46999998093E+01 0.  1.
</event>
<event>
 5   0  0.1068522E-01  0.5045606E+03  0.7818609E-02  0.1012595E+00
       -1   -1    0    0    0  501  0.00000000000E+00  0.00000000000E+00  0.73770867902E+02  0.73770868074E+02  0.50400001928E-02 0. -1.
        1   -1    0    0  501    0  0.00000000000E+00  0.00000000000E+00 -0.86274369333E+03  0.86274369335E+03  0.50400001928E-02 0.  1.
    10030    2    1    2    0    0  0.00000000000E+00  0.00000000000E+00 -0.78897282543E+03  0.93651456142E+03  0.50456060536E+03 0.  0.
        2    1    3    3  502    0  0.12988932175E+03 -0.21625543635E+03 -0.39963736694E+03  0.47259673583E+03  0.25500000920E-02 0.  1.
       -2    1    3    3    0  502 -0.12988932175E+03  0.21625543635E+03 -0.38933545849E+03  0.46391782559E+03  0.25500000920E-02 0. -1.
</event>
<event>
 5   0  0.1123271E-01  0.4969861E+03  0.7818609E-02  0.1014569E+00
       -1   -1    0    0    0  501  0.00000000000E+00  0.00000000000E+00  0.40476469190E+03  0.40476469193E+03  0.50400001928E-02 0.  1.
        1   -1    0    0  501    0  0.00000000000E+00  0.00000000000E+00 -0.15255478265E+03  0.15255478273E+03  0.50400001928E-02 0. -1.
    10030    2    1    2    0    0  0.00000000000E+00  0.00000000000E+00  0.25220990925E+03  0.55731947467E+03  0.49698607477E+03 0.  0.
        5    1    3    3  502    0  0.11451196918E+03 -0.21585753859E+03  0.75713944519E+02  0.25585573951E+03  0.46999998093E+01 0. -1.
       -5    1    3    3    0  502 -0.11451196918E+03  0.21585753859E+03  0.17649596473E+03  0.30146373515E+03  0.46999998093E+01 0.  1.
</event>
<event>
 5   0  0.1147245E-01  0.5059941E+03  0.7818609E-02  0.1012226E+00
        1   -1    0    0  501    0  0.00000000000E+00  0.00000000000E+00  0.38895736968E+03  0.38895736971E+03  0.50400001928E-02 0. -1.
       -1   -1    0    0    0  501  0.00000000000E+00  0.00000000000E+00 -0.16456176405E+03  0.16456176413E+03  0.50400001928E-02 0.  1.
    10030    2    1    2    0    0  0.00000000000E+00  0.00000000000E+00  0.22439560563E+03  0.55351913384E+03  0.50599411430E+03 0.  0.
        1    1    3    3  502    0  0.73961119110E+02 -0.13223860237E+03 -0.10944054042E+03  0.18690780350E+03  0.50400001928E-02 0.  1.
       -1    1    3    3    0  502 -0.73961119110E+02  0.13223860237E+03  0.33383614605E+03  0.36661133034E+03  0.50400001928E-02 0. -1.
</event>
<event>
 5   0  0.1760649E-01  0.5083574E+03  0.7818609E-02  0.1011620E+00
       -2   -1    0    0    0  501  0.00000000000E+00  0.00000000000E+00  0.54038893808E+02  0.54038893868E+02  0.25500000920E-02 0.  1.
        2   -1    0    0  501    0  0.00000000000E+00  0.00000000000E+00 -0.11955613431E+04  0.11955613431E+04  0.25500000920E-02 0. -1.
    10030    2    1    2    0    0  0.00000000000E+00  0.00000000000E+00 -0.11415224493E+04  0.12496002370E+04  0.50835740381E+03 0.  0.
        5    1    3    3  502    0  0.22182154182E+03  0.48186235892E+02 -0.28986850041E+03  0.36820177522E+03  0.46999998093E+01 0.  1.
       -5    1    3    3    0  502 -0.22182154182E+03 -0.48186235892E+02 -0.85165394892E+03  0.88139846180E+03  0.46999998093E+01 0. -1.
</event>
<event>
 5   0  0.1068522E-01  0.5219552E+03  0.7818609E-02  0.1008202E+00
        1   -1    0    0  501    0  0.00000000000E+00  0.00000000000E+00  0.46325326407E+03  0.46325326410E+03  0.50400001928E-02 0. -1.
       -1   -1    0    0    0  501  0.00000000000E+00  0.00000000000E+00 -0.14702393226E+03  0.14702393235E+03  0.50400001928E-02 0.  1.
    10030    2    1    2    0    0  0.00000000000E+00  0.00000000000E+00  0.31622933181E+03  0.61027719644E+03  0.52195523391E+03 0.  0.
        2    1    3    3  502    0  0.23685165869E+03  0.10894199430E+02  0.30611795578E+02  0.23907001870E+03  0.25500000920E-02 0.  1.
       -2    1    3    3    0  502 -0.23685165869E+03 -0.10894199430E+02  0.28561753623E+03  0.37120717775E+03  0.25500000920E-02 0. -1.
</event>
<event>
 5   0  0.1141970E-01  0.5112460E+03  0.7818609E-02  0.1010885E+00
        1   -1    0    0  501    0  0.00000000000E+00  0.00000000000E+00  0.72562038136E+03  0.72562038138E+03  0.50400001928E-02 0. -1.
       -1   -1    0    0    0  501  0.00000000000E+00  0.00000000000E+00 -0.90051365597E+02  0.90051365738E+02  0.50400001928E-02 0.  1.
    10030    2    1    2    0    0  0.00000000000E+00  0.00000000000E+00  0.63556901576E+03  0.81567174711E+03  0.51124595377E+03 0.  0.
        3    1    3    3  502    0  0.79712981702E+02  0.36425813328E+01  0.70524013366E+03  0.70974015258E+03  0.10100000352E+00 0. -1.
       -3    1    3    3    0  502 -0.79712981702E+02 -0.36425813328E+01 -0.69671117901E+02  0.10593159454E+03  0.10100000352E+00 0.  1.
</event>
<event>
 5   0  0.1782124E-01  0.5011372E+03  0.7818609E-02  0.1013483E+00
        2   -1    0    0  501    0  0.00000000000E+00  0.00000000000E+00  0.17642028944E+04  0.17642028944E+04  0.25500000920E-02 0. -1.
       -2   -1    0    0    0  501  0.00000000000E+00  0.00000000000E+00 -0.35588089908E+02  0.35588089999E+02  0.25500000920E-02 0.  1.
    10030    2    1    2    0    0  0.00000000000E+00  0.00000000000E+00  0.17286148045E+04  0.17997909844E+04  0.50113715210E+03 0.  0.
        3    1    3    3  502    0 -0.11254674102E+02  0.42894968043E+02  0.17499966621E+04  0.17505584747E+04  0.10100000352E+00 0. -1.
       -3    1    3    3    0  502  0.11254674102E+02 -0.42894968043E+02 -0.21381857592E+02  0.49232509662E+02  0.10100000352E+00 0.  1.
</event>
<event>
 5   0  0.1760649E-01  0.4732176E+03  0.7818609E-02  0.1021016E+00
       -2   -1    0    0    0  501  0.00000000000E+00  0.00000000000E+00  0.38180566329E+03  0.38180566330E+03  0.25500000920E-02 0.  1.
        2   -1    0    0  501    0  0.00000000000E+00  0.00000000000E+00 -0.14662884279E+03  0.14662884282E+03  0.25500000920E-02 0. -1.
    10030    2    1    2    0    0  0.00000000000E+00  0.00000000000E+00  0.23517682050E+03  0.52843450611E+03  0.47321759303E+03 0.  0.
        5    1    3    3  502    0  0.18295253286E+01 -0.23236917475E+03  0.68114746883E+02  0.24219927597E+03  0.46999998093E+01 0. -1.
       -5    1    3    3    0  502 -0.18295253286E+01  0.23236917475E+03  0.16706207361E+03  0.28623523015E+03  0.46999998093E+01 0.  1.
</event>
<event>
 5   0  0.1827698E-01  0.5029336E+03  0.7818609E-02  0.1013016E+00
        2   -1    0    0  501    0  0.00000000000E+00  0.00000000000E+00  0.11823583644E+04  0.11823583644E+04  0.25500000920E-02 0.  1.
       -2   -1    0    0    0  501  0.00000000000E+00  0.00000000000E+00 -0.53482553703E+02  0.53482553764E+02  0.25500000920E-02 0. -1.
    10030    2    1    2    0    0  0.00000000000E+00  0.00000000000E+00  0.11288758107E+04  0.12358409182E+04  0.50293357319E+03 0.  0.
        1    1    3    3  502    0 -0.11678473035E+03 -0.44859222739E+02  0.28413212727E+02  0.12829003777E+03  0.50400001928E-02 0. -1.
       -1    1    3    3    0  502  0.11678473035E+03  0.44859222739E+02  0.11004625980E+04  0.11075508804E+04  0.50400001928E-02 0.  1.
</event>
<event>
 5   0  0.1074281E-01  0.4905384E+03  0.7818609E-02  0.1016278E+00
        1   -1    0    0  501    0  0.00000000000E+00  0.00000000000E+00  0.79529685542E+03  0.79529685544E+03  0.50400001928E-02 0. -1.
       -1   -1    0    0    0  501  0.00000000000E+00  0.00000000000E+00 -0.75640914150E+02  0.75640914318E+02  0.50400001928E-02 0.  1.
    10030    2    1    2    0    0  0.00000000000E+00  0.00000000000E+00  0.71965594127E+03  0.87093776976E+03  0.49053840316E+03 0.  0.
        4    1    3    3  502    0  0.17622343143E+03 -0.14430490407E+03  0.52135471135E+03  0.56893844225E+03  0.12699999809E+01 0. -1.
       -4    1    3    3    0  502 -0.17622343143E+03  0.14430490407E+03  0.19830122992E+03  0.30199932750E+03  0.12699999809E+01 0.  1.
</event>
<event>
 5   0  0.1141970E-01  0.4939590E+03  0.7818609E-02  0.1015368E+00
       -1   -1    0    0    0  501  0.00000000000E+00  0.00000000000E+00  0.17410780016E+03  0.17410780024E+03  0.50400001928E-02 0.  1.
        1   -1    0    0  501    0  0.00000000000E+00  0.00000000000E+00 -0.35035124033E+03  0.35035124037E+03  0.50400001928E-02 0. -1.
    10030    2    1    2    0    0  0.00000000000E+00  0.00000000000E+00 -0.17624344017E+03  0.52445904060E+03  0.49395904189E+03 0.  0.
        3    1    3    3  502    0  0.77335128743E+02 -0.23259527088E+03 -0.55959553110E+02  0.25142148667E+03  0.10100000352E+00 0.  1.
       -3    1    3    3    0  502 -0.77335128743E+02  0.23259527088E+03 -0.12028388706E+03  0.27303755394E+03  0.10100000352E+00 0. -1.
</event>
<event>
 5   0  0.1147245E-01  0.4962897E+03  0.7818609E-02  0.1014752E+00
        1   -1    0    0  501    0  0.00000000000E+00  0.00000000000E+00  0.20185872196E+03  0.20185872202E+03  0.50400001928E-02 0.  1.
       -1   -1    0    0    0  501  0.00000000000E+00  0.00000000000E+00 -0.30504439027E+03  0.30504439031E+03  0.50400001928E-02 0. -1.
    10030    2    1    2    0    0  0.00000000000E+00  0.00000000000E+00 -0.10318566831E+03  0.50690311233E+03  0.49628971694E+03 0.  0.
        1    1    3    3  502    0  0.34527265264E+02 -0.57249359648E+02 -0.29567244395E+03  0.30313662821E+03  0.50400001928E-02 0. -1.
       -1    1    3    3    0  502 -0.34527265264E+02  0.57249359648E+02  0.19248677564E+03  0.20376648412E+03  0.50400001928E-02 0.  1.
</event>
<event>
 5   0  0.1683148E-01  0.5326039E+03  0.7818609E-02  0.1005603E+00
       -2   -1    0    0    0  501  0.00000000000E+00  0.00000000000E+00  0.19217923506E+03  0.19217923508E+03  0.25500000920E-02 0. -1.
        2   -1    0    0  501    0  0.00000000000E+00  0.00000000000E+00 -0.36901349409E+03  0.36901349410E+03  0.25500000920E-02 0.  1.
    10030    2    1    2    0    0  0.00000000000E+00  0.00000000000E+00 -0.17683425903E+03  0.56119272918E+03  0.53260390922E+03 0.  0.
        2    1    3    3  502    0  0.18245130008E+03 -0.18111456912E+03 -0.15220537774E+02  0.25753180158E+03  0.25500000920E-02 0.  1.
       -2    1    3    3    0  502 -0.18245130008E+03  0.18111456912E+03 -0.16161372125E+03  0.30366092760E+03  0.25500000920E-02 0. -1.
</event>
<event>
 5   0  0.1147245E-01  0.4979565E+03  0.7818609E-02  0.1014314E+00
        1   -1    0    0  501    0  0.00000000000E+00  0.00000000000E+00  0.35666538103E+03  0.35666538106E+03  0.50400001928E-02 0. -1.
       -1   -1    0    0    0  501  0.00000000000E+00  0.00000000000E+00 -0.17380480716E+03  0.17380480723E+03  0.50400001928E-02 0.  1.
    10030    2    1    2    0    0  0.00000000000E+00  0.00000000000E+00  0.18286057387E+03  0.53047018830E+03  0.49795645512E+03 0.  0.
        1    1    3    3  502    0  0.22348616733E+03  0.10814360337E+03  0.71527468637E+02  0.25837431129E+03  0.50400001928E-02 0.  1.
       -1    1    3    3    0  502 -0.22348616733E+03 -0.10814360337E+03  0.11133310523E+03  0.27209587701E+03  0.50400001928E-02 0. -1.
</event>
<event>
 5   0  0.7220250E-02  0.4961763E+03  0.7818609E-02  0.1014782E+00
        4   -1    0    0  501    0  0.00000000000E+00  0.00000000000E+00  0.13353446669E+03  0.13354050581E+03  0.12699999809E+01 0. -1.
       -4   -1    0    0    0  501  0.00000000000E+00  0.00000000000E+00 -0.46089531518E+03  0.46089706493E+03  0.12699999809E+01 0.  1.
    10030    2    1    2    0    0  0.00000000000E+00  0.00000000000E+00 -0.32736084850E+03  0.59443757074E+03  0.49617627954E+03 0.  0.
        2    1    3    3  502    0  0.49620392903E+02  0.19281607433E+03  0.13643238760E+02  0.19956542758E+03  0.25500000920E-02 0. -1.
       -2    1    3    3    0  502 -0.49620392903E+02 -0.19281607433E+03 -0.34100408726E+03  0.39487214316E+03  0.25500000920E-02 0.  1.
</event>
<event>
 5   0  0.1074281E-01  0.5052166E+03  0.7818609E-02  0.1012426E+00
       -1   -1    0    0    0  501  0.00000000000E+00  0.00000000000E+00  0.11516070964E+03  0.11516070975E+03  0.50400001928E-02 0.  1.
        1   -1    0    0  501    0  0.00000000000E+00  0.00000000000E+00 -0.55410341153E+03  0.55410341155E+03  0.50400001928E-02 0. -1.
    10030    2    1    2    0    0  0.00000000000E+00  0.00000000000E+00 -0.43894270189E+03  0.66926412131E+03  0.50521655607E+03 0.  0.
        4    1    3    3  502    0 -0.50142562892E+02  0.78314327467E+02  0.91657046095E+02  0.13057579216E+03  0.12699999809E+01 0.  1.
       -4    1    3    3    0  502  0.50142562892E+02 -0.78314327467E+02 -0.53059974798E+03  0.53868832915E+03  0.12699999809E+01 0. -1.
</event>
<event>
 5   0  0.1827698E-01  0.3872681E+03  0.7818609E-02  0.1048280E+00
        2   -1    0    0  501    0  0.00000000000E+00  0.00000000000E+00  0.10872572531E+04  0.10872572532E+04  0.25500000920E-02 0.  1.
       -2   -1    0    0    0  501  0.00000000000E+00  0.00000000000E+00 -0.34485074283E+02  0.34485074377E+02  0.25500000920E-02 0. -1.
    10030    2    1    2    0    0  0.00000000000E+00  0.00000000000E+00  0.10527721789E+04  0.11217423275E+04  0.38726810968E+03 0.  0.
        1    1    3    3  502    0  0.46594285381E+02  0.11602703210E+03  0.98118834279E+02  0.15893585270E+03  0.50400001928E-02 0. -1.
       -1    1    3    3    0  502 -0.46594285381E+02 -0.11602703210E+03  0.95465334459E+03  0.96280647483E+03  0.50400001928E-02 0.  1.
</event>
<event>
 5   0  0.1782124E-01  0.4944096E+03  0.7818609E-02  0.1015248E+00
       -2   -1    0    0    0  501  0.00000000000E+00  0.00000000000E+00  0.77948155764E+02  0.77948155806E+02  0.25500000920E-02 0. -1.
        2   -1    0    0  501    0  0.00000000000E+00  0.00000000000E+00 -0.78398546380E+03  0.78398546381E+03  0.25500000920E-02 0.  1.
    10030    2    1    2    0    0  0.00000000000E+00  0.00000000000E+00 -0.70603730804E+03  0.86193361961E+03  0.49440963206E+03 0.  0.
        3    1    3    3  502    0 -0.10111240898E+03 -0.11038894809E+03 -0.10056095473E+02  0.15003524375E+03  0.10100000352E+00 0. -1.
       -3    1    3    3    0  502  0.10111240898E+03  0.11038894809E+03 -0.69598121257E+03  0.71189837586E+03  0.10100000352E+00 0.  1.
</event>
<event>
 5   0  0.7220250E-02  0.4976847E+03  0.7818609E-02  0.1014385E+00
       -4   -1    0    0    0  501  0.00000000000E+00  0.00000000000E+00  0.13475461388E+04  0.13475467372E+04  0.12699999809E+01 0.  1.
        4   -1    0    0  501    0  0.00000000000E+00  0.00000000000E+00 -0.45942667352E+02  0.45960217399E+02  0.12699999809E+01 0. -1.
    10030    2    1    2    0    0  0.00000000000E+00  0.00000000000E+00  0.13016034714E+04  0.13935069546E+04  0.49768467506E+03 0.  0.
        1    1    3    3  502    0  0.99580923318E+02 -0.88677371027E+02  0.62522932634E+02  0.14727237878E+03  0.50400001928E-02 0. -1.
       -1    1    3    3    0  502 -0.99580923318E+02  0.88677371027E+02  0.12390805388E+04  0.12462345758E+04  0.50400001928E-02 0.  1.
</event>
<event>
 5   0  0.1123271E-01  0.4994765E+03  0.7818609E-02  0.1013916E+00
        1   -1    0    0  501    0  0.00000000000E+00  0.00000000000E+00  0.12380701792E+04  0.12380701792E+04  0.50400001928E-02 0.  1.
       -1   -1    0    0    0  501  0.00000000000E+00  0.00000000000E+00 -0.50376146807E+02  0.50376147059E+02  0.50400001928E-02 0. -1.
    10030    2    1    2    0    0  0.00000000000E+00  0.00000000000E+00  0.11876940324E+04  0.12884463263E+04  0.49947654709E+03 0.  0.
        5    1    3    3  502    0 -0.17375136657E+03 -0.60482823732E+02  0.15836609357E+03  0.24279542611E+03  0.46999998093E+01 0.  1.
       -5    1    3    3    0  502  0.17375136657E+03  0.60482823732E+02  0.10293279388E+04  0.10456509002E+04  0.46999998093E+01 0. -1.
</event>
<event>
 5   0  0.1123271E-01  0.5063093E+03  0.7818609E-02  0.1012145E+00
       -1   -1    0    0    0  501  0.00000000000E+00  0.00000000000E+00  0.17337315147E+03  0.17337315154E+03  0.50400001928E-02 0.  1.
        1   -1    0    0  501    0  0.00000000000E+00  0.00000000000E+00 -0.36964932759E+03  0.36964932763E+03  0.50400001928E-02 0. -1.
    10030    2    1    2    0    0  0.00000000000E+00  0.00000000000E+00 -0.19627617612E+03  0.54302247917E+03  0.50630926870E+03 0.  0.
        5    1    3    3  502    0 -0.99816361459E+02  0.13672677615E+03  0.10367556937E+03  0.19856543257E+03  0.46999998093E+01 0.  1.
       -5    1    3    3    0  502  0.99816361459E+02 -0.13672677615E+03 -0.29995174549E+03  0.34445704660E+03  0.46999998093E+01 0. -1.
</event>
<event>
 5   0  0.1760649E-01  0.4984761E+03  0.7818609E-02  0.1014177E+00
        2   -1    0    0  501    0  0.00000000000E+00  0.00000000000E+00  0.11916902039E+04  0.11916902039E+04  0.25500000920E-02 0.  1.
       -2   -1    0    0    0  501  0.00000000000E+00  0.00000000000E+00 -0.52127309629E+02  0.52127309691E+02  0.25500000920E-02 0. -1.
    10030    2    1    2    0    0  0.00000000000E+00  0.00000000000E+00  0.11395628943E+04  0.12438175136E+04  0.49847609485E+03 0.  0.
        5    1    3    3  502    0  0.12127245096E+02  0.22818969208E+03  0.81780264239E+03  0.84914124711E+03  0.46999998093E+01 0.  1.
       -5    1    3    3    0  502 -0.12127245096E+02 -0.22818969208E+03  0.32176025192E+03  0.39467626652E+03  0.46999998093E+01 0. -1.
</event>
<event>
 5   0  0.1827698E-01  0.4807902E+03  0.7818609E-02  0.1018918E+00
        2   -1    0    0  501    0  0.00000000000E+00  0.00000000000E+00  0.94660015760E+03  0.94660015760E+03  0.25500000920E-02 0.  1.
       -2   -1    0    0    0  501  0.00000000000E+00  0.00000000000E+00 -0.61049850883E+02  0.61049850936E+02  0.25500000920E-02 0. -1.
    10030    2    1    2    0    0  0.00000000000E+00  0.00000000000E+00  0.88555030672E+03  0.10076500085E+04  0.48079017667E+03 0.  0.
        1    1    3    3  502    0  0.84797208679E+02 -0.19038734755E+03  0.19169714666E+03  0.28317080494E+03  0.50400001928E-02 0. -1.
       -1    1    3    3    0  502 -0.84797208679E+02  0.19038734755E+03  0.69385316006E+03  0.72447920361E+03  0.50400001928E-02 0.  1.
</event>
<event>
 5   0  0.1123271E-01  0.5000787E+03  0.7818609E-02  0.1013758E+00
        1   -1    0    0  501    0  0.00000000000E+00  0.00000000000E+00  0.43397315516E+03  0.43397315519E+03  0.50400001928E-02 0.  1.
       -1   -1    0    0    0  501  0.00000000000E+00  0.00000000000E+00 -0.14406348222E+03  0.14406348231E+03  0.50400001928E-02 0. -1.
    10030    2    1    2    0    0  0.00000000000E+00  0.00000000000E+00  0.28990967294E+03  0.57803663750E+03  0.50007872964E+03 0.  0.
        5    1    3    3  502    0  0.51109696212E+02 -0.22731304805E+03  0.40194024500E+02  0.23647636766E+03  0.46999998093E+01 0. -1.
       -5    1    3    3    0  502 -0.51109696212E+02  0.22731304805E+03  0.24971564844E+03  0.34156026984E+03  0.46999998093E+01 0.  1.
</event>
<event>
 5   0  0.1068522E-01  0.4981289E+03  0.7818609E-02  0.1014268E+00
       -1   -1    0    0    0  501  0.00000000000E+00  0.00000000000E+00  0.83850839596E+02  0.83850839748E+02  0.50400001928E-02 0.  1.
        1   -1    0    0  501    0  0.00000000000E+00  0.00000000000E+00 -0.73980306632E+03  0.73980306634E+03  0.50400001928E-02 0. -1.
    10030    2    1    2    0    0  0.00000000000E+00  0.00000000000E+00 -0.65595222673E+03  0.82365390609E+03  0.49812893237E+03 0.  0.
        2    1    3    3  502    0 -0.18134023627E+03 -0.33698792472E+02 -0.60472411832E+03  0.63222713418E+03  0.25500000920E-02 0. -1.
       -2    1    3    3    0  502  0.18134023627E+03  0.33698792472E+02 -0.51228108406E+02  0.19142677191E+03  0.25500000920E-02 0.  1.
</event>
<event>
 5   0  0.1709372E-01  0.5038528E+03  0.7818609E-02  0.1012778E+00
        2   -1    0    0  501    0  0.00000000000E+00  0.00000000000E+00  0.20000460926E+04  0.20000460926E+04  0.25500000920E-02 0.  1.
       -2   -1    0    0    0  501  0.00000000000E+00  0.00000000000E+00 -0.31732724849E+02  0.31732724951E+02  0.25500000920E-02 0. -1.
    10030    2    1    2    0    0  0.00000000000E+00  0.00000000000E+00  0.19683133677E+04  0.20317788175E+04  0.50385280567E+03 0.  0.
        4    1    3    3  502    0  0.13718986568E+03 -0.10951160115E+03  0.17128150908E+04  0.17217871524E+04  0.12699999809E+01 0.  1.
       -4    1    3    3    0  502 -0.13718986568E+03  0.10951160115E+03  0.25549827696E+03  0.30999166515E+03  0.12699999809E+01 0. -1.
</event>
<event>
 5   0  0.1827698E-01  0.4947457E+03  0.7818609E-02  0.1015160E+00
        2   -1    0    0  501    0  0.00000000000E+00  0.00000000000E+00  0.23760364717E+04  0.23760364717E+04  0.25500000920E-02 0.  1.
       -2   -1    0    0    0  501  0.00000000000E+00  0.00000000000E+00 -0.25754372590E+02  0.25754372716E+02  0.25500000920E-02 0. -1.
    10030    2    1    2    0    0  0.00000000000E+00  0.00000000000E+00  0.23502820991E+04  0.24017908445E+04  0.49474570735E+03 0.  0.
        1    1    3    3  502    0  0.15377251021E+03 -0.80674849460E+02  0.20304172720E+04  0.20378294126E+04  0.50400001928E-02 0. -1.
       -1    1    3    3    0  502 -0.15377251021E+03  0.80674849460E+02  0.31986482710E+03  0.36396143185E+03  0.50400001928E-02 0.  1.
</event>
<event>
 5   0  0.1760649E-01  0.5239523E+03  0.7818609E-02  0.1007709E+00
       -2   -1    0    0    0  501  0.00000000000E+00  0.00000000000E+00  0.27609061576E+03  0.27609061577E+03  0.25500000920E-02 0.  1.
        2   -1    0    0  501    0  0.00000000000E+00  0.00000000000E+00 -0.24858320834E+03  0.24858320835E+03  0.25500000920E-02 0. -1.
    10030    2    1    2    0    0  0.00000000000E+00  0.00000000000E+00  0.27507407422E+02  0.52467382412E+03  0.52395225379E+03 0.  0.
        5    1    3    3  502    0  0.92983528697E+02 -0.24486931469E+03  0.15331685151E+02  0.26241964189E+03  0.46999998093E+01 0.  1.
       -5    1    3    3    0  502 -0.92983528697E+02  0.24486931469E+03  0.12175722271E+02  0.26225418223E+03  0.46999998093E+01 0. -1.
</event>
<event>
 5   0  0.1760649E-01  0.4623702E+03  0.7818609E-02  0.1024096E+00
       -2   -1    0    0    0  501  0.00000000000E+00  0.00000000000E+00  0.32929707163E+02  0.32929707261E+02  0.25500000920E-02 0. -1.
        2   -1    0    0  501    0  0.00000000000E+00  0.00000000000E+00 -0.16230495298E+04  0.16230495298E+04  0.25500000920E-02 0.  1.
    10030    2    1    2    0    0  0.00000000000E+00  0.00000000000E+00 -0.15901198226E+04  0.16559792370E+04  0.46237017988E+03 0.  0.
        5    1    3    3  502    0 -0.22238982369E+03 -0.62886374635E+02 -0.78238422374E+03  0.81581805162E+03  0.46999998093E+01 0. -1.
       -5    1    3    3    0  502  0.22238982369E+03  0.62886374635E+02 -0.80773559889E+03  0.84016118543E+03  0.46999998093E+01 0.  1.
</event>
<event>
 5   0  0.1760649E-01  0.5148877E+03  0.7818609E-02  0.1009964E+00
       -2   -1    0    0    0  501  0.00000000000E+00  0.00000000000E+00  0.47808597217E+02  0.47808597285E+02  0.25500000920E-02 0. -1.
        2   -1    0    0  501    0  0.00000000000E+00  0.00000000000E+00 -0.13863057253E+04  0.13863057253E+04  0.25500000920E-02 0.  1.
    10030    2    1    2    0    0  0.00000000000E+00  0.00000000000E+00 -0.13384971281E+04  0.14341143226E+04  0.51488768519E+03 0.  0.
        5    1    3    3  502    0 -0.18070673787E+02 -0.23836941096E+03 -0.93507603976E+03  0.96516103085E+03  0.46999998093E+01 0.  1.
       -5    1    3    3    0  502  0.18070673787E+02  0.23836941096E+03 -0.40342108831E+03  0.46895329173E+03  0.46999998093E+01 0. -1.
</event>
<event>
 5   0  0.1123271E-01  0.4977250E+03  0.7818609E-02  0.1014374E+00
       -1   -1    0    0    0  501  0.00000000000E+00  0.00000000000E+00  0.26195548827E+03  0.26195548832E+03  0.50400001928E-02 0.  1.
        1   -1    0    0  501    0  0.00000000000E+00  0.00000000000E+00 -0.23642395503E+03  0.23642395508E+03  0.50400001928E-02 0. -1.
    10030    2    1    2    0    0  0.00000000000E+00  0.00000000000E+00  0.25531533242E+02  0.49837944340E+03  0.49772503495E+03 0.  0.
        5    1    3    3  502    0 -0.10649371581E+03 -0.22019881956E+03 -0.32923504206E+02  0.24684910121E+03  0.46999998093E+01 0. -1.
       -5    1    3    3    0  502  0.10649371581E+03  0.22019881956E+03  0.58455037447E+02  0.25153034219E+03  0.46999998093E+01 0.  1.
</event>
<event>
 5   0  0.1827698E-01  0.4856721E+03  0.7818609E-02  0.1017588E+00
       -2   -1    0    0    0  501  0.00000000000E+00  0.00000000000E+00  0.25825969665E+03  0.25825969666E+03  0.25500000920E-02 0. -1.
        2   -1    0    0  501    0  0.00000000000E+00  0.00000000000E+00 -0.22833353887E+03  0.22833353888E+03  0.25500000920E-02 0.  1.
    10030    2    1    2    0    0  0.00000000000E+00  0.00000000000E+00  0.29926157780E+02  0.48659323555E+03  0.48567211363E+03 0.  0.
        1    1    3    3  502    0  0.21536931616E+03  0.16771309801E+02 -0.96171287472E+02  0.23646170035E+03  0.50400001928E-02 0.  1.
       -1    1    3    3    0  502 -0.21536931616E+03 -0.16771309801E+02  0.12609744525E+03  0.25013153519E+03  0.50400001928E-02 0. -1.
</event>
<event>
 5   0  0.7220250E-02  0.4991975E+03  0.7818609E-02  0.1013989E+00
        4   -1    0    0  501    0  0.00000000000E+00  0.00000000000E+00  0.12027854254E+03  0.12028524720E+03  0.12699999809E+01 0.  1.
       -4   -1    0    0    0  501  0.00000000000E+00  0.00000000000E+00 -0.51793862948E+03  0.51794018652E+03  0.12699999809E+01 0. -1.
    10030    2    1    2    0    0  0.00000000000E+00  0.00000000000E+00 -0.39766008694E+03  0.63822543372E+03  0.49919751552E+03 0.  0.
        1    1    3    3  502    0 -0.67578308025E+02 -0.23947012412E+03 -0.22397373768E+03  0.33477903647E+03  0.50400001928E-02 0.  1.
       -1    1    3    3    0  502  0.67578308025E+02  0.23947012412E+03 -0.17368634926E+03  0.30344639725E+03  0.50400001928E-02 0. -1.
</event>
<event>
 5   0  0.1068522E-01  0.4997514E+03  0.7818609E-02  0.1013844E+00
        1   -1    0    0  501    0  0.00000000000E+00  0.00000000000E+00  0.93135033915E+03  0.93135033916E+03  0.50400001928E-02 0. -1.
       -1   -1    0    0    0  501  0.00000000000E+00  0.00000000000E+00 -0.67040150820E+02  0.67040151010E+02  0.50400001928E-02 0.  1.
    10030    2    1    2    0    0  0.00000000000E+00  0.00000000000E+00  0.86431018833E+03  0.99839049017E+03  0.49975140742E+03 0.  0.
        2    1    3    3  502    0  0.10280467603E+03 -0.45748162634E+02 -0.13559808162E+02  0.11333827333E+03  0.25500000920E-02 0.  1.
       -2    1    3    3    0  502 -0.10280467603E+03  0.45748162634E+02  0.87786999649E+03  0.88505221684E+03  0.25500000920E-02 0. -1.
</event>
<event>
 5   0  0.1147245E-01  0.5055517E+03  0.7818609E-02  0.1012340E+00
        1   -1    0    0  501    0  0.00000000000E+00  0.00000000000E+00  0.43892862551E+03  0.43892862554E+03  0.50400001928E-02 0. -1.
       -1   -1    0    0    0  501  0.00000000000E+00  0.00000000000E+00 -0.14557177490E+03  0.14557177499E+03  0.50400001928E-02 0.  1.
    10030    2    1    2    0    0  0.00000000000E+00  0.00000000000E+00  0.29335685061E+03  0.58450040053E+03  0.50555165554E+03 0.  0.
        1    1    3    3  502    0 -0.11658798918E+03  0.78398033567E+02 -0.96271701136E+02  0.17031515303E+03  0.50400001928E-02 0.  1.
       -1    1    3    3    0  502  0.11658798918E+03 -0.78398033567E+02  0.38962855174E+03  0.41418524750E+03  0.50400001928E-02 0. -1.
</event>
<event>
 5   0  0.1827698E-01  0.5128083E+03  0.7818609E-02  0.1010489E+00
        2   -1    0    0  501    0  0.00000000000E+00  0.00000000000E+00  0.15751446434E+04  0.15751446434E+04  0.25500000920E-02 0. -1.
       -2   -1    0    0    0  501  0.00000000000E+00  0.00000000000E+00 -0.41737814880E+02  0.41737814958E+02  0.25500000920E-02 0.  1.
    10030    2    1    2    0    0  0.00000000000E+00  0.00000000000E+00  0.15334068285E+04  0.16168824584E+04  0.51280832911E+03 0.  0.
        1    1    3    3  502    0  0.24078686869E+03  0.71446439255E+02  0.60408139056E+03  0.65421497710E+03  0.50400001928E-02 0.  1.
       -1    1    3    3    0  502 -0.24078686869E+03 -0.71446439255E+02  0.92932543795E+03  0.96266748125E+03  0.50400001928E-02 0. -1.
</event>
<event>
 5   0  0.1074281E-01  0.5109951E+03  0.7818609E-02  0.1010948E+00
       -1   -1    0    0    0  501  0.00000000000E+00  0.00000000000E+00  0.58296165041E+03  0.58296165043E+03  0.50400001928E-02 0.  1.
        1   -1    0    0  501    0  0.00000000000E+00  0.00000000000E+00 -0.11197818522E+03  0.11197818533E+03  0.50400001928E-02 0. -1.
    10030    2    1    2    0    0  0.00000000000E+00  0.00000000000E+00  0.47098346519E+03  0.69493983576E+03  0.51099505952E+03 0.  0.
        4    1    3    3  502    0 -0.19008224296E+03 -0.22538614037E+02  0.53460626195E+01  0.19149266695E+03  0.12699999809E+01 0. -1.
       -4    1    3    3    0  502  0.19008224296E+03  0.22538614037E+02  0.46563740257E+03  0.50344716881E+03  0.12699999809E+01 0.  1.
</event>
<event>
 5   0  0.1074281E-01  0.4932541E+03  0.7818609E-02  0.1015555E+00
        1   -1    0    0  501    0  0.00000000000E+00  0.00000000000E+00  0.17828213612E+03  0.17828213619E+03  0.50400001928E-02 0. -1.
       -1   -1    0    0    0  501  0.00000000000E+00  0.00000000000E+00 -0.34117214685E+03  0.34117214689E+03  0.50400001928E-02 0.  1.
    10030    2    1    2    0    0  0.00000000000E+00  0.00000000000E+00 -0.16289001073E+03  0.51945428308E+03  0.49325408931E+03 0.  0.
        4    1    3    3  502    0  0.21293703042E+03  0.42088438118E+02  0.41862680926E+02  0.22106042727E+03  0.12699999809E+01 0. -1.
       -4    1    3    3    0  502 -0.21293703042E+03 -0.42088438118E+02 -0.20475269165E+03  0.29839385581E+03  0.12699999809E+01 0.  1.
</event>
<event>
 5   0  0.1141970E-01  0.4968101E+03  0.7818609E-02  0.1014615E+00
        1   -1    0    0  501    0  0.00000000000E+00  0.00000000000E+00  0.12088244716E+04  0.12088244716E+04  0.50400001928E-02 0.  1.
       -1   -1    0    0    0  501  0.00000000000E+00  0.00000000000E+00 -0.51045524145E+02  0.51045524394E+02  0.50400001928E-02 0. -1.
    10030    2    1    2    0    0  0.00000000000E+00  0.00000000000E+00  0.11577789475E+04  0.12598699960E+04  0.49681014046E+03 0.  0.
        3    1    3    3  502    0  0.10707271263E+03 -0.21236791139E+03  0.76070568530E+03  0.79701809605E+03  0.10100000352E+00 0.  1.
       -3    1    3    3    0  502 -0.10707271263E+03  0.21236791139E+03  0.39707326218E+03  0.46285189998E+03  0.10100000352E+00 0. -1.
</event>
<event>
 5   0  0.1683148E-01  0.5041164E+03  0.7818609E-02  0.1012710E+00
        2   -1    0    0  501    0  0.00000000000E+00  0.00000000000E+00  0.37498205625E+03  0.37498205626E+03  0.25500000920E-02 0.  1.
       -2   -1    0    0    0  501  0.00000000000E+00  0.00000000000E+00 -0.16943036372E+03  0.16943036374E+03  0.25500000920E-02 0. -1.
    10030    2    1    2    0    0  0.00000000000E+00  0.00000000000E+00  0.20555169253E+03  0.54441242000E+03  0.50411643968E+03 0.  0.
        2    1    3    3  502    0 -0.34618439686E+02 -0.71404818551E+02  0.36114031907E+03  0.36975588507E+03  0.25500000920E-02 0.  1.
       -2    1    3    3    0  502  0.34618439686E+02  0.71404818551E+02 -0.15558862654E+03  0.17465653493E+03  0.25500000920E-02 0. -1.
</event>
<event>
 5   0  0.1709372E-01  0.4997958E+03  0.7818609E-02  0.1013832E+00
       -2   -1    0    0    0  501  0.00000000000E+00  0.00000000000E+00  0.27498679973E+02  0.27498680091E+02  0.25500000920E-02 0. -1.
        2   -1    0    0  501    0  0.00000000000E+00  0.00000000000E+00 -0.22709799803E+04  0.22709799803E+04  0.25500000920E-02 0.  1.
    10030    2    1    2    0    0  0.00000000000E+00  0.00000000000E+00 -0.22434813003E+04  0.22984786604E+04  0.49979576565E+03 0.  0.
        4    1    3    3  502    0  0.13350528046E+03 -0.12373524954E+03 -0.33436856086E+03  0.38070726192E+03  0.12699999809E+01 0. -1.
       -4    1    3    3    0  502 -0.13350528046E+03  0.12373524954E+03 -0.19091127395E+04  0.19177713985E+04  0.12699999809E+01 0.  1.
</event>
<event>
 5   0  0.1760649E-01  0.4970417E+03  0.7818609E-02  0.1014554E+00
        2   -1    0    0  501    0  0.00000000000E+00  0.00000000000E+00  0.69014165018E+03  0.69014165019E+03  0.25500000920E-02 0. -1.
       -2   -1    0    0    0  501  0.00000000000E+00  0.00000000000E+00 -0.89492673093E+02  0.89492673129E+02  0.25500000920E-02 0.  1.
    10030    2    1    2    0    0  0.00000000000E+00  0.00000000000E+00  0.60064897709E+03  0.77963432332E+03  0.49704173307E+03 0.  0.
        5    1    3    3  502    0  0.17482888265E+03 -0.96083831472E+02  0.67971121972E+02  0.21080655658E+03  0.46999998093E+01 0.  1.
       -5    1    3    3    0  502 -0.17482888265E+03  0.96083831472E+02  0.53267785512E+03  0.56882776674E+03  0.46999998093E+01 0. -1.
</event>
<event>
 5   0  0.1782124E-01  0.5086458E+03  0.7818609E-02  0.1011547E+00
       -2   -1    0    0    0  501  0.00000000000E+00  0.00000000000E+00  0.10087442572E+03  0.10087442575E+03  0.25500000920E-02 0. -1.
        2   -1    0    0  501    0  0.00000000000E+00  0.00000000000E+00 -0.64119461462E+03  0.64119461463E+03  0.25500000920E-02 0.  1.
    10030    2    1    2    0    0  0.00000000000E+00  0.00000000000E+00 -0.54032018891E+03  0.74206904038E+03  0.50864580422E+03 0.  0.
        3    1    3    3  502    0  0.25224368339E+03 -0.28268420327E+02 -0.29341812813E+03  0.38796931259E+03  0.10100000352E+00 0. -1.
       -3    1    3    3    0  502 -0.25224368339E+03  0.28268420327E+02 -0.24690206078E+03  0.35409972778E+03  0.10100000352E+00 0.  1.
</event>
<event>
 5   0  0.1760649E-01  0.4983002E+03  0.7818609E-02  0.1014224E+00
        2   -1    0    0  501    0  0.00000000000E+00  0.00000000000E+00  0.64751556866E+03  0.64751556867E+03  0.25500000920E-02 0. -1.
       -2   -1    0    0    0  501  0.00000000000E+00  0.00000000000E+00 -0.95867595643E+02  0.95867595677E+02  0.25500000920E-02 0.  1.
    10030    2    1    2    0    0  0.00000000000E+00  0.00000000000E+00  0.55164797302E+03  0.74338316435E+03  0.49830015342E+03 0.  0.
        5    1    3    3  502    0  0.13837831642E+03 -0.30991157513E+02  0.58135833543E+03  0.59842176972E+03  0.46999998093E+01 0. -1.
       -5    1    3    3    0  502 -0.13837831642E+03  0.30991157513E+02 -0.29710362412E+02  0.14496139463E+03  0.46999998093E+01 0.  1.
</event>
<event>
 5   0  0.1683148E-01  0.4971034E+03  0.7818609E-02  0.1014538E+00
        2   -1    0    0  501    0  0.00000000000E+00  0.00000000000E+00  0.39498518742E+03  0.39498518743E+03  0.25500000920E-02 0.  1.
       -2   -1    0    0    0  501  0.00000000000E+00  0.00000000000E+00 -0.15640576359E+03  0.15640576361E+03  0.25500000920E-02 0. -1.
    10030    2    1    2    0    0  0.00000000000E+00  0.00000000000E+00  0.23857942383E+03  0.55139095104E+03  0.49710344941E+03 0.  0.
        2    1    3    3  502    0  0.61432947207E+02 -0.25116977764E+02 -0.14639525350E+03  0.16073717625E+03  0.25500000920E-02 0. -1.
       -2    1    3    3    0  502 -0.61432947207E+02  0.25116977764E+02  0.38497467733E+03  0.39065377480E+03  0.25500000920E-02 0.  1.
</event>
<event>
 5   0  0.1147245E-01  0.4864924E+03  0.7818609E-02  0.1017366E+00
       -1   -1    0    0    0  501  0.00000000000E+00  0.00000000000E+00  0.37530281440E+03  0.37530281444E+03  0.50400001928E-02 0.  1.
        1   -1    0    0  501    0  0.00000000000E+00  0.00000000000E+00 -0.15765591719E+03  0.15765591727E+03  0.50400001928E-02 0. -1.
    10030    2    1    2    0    0  0.00000000000E+00  0.00000000000E+00  0.21764689721E+03  0.53295873171E+03  0.48649238210E+03 0.  0.
        1    1    3    3  502    0 -0.21295716744E+02  0.24230028959E+03  0.11145531374E+03  0.26755415316E+03  0.50400001928E-02 0. -1.
       -1    1    3    3    0  502  0.21295716744E+02 -0.24230028959E+03  0.10619158347E+03  0.26540457855E+03  0.50400001928E-02 0.  1.
</event>
<event>
 5   0  0.1074281E-01  0.5012003E+03  0.7818609E-02  0.1013466E+00
       -1   -1    0    0    0  501  0.00000000000E+00  0.00000000000E+00  0.40156076544E+03  0.40156076547E+03  0.50400001928E-02 0. -1.
        1   -1    0    0  501    0  0.00000000000E+00  0.00000000000E+00 -0.15639085354E+03  0.15639085362E+03  0.50400001928E-02 0.  1.
    10030    2    1    2    0    0  0.00000000000E+00  0.00000000000E+00  0.24516991190E+03  0.55795161909E+03  0.50120028286E+03 0.  0.
        4    1    3    3  502    0 -0.44609223197E+02 -0.85038029408E+02  0.38026211596E+03  0.39220191098E+03  0.12699999809E+01 0. -1.
       -4    1    3    3    0  502  0.44609223197E+02  0.85038029408E+02 -0.13509220406E+03  0.16574970811E+03  0.12699999809E+01 0.  1.
</event>
<event>
 5   0  0.1709372E-01  0.4995616E+03  0.7818609E-02  0.1013893E+00
       -2   -1    0    0    0  501  0.00000000000E+00  0.00000000000E+00  0.23685046317E+03  0.23685046318E+03  0.25500000920E-02 0. -1.
        2   -1    0    0  501    0  0.00000000000E+00  0.00000000000E+00 -0.26341707047E+03  0.26341707048E+03  0.25500000920E-02 0.  1.
    10030    2    1    2    0    0  0.00000000000E+00  0.00000000000E+00 -0.26566607300E+02  0.50026753366E+03  0.49956162845E+03 0.  0.
        4    1    3    3  502    0  0.19320094629E+02  0.12164014334E+03 -0.23089027107E+03  0.26168974131E+03  0.12699999809E+01 0.  1.
       -4    1    3    3    0  502 -0.19320094629E+02 -0.12164014334E+03  0.20432366377E+03  0.23857779236E+03  0.12699999809E+01 0. -1.
</event>
<event>
 5   0  0.1709372E-01  0.5071240E+03  0.7818609E-02  0.1011936E+00
       -2   -1    0    0    0  501  0.00000000000E+00  0.00000000000E+00  0.44403692051E+02  0.44403692125E+02  0.25500000920E-02 0.  1.
        2   -1    0    0  501    0  0.00000000000E+00  0.00000000000E+00 -0.14479358498E+04  0.14479358498E+04  0.25500000920E-02 0. -1.
    10030    2    1    2    0    0  0.00000000000E+00  0.00000000000E+00 -0.14035321577E+04  0.14923395419E+04  0.50712403864E+03 0.  0.
        4    1    3    3  502    0 -0.38514364611E+02 -0.21625596085E+03 -0.10744871060E+04  0.10967106049E+04  0.12699999809E+01 0. -1.
       -4    1    3    3    0  502  0.38514364611E+02  0.21625596085E+03 -0.32904505171E+03  0.39562893706E+03  0.12699999809E+01 0.  1.
</event>
<event>
 5   0  0.1068522E-01  0.5059901E+03  0.7818609E-02  0.1012227E+00
        1   -1    0    0  501    0  0.00000000000E+00  0.00000000000E+00  0.71457131729E+03  0.71457131731E+03  0.50400001928E-02 0. -1.
       -1   -1    0    0    0  501  0.00000000000E+00  0.00000000000E+00 -0.89573287979E+02  0.89573288121E+02  0.50400001928E-02 0.  1.
    10030    2    1    2    0    0  0.00000000000E+00  0.00000000000E+00  0.62499802931E+03  0.80414460543E+03  0.50599012816E+03 0.  0.
        2    1    3    3  502    0 -0.80523898466E+02 -0.17117969734E+03  0.57947362603E+03  0.60957056218E+03  0.25500000920E-02 0. -1.
       -2    1    3    3    0  502  0.80523898466E+02  0.17117969734E+03  0.45524403282E+02  0.19457404325E+03  0.25500000920E-02 0.  1.
</event>
<event>
 5   0  0.7220250E-02  0.5053461E+03  0.7818609E-02  0.1012393E+00
       -4   -1    0    0    0  501  0.00000000000E+00  0.00000000000E+00  0.32440857016E+03  0.32441105606E+03  0.12699999809E+01 0. -1.
        4   -1    0    0  501    0  0.00000000000E+00  0.00000000000E+00 -0.19679492308E+03  0.19679902096E+03  0.12699999809E+01 0.  1.
    10030    2    1    2    0    0  0.00000000000E+00  0.00000000000E+00  0.12761364708E+03  0.52121007701E+03  0.50534612046E+03 0.  0.
        4    1    3    3  502    0 -0.14066387805E+03  0.17983272437E+03 -0.47831215276E+02  0.23327145860E+03  0.12699999809E+01 0. -1.
       -4    1    3    3    0  502  0.14066387805E+03 -0.17983272437E+03  0.17544486236E+03  0.28793861841E+03  0.12699999809E+01 0.  1.
</event>
<event>
 5   0  0.1683148E-01  0.4954744E+03  0.7818609E-02  0.1014967E+00
        2   -1    0    0  501    0  0.00000000000E+00  0.00000000000E+00  0.44875422106E+03  0.44875422107E+03  0.25500000920E-02 0. -1.
       -2   -1    0    0    0  501  0.00000000000E+00  0.00000000000E+00 -0.13676464548E+03  0.13676464551E+03  0.25500000920E-02 0.  1.
    10030    2    1    2    0    0  0.00000000000E+00  0.00000000000E+00  0.31198957558E+03  0.58551886658E+03  0.49547436649E+03 0.  0.
        2    1    3    3  502    0 -0.16559300094E+03  0.99173999877E+02  0.33951463311E+03  0.39054668135E+03  0.25500000920E-02 0.  1.
       -2    1    3    3    0  502  0.16559300094E+03 -0.99173999877E+02 -0.27525057534E+02  0.19497218522E+03  0.25500000920E-02 0. -1.
</event>
<event>
 5   0  0.1782124E-01  0.4982063E+03  0.7818609E-02  0.1014248E+00
        2   -1    0    0  501    0  0.00000000000E+00  0.00000000000E+00  0.26158425660E+03  0.26158425661E+03  0.25500000920E-02 0. -1.
       -2   -1    0    0    0  501  0.00000000000E+00  0.00000000000E+00 -0.23721753172E+03  0.23721753174E+03  0.25500000920E-02 0.  1.
    10030    2    1    2    0    0  0.00000000000E+00  0.00000000000E+00  0.24366724873E+02  0.49880178835E+03  0.49820626931E+03 0.  0.
        3    1    3    3  502    0 -0.44086981793E+02 -0.20712219503E+03 -0.11915688810E+03  0.24298485513E+03  0.10100000352E+00 0.  1.
       -3    1    3    3    0  502  0.44086981793E+02  0.20712219503E+03  0.14352361298E+03  0.25581693322E+03  0.10100000352E+00 0. -1.
</event>
<event>
 5   0  0.7220250E-02  0.5116281E+03  0.7818609E-02  0.1010788E+00
       -3   -1    0    0    0  501  0.00000000000E+00  0.00000000000E+00  0.13429862734E+04  0.13429862772E+04  0.10100000352E+00 0.  1.
        3   -1    0    0  501    0  0.00000000000E+00  0.00000000000E+00 -0.48727792667E+02  0.48727897340E+02  0.10100000352E+00 0. -1.
    10030    2    1    2    0    0  0.00000000000E+00  0.00000000000E+00  0.12942584808E+04  0.13917141746E+04  0.51162811559E+03 0.  0.
        3    1    3    3  502    0 -0.42192840077E+02 -0.18329273612E+03  0.11187811784E+04  0.11344812904E+04  0.10100000352E+00 0.  1.
       -3    1    3    3    0  502  0.42192840077E+02  0.18329273612E+03  0.17547730238E+03  0.25723288421E+03  0.10100000352E+00 0. -1.
</event>
<event>
 5   0  0.7220250E-02  0.4933119E+03  0.7818609E-02  0.1015540E+00
        3   -1    0    0  501    0  0.00000000000E+00  0.00000000000E+00  0.10921695401E+04  0.10921695448E+04  0.10100000352E+00 0.  1.
       -3   -1    0    0    0  501  0.00000000000E+00  0.00000000000E+00 -0.55704805275E+02  0.55704896838E+02  0.10100000352E+00 0. -1.
    10030    2    1    2    0    0  0.00000000000E+00  0.00000000000E+00  0.10364647349E+04  0.11478744417E+04  0.49331185590E+03 0.  0.
        4    1    3    3  502    0  0.77760573055E+02 -0.16951459506E+03  0.89383066560E+03  0.91308092539E+03  0.12699999809E+01 0.  1.
       -4    1    3    3    0  502 -0.77760573055E+02  0.16951459506E+03  0.14263406927E+03  0.23479351626E+03  0.12699999809E+01 0. -1.
</event>
<event>
 5   0  0.1683148E-01  0.5032152E+03  0.7818609E-02  0.1012943E+00
       -2   -1    0    0    0  501  0.00000000000E+00  0.00000000000E+00  0.22792589000E+03  0.22792589001E+03  0.25500000920E-02 0.  1.
        2   -1    0    0  501    0  0.00000000000E+00  0.00000000000E+00 -0.27774984169E+03  0.27774984170E+03  0.25500000920E-02 0. -1.
    10030    2    1    2    0    0  0.00000000000E+00  0.00000000000E+00 -0.49823951689E+02  0.50567573171E+03  0.50321518208E+03 0.  0.
        2    1    3    3  502    0 -0.19914194489E+03  0.68514618826E+02  0.11343696324E+03  0.23920642099E+03  0.25500000920E-02 0.  1.
       -2    1    3    3    0  502  0.19914194489E+03 -0.68514618826E+02 -0.16326091493E+03  0.26646931072E+03  0.25500000920E-02 0. -1.
</event>
<event>
 5   0  0.1827698E-01  0.5131085E+03  0.7818609E-02  0.1010413E+00
        2   -1    0    0  501    0  0.00000000000E+00  0.00000000000E+00  0.74135297608E+03  0.74135297608E+03  0.25500000920E-02 0. -1.
       -2   -1    0    0    0  501  0.00000000000E+00  0.00000000000E+00 -0.88783738544E+02  0.88783738581E+02  0.25500000920E-02 0.  1.
    10030    2    1    2    0    0  0.00000000000E+00  0.00000000000E+00  0.65256923754E+03  0.83013671466E+03  0.51310852191E+03 0.  0.
        1    1    3    3  502    0  0.15874581176E+03 -0.20150783785E+03  0.33243403797E+03  0.41990240663E+03  0.50400001928E-02 0. -1.
       -1    1    3    3    0  502 -0.15874581176E+03  0.20150783785E+03  0.32013519957E+03  0.41023430804E+03  0.50400001928E-02 0.  1.
</event>
<event>
 5   0  0.1141970E-01  0.4895739E+03  0.7818609E-02  0.1016537E+00
        1   -1    0    0  501    0  0.00000000000E+00  0.00000000000E+00  0.37951966949E+03  0.37951966952E+03  0.50400001928E-02 0.  1.
       -1   -1    0    0    0  501  0.00000000000E+00  0.00000000000E+00 -0.15788552085E+03  0.15788552093E+03  0.50400001928E-02 0. -1.
    10030    2    1    2    0    0  0.00000000000E+00  0.00000000000E+00  0.22163414864E+03  0.53740519045E+03  0.48957394016E+03 0.  0.
        3    1    3    3  502    0 -0.16087550918E+03 -0.92825074974E+02 -0.64207446689E+02  0.19651979649E+03  0.10100000352E+00 0. -1.
       -3    1    3    3    0  502  0.16087550918E+03  0.92825074974E+02  0.28584159533E+03  0.34088539397E+03  0.10100000352E+00 0.  1.
</event>
<event>
 5   0  0.1760649E-01  0.4993089E+03  0.7818609E-02  0.1013959E+00
        2   -1    0    0  501    0  0.00000000000E+00  0.00000000000E+00  0.38784961215E+03  0.38784961216E+03  0.25500000920E-02 0. -1.
       -2   -1    0    0    0  501  0.00000000000E+00  0.00000000000E+00 -0.16069978232E+03  0.16069978234E+03  0.25500000920E-02 0.  1.
    10030    2    1    2    0    0  0.00000000000E+00  0.00000000000E+00  0.22714982983E+03  0.54854939450E+03  0.49930891542E+03 0.  0.
        5    1    3    3  502    0 -0.21811611077E+03 -0.66689726794E+02  0.22498088540E+03  0.32040700091E+03  0.46999998093E+01 0. -1.
       -5    1    3    3    0  502  0.21811611077E+03  0.66689726794E+02  0.21689444259E+01  0.22814239359E+03  0.46999998093E+01 0.  1.
</event>
<event>
 5   0  0.1709372E-01  0.4506923E+03  0.7818609E-02  0.1027516E+00
        2   -1    0    0  501    0  0.00000000000E+00  0.00000000000E+00  0.10732329821E+04  0.10732329821E+04  0.25500000920E-02 0.  1.
       -2   -1    0    0    0  501  0.00000000000E+00  0.00000000000E+00 -0.47315814587E+02  0.47315814655E+02  0.25500000920E-02 0. -1.
    10030    2    1    2    0    0  0.00000000000E+00  0.00000000000E+00  0.10259171675E+04  0.11205487968E+04  0.45069232445E+03 0.  0.
        4    1    3    3  502    0 -0.53670513380E+02  0.17524437775E+03  0.18699779799E+03  0.26184137429E+03  0.12699999809E+01 0. -1.
       -4    1    3    3    0  502  0.53670513380E+02 -0.17524437775E+03  0.83891936954E+03  0.85870742249E+03  0.12699999809E+01 0.  1.
</event>
<event>
 5   0  0.1683148E-01  0.5057258E+03  0.7818609E-02  0.1012295E+00
        2   -1    0    0  501    0  0.00000000000E+00  0.00000000000E+00  0.57734927291E+03  0.57734927291E+03  0.25500000920E-02 0. -1.
       -2   -1    0    0    0  501  0.00000000000E+00  0.00000000000E+00 -0.11074689761E+03  0.11074689764E+03  0.25500000920E-02 0.  1.
    10030    2    1    2    0    0  0.00000000000E+00  0.00000000000E+00  0.46660237530E+03  0.68809617055E+03  0.50572577875E+03 0.  0.
        2    1    3    3  502    0 -0.18870971898E+00 -0.17568280575E+03 -0.14147415200E+02  0.17625161903E+03  0.25500000920E-02 0.  1.
       -2    1    3    3    0  502  0.18870971898E+00  0.17568280575E+03  0.48074979050E+03  0.51184455152E+03  0.25500000920E-02 0. -1.
</event>
<event>
 5   0  0.1141970E-01  0.5077724E+03  0.7818609E-02  0.1011770E+00
        1   -1    0    0  501    0  0.00000000000E+00  0.00000000000E+00  0.17266321589E+04  0.17266321590E+04  0.50400001928E-02 0.  1.
       -1   -1    0    0    0  501  0.00000000000E+00  0.00000000000E+00 -0.37331747383E+02  0.37331747724E+02  0.50400001928E-02 0. -1.
    10030    2    1    2    0    0  0.00000000000E+00  0.00000000000E+00  0.16893004116E+04  0.17639639067E+04  0.50777237376E+03 0.  0.
        3    1    3    3  502    0  0.22143823939E+03  0.98494147042E+02  0.58186437427E+03  0.63031908674E+03  0.10100000352E+00 0. -1.
       -3    1    3    3    0  502 -0.22143823939E+03 -0.98494147042E+02  0.11074360373E+04  0.11336448199E+04  0.10100000352E+00 0.  1.
</event>
<event>
 5   0  0.1123271E-01  0.5003304E+03  0.7818609E-02  0.1013693E+00
        1   -1    0    0  501    0  0.00000000000E+00  0.00000000000E+00  0.76294097319E+03  0.76294097320E+03  0.50400001928E-02 0.  1.
       -1   -1    0    0    0  501  0.00000000000E+00  0.00000000000E+00 -0.82028128291E+02  0.82028128446E+02  0.50400001928E-02 0. -1.
    10030    2    1    2    0    0  0.00000000000E+00  0.00000000000E+00  0.68091284490E+03  0.84496910165E+03  0.50033037125E+03 0.  0.
        5    1    3    3  502    0  0.11704262534E+02 -0.43741024171E+01 -0.81426158383E+02  0.82513221974E+02  0.46999998093E+01 0. -1.
       -5    1    3    3    0  502 -0.11704262534E+02  0.43741024171E+01  0.76233900328E+03  0.76245587968E+03  0.46999998093E+01 0.  1.
</event>
<event>
 5   0  0.1827698E-01  0.5005453E+03  0.7818609E-02  0.1013637E+00
        2   -1    0    0  501    0  0.00000000000E+00  0.00000000000E+00  0.21404181286E+04  0.21404181286E+04  0.25500000920E-02 0. -1.
       -2   -1    0    0    0  501  0.00000000000E+00  0.00000000000E+00 -0.29263622528E+02  0.29263622639E+02  0.25500000920E-02 0.  1.
    10030    2    1    2    0    0  0.00000000000E+00  0.00000000000E+00  0.21111545060E+04  0.21696817512E+04  0.50054525585E+03 0.  0.
        1    1    3    3  502    0  0.29131799442E+02  0.29752994514E+02 -0.14142946032E+02  0.43976418330E+02  0.50400001928E-02 0.  1.
       -1    1    3    3    0  502 -0.29131799442E+02 -0.29752994514E+02  0.21252974521E+04  0.21257053329E+04  0.50400001928E-02 0. -1.
</event>
<event>
 5   0  0.1760649E-01  0.4965685E+03  0.7818609E-02  0.1014678E+00
       -2   -1    0    0    0  501  0.00000000000E+00  0.00000000000E+00  0.48267188337E+02  0.48267188404E+02  0.25500000920E-02 0. -1.
        2   -1    0    0  501    0  0.00000000000E+00  0.00000000000E+00 -0.12771628369E+04  0.12771628369E+04  0.25500000920E-02 0.  1.
    10030    2    1    2    0    0  0.00000000000E+00  0.00000000000E+00 -0.12288956485E+04  0.13254300253E+04  0.49656846147E+03 0.  0.
        5    1    3    3  502    0 -0.17858528891E+03  0.40343017413E+00 -0.10746788203E+04  0.10894262366E+04  0.46999998093E+01 0.  1.
       -5    1    3    3    0  502  0.17858528891E+03 -0.40343017413E+00 -0.15421682826E+03  0.23600378871E+03  0.46999998093E+01 0. -1.
</event>
<event>
 5   0  0.1760649E-01  0.5024810E+03  0.7818609E-02  0.1013133E+00
        2   -1    0    0  501    0  0.00000000000E+00  0.00000000000E+00  0.85917305041E+03  0.85917305042E+03  0.25500000920E-02 0. -1.
       -2   -1    0    0    0  501  0.00000000000E+00  0.00000000000E+00 -0.73468078344E+02  0.73468078389E+02  0.25500000920E-02 0.  1.
    10030    2    1    2    0    0  0.00000000000E+00  0.00000000000E+00  0.78570497207E+03  0.93264112880E+03  0.50248101656E+03 0.  0.
        5    1    3    3  502    0  0.24091121666E+03  0.71126533553E+02  0.38991489405E+03  0.46384578546E+03  0.46999998093E+01 0.  1.
       -5    1    3    3    0  502 -0.24091121666E+03 -0.71126533553E+02  0.39579007802E+03  0.46879534335E+03  0.46999998093E+01 0. -1.
</event>
<event>
 5   0  0.1068522E-01  0.4747124E+03  0.7818609E-02  0.1020599E+00
        1   -1    0    0  501    0  0.00000000000E+00  0.00000000000E+00  0.17212179333E+03  0.17212179340E+03  0.50400001928E-02 0. -1.
       -1   -1    0    0    0  501  0.00000000000E+00  0.00000000000E+00 -0.32731455112E+03  0.32731455115E+03  0.50400001928E-02 0.  1.
    10030    2    1    2    0    0  0.00000000000E+00  0.00000000000E+00 -0.15519275779E+03  0.49943634455E+03  0.47471240788E+03 0.  0.
        2    1    3    3  502    0  0.84166001361E+02 -0.17867826615E+03  0.60895847074E+02  0.20668367806E+03  0.25500000920E-02 0. -1.
       -2    1    3    3    0  502 -0.84166001361E+02  0.17867826615E+03 -0.21608860486E+03  0.29275266649E+03  0.25500000920E-02 0.  1.
</event>
<event>
 5   0  0.1074281E-01  0.5023435E+03  0.7818609E-02  0.1013169E+00
        1   -1    0    0  501    0  0.00000000000E+00  0.00000000000E+00  0.64905385296E+03  0.64905385298E+03  0.50400001928E-02 0. -1.
       -1   -1    0    0    0  501  0.00000000000E+00  0.00000000000E+00 -0.97198798286E+02  0.97198798416E+02  0.50400001928E-02 0.  1.
    10030    2    1    2    0    0  0.00000000000E+00  0.00000000000E+00  0.55185505467E+03  0.74625265139E+03  0.50234352623E+03 0.  0.
        4    1    3    3  502    0 -0.15641651476E+03  0.19651592646E+03  0.27443735628E+03  0.37202434176E+03  0.12699999809E+01 0.  1.
       -4    1    3    3    0  502  0.15641651476E+03 -0.19651592646E+03  0.27741769839E+03  0.37422830963E+03  0.12699999809E+01 0. -1.
</event>
<event>
 5   0  0.1068522E-01  0.4979908E+03  0.7818609E-02  0.1014305E+00
        1   -1    0    0  501    0  0.00000000000E+00  0.00000000000E+00  0.46934785930E+03  0.46934785933E+03  0.50400001928E-02 0. -1.
       -1   -1    0    0    0  501  0.00000000000E+00  0.00000000000E+00 -0.13209541925E+03  0.13209541935E+03  0.50400001928E-02 0.  1.
    10030    2    1    2    0    0  0.00000000000E+00  0.00000000000E+00  0.33725244005E+03  0.60144327868E+03  0.49799077215E+03 0.  0.
        2    1    3    3  502    0 -0.20735544437E+02  0.22186978680E+03  0.34449984617E+02  0.22548384986E+03  0.25500000920E-02 0.  1.
       -2    1    3    3    0  502  0.20735544437E+02 -0.22186978680E+03  0.30280245543E+03  0.37595942882E+03  0.25500000920E-02 0. -1.
</event>
<event>
 5   0  0.1827698E-01  0.5028092E+03  0.7818609E-02  0.1013048E+00
       -2   -1    0    0    0  501  0.00000000000E+00  0.00000000000E+00  0.11175556986E+04  0.11175556986E+04  0.25500000920E-02 0.  1.
        2   -1    0    0  501    0  0.00000000000E+00  0.00000000000E+00 -0.56555807289E+02  0.56555807346E+02  0.25500000920E-02 0. -1.
    10030    2    1    2    0    0  0.00000000000E+00  0.00000000000E+00  0.10609998914E+04  0.11741115060E+04  0.50280916763E+03 0.  0.
        1    1    3    3  502    0 -0.17111123829E+03  0.58107079695E+01  0.10061602954E+03  0.19858601568E+03  0.50400001928E-02 0. -1.
       -1    1    3    3    0  502  0.17111123829E+03 -0.58107079695E+01  0.96038386181E+03  0.97552549032E+03  0.50400001928E-02 0.  1.
</event>
<event>
 5   0  0.1760649E-01  0.5005804E+03  0.7818609E-02  0.1013628E+00
       -2   -1    0    0    0  501  0.00000000000E+00  0.00000000000E+00  0.54784743675E+02  0.54784743735E+02  0.25500000920E-02 0.  1.
        2   -1    0    0  501    0  0.00000000000E+00  0.00000000000E+00 -0.11434786911E+04  0.11434786911E+04  0.25500000920E-02 0. -1.
    10030    2    1    2    0    0  0.00000000000E+00  0.00000000000E+00 -0.10886939474E+04  0.11982634348E+04  0.50058041123E+03 0.  0.
        5    1    3    3  502    0 -0.64388770273E+01  0.13589462188E+03 -0.10471155216E+04  0.10559269923E+04  0.46999998093E+01 0. -1.
       -5    1    3    3    0  502  0.64388770273E+01 -0.13589462188E+03 -0.41578425818E+02  0.14233644258E+03  0.46999998093E+01 0.  1.
</event>
<event>
 5   0  0.1782124E-01  0.4757601E+03  0.7818609E-02  0.1020307E+00
        2   -1    0    0  501    0  0.00000000000E+00  0.00000000000E+00  0.12798854596E+04  0.12798854596E+04  0.25500000920E-02 0.  1.
       -2   -1    0    0    0  501  0.00000000000E+00  0.00000000000E+00 -0.44212489089E+02  0.44212489163E+02  0.25500000920E-02 0. -1.
    10030    2    1    2    0    0  0.00000000000E+00  0.00000000000E+00  0.12356729705E+04  0.13240979488E+04  0.47576011589E+03 0.  0.
        3    1    3    3  502    0  0.12241972032E+03  0.53960286208E+02  0.70412713711E+02  0.15118287226E+03  0.10100000352E+00 0. -1.
       -3    1    3    3    0  502 -0.12241972032E+03 -0.53960286208E+02  0.11652602568E+04  0.11729150765E+04  0.10100000352E+00 0.  1.
</event>
<event>
 5   0  0.1074281E-01  0.4346927E+03  0.7818609E-02  0.1032388E+00
        1   -1    0    0  501    0  0.00000000000E+00  0.00000000000E+00  0.60089369221E+02  0.60089369432E+02  0.50400001928E-02 0.  1.
       -1   -1    0    0    0  501  0.00000000000E+00  0.00000000000E+00 -0.78615293494E+03  0.78615293495E+03  0.50400001928E-02 0. -1.
    10030    2    1    2    0    0  0.00000000000E+00  0.00000000000E+00 -0.72606356572E+03  0.84624230439E+03  0.43469269176E+03 0.  0.
        4    1    3    3  502    0  0.18102528461E+02  0.94451812522E+02 -0.74247009521E+03  0.74867369501E+03  0.12699999809E+01 0. -1.
       -4    1    3    3    0  502 -0.18102528461E+02 -0.94451812522E+02  0.16406529491E+02  0.97568609374E+02  0.12699999809E+01 0.  1.
</event>
<event>
 5   0  0.1827698E-01  0.5122975E+03  0.7818609E-02  0.1010618E+00
        2   -1    0    0  501    0  0.00000000000E+00  0.00000000000E+00  0.15520320527E+04  0.15520320528E+04  0.25500000920E-02 0. -1.
       -2   -1    0    0    0  501  0.00000000000E+00  0.00000000000E+00 -0.42275018859E+02  0.42275018936E+02  0.25500000920E-02 0.  1.
    10030    2    1    2    0    0  0.00000000000E+00  0.00000000000E+00  0.15097570339E+04  0.15943070717E+04  0.51229750873E+03 0.  0.
        1    1    3    3  502    0 -0.22173819372E+03 -0.72201862695E+02  0.10846884662E+04  0.11094728497E+04  0.50400001928E-02 0. -1.
       -1    1    3    3    0  502  0.22173819372E+03  0.72201862695E+02  0.42506856773E+03  0.48483422201E+03  0.50400001928E-02 0.  1.
</event>
<event>
 5   0  0.1074281E-01  0.4917073E+03  0.7818609E-02  0.1015966E+00
        1   -1    0    0  501    0  0.00000000000E+00  0.00000000000E+00  0.20103170951E+03  0.20103170957E+03  0.50400001928E-02 0.  1.
       -1   -1    0    0    0  501  0.00000000000E+00  0.00000000000E+00 -0.30066904328E+03  0.30066904332E+03  0.50400001928E-02 0. -1.
    10030    2    1    2    0    0  0.00000000000E+00  0.00000000000E+00 -0.99637333767E+02  0.50170075289E+03  0.49170727793E+03 0.  0.
        4    1    3    3  502    0  0.85832155202E+02 -0.16758469458E+03  0.11147842832E+03  0.21881691343E+03  0.12699999809E+01 0. -1.
       -4    1    3    3    0  502 -0.85832155202E+02  0.16758469458E+03 -0.21111576209E+03  0.28288383946E+03  0.12699999809E+01 0.  1.
</event>
<event>
 5   0  0.1782124E-01  0.4955438E+03  0.7818609E-02  0.1014949E+00
       -2   -1    0    0    0  501  0.00000000000E+00  0.00000000000E+00  0.79418867583E+02  0.79418867624E+02  0.25500000920E-02 0. -1.
        2   -1    0    0  501    0  0.00000000000E+00  0.00000000000E+00 -0.77300173427E+03  0.77300173427E+03  0.25500000920E-02 0.  1.
    10030    2    1    2    0    0  0.00000000000E+00  0.00000000000E+00 -0.69358286668E+03  0.85242060189E+03  0.49554383214E+03 0.  0.
        3    1    3    3  502    0  0.23085687031E+03 -0.80710808396E+02 -0.27837738051E+03  0.37054433654E+03  0.10100000352E+00 0.  1.
       -3    1    3    3    0  502 -0.23085687031E+03  0.80710808396E+02 -0.41520548617E+03  0.48187626535E+03  0.10100000352E+00 0. -1.
</event>
<event>
 5   0  0.1709372E-01  0.4925577E+03  0.7818609E-02  0.1015740E+00
        2   -1    0    0  501    0  0.00000000000E+00  0.00000000000E+00  0.91037598985E+03  0.91037598985E+03  0.25500000920E-02 0.  1.
       -2   -1    0    0    0  501  0.00000000000E+00  0.00000000000E+00 -0.66624423708E+02  0.66624423756E+02  0.25500000920E-02 0. -1.
    10030    2    1    2    0    0  0.00000000000E+00  0.00000000000E+00  0.84375156614E+03  0.97700041361E+03  0.49255771522E+03 0.  0.
        4    1    3    3  502    0  0.17935155884E+03  0.15655176091E+03  0.29680000214E+03  0.38048296896E+03  0.12699999809E+01 0.  1.
       -4    1    3    3    0  502 -0.17935155884E+03 -0.15655176091E+03  0.54695156400E+03  0.59651744465E+03  0.12699999809E+01 0. -1.
</event>
<event>
 5   0  0.1147245E-01  0.5292278E+03  0.7818609E-02  0.1006420E+00
       -1   -1    0    0    0  501  0.00000000000E+00  0.00000000000E+00  0.29447738829E+03  0.29447738833E+03  0.50400001928E-02 0.  1.
        1   -1    0    0  501    0  0.00000000000E+00  0.00000000000E+00 -0.23777895783E+03  0.23777895788E+03  0.50400001928E-02 0. -1.
    10030    2    1    2    0    0  0.00000000000E+00  0.00000000000E+00  0.56698430460E+02  0.53225634622E+03  0.52922783947E+03 0.  0.
        1    1    3    3  502    0  0.58840798170E+01  0.13942284078E+03  0.25446277816E+03  0.29021484528E+03  0.50400001928E-02 0.  1.
       -1    1    3    3    0  502 -0.58840798170E+01 -0.13942284078E+03 -0.19776434770E+03  0.24204150093E+03  0.50400001928E-02 0. -1.
</event>
<event>
 5   0  0.1827698E-01  0.5088502E+03  0.7818609E-02  0.1011494E+00
        2   -1    0    0  501    0  0.00000000000E+00  0.00000000000E+00  0.12558113587E+04  0.12558113587E+04  0.25500000920E-02 0.  1.
       -2   -1    0    0    0  501  0.00000000000E+00  0.00000000000E+00 -0.51546060226E+02  0.51546060289E+02  0.25500000920E-02 0. -1.
    10030    2    1    2    0    0  0.00000000000E+00  0.00000000000E+00  0.12042652985E+04  0.13073574190E+04  0.50885018609E+03 0.  0.
        1    1    3    3  502    0  0.12699917968E+03 -0.73082014557E+02  0.11365240718E+04  0.11459305120E+04  0.50400001928E-02 0.  1.
       -1    1    3    3    0  502 -0.12699917968E+03  0.73082014557E+02  0.67741226688E+02  0.16142690702E+03  0.50400001928E-02 0. -1.
</event>
<event>
 5   0  0.1141970E-01  0.4991190E+03  0.7818609E-02  0.1014009E+00
        1   -1    0    0  501    0  0.00000000000E+00  0.00000000000E+00  0.35493384338E+03  0.35493384342E+03  0.50400001928E-02 0.  1.
       -1   -1    0    0    0  501  0.00000000000E+00  0.00000000000E+00 -0.17546917673E+03  0.17546917681E+03  0.50400001928E-02 0. -1.
    10030    2    1    2    0    0  0.00000000000E+00  0.00000000000E+00  0.17946466665E+03  0.53040302023E+03  0.49911902117E+03 0.  0.
        3    1    3    3  502    0  0.23613677815E+02  0.93132622185E+02  0.33449153473E+03  0.34801708019E+03  0.10100000352E+00 0.  1.
       -3    1    3    3    0  502 -0.23613677815E+02 -0.93132622185E+02 -0.15502686808E+03  0.18238594004E+03  0.10100000352E+00 0. -1.
</event>
<event>
 5   0  0.1123271E-01  0.5024900E+03  0.7818609E-02  0.1013131E+00
        1   -1    0    0  501    0  0.00000000000E+00  0.00000000000E+00  0.37066661078E+03  0.37066661082E+03  0.50400001928E-02 0.  1.
       -1   -1    0    0    0  501  0.00000000000E+00  0.00000000000E+00 -0.17029869627E+03  0.17029869635E+03  0.50400001928E-02 0. -1.
    10030    2    1    2    0    0  0.00000000000E+00  0.00000000000E+00  0.20036791451E+03  0.54096530717E+03  0.50248996248E+03 0.  0.
        5    1    3    3  502    0  0.10495527010E+03  0.20573162891E+02 -0.14451504524E+03  0.17984869210E+03  0.46999998093E+01 0. -1.
       -5    1    3    3    0  502 -0.10495527010E+03 -0.20573162891E+02  0.34488295975E+03  0.36111661507E+03  0.46999998093E+01 0.  1.
</event>
<event>
 5   0  0.1074281E-01  0.5004175E+03  0.7818609E-02  0.1013670E+00
       -1   -1    0    0    0  501  0.00000000000E+00  0.00000000000E+00  0.15165591805E+03  0.15165591813E+03  0.50400001928E-02 0. -1.
        1   -1    0    0  501    0  0.00000000000E+00  0.00000000000E+00 -0.41280559179E+03  0.41280559182E+03  0.50400001928E-02 0.  1.
    10030    2    1    2    0    0  0.00000000000E+00  0.00000000000E+00 -0.26114967374E+03  0.56446150995E+03  0.50041746984E+03 0.  0.
        4    1    3    3  502    0  0.17841898634E+03  0.12318304730E+03 -0.27143887489E+03  0.34740189051E+03  0.12699999809E+01 0.  1.
       -4    1    3    3    0  502 -0.17841898634E+03 -0.12318304730E+03  0.10289201151E+02  0.21705961944E+03  0.12699999809E+01 0. -1.
</event>
<event>
 5   0  0.1141970E-01  0.4964690E+03  0.7818609E-02  0.1014705E+00
       -1   -1    0    0    0  501  0.00000000000E+00  0.00000000000E+00  0.41479942808E+03  0.41479942811E+03  0.50400001928E-02 0.  1.
        1   -1    0    0  501    0  0.00000000000E+00  0.00000000000E+00 -0.14855460345E+03  0.14855460354E+03  0.50400001928E-02 0. -1.
    10030    2    1    2    0    0  0.00000000000E+00  0.00000000000E+00  0.26624482463E+03  0.56335403165E+03  0.49646899031E+03 0.  0.
        3    1    3    3  502    0 -0.22048292685E+03  0.10568970074E+03  0.84483736746E+02  0.25869005750E+03  0.10100000352E+00 0. -1.
       -3    1    3    3    0  502  0.22048292685E+03 -0.10568970074E+03  0.18176108788E+03  0.30466397415E+03  0.10100000352E+00 0.  1.
</event>
<event>
 5   0  0.1141970E-01  0.5034679E+03  0.7818609E-02  0.1012878E+00
       -1   -1    0    0    0  501  0.00000000000E+00  0.00000000000E+00  0.15490694356E+04  0.15490694356E+04  0.50400001928E-02 0.  1.
        1   -1    0    0  501    0  0.00000000000E+00  0.00000000000E+00 -0.40908425367E+02  0.40908425677E+02  0.50400001928E-02 0. -1.
    10030    2    1    2    0    0  0.00000000000E+00  0.00000000000E+00  0.15081610102E+04  0.15899778613E+04  0.50346793998E+03 0.  0.
        3    1    3    3  502    0 -0.87988110699E+02 -0.21426291919E+03  0.10654246240E+04  0.10903119488E+04  0.10100000352E+00 0.  1.
       -3    1    3    3    0  502  0.87988110699E+02  0.21426291919E+03  0.44273638624E+03  0.49966591245E+03  0.10100000352E+00 0. -1.
</event>
<event>
 5   0  0.1074281E-01  0.5164101E+03  0.7818609E-02  0.1009582E+00
        1   -1    0    0  501    0  0.00000000000E+00  0.00000000000E+00  0.53041230717E+03  0.53041230719E+03  0.50400001928E-02 0. -1.
       -1   -1    0    0    0  501  0.00000000000E+00  0.00000000000E+00 -0.12569439983E+03  0.12569439994E+03  0.50400001928E-02 0.  1.
    10030    2    1    2    0    0  0.00000000000E+00  0.00000000000E+00  0.40471790733E+03  0.65610670712E+03  0.51641013412E+03 0.  0.
        4    1    3    3  502    0 -0.20949251046E+03 -0.31773999547E+02  0.14892163463E+02  0.21241489689E+03  0.12699999809E+01 0.  1.
       -4    1    3    3    0  502  0.20949251046E+03  0.31773999547E+02  0.38982574387E+03  0.44369181024E+03  0.12699999809E+01 0. -1.
</event>
<event>
 5   0  0.1147245E-01  0.4991243E+03  0.7818609E-02  0.1014008E+00
       -1   -1    0    0    0  501  0.00000000000E+00  0.00000000000E+00  0.67405076299E+02  0.67405076487E+02  0.50400001928E-02 0.  1.
        1   -1    0    0  501    0  0.00000000000E+00  0.00000000000E+00 -0.92398466543E+03  0.92398466544E+03  0.50400001928E-02 0. -1.
    10030    2    1    2    0    0  0.00000000000E+00  0.00000000000E+00 -0.85657958913E+03  0.99138974193E+03  0.49912426097E+03 0.  0.
        1    1    3    3  502    0  0.11278897847E+03  0.22205460698E+03 -0.45979906525E+03  0.52291948002E+03  0.50400001928E-02 0. -1.
       -1    1    3    3    0  502 -0.11278897847E+03 -0.22205460698E+03 -0.39678052387E+03  0.46847026191E+03  0.50400001928E-02 0.  1.
</event>
<event>
 5   0  0.1147245E-01  0.4987643E+03  0.7818609E-02  0.1014102E+00
        1   -1    0    0  501    0  0.00000000000E+00  0.00000000000E+00  0.11157789248E+04  0.11157789248E+04  0.50400001928E-02 0. -1.
       -1   -1    0    0    0  501  0.00000000000E+00  0.00000000000E+00 -0.55738159251E+02  0.55738159479E+02  0.50400001928E-02 0.  1.
    10030    2    1    2    0    0  0.00000000000E+00  0.00000000000E+00  0.10600407655E+04  0.11715170843E+04  0.49876432727E+03 0.  0.
        1    1    3    3  502    0  0.16347992612E+03 -0.18458994672E+03  0.44237598700E+03  0.50645399453E+03  0.50400001928E-02 0.  1.
       -1    1    3    3    0  502 -0.16347992612E+03  0.18458994672E+03  0.61766477855E+03  0.66506308976E+03  0.50400001928E-02 0. -1.
</event>
<event>
 5   0  0.1141970E-01  0.4986080E+03  0.7818609E-02  0.1014143E+00
       -1   -1    0    0    0  501  0.00000000000E+00  0.00000000000E+00  0.16005782666E+03  0.16005782674E+03  0.50400001928E-02 0.  1.
        1   -1    0    0  501    0  0.00000000000E+00  0.00000000000E+00 -0.38831262703E+03  0.38831262707E+03  0.50400001928E-02 0. -1.
    10030    2    1    2    0    0  0.00000000000E+00  0.00000000000E+00 -0.22825480037E+03  0.54837045381E+03  0.49860796295E+03 0.  0.
        3    1    3    3  502    0 -0.24868561242E+03  0.17308470686E+02 -0.11094975095E+03  0.27286255591E+03  0.10100000352E+00 0.  1.
       -3    1    3    3    0  502  0.24868561242E+03 -0.17308470686E+02 -0.11730504942E+03  0.27550789789E+03  0.10100000352E+00 0. -1.
</event>
<event>
 5   0  0.1782124E-01  0.5040251E+03  0.7818609E-02  0.1012734E+00
       -2   -1    0    0    0  501  0.00000000000E+00  0.00000000000E+00  0.44581724465E+02  0.44581724538E+02  0.25500000920E-02 0.  1.
        2   -1    0    0  501    0  0.00000000000E+00  0.00000000000E+00 -0.14245820689E+04  0.14245820689E+04  0.25500000920E-02 0. -1.
    10030    2    1    2    0    0  0.00000000000E+00  0.00000000000E+00 -0.13800003444E+04  0.14691637934E+04  0.50402509988E+03 0.  0.
        3    1    3    3  502    0 -0.19991418079E+03 -0.70679656512E+02 -0.10869892479E+04  0.11074777328E+04  0.10100000352E+00 0. -1.
       -3    1    3    3    0  502  0.19991418079E+03  0.70679656512E+02 -0.29301109654E+03  0.36168606059E+03  0.10100000352E+00 0.  1.
</event>
<event>
 5   0  0.1683148E-01  0.4996942E+03  0.7818609E-02  0.1013859E+00
       -2   -1    0    0    0  501  0.00000000000E+00  0.00000000000E+00  0.92824152451E+02  0.92824152486E+02  0.25500000920E-02 0.  1.
        2   -1    0    0  501    0  0.00000000000E+00  0.00000000000E+00 -0.67249268345E+03  0.67249268345E+03  0.25500000920E-02 0. -1.
    10030    2    1    2    0    0  0.00000000000E+00  0.00000000000E+00 -0.57966853100E+03  0.76531683594E+03  0.49969416000E+03 0.  0.
        2    1    3    3  502    0 -0.20891768732E+03 -0.73451067645E+02 -0.11266191455E+03  0.24846401431E+03  0.25500000920E-02 0. -1.
       -2    1    3    3    0  502  0.20891768732E+03  0.73451067645E+02 -0.46700661645E+03  0.51685282163E+03  0.25500000920E-02 0.  1.
</event>
<event>
 5   0  0.1123271E-01  0.4688059E+03  0.7818609E-02  0.1022258E+00
        1   -1    0    0  501    0  0.00000000000E+00  0.00000000000E+00  0.32633965879E+03  0.32633965883E+03  0.50400001928E-02 0.  1.
       -1   -1    0    0    0  501  0.00000000000E+00  0.00000000000E+00 -0.16836674765E+03  0.16836674773E+03  0.50400001928E-02 0. -1.
    10030    2    1    2    0    0  0.00000000000E+00  0.00000000000E+00  0.15797291114E+03  0.49470640656E+03  0.46880591723E+03 0.  0.
        5    1    3    3  502    0 -0.11318890763E+03 -0.91469745295E+02  0.27283123427E+03  0.30925299595E+03  0.46999998093E+01 0.  1.
       -5    1    3    3    0  502  0.11318890763E+03  0.91469745295E+02 -0.11485832313E+03  0.18545341061E+03  0.46999998093E+01 0. -1.
</event>
<event>
 5   0  0.1782124E-01  0.5004903E+03  0.7818609E-02  0.1013651E+00
        2   -1    0    0  501    0  0.00000000000E+00  0.00000000000E+00  0.58817502668E+03  0.58817502669E+03  0.25500000920E-02 0.  1.
       -2   -1    0    0    0  501  0.00000000000E+00  0.00000000000E+00 -0.10646937738E+03  0.10646937741E+03  0.25500000920E-02 0. -1.
    10030    2    1    2    0    0  0.00000000000E+00  0.00000000000E+00  0.48170564930E+03  0.69464440410E+03  0.50049027520E+03 0.  0.
        3    1    3    3  502    0  0.48269645757E+02 -0.14142054133E+03 -0.37747173914E+02  0.15412523334E+03  0.10100000352E+00 0. -1.
       -3    1    3    3    0  502 -0.48269645757E+02  0.14142054133E+03  0.51945282322E+03  0.54051917076E+03  0.10100000352E+00 0.  1.
</event>
<event>
 5   0  0.1827698E-01  0.5021757E+03  0.7818609E-02  0.1013213E+00
       -2   -1    0    0    0  501  0.00000000000E+00  0.00000000000E+00  0.22876436366E+03  0.22876436368E+03  0.25500000920E-02 0. -1.
        2   -1    0    0  501    0  0.00000000000E+00  0.00000000000E+00 -0.27558967421E+03  0.27558967423E+03  0.25500000920E-02 0.  1.
    10030    2    1    2    0    0  0.00000000000E+00  0.00000000000E+00 -0.46825310551E+02  0.50435403790E+03  0.50217565238E+03 0.  0.
        1    1    3    3  502    0 -0.20519796939E+03  0.93908457604E+01 -0.16843675843E+03  0.26564136772E+03  0.50400001928E-02 0.  1.
       -1    1    3    3    0  502  0.20519796939E+03 -0.93908457604E+01  0.12161144788E+03  0.23871267019E+03  0.50400001928E-02 0. -1.
</event>
<event>
 5   0  0.1709372E-01  0.4983079E+03  0.7818609E-02  0.1014222E+00
        2   -1    0    0  501    0  0.00000000000E+00  0.00000000000E+00  0.77872138848E+02  0.77872138890E+02  0.25500000920E-02 0.  1.
       -2   -1    0    0    0  501  0.00000000000E+00  0.00000000000E+00 -0.79717444212E+03  0.79717444212E+03  0.25500000920E-02 0. -1.
    10030    2    1    2    0    0  0.00000000000E+00  0.00000000000E+00 -0.71930230327E+03  0.87504658101E+03  0.49830785209E+03 0.  0.
        4    1    3    3  502    0 -0.20832263624E+03 -0.44715725983E+02 -0.13286910575E+03  0.25110481692E+03  0.12699999809E+01 0.  1.
       -4    1    3    3    0  502  0.20832263624E+03  0.44715725983E+02 -0.58643319752E+03  0.62394176409E+03  0.12699999809E+01 0. -1.
</event>
<event>
 5   0  0.1683148E-01  0.4999469E+03  0.7818609E-02  0.1013793E+00
       -2   -1    0    0    0  501  0.00000000000E+00  0.00000000000E+00  0.74123623157E+03  0.74123623158E+03  0.25500000920E-02 0. -1.
        2   -1    0    0  501    0  0.00000000000E+00  0.00000000000E+00 -0.84300674532E+02  0.84300674570E+02  0.25500000920E-02 0.  1.
    10030    2    1    2    0    0  0.00000000000E+00  0.00000000000E+00  0.65693555704E+03  0.82553690615E+03  0.49994685448E+03 0.  0.
        2    1    3    3  502    0 -0.87850051813E+02  0.21981722180E+03  0.19585825199E+03  0.30724208286E+03  0.25500000920E-02 0.  1.
       -2    1    3    3    0  502  0.87850051813E+02 -0.21981722180E+03  0.46107730505E+03  0.51829482328E+03  0.25500000920E-02 0. -1.
</event>
<event>
 5   0  0.1123271E-01  0.4920536E+03  0.7818609E-02  0.1015874E+00
        1   -1    0    0  501    0  0.00000000000E+00  0.00000000000E+00  0.28998881112E+03  0.28998881116E+03  0.50400001928E-02 0. -1.
       -1   -1    0    0    0  501  0.00000000000E+00  0.00000000000E+00 -0.20872937888E+03  0.20872937894E+03  0.50400001928E-02 0.  1.
    10030    2    1    2    0    0  0.00000000000E+00  0.00000000000E+00  0.81259432238E+02  0.49871819011E+03  0.49205359242E+03 0.  0.
        5    1    3    3  502    0 -0.86227459866E+02  0.15566302920E+03  0.21275612764E+03  0.27740478248E+03  0.46999998093E+01 0. -1.
       -5    1    3    3    0  502  0.86227459866E+02 -0.15566302920E+03 -0.13149669540E+03  0.22131340763E+03  0.46999998093E+01 0.  1.
</event>
<event>
 5   0  0.1683148E-01  0.5281746E+03  0.7818609E-02  0.1006676E+00
        2   -1    0    0  501    0  0.00000000000E+00  0.00000000000E+00  0.17777457707E+04  0.17777457707E+04  0.25500000920E-02 0. -1.
       -2   -1    0    0    0  501  0.00000000000E+00  0.00000000000E+00 -0.39230637300E+02  0.39230637383E+02  0.25500000920E-02 0.  1.
    10030    2    1    2    0    0  0.00000000000E+00  0.00000000000E+00  0.17385151334E+04  0.18169764080E+04  0.52817459090E+03 0.  0.
        2    1    3    3  502    0 -0.18187255556E+02  0.90447669515E+02  0.17205050426E+04  0.17229768306E+04  0.25500000920E-02 0. -1.
       -2    1    3    3    0  502  0.18187255556E+02 -0.90447669515E+02  0.18010090774E+02  0.93999577454E+02  0.25500000920E-02 0.  1.
</event>
<event>
 5   0  0.1123271E-01  0.4968950E+03  0.7818609E-02  0.1014593E+00
       -1   -1    0    0    0  501  0.00000000000E+00  0.00000000000E+00  0.20122091737E+03  0.20122091743E+03  0.50400001928E-02 0. -1.
        1   -1    0    0  501    0  0.00000000000E+00  0.00000000000E+00 -0.30675820808E+03  0.30675820812E+03  0.50400001928E-02 0.  1.
    10030    2    1    2    0    0  0.00000000000E+00  0.00000000000E+00 -0.10553729071E+03  0.50797912555E+03  0.49689503143E+03 0.  0.
        5    1    3    3  502    0  0.23866554483E+03  0.48993245764E+02 -0.10224763171E+03  0.26426927291E+03  0.46999998093E+01 0.  1.
       -5    1    3    3    0  502 -0.23866554483E+03 -0.48993245764E+02 -0.32896590058E+01  0.24370985264E+03  0.46999998093E+01 0.  1.
</event>
<event>
 5   0  0.1068522E-01  0.4822553E+03  0.7818609E-02  0.1018517E+00
       -1   -1    0    0    0  501  0.00000000000E+00  0.00000000000E+00  0.58157664114E+02  0.58157664333E+02  0.50400001928E-02 0. -1.
        1   -1    0    0  501    0  0.00000000000E+00  0.00000000000E+00 -0.99974018802E+03  0.99974018804E+03  0.50400001928E-02 0.  1.
    10030    2    1    2    0    0  0.00000000000E+00  0.00000000000E+00 -0.94158252391E+03  0.10578978524E+04  0.48225534390E+03 0.  0.
        2    1    3    3  502    0 -0.17860203840E+03 -0.87220146132E+02 -0.77025828489E+03  0.79548970293E+03  0.25500000920E-02 0.  1.
       -2    1    3    3    0  502  0.17860203840E+03  0.87220146132E+02 -0.17132423902E+03  0.26240814944E+03  0.25500000920E-02 0. -1.
</event>
<event>
 5   0  0.7220250E-02  0.4982354E+03  0.7818609E-02  0.1014241E+00
        4   -1    0    0  501    0  0.00000000000E+00  0.00000000000E+00  0.67438664254E+02  0.67450621467E+02  0.12699999809E+01 0.  1.
       -4   -1    0    0    0  501  0.00000000000E+00  0.00000000000E+00 -0.92014397703E+03  0.92014485347E+03  0.12699999809E+01 0. -1.
    10030    2    1    2    0    0  0.00000000000E+00  0.00000000000E+00 -0.85270531277E+03  0.98759547493E+03  0.49823535771E+03 0.  0.
        5    1    3    3  502    0  0.14751802311E+02  0.16261568804E+03 -0.79917267008E+03  0.81569634317E+03  0.46999998093E+01 0. -1.
       -5    1    3    3    0  502 -0.14751802311E+02 -0.16261568804E+03 -0.53532642697E+02  0.17189913176E+03  0.46999998093E+01 0.  1.
</event>
<event>
 5   0  0.1068522E-01  0.4933410E+03  0.7818609E-02  0.1015532E+00
       -1   -1    0    0    0  501  0.00000000000E+00  0.00000000000E+00  0.17495466503E+03  0.17495466510E+03  0.50400001928E-02 0.  1.
        1   -1    0    0  501    0  0.00000000000E+00  0.00000000000E+00 -0.34778337636E+03  0.34778337639E+03  0.50400001928E-02 0. -1.
    10030    2    1    2    0    0  0.00000000000E+00  0.00000000000E+00 -0.17282871133E+03  0.52273804149E+03  0.49334095366E+03 0.  0.
        2    1    3    3  502    0 -0.10424205517E+03  0.16954138464E+03  0.67993568160E+02  0.21031835985E+03  0.25500000920E-02 0.  1.
       -2    1    3    3    0  502  0.10424205517E+03 -0.16954138464E+03 -0.24082227949E+03  0.31241968164E+03  0.25500000920E-02 0. -1.
</event>
<event>
 5   0  0.1827698E-01  0.4651485E+03  0.7818609E-02  0.1023299E+00
        2   -1    0    0  501    0  0.00000000000E+00  0.00000000000E+00  0.35745547835E+03  0.35745547836E+03  0.25500000920E-02 0.  1.
       -2   -1    0    0    0  501  0.00000000000E+00  0.00000000000E+00 -0.15132169861E+03  0.15132169863E+03  0.25500000920E-02 0. -1.
    10030    2    1    2    0    0  0.00000000000E+00  0.00000000000E+00  0.20613377975E+03  0.50877717699E+03  0.46514845015E+03 0.  0.
        1    1    3    3  502    0  0.40063449054E+02 -0.11168524456E+03 -0.11572523995E+03  0.16574379321E+03  0.50400001928E-02 0. -1.
       -1    1    3    3    0  502 -0.40063449054E+02  0.11168524456E+03  0.32185901969E+03  0.34303338378E+03  0.50400001928E-02 0.  1.
</event>
<event>
 5   0  0.1709372E-01  0.5026003E+03  0.7818609E-02  0.1013102E+00
       -2   -1    0    0    0  501  0.00000000000E+00  0.00000000000E+00  0.25829098009E+02  0.25829098135E+02  0.25500000920E-02 0. -1.
        2   -1    0    0  501    0  0.00000000000E+00  0.00000000000E+00 -0.24449857388E+04  0.24449857388E+04  0.25500000920E-02 0.  1.
    10030    2    1    2    0    0  0.00000000000E+00  0.00000000000E+00 -0.24191566408E+04  0.24708148369E+04  0.50260034395E+03 0.  0.
        4    1    3    3  502    0  0.12515966318E+03  0.42799615459E+02 -0.15917991297E+03  0.20697006055E+03  0.12699999809E+01 0. -1.
       -4    1    3    3    0  502 -0.12515966318E+03 -0.42799615459E+02 -0.22599767278E+04  0.22638447764E+04  0.12699999809E+01 0.  1.
</event>
<event>
 5   0  0.7220250E-02  0.5034146E+03  0.7818609E-02  0.1012891E+00
        3   -1    0    0  501    0  0.00000000000E+00  0.00000000000E+00  0.64706174224E+03  0.64706175012E+03  0.10100000352E+00 0. -1.
       -3   -1    0    0    0  501  0.00000000000E+00  0.00000000000E+00 -0.97914226805E+02  0.97914278897E+02  0.10100000352E+00 0.  1.
    10030    2    1    2    0    0  0.00000000000E+00  0.00000000000E+00  0.54914751544E+03  0.74497602902E+03  0.50341463040E+03 0.  0.
        3    1    3    3  502    0  0.10859948623E+03  0.58330271071E+02  0.59933263230E+03  0.61187897763E+03  0.10100000352E+00 0. -1.
       -3    1    3    3    0  502 -0.10859948623E+03 -0.58330271071E+02 -0.50185116860E+02  0.13309705139E+03  0.10100000352E+00 0.  1.
</event>
<event>
 5   0  0.1141970E-01  0.5005527E+03  0.7818609E-02  0.1013635E+00
        1   -1    0    0  501    0  0.00000000000E+00  0.00000000000E+00  0.11753237341E+03  0.11753237352E+03  0.50400001928E-02 0. -1.
       -1   -1    0    0    0  501  0.00000000000E+00  0.00000000000E+00 -0.53294467809E+03  0.53294467812E+03  0.50400001928E-02 0.  1.
    10030    2    1    2    0    0  0.00000000000E+00  0.00000000000E+00 -0.41541230468E+03  0.65047705163E+03  0.50055270634E+03 0.  0.
        3    1    3    3  502    0  0.18496802965E+03  0.11683951950E+03 -0.36565821305E+03  0.42611099996E+03  0.10100000352E+00 0.  1.
       -3    1    3    3    0  502 -0.18496802965E+03 -0.11683951950E+03 -0.49754091628E+02  0.22436605168E+03  0.10100000352E+00 0. -1.
</event>
<event>
 5   0  0.1782124E-01  0.4977679E+03  0.7818609E-02  0.1014363E+00
        2   -1    0    0  501    0  0.00000000000E+00  0.00000000000E+00  0.53137793260E+03  0.53137793261E+03  0.25500000920E-02 0.  1.
       -2   -1    0    0    0  501  0.00000000000E+00  0.00000000000E+00 -0.11657094487E+03  0.11657094489E+03  0.25500000920E-02 0. -1.
    10030    2    1    2    0    0  0.00000000000E+00  0.00000000000E+00  0.41480698773E+03  0.64794887750E+03  0.49776792864E+03 0.  0.
        3    1    3    3  502    0  0.19144289789E+03  0.13166073657E+03  0.32352791675E+03  0.39831552295E+03  0.10100000352E+00 0.  1.
       -3    1    3    3    0  502 -0.19144289789E+03 -0.13166073657E+03  0.91279070982E+02  0.24963335455E+03  0.10100000352E+00 0. -1.
</event>
<event>
 5   0  0.1141970E-01  0.4964934E+03  0.7818609E-02  0.1014698E+00
       -1   -1    0    0    0  501  0.00000000000E+00  0.00000000000E+00  0.17544842161E+03  0.17544842169E+03  0.50400001928E-02 0. -1.
        1   -1    0    0  501    0  0.00000000000E+00  0.00000000000E+00 -0.35125098024E+03  0.35125098028E+03  0.50400001928E-02 0.  1.
    10030    2    1    2    0    0  0.00000000000E+00  0.00000000000E+00 -0.17580255863E+03  0.52669940197E+03  0.49649342434E+03 0.  0.
        3    1    3    3  502    0  0.64427779877E+02  0.23499649960E+03 -0.13824504430E+03  0.28015352241E+03  0.10100000352E+00 0.  1.
       -3    1    3    3    0  502 -0.64427779877E+02 -0.23499649960E+03 -0.37557514331E+02  0.24654587956E+03  0.10100000352E+00 0. -1.
</event>
<event>
 5   0  0.1068522E-01  0.5024975E+03  0.7818609E-02  0.1013129E+00
       -1   -1    0    0    0  501  0.00000000000E+00  0.00000000000E+00  0.17927708319E+03  0.17927708326E+03  0.50400001928E-02 0. -1.
        1   -1    0    0  501    0  0.00000000000E+00  0.00000000000E+00 -0.35211374971E+03  0.35211374974E+03  0.50400001928E-02 0.  1.
    10030    2    1    2    0    0  0.00000000000E+00  0.00000000000E+00 -0.17283666652E+03  0.53139083300E+03  0.50249746677E+03 0.  0.
        2    1    3    3  502    0 -0.17706997042E+03 -0.91099450443E+02 -0.24843693016E+03  0.31839251337E+03  0.25500000920E-02 0.  1.
       -2    1    3    3    0  502  0.17706997042E+03  0.91099450443E+02  0.75600263641E+02  0.21299831963E+03  0.25500000920E-02 0. -1.
</event>
<event>
 5   0  0.1683148E-01  0.4937408E+03  0.7818609E-02  0.1015426E+00
        2   -1    0    0  501    0  0.00000000000E+00  0.00000000000E+00  0.72086395185E+03  0.72086395185E+03  0.25500000920E-02 0. -1.
       -2   -1    0    0    0  501  0.00000000000E+00  0.00000000000E+00 -0.84544360868E+02  0.84544360907E+02  0.25500000920E-02 0.  1.
    10030    2    1    2    0    0  0.00000000000E+00  0.00000000000E+00  0.63631959098E+03  0.80540831276E+03  0.49374075019E+03 0.  0.
        2    1    3    3  502    0  0.88719853643E+02  0.47818413947E+02  0.68577556877E+03  0.69314208058E+03  0.25500000920E-02 0. -1.
       -2    1    3    3    0  502 -0.88719853643E+02 -0.47818413947E+02 -0.49455977788E+02  0.11226623218E+03  0.25500000920E-02 0.  1.
</event>
<event>
 5   0  0.1123271E-01  0.4487862E+03  0.7818609E-02  0.1028085E+00
       -1   -1    0    0    0  501  0.00000000000E+00  0.00000000000E+00  0.23371074292E+03  0.23371074297E+03  0.50400001928E-02 0. -1.
        1   -1    0    0  501    0  0.00000000000E+00  0.00000000000E+00 -0.21544689577E+03  0.21544689583E+03  0.50400001928E-02 0.  1.
    10030    2    1    2    0    0  0.00000000000E+00  0.00000000000E+00  0.18263847149E+02  0.44915763880E+03  0.44878615885E+03 0.  0.
        5    1    3    3  502    0 -0.79114308943E+02 -0.19386064549E+03  0.89753803268E+02  0.22785710203E+03  0.46999998093E+01 0. -1.
       -5    1    3    3    0  502  0.79114308943E+02  0.19386064549E+03 -0.71489956119E+02  0.22130053676E+03  0.46999998093E+01 0.  1.
</event>
<event>
 5   0  0.1074281E-01  0.4996670E+03  0.7818609E-02  0.1013866E+00
        1   -1    0    0  501    0  0.00000000000E+00  0.00000000000E+00  0.14154991520E+04  0.14154991520E+04  0.50400001928E-02 0. -1.
       -1   -1    0    0    0  501  0.00000000000E+00  0.00000000000E+00 -0.44095249854E+02  0.44095250142E+02  0.50400001928E-02 0.  1.
    10030    2    1    2    0    0  0.00000000000E+00  0.00000000000E+00  0.13714039021E+04  0.14595944021E+04  0.49966704511E+03 0.  0.
        4    1    3    3  502    0  0.18873403867E+03 -0.14959988043E+03  0.87978739110E+03  0.91215575864E+03  0.12699999809E+01 0. -1.
       -4    1    3    3    0  502 -0.18873403867E+03  0.14959988043E+03  0.49161651104E+03  0.54743864351E+03  0.12699999809E+01 0.  1.
</event>
<event>
 5   0  0.1709372E-01  0.4430668E+03  0.7818609E-02  0.1029810E+00
        2   -1    0    0  501    0  0.00000000000E+00  0.00000000000E+00  0.83471394623E+03  0.83471394623E+03  0.25500000920E-02 0.  1.
       -2   -1    0    0    0  501  0.00000000000E+00  0.00000000000E+00 -0.58795056751E+02  0.58795056806E+02  0.25500000920E-02 0. -1.
    10030    2    1    2    0    0  0.00000000000E+00  0.00000000000E+00  0.77591888947E+03  0.89350900304E+03  0.44306682957E+03 0.  0.
        4    1    3    3  502    0 -0.73681156594E+02  0.17919261515E+03  0.17135498931E+03  0.25865624180E+03  0.12699999809E+01 0. -1.
       -4    1    3    3    0  502  0.73681156594E+02 -0.17919261515E+03  0.60456390016E+03  0.63485276123E+03  0.12699999809E+01 0.  1.
</event>
<event>
 5   0  0.1074281E-01  0.4495248E+03  0.7818609E-02  0.1027864E+00
        1   -1    0    0  501    0  0.00000000000E+00  0.00000000000E+00  0.30343471030E+03  0.30343471034E+03  0.50400001928E-02 0.  1.
       -1   -1    0    0    0  501  0.00000000000E+00  0.00000000000E+00 -0.16648770001E+03  0.16648770009E+03  0.50400001928E-02 0. -1.
    10030    2    1    2    0    0  0.00000000000E+00  0.00000000000E+00  0.13694701028E+03  0.46992241043E+03  0.44952484714E+03 0.  0.
        4    1    3    3  502    0  0.12569891729E+03 -0.16518205049E+03 -0.21642539357E+02  0.20869916153E+03  0.12699999809E+01 0. -1.
       -4    1    3    3    0  502 -0.12569891729E+03  0.16518205049E+03  0.15858954964E+03  0.26122324890E+03  0.12699999809E+01 0.  1.
</event>
<event>
 5   0  0.1709372E-01  0.4974043E+03  0.7818609E-02  0.1014459E+00
        2   -1    0    0  501    0  0.00000000000E+00  0.00000000000E+00  0.70283319868E+03  0.70283319868E+03  0.25500000920E-02 0.  1.
       -2   -1    0    0    0  501  0.00000000000E+00  0.00000000000E+00 -0.88004892388E+02  0.88004892425E+02  0.25500000920E-02 0. -1.
    10030    2    1    2    0    0  0.00000000000E+00  0.00000000000E+00  0.61482830629E+03  0.79083809111E+03  0.49740430249E+03 0.  0.
        4    1    3    3  502    0 -0.23137701775E+03 -0.75687430237E+02  0.22654255257E+03  0.33254631627E+03  0.12699999809E+01 0. -1.
       -4    1    3    3    0  502  0.23137701775E+03  0.75687430237E+02  0.38828575372E+03  0.45829177483E+03  0.12699999809E+01 0.  1.
</event>
<event>
 5   0  0.1760649E-01  0.4978901E+03  0.7818609E-02  0.1014331E+00
        2   -1    0    0  501    0  0.00000000000E+00  0.00000000000E+00  0.38452048153E+03  0.38452048154E+03  0.25500000920E-02 0.  1.
       -2   -1    0    0    0  501  0.00000000000E+00  0.00000000000E+00 -0.16117122256E+03  0.16117122258E+03  0.25500000920E-02 0. -1.
    10030    2    1    2    0    0  0.00000000000E+00  0.00000000000E+00  0.22334925897E+03  0.54569170412E+03  0.49789009275E+03 0.  0.
        5    1    3    3  502    0 -0.43925997794E+02  0.19026043331E+03  0.28084031687E+03  0.34208463769E+03  0.46999998093E+01 0.  1.
       -5    1    3    3    0  502  0.43925997794E+02 -0.19026043331E+03 -0.57491057900E+02  0.20360706643E+03  0.46999998093E+01 0. -1.
</event>
<event>
 5   0  0.1074281E-01  0.4899994E+03  0.7818609E-02  0.1016423E+00
       -1   -1    0    0    0  501  0.00000000000E+00  0.00000000000E+00  0.13590038746E+03  0.13590038755E+03  0.50400001928E-02 0. -1.
        1   -1    0    0  501    0  0.00000000000E+00  0.00000000000E+00 -0.44168274058E+03  0.44168274061E+03  0.50400001928E-02 0.  1.
    10030    2    1    2    0    0  0.00000000000E+00  0.00000000000E+00 -0.30578235312E+03  0.57758312817E+03  0.48999941067E+03 0.  0.
        4    1    3    3  502    0 -0.10830373674E+02  0.18042826061E+03  0.42052978199E+02  0.18558480567E+03  0.12699999809E+01 0. -1.
       -4    1    3    3    0  502  0.10830373674E+02 -0.18042826061E+03 -0.34783533132E+03  0.39199832249E+03  0.12699999809E+01 0.  1.
</event>
<event>
 5   0  0.1760649E-01  0.4987702E+03  0.7818609E-02  0.1014100E+00
        2   -1    0    0  501    0  0.00000000000E+00  0.00000000000E+00  0.80305355825E+03  0.80305355825E+03  0.25500000920E-02 0. -1.
       -2   -1    0    0    0  501  0.00000000000E+00  0.00000000000E+00 -0.77445552040E+02  0.77445552082E+02  0.25500000920E-02 0.  1.
    10030    2    1    2    0    0  0.00000000000E+00  0.00000000000E+00  0.72560800621E+03  0.88049911034E+03  0.49877019220E+03 0.  0.
        5    1    3    3  502    0  0.96371585620E+02  0.16000058038E+03  0.71211852842E+02  0.19995220984E+03  0.46999998093E+01 0.  1.
       -5    1    3    3    0  502 -0.96371585620E+02 -0.16000058038E+03  0.65439615337E+03  0.68054690050E+03  0.46999998093E+01 0. -1.
</event>
<event>
 5   0  0.7220250E-02  0.4962583E+03  0.7818609E-02  0.1014760E+00
       -4   -1    0    0    0  501  0.00000000000E+00  0.00000000000E+00  0.31630540348E+03  0.31630795306E+03  0.12699999809E+01 0.  1.
        4   -1    0    0  501    0  0.00000000000E+00  0.00000000000E+00 -0.19464212928E+03  0.19464627248E+03  0.12699999809E+01 0. -1.
    10030    2    1    2    0    0  0.00000000000E+00  0.00000000000E+00  0.12166327419E+03  0.51095422554E+03  0.49625826775E+03 0.  0.
        4    1    3    3  502    0 -0.11986087959E+03  0.14637898245E+03 -0.10446228007E+03  0.21611898995E+03  0.12699999809E+01 0. -1.
       -4    1    3    3    0  502  0.11986087959E+03 -0.14637898245E+03  0.22612555426E+03  0.29483523560E+03  0.12699999809E+01 0.  1.
</event>
<event>
 5   0  0.7220250E-02  0.5007643E+03  0.7818609E-02  0.1013580E+00
       -3   -1    0    0    0  501  0.00000000000E+00  0.00000000000E+00  0.39072673529E+02  0.39072804067E+02  0.10100000352E+00 0.  1.
        3   -1    0    0  501    0  0.00000000000E+00  0.00000000000E+00 -0.16044748772E+04  0.16044748804E+04  0.10100000352E+00 0. -1.
    10030    2    1    2    0    0  0.00000000000E+00  0.00000000000E+00 -0.15654022037E+04  0.16435476845E+04  0.50076434757E+03 0.  0.
        1    1    3    3  502    0 -0.19508706952E+03  0.15409762379E+00 -0.26759001095E+03  0.33115465032E+03  0.50400001928E-02 0.  1.
       -1    1    3    3    0  502  0.19508706952E+03 -0.15409762379E+00 -0.12978121928E+04  0.13123930342E+04  0.50400001928E-02 0. -1.
</event>
<event>
 5   0  0.1683148E-01  0.4913163E+03  0.7818609E-02  0.1016071E+00
        2   -1    0    0  501    0  0.00000000000E+00  0.00000000000E+00  0.28866628169E+03  0.28866628170E+03  0.25500000920E-02 0.  1.
       -2   -1    0    0    0  501  0.00000000000E+00  0.00000000000E+00 -0.20905775137E+03  0.20905775138E+03  0.25500000920E-02 0. -1.
    10030    2    1    2    0    0  0.00000000000E+00  0.00000000000E+00  0.79608530323E+02  0.49772403308E+03  0.49131628816E+03 0.  0.
        2    1    3    3  502    0  0.10652963696E+03 -0.84913044223E+01 -0.18427562760E+03  0.21302153115E+03  0.25500000920E-02 0. -1.
       -2    1    3    3    0  502 -0.10652963696E+03  0.84913044223E+01  0.26388415792E+03  0.28470250193E+03  0.25500000920E-02 0.  1.
</event>
<event>
 5   0  0.1141970E-01  0.4860342E+03  0.7818609E-02  0.1017490E+00
       -1   -1    0    0    0  501  0.00000000000E+00  0.00000000000E+00  0.21844493242E+03  0.21844493247E+03  0.50400001928E-02 0.  1.
        1   -1    0    0  501    0  0.00000000000E+00  0.00000000000E+00 -0.27035336249E+03  0.27035336254E+03  0.50400001928E-02 0. -1.
    10030    2    1    2    0    0  0.00000000000E+00  0.00000000000E+00 -0.51908430077E+02  0.48879829501E+03  0.48603424581E+03 0.  0.
        3    1    3    3  502    0  0.12582020391E+03 -0.18512461006E+03  0.69217287832E+02  0.23429231335E+03  0.10100000352E+00 0.  1.
       -3    1    3    3    0  502 -0.12582020391E+03  0.18512461006E+03 -0.12112571791E+03  0.25450598166E+03  0.10100000352E+00 0. -1.
</event>
</LesHouchesEvents>
