<LesHouchesEvents version="3.0">
<header>
<!--
#*********************************************************************
#                                                                    *
#                        MadGraph5_aMC@NLO                           *
#                                                                    *
#                           Going Beyond                             *
#                                                                    *
#                   http://madgraph.hep.uiuc.edu                     *
#                   http://madgraph.phys.ucl.ac.be                   *
#                   http://amcatnlo.cern.ch                          *
#                                                                    *
#                     The MadGraph5_aMC@NLO team                     *
#                                                                    *
#....................................................................*
#                                                                    *
# This file contains all the information necessary to reproduce      *
# the events generated:                                              *
#                                                                    *
# 1. software version                                                *
# 2. proc_card          : code generation info including model       *
# 3. param_card         : model primary parameters in the LH format  *
# 4. run_card           : running parameters (collider and cuts)     *
# 5. pythia_card        : present only if pythia has been run        *
# 6. pgs_card           : present only if pgs has been run           *
# 7. delphes_cards      : present only if delphes has been run       *
#                                                                    *
#                                                                    *
#*********************************************************************
-->
<MGVersion>
#5.2.2.3
</MGVersion>
<MG5ProcCard>
#************************************************************
#*                     MadGraph5_aMC@NLO                    *
#*                                                          *
#*                *                       *                 *
#*                  *        * *        *                   *
#*                    * * * * 5 * * * *                     *
#*                  *        * *        *                   *
#*                *                       *                 *
#*                                                          *
#*                                                          *
#*         VERSION 2.2.3                 2015-02-10         *
#*                                                          *
#*    The MadGraph5_aMC@NLO Development Team - Find us at   *
#*    https://server06.fynu.ucl.ac.be/projects/madgraph     *
#*                                                          *
#************************************************************
#*                                                          *
#*               Command File for MadGraph5_aMC@NLO         *
#*                                                          *
#*     run as ./bin/mg5_aMC  filename                       *
#*                                                          *
#************************************************************
set group_subprocesses Auto
set ignore_six_quark_processes False
set loop_optimized_output True
set gauge unitary
set complex_mass_scheme False
import model sm
define p = g u c d s u~ c~ d~ s~
define j = g u c d s u~ c~ d~ s~
define l+ = e+ mu+
define l- = e- mu-
define vl = ve vm vt
define vl~ = ve~ vm~ vt~
import model Zprime_UFO
generate p p > zph, zph > j j
add process p p > zph, zph > b b~
output Dijet_signal
</MG5ProcCard>
<MGProcCard>
#*********************************************************************
#                        MadGraph/MadEvent                           *
#                   http://madgraph.hep.uiuc.edu                     *
#                                                                    *
#                          proc_card.dat                             *
#*********************************************************************
#                                                                    *
#            This Files is generated by MADGRAPH 5                   *
#                                                                    *
# WARNING: This Files is generated for MADEVENT (compatibility issue)*
#          This files is NOT a valid MG4 proc_card.dat               *
#          Running this in MG4 will NEVER reproduce the result of MG5*
#                                                                    *
#*********************************************************************
#*********************************************************************
# Process(es) requested : mg2 input                                  *
#*********************************************************************
# Begin PROCESS # This is TAG. Do not modify this line
p p > zph , zph > j j           #Process
# Be carefull the coupling are here in MG5 convention
          
end_coup           # End the couplings input

done               # this tells MG there are no more procs
# End PROCESS  # This is TAG. Do not modify this line
#*********************************************************************
# Model information                                                  *
#*********************************************************************
# Begin MODEL  # This is TAG. Do not modify this line
Zprime_UFO
# End   MODEL  # This is TAG. Do not modify this line
#*********************************************************************
# Start multiparticle definitions                                    *
#*********************************************************************
# Begin MULTIPARTICLES # This is TAG. Do not modify this line

# End  MULTIPARTICLES # This is TAG. Do not modify this line
</MGProcCard>
<MGRunCard>
#*********************************************************************
#                       MadGraph5_aMC@NLO                            *
#                                                                    *
#                     run_card.dat MadEvent                          *
#                                                                    *
#  This file is used to set the parameters of the run.               *
#                                                                    *
#  Some notation/conventions:                                        *
#                                                                    *
#   Lines starting with a '# ' are info or comments                  *
#                                                                    *
#   mind the format:   value    = variable     ! comment             *
#*********************************************************************
#
#*******************                                                 
# Running parameters
#*******************                                                 
#                                                                    
#*********************************************************************
# Tag name for the run (one word)                                    *
#*********************************************************************
  tag_1     = run_tag ! name of the run 
#*********************************************************************
# Run to generate the grid pack                                      *
#*********************************************************************
  .false.     = gridpack  !True = setting up the grid pack
#*********************************************************************
# Number of events and rnd seed                                      *
# Warning: Do not generate more than 1M events in a single run       *
# If you want to run Pythia, avoid more than 50k events in a run.    *
#*********************************************************************
  2000 = nevents ! Number of unweighted events requested 
 633 = iseed   ! rnd seed (0=assigned automatically=default))
#*********************************************************************
# Collider type and energy                                           *
# lpp: 0=No PDF, 1=proton, -1=antiproton, 2=photon from proton,      *
#                                         3=photon from electron     *
#*********************************************************************
        1     = lpp1    ! beam 1 type 
        1     = lpp2    ! beam 2 type
     4000     = ebeam1  ! beam 1 total energy in GeV
     4000     = ebeam2  ! beam 2 total energy in GeV
#*********************************************************************
# Beam polarization from -100 (left-handed) to 100 (right-handed)    *
#*********************************************************************
        0     = polbeam1 ! beam polarization for beam 1
        0     = polbeam2 ! beam polarization for beam 2
#*********************************************************************
# PDF CHOICE: this automatically fixes also alpha_s and its evol.    *
#*********************************************************************
 'nn23lo1'    = pdlabel     ! PDF set                                     
 230000    = lhaid     ! if pdlabel=lhapdf, this is the lhapdf number
#*********************************************************************
# Renormalization and factorization scales                           *
#*********************************************************************
 F        = fixed_ren_scale  ! if .true. use fixed ren scale
 F        = fixed_fac_scale  ! if .true. use fixed fac scale
 91.1880  = scale            ! fixed ren scale
 91.1880  = dsqrt_q2fact1    ! fixed fact scale for pdf1
 91.1880  = dsqrt_q2fact2    ! fixed fact scale for pdf2
 1        = scalefact        ! scale factor for event-by-event scales
#*********************************************************************
# Matching - Warning! ickkw > 1 is still beta
#*********************************************************************
 0        = ickkw            ! 0 no matching, 1 MLM, 2 CKKW matching
 1        = highestmult      ! for ickkw=2, highest mult group
 1        = ktscheme         ! for ickkw=1, 1 Durham kT, 2 Pythia pTE
 1        = alpsfact         ! scale factor for QCD emission vx
 F        = chcluster        ! cluster only according to channel diag
 T        = pdfwgt           ! for ickkw=1, perform pdf reweighting
 5        = asrwgtflavor     ! highest quark flavor for a_s reweight
 T        = clusinfo         ! include clustering tag in output
 3.0      = lhe_version       ! Change the way clustering information pass to shower.        
#*********************************************************************
#**********************************************************
#
#**********************************************************
# Automatic ptj and mjj cuts if xqcut > 0
# (turn off for VBF and single top processes)
#**********************************************************
   T  = auto_ptj_mjj  ! Automatic setting of ptj and mjj
#**********************************************************
#                                                                    
#**********************************
# BW cutoff (M+/-bwcutoff*Gamma)
#**********************************
  15  = bwcutoff      ! (M+/-bwcutoff*Gamma)
#**********************************************************
# Apply pt/E/eta/dr/mij cuts on decay products or not
# (note that etmiss/ptll/ptheavy/ht/sorted cuts always apply)
#**********************************************************
   T  = cut_decays    ! Cut decay products 
#*************************************************************
# Number of helicities to sum per event (0 = all helicities)
# 0 gives more stable result, but longer run time (needed for
# long decay chains e.g.).
# Use >=2 if most helicities contribute, e.g. pure QCD.
#*************************************************************
   0  = nhel          ! Number of helicities used per event
#*******************                                                 
# Standard Cuts
#*******************                                                 
#                                                                    
#*********************************************************************
# Minimum and maximum pt's (for max, -1 means no cut)                *
#*********************************************************************
 20  = ptj       ! minimum pt for the jets 
  0  = ptb       ! minimum pt for the b 
 10  = pta       ! minimum pt for the photons 
 10  = ptl       ! minimum pt for the charged leptons 
  0  = misset    ! minimum missing Et (sum of neutrino's momenta)
  0  = ptheavy   ! minimum pt for one heavy final state
 1.0 = ptonium   ! minimum pt for the quarkonium states
 -1  = ptjmax    ! maximum pt for the jets
 -1  = ptbmax    ! maximum pt for the b
 -1  = ptamax    ! maximum pt for the photons
 -1  = ptlmax    ! maximum pt for the charged leptons
 -1  = missetmax ! maximum missing Et (sum of neutrino's momenta)
#*********************************************************************
# Minimum and maximum E's (in the center of mass frame)              *
#*********************************************************************
  0  = ej     ! minimum E for the jets 
  0  = eb     ! minimum E for the b 
  0  = ea     ! minimum E for the photons 
  0  = el     ! minimum E for the charged leptons 
 -1   = ejmax ! maximum E for the jets
 -1   = ebmax ! maximum E for the b
 -1   = eamax ! maximum E for the photons
 -1   = elmax ! maximum E for the charged leptons
#*********************************************************************
# Maximum and minimum absolute rapidity (for max, -1 means no cut)   *
#*********************************************************************
   5  = etaj    ! max rap for the jets 
  -1  = etab    ! max rap for the b
 2.5  = etaa    ! max rap for the photons 
 2.5  = etal    ! max rap for the charged leptons 
 0.6  = etaonium ! max rap for the quarkonium states
   0  = etajmin ! min rap for the jets
   0  = etabmin ! min rap for the b
   0  = etaamin ! min rap for the photons
   0  = etalmin ! main rap for the charged leptons
#*********************************************************************
# Minimum and maximum DeltaR distance                                *
#*********************************************************************
 0.4 = drjj    ! min distance between jets 
 0   = drbb    ! min distance between b's 
 0.4 = drll    ! min distance between leptons 
 0.4 = draa    ! min distance between gammas 
 0   = drbj    ! min distance between b and jet 
 0.4 = draj    ! min distance between gamma and jet 
 0.4 = drjl    ! min distance between jet and lepton 
 0   = drab    ! min distance between gamma and b 
 0   = drbl    ! min distance between b and lepton 
 0.4 = dral    ! min distance between gamma and lepton 
 -1  = drjjmax ! max distance between jets
 -1  = drbbmax ! max distance between b's
 -1  = drllmax ! max distance between leptons
 -1  = draamax ! max distance between gammas
 -1  = drbjmax ! max distance between b and jet
 -1  = drajmax ! max distance between gamma and jet
 -1  = drjlmax ! max distance between jet and lepton
 -1  = drabmax ! max distance between gamma and b
 -1  = drblmax ! max distance between b and lepton
 -1  = dralmax ! maxdistance between gamma and lepton
#*********************************************************************
# Minimum and maximum invariant mass for pairs                       *
# WARNING: for four lepton final state mmll cut require to have      *
#          different lepton masses for each flavor!                  *           
#*********************************************************************
 0   = mmjj    ! min invariant mass of a jet pair 
 0   = mmbb    ! min invariant mass of a b pair 
 0   = mmaa    ! min invariant mass of gamma gamma pair
 0   = mmll    ! min invariant mass of l+l- (same flavour) lepton pair
 -1  = mmjjmax ! max invariant mass of a jet pair
 -1  = mmbbmax ! max invariant mass of a b pair
 -1  = mmaamax ! max invariant mass of gamma gamma pair
 -1  = mmllmax ! max invariant mass of l+l- (same flavour) lepton pair
#*********************************************************************
# Minimum and maximum invariant mass for all letpons                 *
#*********************************************************************
 0   = mmnl    ! min invariant mass for all letpons (l+- and vl) 
 -1  = mmnlmax ! max invariant mass for all letpons (l+- and vl) 
#*********************************************************************
# Minimum and maximum pt for 4-momenta sum of leptons                *
#*********************************************************************
 0   = ptllmin  ! Minimum pt for 4-momenta sum of leptons(l and vl)
 -1  = ptllmax  ! Maximum pt for 4-momenta sum of leptons(l and vl)
#*********************************************************************
# Inclusive cuts                                                     *
#*********************************************************************
 0  = xptj ! minimum pt for at least one jet  
 0  = xptb ! minimum pt for at least one b 
 0  = xpta ! minimum pt for at least one photon 
 0  = xptl ! minimum pt for at least one charged lepton 
#*********************************************************************
# Control the pt's of the jets sorted by pt                          *
#*********************************************************************
 0   = ptj1min ! minimum pt for the leading jet in pt
 0   = ptj2min ! minimum pt for the second jet in pt
 0   = ptj3min ! minimum pt for the third jet in pt
 0   = ptj4min ! minimum pt for the fourth jet in pt
 -1  = ptj1max ! maximum pt for the leading jet in pt 
 -1  = ptj2max ! maximum pt for the second jet in pt
 -1  = ptj3max ! maximum pt for the third jet in pt
 -1  = ptj4max ! maximum pt for the fourth jet in pt
 0   = cutuse  ! reject event if fails any (0) / all (1) jet pt cuts
#*********************************************************************
# Control the pt's of leptons sorted by pt                           *
#*********************************************************************
 0   = ptl1min ! minimum pt for the leading lepton in pt
 0   = ptl2min ! minimum pt for the second lepton in pt
 0   = ptl3min ! minimum pt for the third lepton in pt
 0   = ptl4min ! minimum pt for the fourth lepton in pt
 -1  = ptl1max ! maximum pt for the leading lepton in pt 
 -1  = ptl2max ! maximum pt for the second lepton in pt
 -1  = ptl3max ! maximum pt for the third lepton in pt
 -1  = ptl4max ! maximum pt for the fourth lepton in pt
#*********************************************************************
# Control the Ht(k)=Sum of k leading jets                            *
#*********************************************************************
 0   = htjmin ! minimum jet HT=Sum(jet pt)
 -1  = htjmax ! maximum jet HT=Sum(jet pt)
 0   = ihtmin  !inclusive Ht for all partons (including b)
 -1  = ihtmax  !inclusive Ht for all partons (including b)
 0   = ht2min ! minimum Ht for the two leading jets
 0   = ht3min ! minimum Ht for the three leading jets
 0   = ht4min ! minimum Ht for the four leading jets
 -1  = ht2max ! maximum Ht for the two leading jets
 -1  = ht3max ! maximum Ht for the three leading jets
 -1  = ht4max ! maximum Ht for the four leading jets
#***********************************************************************
# Photon-isolation cuts, according to hep-ph/9801442                   *
# When ptgmin=0, all the other parameters are ignored                  *
# When ptgmin>0, pta and draj are not going to be used                 *
#***********************************************************************
   0 = ptgmin ! Min photon transverse momentum
 0.4 = R0gamma ! Radius of isolation code
 1.0 = xn ! n parameter of eq.(3.4) in hep-ph/9801442
 1.0 = epsgamma ! epsilon_gamma parameter of eq.(3.4) in hep-ph/9801442
 .true. = isoEM ! isolate photons from EM energy (photons and leptons)
#*********************************************************************
# WBF cuts                                                           *
#*********************************************************************
 0   = xetamin ! minimum rapidity for two jets in the WBF case  
 0   = deltaeta ! minimum rapidity for two jets in the WBF case 
#*********************************************************************
# KT DURHAM CUT                                                      *
#*********************************************************************
 -1    =  ktdurham        
 0.4  =  dparameter 
#*********************************************************************
# maximal pdg code for quark to be considered as a light jet         *
# (otherwise b cuts are applied)                                     *
#*********************************************************************
 4 = maxjetflavor    ! Maximum jet pdg code
#*********************************************************************
# Jet measure cuts                                                   *
#*********************************************************************
 0   = xqcut   ! minimum kt jet measure between partons
#*********************************************************************
#
#*********************************************************************
# Store info for systematics studies                                 *
# WARNING: If use_syst is T, matched Pythia output is                *
#          meaningful ONLY if plotted taking matchscale              *
#          reweighting into account!                                 *
#*********************************************************************
   F  = use_syst      ! Enable systematics studies
#
#**************************************
# Parameter of the systematics study
#  will be used by SysCalc (if installed)
#**************************************                                  
#
0.5 1 2 = sys_scalefact  # factorization/renormalization scale factor
0.5 1 2 = sys_alpsfact  # \alpha_s emission scale factors
30 50 = sys_matchscale # variation of merging scale
# PDF sets and number of members (0 or none for all members).
CT10nlo.LHgrid = sys_pdf # matching scales
# MSTW2008nlo68cl.LHgrid 1  = sys_pdf
</MGRunCard>
<slha>
######################################################################
## PARAM_CARD AUTOMATICALY GENERATED BY MG5 FOLLOWING UFO MODEL   ####
######################################################################
##                                                                  ##
##  Width set on Auto will be computed following the information    ##
##        present in the decay.py files of the model.               ##
##        See  arXiv:1402.1178 for more details.                    ##
##                                                                  ##
######################################################################

###################################
## INFORMATION FOR CKMBLOCK
###################################
Block ckmblock 
    1 2.277360e-01 # cabi 

###################################
## INFORMATION FOR FRBLOCK
###################################
Block frblock 
    1 2.000000e-01 # gz 

###################################
## INFORMATION FOR MASS
###################################
Block mass 
    1 5.040000e-03 # MD 
    2 2.550000e-03 # MU 
    3 1.010000e-01 # MS 
    4 1.270000e+00 # MC 
    5 4.700000e+00 # MB 
    6 1.720000e+02 # MT 
   11 5.110000e-04 # Me 
   13 1.056600e-01 # MM 
   15 1.777000e+00 # MTA 
   23 9.118760e+01 # MZ 
   25 1.200000e+02 # MH 
  10030 2.000000e+03 # MZph 
  10031 3.000000e+02 # MZpl 
## Dependent parameters, given by model restrictions.
## Those values should be edited following the 
## analytical expression. MG5 ignores those values 
## but they are important for interfacing the output of MG5
## to external program such as Pythia.
  12 0.000000 # ve : 0.0 
  14 0.000000 # vm : 0.0 
  16 0.000000 # vt : 0.0 
  21 0.000000 # g : 0.0 
  22 0.000000 # a : 0.0 
  24 79.824360 # w+ : cmath.sqrt(MZ__exp__2/2. + cmath.sqrt(MZ__exp__4/4. - (aEW*cmath.pi*MZ__exp__2)/(Gf*sqrt__2))) 

###################################
## INFORMATION FOR SMINPUTS
###################################
Block sminputs 
    1 1.279000e+02 # aEWM1 
    2 1.166370e-05 # Gf 
    3 1.184000e-01 # aS 

###################################
## INFORMATION FOR YUKAWA
###################################
Block yukawa 
    1 5.040000e-03 # ymdo 
    2 2.550000e-03 # ymup 
    3 1.010000e-01 # yms 
    4 1.270000e+00 # ymc 
    5 4.700000e+00 # ymb 
    6 1.720000e+02 # ymt 
   11 5.110000e-04 # yme 
   13 1.056600e-01 # ymm 
   15 1.777000e+00 # ymtau 

###################################
## INFORMATION FOR DECAY
###################################
DECAY   6 1.508336e+00 # WT 
DECAY  23 2.495200e+00 # WZ 
DECAY  24 2.085000e+00 # WW 
DECAY  25 5.753088e-03 # WH 
## Dependent parameters, given by model restrictions.
## Those values should be edited following the 
## analytical expression. MG5 ignores those values 
## but they are important for interfacing the output of MG5
## to external program such as Pythia.
DECAY  1 0.000000 # d : 0.0 
DECAY  2 0.000000 # u : 0.0 
DECAY  3 0.000000 # s : 0.0 
DECAY  4 0.000000 # c : 0.0 
DECAY  5 0.000000 # b : 0.0 
DECAY  11 0.000000 # e- : 0.0 
DECAY  12 0.000000 # ve : 0.0 
DECAY  13 0.000000 # mu- : 0.0 
DECAY  14 0.000000 # vm : 0.0 
DECAY  15 0.000000 # ta- : 0.0 
DECAY  16 0.000000 # vt : 0.0 
DECAY  21 0.000000 # g : 0.0 
DECAY  22 0.000000 # a : 0.0 
DECAY  10030 0.308725 # zph : (gz__exp__2*MZph*(5 + cmath.sqrt(1 - (4*MT__exp__2)/MZph__exp__2)))/(144.*cmath.pi) 
DECAY  10031 0.132629 # zpl : (5*gz__exp__2*MZpl)/(144.*cmath.pi) 
#===========================================================
# QUANTUM NUMBERS OF NEW STATE(S) (NON SM PDG CODE)
#===========================================================

Block QNUMBERS 10030  # zph 
        1 0  # 3 times electric charge
        2 3  # number of spin states (2S+1)
        3 1  # colour rep (1: singlet, 3: triplet, 8: octet)
        4 0  # Particle/Antiparticle distinction (0=own anti)
Block QNUMBERS 10031  # zpl 
        1 0  # 3 times electric charge
        2 3  # number of spin states (2S+1)
        3 1  # colour rep (1: singlet, 3: triplet, 8: octet)
        4 0  # Particle/Antiparticle distinction (0=own anti)
</slha>
## END BANNER##
<MGGenerationInfo>
#  Number of Events        :         3922
#  Integrated weight (pb)  :  0.14222E-02
#  Max wgt                 :  0.52513E-06
#  Average wgt             :  0.36262E-06
</MGGenerationInfo>
</header>
<init>
     2212     2212  0.40000000000E+04  0.40000000000E+04 0 0  247000  247000 2   1
  0.14235569339E-02  0.27672377299E-05  0.52512520000E-06   0
</init>
<event>
 5   0  0.4956214E-06  0.2000189E+04  0.7818609E-02  0.8606532E-01
        2   -1    0    0  501    0  0.00000000000E+00  0.00000000000E+00  0.80820191828E+03  0.80820191828E+03  0.25500000920E-02 0.  1.
       -2   -1    0    0    0  501  0.00000000000E+00  0.00000000000E+00 -0.12375485022E+04  0.12375485022E+04  0.25500000920E-02 0. -1.
    10030    2    1    2    0    0  0.00000000000E+00  0.00000000000E+00 -0.42934658393E+03  0.20457504205E+04  0.20001890645E+04 0.  0.
        1    1    3    3  502    0 -0.70568954956E+03  0.67142216437E+03  0.17169665419E+02  0.97421776857E+03  0.50400001928E-02 0. -1.
       -1    1    3    3    0  502  0.70568954956E+03 -0.67142216437E+03 -0.44651624935E+03  0.10715326519E+04  0.50400001928E-02 0.  1.
</event>
<event>
 5   0  0.4956214E-06  0.1998265E+04  0.7818609E-02  0.8607432E-01
       -2   -1    0    0    0  501  0.00000000000E+00  0.00000000000E+00  0.79548454950E+03  0.79548454950E+03  0.25500000920E-02 0.  1.
        2   -1    0    0  501    0  0.00000000000E+00  0.00000000000E+00 -0.12549156540E+04  0.12549156540E+04  0.25500000920E-02 0. -1.
    10030    2    1    2    0    0  0.00000000000E+00  0.00000000000E+00 -0.45943110446E+03  0.20504002035E+04  0.19982652613E+04 0.  0.
        1    1    3    3  502    0  0.63551376912E+03  0.76889532674E+03 -0.28765321350E+03  0.10381821350E+04  0.50400001928E-02 0.  1.
       -1    1    3    3    0  502 -0.63551376912E+03 -0.76889532674E+03 -0.17177789096E+03  0.10122180684E+04  0.50400001928E-02 0. -1.
</event>
<event>
 5   0  0.5030137E-06  0.1999918E+04  0.7818609E-02  0.8606659E-01
        2   -1    0    0  501    0  0.00000000000E+00  0.00000000000E+00  0.80886016477E+03  0.80886016477E+03  0.25500000920E-02 0. -1.
       -2   -1    0    0    0  501  0.00000000000E+00  0.00000000000E+00 -0.12362057936E+04  0.12362057936E+04  0.25500000920E-02 0.  1.
    10030    2    1    2    0    0  0.00000000000E+00  0.00000000000E+00 -0.42734562884E+03  0.20450659584E+04  0.19999176202E+04 0.  0.
        3    1    3    3  502    0 -0.79885034034E+03 -0.47569357165E+03 -0.59004626130E+03  0.11011815659E+04  0.10100000352E+00 0.  1.
       -3    1    3    3    0  502  0.79885034034E+03  0.47569357165E+03  0.16270063246E+03  0.94388439249E+03  0.10100000352E+00 0. -1.
</event>
<event>
 5   0  0.4956214E-06  0.1999819E+04  0.7818609E-02  0.8606705E-01
       -2   -1    0    0    0  501  0.00000000000E+00  0.00000000000E+00  0.14569205839E+04  0.14569205839E+04  0.25500000920E-02 0. -1.
        2   -1    0    0  501    0  0.00000000000E+00  0.00000000000E+00 -0.68625515552E+03  0.68625515553E+03  0.25500000920E-02 0.  1.
    10030    2    1    2    0    0  0.00000000000E+00  0.00000000000E+00  0.77066542833E+03  0.21431757394E+04  0.19998192537E+04 0.  0.
        1    1    3    3  502    0  0.16353950326E+03 -0.21027302739E+03 -0.64752861347E+03  0.70018084840E+03  0.50400001928E-02 0.  1.
       -1    1    3    3    0  502 -0.16353950326E+03  0.21027302739E+03  0.14181940418E+04  0.14429948910E+04  0.50400001928E-02 0. -1.
</event>
<event>
 5   0  0.5030137E-06  0.2003901E+04  0.7818609E-02  0.8604799E-01
        2   -1    0    0  501    0  0.00000000000E+00  0.00000000000E+00  0.88963510572E+03  0.88963510573E+03  0.25500000920E-02 0.  1.
       -2   -1    0    0    0  501  0.00000000000E+00  0.00000000000E+00 -0.11284453589E+04  0.11284453589E+04  0.25500000920E-02 0. -1.
    10030    2    1    2    0    0  0.00000000000E+00  0.00000000000E+00 -0.23881025321E+03  0.20180804647E+04  0.20039008021E+04 0.  0.
        3    1    3    3  502    0 -0.63280215947E+03 -0.44069854933E+03 -0.76365899353E+03  0.10852782376E+04  0.10100000352E+00 0. -1.
       -3    1    3    3    0  502  0.63280215947E+03  0.44069854933E+03  0.52484874031E+03  0.93280222707E+03  0.10100000352E+00 0.  1.
</event>
<event>
 5   0  0.2313821E-06  0.1999983E+04  0.7818609E-02  0.8606629E-01
       -1   -1    0    0    0  501  0.00000000000E+00  0.00000000000E+00  0.55084567215E+03  0.55084567217E+03  0.50400001928E-02 0. -1.
        1   -1    0    0  501    0  0.00000000000E+00  0.00000000000E+00 -0.18153600057E+04  0.18153600057E+04  0.50400001928E-02 0.  1.
    10030    2    1    2    0    0  0.00000000000E+00  0.00000000000E+00 -0.12645143336E+04  0.23662056779E+04  0.19999832025E+04 0.  0.
        1    1    3    3  502    0  0.58938195103E+03  0.79686140030E+03 -0.47519241960E+03  0.10991665075E+04  0.50400001928E-02 0. -1.
       -1    1    3    3    0  502 -0.58938195103E+03 -0.79686140030E+03 -0.78932191399E+03  0.12670391704E+04  0.50400001928E-02 0.  1.
</event>
<event>
 5   0  0.2311520E-06  0.2003045E+04  0.7818609E-02  0.8605198E-01
       -1   -1    0    0    0  501  0.00000000000E+00  0.00000000000E+00  0.79747485587E+03  0.79747485589E+03  0.50400001928E-02 0. -1.
        1   -1    0    0  501    0  0.00000000000E+00  0.00000000000E+00 -0.12577795578E+04  0.12577795578E+04  0.50400001928E-02 0.  1.
    10030    2    1    2    0    0  0.00000000000E+00  0.00000000000E+00 -0.46030470189E+03  0.20552544137E+04  0.20030452532E+04 0.  0.
        3    1    3    3  502    0 -0.43648254123E+03  0.62093441289E+02 -0.11528551234E+04  0.12342801748E+04  0.10100000352E+00 0.  1.
       -3    1    3    3    0  502  0.43648254123E+03 -0.62093441289E+02  0.69255042152E+03  0.82097423881E+03  0.10100000352E+00 0. -1.
</event>
<event>
 5   0  0.4956214E-06  0.1999681E+04  0.7818609E-02  0.8606770E-01
        2   -1    0    0  501    0  0.00000000000E+00  0.00000000000E+00  0.14049453793E+04  0.14049453793E+04  0.25500000920E-02 0. -1.
       -2   -1    0    0    0  501  0.00000000000E+00  0.00000000000E+00 -0.71154414493E+03  0.71154414494E+03  0.25500000920E-02 0.  1.
    10030    2    1    2    0    0  0.00000000000E+00  0.00000000000E+00  0.69340123432E+03  0.21164895242E+04  0.19996806331E+04 0.  0.
        1    1    3    3  502    0 -0.61718595442E+03  0.76363680328E+03  0.54646058928E+03  0.11236898350E+04  0.50400001928E-02 0. -1.
       -1    1    3    3    0  502  0.61718595442E+03 -0.76363680328E+03  0.14694064503E+03  0.99279968918E+03  0.50400001928E-02 0.  1.
</event>
<event>
 5   0  0.2386776E-06  0.2000369E+04  0.7818609E-02  0.8606448E-01
       -1   -1    0    0    0  501  0.00000000000E+00  0.00000000000E+00  0.62941629104E+03  0.62941629106E+03  0.50400001928E-02 0.  1.
        1   -1    0    0  501    0  0.00000000000E+00  0.00000000000E+00 -0.15893594840E+04  0.15893594840E+04  0.50400001928E-02 0. -1.
    10030    2    1    2    0    0  0.00000000000E+00  0.00000000000E+00 -0.95994319292E+03  0.22187757750E+04  0.20003687176E+04 0.  0.
        2    1    3    3  502    0  0.22191632569E+03 -0.49959073667E+03  0.44905210109E+03  0.70745003306E+03  0.25500000920E-02 0.  1.
       -2    1    3    3    0  502 -0.22191632569E+03  0.49959073667E+03 -0.14089952940E+04  0.15113257420E+04  0.25500000920E-02 0. -1.
</event>
<event>
 5   0  0.4956214E-06  0.1999253E+04  0.7818609E-02  0.8606970E-01
       -2   -1    0    0    0  501  0.00000000000E+00  0.00000000000E+00  0.10324411526E+04  0.10324411526E+04  0.25500000920E-02 0. -1.
        2   -1    0    0  501    0  0.00000000000E+00  0.00000000000E+00 -0.96785494644E+03  0.96785494645E+03  0.25500000920E-02 0.  1.
    10030    2    1    2    0    0  0.00000000000E+00  0.00000000000E+00  0.64586206108E+02  0.20002960990E+04  0.19992531370E+04 0.  0.
        1    1    3    3  502    0 -0.82472395355E+03  0.16136513547E+03  0.57391178681E+03  0.10176360084E+04  0.50400001928E-02 0. -1.
       -1    1    3    3    0  502  0.82472395355E+03 -0.16136513547E+03 -0.50932558070E+03  0.98266009061E+03  0.50400001928E-02 0.  1.
</event>
<event>
 5   0  0.2386776E-06  0.1999969E+04  0.7818609E-02  0.8606635E-01
       -1   -1    0    0    0  501  0.00000000000E+00  0.00000000000E+00  0.11616227451E+04  0.11616227451E+04  0.50400001928E-02 0.  1.
        1   -1    0    0  501    0  0.00000000000E+00  0.00000000000E+00 -0.86083806539E+03  0.86083806540E+03  0.50400001928E-02 0. -1.
    10030    2    1    2    0    0  0.00000000000E+00  0.00000000000E+00  0.30078467971E+03  0.20224608105E+04  0.19999690764E+04 0.  0.
        2    1    3    3  502    0 -0.97321076490E+03  0.17154103055E+03  0.30509500057E+03  0.10342381145E+04  0.25500000920E-02 0. -1.
       -2    1    3    3    0  502  0.97321076490E+03 -0.17154103055E+03 -0.43103208624E+01  0.98822269603E+03  0.25500000920E-02 0.  1.
</event>
<event>
 5   0  0.5251252E-06  0.2000572E+04  0.7818609E-02  0.8606353E-01
       -2   -1    0    0    0  501  0.00000000000E+00  0.00000000000E+00  0.10152092799E+04  0.10152092799E+04  0.25500000920E-02 0.  1.
        2   -1    0    0  501    0  0.00000000000E+00  0.00000000000E+00 -0.98558178595E+03  0.98558178595E+03  0.25500000920E-02 0. -1.
    10030    2    1    2    0    0  0.00000000000E+00  0.00000000000E+00  0.29627493931E+02  0.20007910658E+04  0.20005716935E+04 0.  0.
        5    1    3    3  502    0  0.27882540832E+03  0.70012601528E+03 -0.64300425571E+03  0.99065463632E+03  0.46999998093E+01 0. -1.
       -5    1    3    3    0  502 -0.27882540832E+03 -0.70012601528E+03  0.67263174965E+03  0.10101364295E+04  0.46999998093E+01 0.  1.
</event>
<event>
 5   0  0.2379743E-06  0.1998575E+04  0.7818609E-02  0.8607287E-01
        1   -1    0    0  501    0  0.00000000000E+00  0.00000000000E+00  0.26798310517E+04  0.26798310517E+04  0.50400001928E-02 0.  1.
       -1   -1    0    0    0  501  0.00000000000E+00  0.00000000000E+00 -0.37262644059E+03  0.37262644062E+03  0.50400001928E-02 0. -1.
    10030    2    1    2    0    0  0.00000000000E+00  0.00000000000E+00  0.23072046111E+04  0.30524574923E+04  0.19985753989E+04 0.  0.
        5    1    3    3  502    0  0.25592616928E+03 -0.23934695253E+03 -0.27569898055E+03  0.44588920786E+03  0.46999998093E+01 0. -1.
       -5    1    3    3    0  502 -0.25592616928E+03  0.23934695253E+03  0.25829035917E+04  0.26065682845E+04  0.46999998093E+01 0.  1.
</event>
<event>
 5   0  0.2313821E-06  0.2000556E+04  0.7818609E-02  0.8606361E-01
        1   -1    0    0  501    0  0.00000000000E+00  0.00000000000E+00  0.15947934549E+04  0.15947934549E+04  0.50400001928E-02 0. -1.
       -1   -1    0    0    0  501  0.00000000000E+00  0.00000000000E+00 -0.62738895577E+03  0.62738895579E+03  0.50400001928E-02 0.  1.
    10030    2    1    2    0    0  0.00000000000E+00  0.00000000000E+00  0.96740449914E+03  0.22221824107E+04  0.20005557232E+04 0.  0.
        1    1    3    3  502    0  0.56811617239E+03 -0.40326633676E+03 -0.31357045664E+03  0.76400664591E+03  0.50400001928E-02 0.  1.
       -1    1    3    3    0  502 -0.56811617239E+03  0.40326633676E+03  0.12809749558E+04  0.14581757648E+04  0.50400001928E-02 0. -1.
</event>
<event>
 5   0  0.2311520E-06  0.2005345E+04  0.7818609E-02  0.8604126E-01
       -1   -1    0    0    0  501  0.00000000000E+00  0.00000000000E+00  0.13081920371E+04  0.13081920371E+04  0.50400001928E-02 0. -1.
        1   -1    0    0  501    0  0.00000000000E+00  0.00000000000E+00 -0.76850465821E+03  0.76850465822E+03  0.50400001928E-02 0.  1.
    10030    2    1    2    0    0  0.00000000000E+00  0.00000000000E+00  0.53968737893E+03  0.20766966954E+04  0.20053445334E+04 0.  0.
        3    1    3    3  502    0  0.20230130226E+03  0.27909830057E+02 -0.74673976061E+03  0.77416087203E+03  0.10100000352E+00 0.  1.
       -3    1    3    3    0  502 -0.20230130226E+03 -0.27909830057E+02  0.12864271395E+04  0.13025358233E+04  0.10100000352E+00 0. -1.
</event>
<event>
 5   0  0.2311520E-06  0.2000477E+04  0.7818609E-02  0.8606398E-01
        1   -1    0    0  501    0  0.00000000000E+00  0.00000000000E+00  0.80129863066E+03  0.80129863068E+03  0.50400001928E-02 0.  1.
       -1   -1    0    0    0  501  0.00000000000E+00  0.00000000000E+00 -0.12485691409E+04  0.12485691409E+04  0.50400001928E-02 0. -1.
    10030    2    1    2    0    0  0.00000000000E+00  0.00000000000E+00 -0.44727051026E+03  0.20498677716E+04  0.20004766861E+04 0.  0.
        3    1    3    3  502    0 -0.74909885026E+03 -0.36039706720E+03  0.34637372988E+03  0.90056088326E+03  0.10100000352E+00 0.  1.
       -3    1    3    3    0  502  0.74909885026E+03  0.36039706720E+03 -0.79364424014E+03  0.11493068884E+04  0.10100000352E+00 0. -1.
</event>
<event>
 5   0  0.4956214E-06  0.1999822E+04  0.7818609E-02  0.8606704E-01
        2   -1    0    0  501    0  0.00000000000E+00  0.00000000000E+00  0.85424566905E+03  0.85424566906E+03  0.25500000920E-02 0.  1.
       -2   -1    0    0    0  501  0.00000000000E+00  0.00000000000E+00 -0.11704150344E+04  0.11704150344E+04  0.25500000920E-02 0. -1.
    10030    2    1    2    0    0  0.00000000000E+00  0.00000000000E+00 -0.31616936539E+03  0.20246607035E+04  0.19998219662E+04 0.  0.
        1    1    3    3  502    0 -0.26379202592E+03  0.54284091590E+03  0.64903701085E+03  0.88629088588E+03  0.50400001928E-02 0.  1.
       -1    1    3    3    0  502  0.26379202592E+03 -0.54284091590E+03 -0.96520637624E+03  0.11383698176E+04  0.50400001928E-02 0. -1.
</event>
<event>
 5   0  0.2356996E-06  0.1999550E+04  0.7818609E-02  0.8606831E-01
        1   -1    0    0  501    0  0.00000000000E+00  0.00000000000E+00  0.14511449246E+04  0.14511449246E+04  0.50400001928E-02 0.  1.
       -1   -1    0    0    0  501  0.00000000000E+00  0.00000000000E+00 -0.68880113418E+03  0.68880113420E+03  0.50400001928E-02 0. -1.
    10030    2    1    2    0    0  0.00000000000E+00  0.00000000000E+00  0.76234379039E+03  0.21399460588E+04  0.19995502194E+04 0.  0.
        4    1    3    3  502    0  0.48372169699E+03  0.12400972337E+03 -0.54577378118E+03  0.73975382713E+03  0.12699999809E+01 0. -1.
       -4    1    3    3    0  502 -0.48372169699E+03 -0.12400972337E+03  0.13081175716E+04  0.14001922317E+04  0.12699999809E+01 0.  1.
</event>
<event>
 5   0  0.2313821E-06  0.2000933E+04  0.7818609E-02  0.8606185E-01
        1   -1    0    0  501    0  0.00000000000E+00  0.00000000000E+00  0.37805367000E+03  0.37805367003E+03  0.50400001928E-02 0.  1.
       -1   -1    0    0    0  501  0.00000000000E+00  0.00000000000E+00 -0.26475951298E+04  0.26475951298E+04  0.50400001928E-02 0. -1.
    10030    2    1    2    0    0  0.00000000000E+00  0.00000000000E+00 -0.22695414598E+04  0.30256487998E+04  0.20009328380E+04 0.  0.
        1    1    3    3  502    0 -0.67255565110E+03  0.67445033350E+03 -0.67185799254E+03  0.11655932045E+04  0.50400001928E-02 0.  1.
       -1    1    3    3    0  502  0.67255565110E+03 -0.67445033350E+03 -0.15976834673E+04  0.18600555953E+04  0.50400001928E-02 0. -1.
</event>
<event>
 5   0  0.5129100E-06  0.2011826E+04  0.7818609E-02  0.8601112E-01
       -2   -1    0    0    0  501  0.00000000000E+00  0.00000000000E+00  0.60213695386E+03  0.60213695387E+03  0.25500000920E-02 0. -1.
        2   -1    0    0  501    0  0.00000000000E+00  0.00000000000E+00 -0.16804491578E+04  0.16804491578E+04  0.25500000920E-02 0.  1.
    10030    2    1    2    0    0  0.00000000000E+00  0.00000000000E+00 -0.10783122039E+04  0.22825861116E+04  0.20118255759E+04 0.  0.
        2    1    3    3  502    0  0.78711150809E+03 -0.60388778888E+03 -0.35054341769E+03  0.10521908930E+04  0.25500000920E-02 0.  1.
       -2    1    3    3    0  502 -0.78711150809E+03  0.60388778888E+03 -0.72776878622E+03  0.12303952186E+04  0.25500000920E-02 0. -1.
</event>
<event>
 5   0  0.2311520E-06  0.2002225E+04  0.7818609E-02  0.8605581E-01
        1   -1    0    0  501    0  0.00000000000E+00  0.00000000000E+00  0.94160699711E+03  0.94160699712E+03  0.50400001928E-02 0. -1.
       -1   -1    0    0    0  501  0.00000000000E+00  0.00000000000E+00 -0.10643786573E+04  0.10643786573E+04  0.50400001928E-02 0.  1.
    10030    2    1    2    0    0  0.00000000000E+00  0.00000000000E+00 -0.12277166018E+03  0.20059856544E+04  0.20022251535E+04 0.  0.
        3    1    3    3  502    0 -0.39228714037E+03  0.76570070344E+03 -0.57424530675E+03  0.10343811920E+04  0.10100000352E+00 0.  1.
       -3    1    3    3    0  502  0.39228714037E+03 -0.76570070344E+03  0.45147364657E+03  0.97160446247E+03  0.10100000352E+00 0. -1.
</event>
<event>
 5   0  0.5030137E-06  0.2000415E+04  0.7818609E-02  0.8606426E-01
        2   -1    0    0  501    0  0.00000000000E+00  0.00000000000E+00  0.22704135273E+04  0.22704135273E+04  0.25500000920E-02 0. -1.
       -2   -1    0    0    0  501  0.00000000000E+00  0.00000000000E+00 -0.44063138275E+03  0.44063138276E+03  0.25500000920E-02 0.  1.
    10030    2    1    2    0    0  0.00000000000E+00  0.00000000000E+00  0.18297821446E+04  0.27110449101E+04  0.20004154088E+04 0.  0.
        3    1    3    3  502    0  0.28142075786E+03  0.27962438697E+03 -0.32944451177E+03  0.51567541853E+03  0.10100000352E+00 0.  1.
       -3    1    3    3    0  502 -0.28142075786E+03 -0.27962438697E+03  0.21592266563E+04  0.21953694915E+04  0.10100000352E+00 0. -1.
</event>
<event>
 5   0  0.2313821E-06  0.2000045E+04  0.7818609E-02  0.8606600E-01
       -1   -1    0    0    0  501  0.00000000000E+00  0.00000000000E+00  0.18874054523E+04  0.18874054523E+04  0.50400001928E-02 0. -1.
        1   -1    0    0  501    0  0.00000000000E+00  0.00000000000E+00 -0.52985167771E+03  0.52985167773E+03  0.50400001928E-02 0.  1.
    10030    2    1    2    0    0  0.00000000000E+00  0.00000000000E+00  0.13575537746E+04  0.24172571301E+04  0.20000449450E+04 0.  0.
        1    1    3    3  502    0  0.43424043928E+03 -0.22607552213E+03  0.17326676411E+04  0.18005032783E+04  0.50400001928E-02 0. -1.
       -1    1    3    3    0  502 -0.43424043928E+03  0.22607552213E+03 -0.37511386645E+03  0.61675385174E+03  0.50400001928E-02 0.  1.
</event>
<event>
 5   0  0.5129100E-06  0.2000951E+04  0.7818609E-02  0.8606176E-01
       -2   -1    0    0    0  501  0.00000000000E+00  0.00000000000E+00  0.92536767888E+03  0.92536767889E+03  0.25500000920E-02 0. -1.
        2   -1    0    0  501    0  0.00000000000E+00  0.00000000000E+00 -0.10816795817E+04  0.10816795817E+04  0.25500000920E-02 0.  1.
    10030    2    1    2    0    0  0.00000000000E+00  0.00000000000E+00 -0.15631190278E+03  0.20070472606E+04  0.20009510976E+04 0.  0.
        2    1    3    3  502    0 -0.17700667222E+03  0.28167808159E+03  0.86826381813E+03  0.92981501469E+03  0.25500000920E-02 0. -1.
       -2    1    3    3    0  502  0.17700667222E+03 -0.28167808159E+03 -0.10245757209E+04  0.10772322459E+04  0.25500000920E-02 0.  1.
</event>
<event>
 5   0  0.2386776E-06  0.1999950E+04  0.7818609E-02  0.8606644E-01
        1   -1    0    0  501    0  0.00000000000E+00  0.00000000000E+00  0.90326145144E+03  0.90326145145E+03  0.50400001928E-02 0. -1.
       -1   -1    0    0    0  501  0.00000000000E+00  0.00000000000E+00 -0.11070437882E+04  0.11070437882E+04  0.50400001928E-02 0.  1.
    10030    2    1    2    0    0  0.00000000000E+00  0.00000000000E+00 -0.20378233674E+03  0.20103052396E+04  0.19999499783E+04 0.  0.
        2    1    3    3  502    0 -0.27083489307E+02  0.79679041898E+03 -0.70862356835E+03  0.10666563874E+04  0.25500000920E-02 0.  1.
       -2    1    3    3    0  502  0.27083489307E+02 -0.79679041898E+03  0.50484123162E+03  0.94364885223E+03  0.25500000920E-02 0. -1.
</event>
<event>
 5   0  0.5030137E-06  0.2003251E+04  0.7818609E-02  0.8605102E-01
       -2   -1    0    0    0  501  0.00000000000E+00  0.00000000000E+00  0.70540864302E+03  0.70540864303E+03  0.25500000920E-02 0.  1.
        2   -1    0    0  501    0  0.00000000000E+00  0.00000000000E+00 -0.14222300956E+04  0.14222300956E+04  0.25500000920E-02 0. -1.
    10030    2    1    2    0    0  0.00000000000E+00  0.00000000000E+00 -0.71682145262E+03  0.21276387387E+04  0.20032507600E+04 0.  0.
        3    1    3    3  502    0 -0.69416621612E+03 -0.82605018262E+02  0.40346103808E+03  0.80713762401E+03  0.10100000352E+00 0.  1.
       -3    1    3    3    0  502  0.69416621612E+03  0.82605018262E+02 -0.11202824907E+04  0.13205011147E+04  0.10100000352E+00 0. -1.
</event>
<event>
 5   0  0.5251252E-06  0.1999400E+04  0.7818609E-02  0.8606901E-01
        2   -1    0    0  501    0  0.00000000000E+00  0.00000000000E+00  0.27528606626E+04  0.27528606626E+04  0.25500000920E-02 0. -1.
       -2   -1    0    0    0  501  0.00000000000E+00  0.00000000000E+00 -0.36304043079E+03  0.36304043080E+03  0.25500000920E-02 0.  1.
    10030    2    1    2    0    0  0.00000000000E+00  0.00000000000E+00  0.23898202318E+04  0.31159010934E+04  0.19993996308E+04 0.  0.
        5    1    3    3  502    0 -0.49892065474E+03  0.79991740564E+03  0.67666171558E+03  0.11604666488E+04  0.46999998093E+01 0. -1.
       -5    1    3    3    0  502  0.49892065474E+03 -0.79991740564E+03  0.17131585163E+04  0.19554344447E+04  0.46999998093E+01 0.  1.
</event>
<event>
 5   0  0.2386776E-06  0.2004300E+04  0.7818609E-02  0.8604613E-01
       -1   -1    0    0    0  501  0.00000000000E+00  0.00000000000E+00  0.11294217554E+04  0.11294217554E+04  0.50400001928E-02 0.  1.
        1   -1    0    0  501    0  0.00000000000E+00  0.00000000000E+00 -0.88922037700E+03  0.88922037702E+03  0.50400001928E-02 0. -1.
    10030    2    1    2    0    0  0.00000000000E+00  0.00000000000E+00  0.24020137843E+03  0.20186421325E+04  0.20043002162E+04 0.  0.
        2    1    3    3  502    0 -0.76520956110E+03 -0.63308383346E+03 -0.14888318459E+02  0.99325851349E+03  0.25500000920E-02 0. -1.
       -2    1    3    3    0  502  0.76520956110E+03  0.63308383346E+03  0.25508969689E+03  0.10253836190E+04  0.25500000920E-02 0.  1.
</event>
<event>
 5   0  0.5030137E-06  0.1999728E+04  0.7818609E-02  0.8606748E-01
       -2   -1    0    0    0  501  0.00000000000E+00  0.00000000000E+00  0.42357481268E+03  0.42357481269E+03  0.25500000920E-02 0.  1.
        2   -1    0    0  501    0  0.00000000000E+00  0.00000000000E+00 -0.23602166074E+04  0.23602166074E+04  0.25500000920E-02 0. -1.
    10030    2    1    2    0    0  0.00000000000E+00  0.00000000000E+00 -0.19366417947E+04  0.27837914200E+04  0.19997282889E+04 0.  0.
        3    1    3    3  502    0 -0.91764724071E+03  0.39586427058E+03 -0.10110766714E+04  0.14216402586E+04  0.10100000352E+00 0.  1.
       -3    1    3    3    0  502  0.91764724071E+03 -0.39586427058E+03 -0.92556512323E+03  0.13621511615E+04  0.10100000352E+00 0. -1.
</event>
<event>
 5   0  0.4956214E-06  0.1998653E+04  0.7818609E-02  0.8607251E-01
       -2   -1    0    0    0  501  0.00000000000E+00  0.00000000000E+00  0.96590029745E+03  0.96590029746E+03  0.25500000920E-02 0.  1.
        2   -1    0    0  501    0  0.00000000000E+00  0.00000000000E+00 -0.10339095357E+04  0.10339095357E+04  0.25500000920E-02 0. -1.
    10030    2    1    2    0    0  0.00000000000E+00  0.00000000000E+00 -0.68009238241E+02  0.19998098332E+04  0.19986530745E+04 0.  0.
        1    1    3    3  502    0 -0.60140281108E+03  0.79731119706E+03 -0.69564489282E+02  0.10011142314E+04  0.50400001928E-02 0.  1.
       -1    1    3    3    0  502  0.60140281108E+03 -0.79731119706E+03  0.15552510407E+01  0.99869560175E+03  0.50400001928E-02 0. -1.
</event>
<event>
 5   0  0.2379743E-06  0.1999747E+04  0.7818609E-02  0.8606739E-01
        1   -1    0    0  501    0  0.00000000000E+00  0.00000000000E+00  0.29600009170E+04  0.29600009170E+04  0.50400001928E-02 0.  1.
       -1   -1    0    0    0  501  0.00000000000E+00  0.00000000000E+00 -0.33775225515E+03  0.33775225518E+03  0.50400001928E-02 0. -1.
    10030    2    1    2    0    0  0.00000000000E+00  0.00000000000E+00  0.26222486618E+04  0.32977531721E+04  0.19997469690E+04 0.  0.
        5    1    3    3  502    0  0.47940465859E+03 -0.83716404924E+03  0.87778055754E+03  0.13042979986E+04  0.46999998093E+01 0. -1.
       -5    1    3    3    0  502 -0.47940465859E+03  0.83716404924E+03  0.17444681043E+04  0.19934551735E+04  0.46999998093E+01 0.  1.
</event>
<event>
 5   0  0.5030137E-06  0.1999908E+04  0.7818609E-02  0.8606664E-01
        2   -1    0    0  501    0  0.00000000000E+00  0.00000000000E+00  0.29639567135E+04  0.29639567135E+04  0.25500000920E-02 0.  1.
       -2   -1    0    0    0  501  0.00000000000E+00  0.00000000000E+00 -0.33735579741E+03  0.33735579742E+03  0.25500000920E-02 0. -1.
    10030    2    1    2    0    0  0.00000000000E+00  0.00000000000E+00  0.26266009161E+04  0.33013125109E+04  0.19999079785E+04 0.  0.
        3    1    3    3  502    0 -0.68939994411E+03  0.49276277249E+03  0.43698001290E+03  0.95343535427E+03  0.10100000352E+00 0. -1.
       -3    1    3    3    0  502  0.68939994411E+03 -0.49276277249E+03  0.21896209032E+04  0.23478771567E+04  0.10100000352E+00 0.  1.
</event>
<event>
 5   0  0.2356996E-06  0.2001402E+04  0.7818609E-02  0.8605965E-01
        1   -1    0    0  501    0  0.00000000000E+00  0.00000000000E+00  0.13812565952E+04  0.13812565952E+04  0.50400001928E-02 0.  1.
       -1   -1    0    0    0  501  0.00000000000E+00  0.00000000000E+00 -0.72499386388E+03  0.72499386389E+03  0.50400001928E-02 0. -1.
    10030    2    1    2    0    0  0.00000000000E+00  0.00000000000E+00  0.65626273129E+03  0.21062504591E+04  0.20014020645E+04 0.  0.
        4    1    3    3  502    0 -0.23860037922E+02 -0.29303864844E+03 -0.67851451721E+03  0.73947583723E+03  0.12699999809E+01 0. -1.
       -4    1    3    3    0  502  0.23860037922E+02  0.29303864844E+03  0.13347772485E+04  0.13667746218E+04  0.12699999809E+01 0.  1.
</event>
<event>
 5   0  0.2313821E-06  0.1998705E+04  0.7818609E-02  0.8607227E-01
        1   -1    0    0  501    0  0.00000000000E+00  0.00000000000E+00  0.16539724248E+04  0.16539724248E+04  0.50400001928E-02 0. -1.
       -1   -1    0    0    0  501  0.00000000000E+00  0.00000000000E+00 -0.60382199917E+03  0.60382199919E+03  0.50400001928E-02 0.  1.
    10030    2    1    2    0    0  0.00000000000E+00  0.00000000000E+00  0.10501504256E+04  0.22577944240E+04  0.19987045166E+04 0.  0.
        1    1    3    3  502    0  0.59244746868E+03  0.28297757739E+03 -0.32600450570E+03  0.73304109722E+03  0.50400001928E-02 0.  1.
       -1    1    3    3    0  502 -0.59244746868E+03 -0.28297757739E+03  0.13761549313E+04  0.15247533268E+04  0.50400001928E-02 0. -1.
</event>
<event>
 5   0  0.2311520E-06  0.2000829E+04  0.7818609E-02  0.8606233E-01
       -1   -1    0    0    0  501  0.00000000000E+00  0.00000000000E+00  0.85415597840E+03  0.85415597841E+03  0.50400001928E-02 0. -1.
        1   -1    0    0  501    0  0.00000000000E+00  0.00000000000E+00 -0.11717165312E+04  0.11717165313E+04  0.50400001928E-02 0.  1.
    10030    2    1    2    0    0  0.00000000000E+00  0.00000000000E+00 -0.31756055285E+03  0.20258725097E+04  0.20008285086E+04 0.  0.
        3    1    3    3  502    0  0.43723121212E+03 -0.57933923466E+03 -0.85589173480E+03  0.11222102092E+04  0.10100000352E+00 0.  1.
       -3    1    3    3    0  502 -0.43723121212E+03  0.57933923466E+03  0.53833118195E+03  0.90366230049E+03  0.10100000352E+00 0. -1.
</event>
<event>
 5   0  0.5118981E-06  0.2000261E+04  0.7818609E-02  0.8606498E-01
        2   -1    0    0  501    0  0.00000000000E+00  0.00000000000E+00  0.90363533160E+03  0.90363533160E+03  0.25500000920E-02 0.  1.
       -2   -1    0    0    0  501  0.00000000000E+00  0.00000000000E+00 -0.11069303816E+04  0.11069303816E+04  0.25500000920E-02 0. -1.
    10030    2    1    2    0    0  0.00000000000E+00  0.00000000000E+00 -0.20329504998E+03  0.20105657132E+04  0.20002613853E+04 0.  0.
        4    1    3    3  502    0  0.39219474581E+03  0.86153029406E+03 -0.42612410083E+03  0.10380917726E+04  0.12699999809E+01 0. -1.
       -4    1    3    3    0  502 -0.39219474581E+03 -0.86153029406E+03  0.22282905085E+03  0.97247394054E+03  0.12699999809E+01 0.  1.
</event>
<event>
 5   0  0.5118981E-06  0.2001021E+04  0.7818609E-02  0.8606143E-01
        2   -1    0    0  501    0  0.00000000000E+00  0.00000000000E+00  0.11122295516E+04  0.11122295516E+04  0.25500000920E-02 0. -1.
       -2   -1    0    0    0  501  0.00000000000E+00  0.00000000000E+00 -0.90001319602E+03  0.90001319602E+03  0.25500000920E-02 0.  1.
    10030    2    1    2    0    0  0.00000000000E+00  0.00000000000E+00  0.21221635557E+03  0.20122427476E+04  0.20010210128E+04 0.  0.
        4    1    3    3  502    0 -0.19907291696E+03 -0.84735800986E+03  0.60220431446E+03  0.10584409631E+04  0.12699999809E+01 0. -1.
       -4    1    3    3    0  502  0.19907291696E+03  0.84735800986E+03 -0.38998795889E+03  0.95380178450E+03  0.12699999809E+01 0.  1.
</event>
<event>
 5   0  0.2386776E-06  0.1999496E+04  0.7818609E-02  0.8606856E-01
        1   -1    0    0  501    0  0.00000000000E+00  0.00000000000E+00  0.15848611510E+04  0.15848611510E+04  0.50400001928E-02 0. -1.
       -1   -1    0    0    0  501  0.00000000000E+00  0.00000000000E+00 -0.63065225500E+03  0.63065225502E+03  0.50400001928E-02 0.  1.
    10030    2    1    2    0    0  0.00000000000E+00  0.00000000000E+00  0.95420889597E+03  0.22155134060E+04  0.19994961953E+04 0.  0.
        2    1    3    3  502    0  0.25888586043E+03  0.95234850571E+03  0.65406680068E+03  0.11839733717E+04  0.25500000920E-02 0. -1.
       -2    1    3    3    0  502 -0.25888586043E+03 -0.95234850571E+03  0.30014209529E+03  0.10315400343E+04  0.25500000920E-02 0.  1.
</event>
<event>
 5   0  0.2379743E-06  0.2000078E+04  0.7818609E-02  0.8606584E-01
        1   -1    0    0  501    0  0.00000000000E+00  0.00000000000E+00  0.20602226000E+04  0.20602226000E+04  0.50400001928E-02 0. -1.
       -1   -1    0    0    0  501  0.00000000000E+00  0.00000000000E+00 -0.48542248588E+03  0.48542248591E+03  0.50400001928E-02 0.  1.
    10030    2    1    2    0    0  0.00000000000E+00  0.00000000000E+00  0.15748001141E+04  0.25456450859E+04  0.20000783745E+04 0.  0.
        5    1    3    3  502    0  0.74468751274E+03  0.58762149694E+03  0.11902839172E+04  0.15220566379E+04  0.46999998093E+01 0. -1.
       -5    1    3    3    0  502 -0.74468751274E+03 -0.58762149694E+03  0.38451619690E+03  0.10235884481E+04  0.46999998093E+01 0.  1.
</event>
<event>
 5   0  0.2379743E-06  0.2000994E+04  0.7818609E-02  0.8606156E-01
       -1   -1    0    0    0  501  0.00000000000E+00  0.00000000000E+00  0.68813485485E+03  0.68813485487E+03  0.50400001928E-02 0. -1.
        1   -1    0    0  501    0  0.00000000000E+00  0.00000000000E+00 -0.14546490025E+04  0.14546490025E+04  0.50400001928E-02 0.  1.
    10030    2    1    2    0    0  0.00000000000E+00  0.00000000000E+00 -0.76651414767E+03  0.21427838574E+04  0.20009944330E+04 0.  0.
        5    1    3    3  502    0 -0.97790812283E+03  0.17572757785E+03 -0.50900038306E+03  0.11163726789E+04  0.46999998093E+01 0.  1.
       -5    1    3    3    0  502  0.97790812283E+03 -0.17572757785E+03 -0.25751376461E+03  0.10264111785E+04  0.46999998093E+01 0. -1.
</event>
<event>
 5   0  0.5129100E-06  0.1998098E+04  0.7818609E-02  0.8607510E-01
       -2   -1    0    0    0  501  0.00000000000E+00  0.00000000000E+00  0.13374182860E+04  0.13374182860E+04  0.25500000920E-02 0.  1.
        2   -1    0    0  501    0  0.00000000000E+00  0.00000000000E+00 -0.74628793697E+03  0.74628793697E+03  0.25500000920E-02 0. -1.
    10030    2    1    2    0    0  0.00000000000E+00  0.00000000000E+00  0.59113034902E+03  0.20837062230E+04  0.19980982293E+04 0.  0.
        2    1    3    3  502    0  0.50382939102E+03  0.34806674077E+03 -0.52762492824E+03  0.80832083741E+03  0.25500000920E-02 0. -1.
       -2    1    3    3    0  502 -0.50382939102E+03 -0.34806674077E+03  0.11187552773E+04  0.12753853856E+04  0.25500000920E-02 0.  1.
</event>
<event>
 5   0  0.5030137E-06  0.1999110E+04  0.7818609E-02  0.8607037E-01
       -2   -1    0    0    0  501  0.00000000000E+00  0.00000000000E+00  0.62819875819E+03  0.62819875820E+03  0.25500000920E-02 0. -1.
        2   -1    0    0  501    0  0.00000000000E+00  0.00000000000E+00 -0.15904360092E+04  0.15904360092E+04  0.25500000920E-02 0.  1.
    10030    2    1    2    0    0  0.00000000000E+00  0.00000000000E+00 -0.96223725101E+03  0.22186347674E+04  0.19991097278E+04 0.  0.
        3    1    3    3  502    0 -0.19421510742E+02 -0.99887346343E+03 -0.44629592085E+03  0.10942145357E+04  0.10100000352E+00 0. -1.
       -3    1    3    3    0  502  0.19421510742E+02  0.99887346343E+03 -0.51594133016E+03  0.11244202317E+04  0.10100000352E+00 0.  1.
</event>
<event>
 5   0  0.4956214E-06  0.1999552E+04  0.7818609E-02  0.8606830E-01
        2   -1    0    0  501    0  0.00000000000E+00  0.00000000000E+00  0.18165071516E+04  0.18165071516E+04  0.25500000920E-02 0.  1.
       -2   -1    0    0    0  501  0.00000000000E+00  0.00000000000E+00 -0.55026048957E+03  0.55026048958E+03  0.25500000920E-02 0. -1.
    10030    2    1    2    0    0  0.00000000000E+00  0.00000000000E+00  0.12662466620E+04  0.23667676412E+04  0.19995520644E+04 0.  0.
        1    1    3    3  502    0 -0.31959681985E+03  0.66035414398E+03  0.14370836013E+04  0.16135113882E+04  0.50400001928E-02 0.  1.
       -1    1    3    3    0  502  0.31959681985E+03 -0.66035414398E+03 -0.17083693931E+03  0.75325625293E+03  0.50400001928E-02 0. -1.
</event>
<event>
 5   0  0.5129100E-06  0.2000297E+04  0.7818609E-02  0.8606482E-01
        2   -1    0    0  501    0  0.00000000000E+00  0.00000000000E+00  0.21529201558E+04  0.21529201558E+04  0.25500000920E-02 0.  1.
       -2   -1    0    0    0  501  0.00000000000E+00  0.00000000000E+00 -0.46462342485E+03  0.46462342486E+03  0.25500000920E-02 0. -1.
    10030    2    1    2    0    0  0.00000000000E+00  0.00000000000E+00  0.16882967310E+04  0.26175435807E+04  0.20002971142E+04 0.  0.
        2    1    3    3  502    0 -0.33255236868E+03  0.53858467513E+03  0.18574576757E+04  0.19623489871E+04  0.25500000920E-02 0.  1.
       -2    1    3    3    0  502  0.33255236868E+03 -0.53858467513E+03 -0.16916094474E+03  0.65519459356E+03  0.25500000920E-02 0. -1.
</event>
<event>
 5   0  0.5030137E-06  0.2000178E+04  0.7818609E-02  0.8606538E-01
        2   -1    0    0  501    0  0.00000000000E+00  0.00000000000E+00  0.24807958167E+04  0.24807958167E+04  0.25500000920E-02 0. -1.
       -2   -1    0    0    0  501  0.00000000000E+00  0.00000000000E+00 -0.40316807309E+03  0.40316807310E+03  0.25500000920E-02 0.  1.
    10030    2    1    2    0    0  0.00000000000E+00  0.00000000000E+00  0.20776277437E+04  0.28839638898E+04  0.20001776613E+04 0.  0.
        3    1    3    3  502    0  0.21206399905E+03  0.16298138287E+03 -0.35064526161E+03  0.44100587359E+03  0.10100000352E+00 0.  1.
       -3    1    3    3    0  502 -0.21206399905E+03 -0.16298138287E+03  0.24282730053E+04  0.24429580162E+04  0.10100000352E+00 0. -1.
</event>
<event>
 5   0  0.2311520E-06  0.2000330E+04  0.7818609E-02  0.8606466E-01
       -1   -1    0    0    0  501  0.00000000000E+00  0.00000000000E+00  0.10620588515E+04  0.10620588515E+04  0.50400001928E-02 0.  1.
        1   -1    0    0  501    0  0.00000000000E+00  0.00000000000E+00 -0.94187816924E+03  0.94187816925E+03  0.50400001928E-02 0. -1.
    10030    2    1    2    0    0  0.00000000000E+00  0.00000000000E+00  0.12018068222E+03  0.20039370207E+04  0.20003300194E+04 0.  0.
        3    1    3    3  502    0 -0.69759061268E+02 -0.67362199490E+03  0.79741825934E+03  0.10461877504E+04  0.10100000352E+00 0.  1.
       -3    1    3    3    0  502  0.69759061268E+02  0.67362199490E+03 -0.67723757713E+03  0.95774927028E+03  0.10100000352E+00 0. -1.
</event>
<event>
 5   0  0.5251252E-06  0.2000028E+04  0.7818609E-02  0.8606608E-01
        2   -1    0    0  501    0  0.00000000000E+00  0.00000000000E+00  0.70012772105E+03  0.70012772105E+03  0.25500000920E-02 0. -1.
       -2   -1    0    0    0  501  0.00000000000E+00  0.00000000000E+00 -0.14283508125E+04  0.14283508125E+04  0.25500000920E-02 0.  1.
    10030    2    1    2    0    0  0.00000000000E+00  0.00000000000E+00 -0.72822309142E+03  0.21284785335E+04  0.20000279990E+04 0.  0.
        5    1    3    3  502    0  0.52301605438E+03  0.27795416449E+03 -0.12215895515E+04  0.13576109284E+04  0.46999998093E+01 0.  1.
       -5    1    3    3    0  502 -0.52301605438E+03 -0.27795416449E+03  0.49336646005E+03  0.77086760510E+03  0.46999998093E+01 0. -1.
</event>
<event>
 5   0  0.2379743E-06  0.2001380E+04  0.7818609E-02  0.8605976E-01
        1   -1    0    0  501    0  0.00000000000E+00  0.00000000000E+00  0.83055121842E+03  0.83055121843E+03  0.50400001928E-02 0. -1.
       -1   -1    0    0    0  501  0.00000000000E+00  0.00000000000E+00 -0.12056814930E+04  0.12056814930E+04  0.50400001928E-02 0.  1.
    10030    2    1    2    0    0  0.00000000000E+00  0.00000000000E+00 -0.37513027453E+03  0.20362327114E+04  0.20013797571E+04 0.  0.
        5    1    3    3  502    0  0.15826462667E+03 -0.98136501227E+03 -0.70526367302E+02  0.99655458348E+03  0.46999998093E+01 0. -1.
       -5    1    3    3    0  502 -0.15826462667E+03  0.98136501227E+03 -0.30460390723E+03  0.10396781279E+04  0.46999998093E+01 0.  1.
</event>
<event>
 5   0  0.2311520E-06  0.1999812E+04  0.7818609E-02  0.8606708E-01
       -1   -1    0    0    0  501  0.00000000000E+00  0.00000000000E+00  0.95427504754E+03  0.95427504756E+03  0.50400001928E-02 0.  1.
        1   -1    0    0  501    0  0.00000000000E+00  0.00000000000E+00 -0.10477193010E+04  0.10477193010E+04  0.50400001928E-02 0. -1.
    10030    2    1    2    0    0  0.00000000000E+00  0.00000000000E+00 -0.93444253413E+02  0.20019943485E+04  0.19998123770E+04 0.  0.
        3    1    3    3  502    0  0.51936066757E+03  0.85444523190E+03 -0.47189783139E+02  0.10010190024E+04  0.10100000352E+00 0.  1.
       -3    1    3    3    0  502 -0.51936066757E+03 -0.85444523190E+03 -0.46254470274E+02  0.10009753461E+04  0.10100000352E+00 0. -1.
</event>
<event>
 5   0  0.5030137E-06  0.2000904E+04  0.7818609E-02  0.8606198E-01
        2   -1    0    0  501    0  0.00000000000E+00  0.00000000000E+00  0.15605968672E+04  0.15605968672E+04  0.25500000920E-02 0.  1.
       -2   -1    0    0    0  501  0.00000000000E+00  0.00000000000E+00 -0.64135978630E+03  0.64135978630E+03  0.25500000920E-02 0. -1.
    10030    2    1    2    0    0  0.00000000000E+00  0.00000000000E+00  0.91923708094E+03  0.22019566535E+04  0.20009038690E+04 0.  0.
        3    1    3    3  502    0 -0.51549145114E+03 -0.63422583865E+03 -0.17536014206E+03  0.83589774508E+03  0.10100000352E+00 0. -1.
       -3    1    3    3    0  502  0.51549145114E+03  0.63422583865E+03  0.10945972230E+04  0.13660589085E+04  0.10100000352E+00 0.  1.
</event>
<event>
 5   0  0.2313821E-06  0.2000030E+04  0.7818609E-02  0.8606606E-01
       -1   -1    0    0    0  501  0.00000000000E+00  0.00000000000E+00  0.79056996096E+03  0.79056996098E+03  0.50400001928E-02 0. -1.
        1   -1    0    0  501    0  0.00000000000E+00  0.00000000000E+00 -0.12649486707E+04  0.12649486707E+04  0.50400001928E-02 0.  1.
    10030    2    1    2    0    0  0.00000000000E+00  0.00000000000E+00 -0.47437870971E+03  0.20555186317E+04  0.20000304210E+04 0.  0.
        1    1    3    3  502    0 -0.59609724357E+03  0.49249711939E+03 -0.88893208972E+03  0.11781704446E+04  0.50400001928E-02 0.  1.
       -1    1    3    3    0  502  0.59609724357E+03 -0.49249711939E+03  0.41455338002E+03  0.87734818704E+03  0.50400001928E-02 0. -1.
</event>
<event>
 5   0  0.2311520E-06  0.1999399E+04  0.7818609E-02  0.8606902E-01
       -1   -1    0    0    0  501  0.00000000000E+00  0.00000000000E+00  0.59309223558E+03  0.59309223561E+03  0.50400001928E-02 0. -1.
        1   -1    0    0  501    0  0.00000000000E+00  0.00000000000E+00 -0.16850653642E+04  0.16850653642E+04  0.50400001928E-02 0.  1.
    10030    2    1    2    0    0  0.00000000000E+00  0.00000000000E+00 -0.10919731286E+04  0.22781575998E+04  0.19993990937E+04 0.  0.
        3    1    3    3  502    0 -0.85121798885E+03 -0.45815509955E+02  0.49057566690E+02  0.85386051586E+03  0.10100000352E+00 0. -1.
       -3    1    3    3    0  502  0.85121798885E+03  0.45815509955E+02 -0.11410306953E+04  0.14242970839E+04  0.10100000352E+00 0.  1.
</event>
<event>
 5   0  0.2356996E-06  0.2001396E+04  0.7818609E-02  0.8605968E-01
        1   -1    0    0  501    0  0.00000000000E+00  0.00000000000E+00  0.20019095896E+04  0.20019095896E+04  0.50400001928E-02 0. -1.
       -1   -1    0    0    0  501  0.00000000000E+00  0.00000000000E+00 -0.50022052332E+03  0.50022052335E+03  0.50400001928E-02 0.  1.
    10030    2    1    2    0    0  0.00000000000E+00  0.00000000000E+00  0.15016890663E+04  0.25021301130E+04  0.20013957755E+04 0.  0.
        4    1    3    3  502    0 -0.65046570901E+03 -0.75811116340E+03  0.82540125284E+03  0.12958113349E+04  0.12699999809E+01 0. -1.
       -4    1    3    3    0  502  0.65046570901E+03  0.75811116340E+03  0.67628781345E+03  0.12063187780E+04  0.12699999809E+01 0.  1.
</event>
<event>
 5   0  0.2379743E-06  0.2000082E+04  0.7818609E-02  0.8606582E-01
        1   -1    0    0  501    0  0.00000000000E+00  0.00000000000E+00  0.13955092827E+04  0.13955092827E+04  0.50400001928E-02 0. -1.
       -1   -1    0    0    0  501  0.00000000000E+00  0.00000000000E+00 -0.71664332585E+03  0.71664332586E+03  0.50400001928E-02 0.  1.
    10030    2    1    2    0    0  0.00000000000E+00  0.00000000000E+00  0.67886595683E+03  0.21121526085E+04  0.20000824119E+04 0.  0.
        5    1    3    3  502    0 -0.93844280564E+03  0.36516721453E+02  0.70227200369E+03  0.11726962214E+04  0.46999998093E+01 0. -1.
       -5    1    3    3    0  502  0.93844280564E+03 -0.36516721453E+02 -0.23406046865E+02  0.93945638719E+03  0.46999998093E+01 0.  1.
</event>
<event>
 5   0  0.5118981E-06  0.1999990E+04  0.7818609E-02  0.8606625E-01
       -2   -1    0    0    0  501  0.00000000000E+00  0.00000000000E+00  0.89604882094E+03  0.89604882094E+03  0.25500000920E-02 0.  1.
        2   -1    0    0  501    0  0.00000000000E+00  0.00000000000E+00 -0.11159991737E+04  0.11159991737E+04  0.25500000920E-02 0. -1.
    10030    2    1    2    0    0  0.00000000000E+00  0.00000000000E+00 -0.21995035278E+03  0.20120479947E+04  0.19999897438E+04 0.  0.
        4    1    3    3  502    0  0.51239600600E+03  0.51314233586E+03  0.58274249345E+03  0.93029842008E+03  0.12699999809E+01 0.  1.
       -4    1    3    3    0  502 -0.51239600600E+03 -0.51314233586E+03 -0.80269284623E+03  0.10817495746E+04  0.12699999809E+01 0. -1.
</event>
<event>
 5   0  0.4956214E-06  0.1999176E+04  0.7818609E-02  0.8607006E-01
        2   -1    0    0  501    0  0.00000000000E+00  0.00000000000E+00  0.18362805803E+04  0.18362805803E+04  0.25500000920E-02 0.  1.
       -2   -1    0    0    0  501  0.00000000000E+00  0.00000000000E+00 -0.54413067097E+03  0.54413067097E+03  0.25500000920E-02 0. -1.
    10030    2    1    2    0    0  0.00000000000E+00  0.00000000000E+00  0.12921499093E+04  0.23804112512E+04  0.19991764147E+04 0.  0.
        1    1    3    3  502    0 -0.16245343528E+03 -0.92549605531E+02 -0.52312543289E+03  0.55553286732E+03  0.50400001928E-02 0. -1.
       -1    1    3    3    0  502  0.16245343528E+03  0.92549605531E+02  0.18152753422E+04  0.18248783839E+04  0.50400001928E-02 0.  1.
</event>
<event>
 5   0  0.2356996E-06  0.1999776E+04  0.7818609E-02  0.8606725E-01
        1   -1    0    0  501    0  0.00000000000E+00  0.00000000000E+00  0.88823966684E+03  0.88823966685E+03  0.50400001928E-02 0. -1.
       -1   -1    0    0    0  501  0.00000000000E+00  0.00000000000E+00 -0.11255703772E+04  0.11255703772E+04  0.50400001928E-02 0.  1.
    10030    2    1    2    0    0  0.00000000000E+00  0.00000000000E+00 -0.23733071036E+03  0.20138100441E+04  0.19997762443E+04 0.  0.
        4    1    3    3  502    0  0.67063728340E+03 -0.52909773894E+03  0.40466988730E+03  0.94522913297E+03  0.12699999809E+01 0. -1.
       -4    1    3    3    0  502 -0.67063728340E+03  0.52909773894E+03 -0.64200059766E+03  0.10685809111E+04  0.12699999809E+01 0.  1.
</event>
<event>
 5   0  0.5129100E-06  0.2000116E+04  0.7818609E-02  0.8606566E-01
       -2   -1    0    0    0  501  0.00000000000E+00  0.00000000000E+00  0.10727154454E+04  0.10727154454E+04  0.25500000920E-02 0. -1.
        2   -1    0    0  501    0  0.00000000000E+00  0.00000000000E+00 -0.93232170169E+03  0.93232170169E+03  0.25500000920E-02 0.  1.
    10030    2    1    2    0    0  0.00000000000E+00  0.00000000000E+00  0.14039374375E+03  0.20050371471E+04  0.20001158862E+04 0.  0.
        2    1    3    3  502    0  0.24998253560E+03 -0.63199933379E+03  0.80562409340E+03  0.10540135701E+04  0.25500000920E-02 0. -1.
       -2    1    3    3    0  502 -0.24998253560E+03  0.63199933379E+03 -0.66523034965E+03  0.95102357706E+03  0.25500000920E-02 0.  1.
</event>
<event>
 5   0  0.2379743E-06  0.2000985E+04  0.7818609E-02  0.8606160E-01
        1   -1    0    0  501    0  0.00000000000E+00  0.00000000000E+00  0.12135439300E+04  0.12135439300E+04  0.50400001928E-02 0. -1.
       -1   -1    0    0    0  501  0.00000000000E+00  0.00000000000E+00 -0.82484508176E+03  0.82484508178E+03  0.50400001928E-02 0.  1.
    10030    2    1    2    0    0  0.00000000000E+00  0.00000000000E+00  0.38869884821E+03  0.20383890118E+04  0.20009854994E+04 0.  0.
        5    1    3    3  502    0 -0.60033364938E+02 -0.58486193812E+03  0.10189847587E+04  0.11764435898E+04  0.46999998093E+01 0. -1.
       -5    1    3    3    0  502  0.60033364938E+02  0.58486193812E+03 -0.63028591045E+03  0.86194542198E+03  0.46999998093E+01 0.  1.
</event>
<event>
 5   0  0.5129100E-06  0.1998960E+04  0.7818609E-02  0.8607107E-01
       -2   -1    0    0    0  501  0.00000000000E+00  0.00000000000E+00  0.73807324533E+03  0.73807324533E+03  0.25500000920E-02 0. -1.
        2   -1    0    0  501    0  0.00000000000E+00  0.00000000000E+00 -0.13534702028E+04  0.13534702028E+04  0.25500000920E-02 0.  1.
    10030    2    1    2    0    0  0.00000000000E+00  0.00000000000E+00 -0.61539695742E+03  0.20915434481E+04  0.19989598745E+04 0.  0.
        2    1    3    3  502    0  0.52147862232E+03  0.30978229879E+03  0.52348415572E+03  0.80121201157E+03  0.25500000920E-02 0. -1.
       -2    1    3    3    0  502 -0.52147862232E+03 -0.30978229879E+03 -0.11388811131E+04  0.12903314365E+04  0.25500000920E-02 0.  1.
</event>
<event>
 5   0  0.2356996E-06  0.2000193E+04  0.7818609E-02  0.8606530E-01
       -1   -1    0    0    0  501  0.00000000000E+00  0.00000000000E+00  0.48967304238E+03  0.48967304240E+03  0.50400001928E-02 0.  1.
        1   -1    0    0  501    0  0.00000000000E+00  0.00000000000E+00 -0.20425729308E+04  0.20425729308E+04  0.50400001928E-02 0. -1.
    10030    2    1    2    0    0  0.00000000000E+00  0.00000000000E+00 -0.15528998884E+04  0.25322459732E+04  0.20001928920E+04 0.  0.
        4    1    3    3  502    0  0.62282204050E+03  0.48909082193E+03 -0.15497207174E+04  0.17403313021E+04  0.12699999809E+01 0. -1.
       -4    1    3    3    0  502 -0.62282204050E+03 -0.48909082193E+03 -0.31791709821E+01  0.79191467107E+03  0.12699999809E+01 0.  1.
</event>
<event>
 5   0  0.2356996E-06  0.1998836E+04  0.7818609E-02  0.8607165E-01
       -1   -1    0    0    0  501  0.00000000000E+00  0.00000000000E+00  0.10854924796E+04  0.10854924796E+04  0.50400001928E-02 0.  1.
        1   -1    0    0  501    0  0.00000000000E+00  0.00000000000E+00 -0.92016916922E+03  0.92016916924E+03  0.50400001928E-02 0. -1.
    10030    2    1    2    0    0  0.00000000000E+00  0.00000000000E+00  0.16532331035E+03  0.20056616488E+04  0.19988363746E+04 0.  0.
        4    1    3    3  502    0  0.33102976868E+03  0.55525676774E+03  0.84746130247E+03  0.10658719707E+04  0.12699999809E+01 0.  1.
       -4    1    3    3    0  502 -0.33102976868E+03 -0.55525676774E+03 -0.68213799213E+03  0.93978967810E+03  0.12699999809E+01 0. -1.
</event>
<event>
 5   0  0.2356996E-06  0.2001832E+04  0.7818609E-02  0.8605765E-01
        1   -1    0    0  501    0  0.00000000000E+00  0.00000000000E+00  0.11640508214E+04  0.11640508214E+04  0.50400001928E-02 0. -1.
       -1   -1    0    0    0  501  0.00000000000E+00  0.00000000000E+00 -0.86064318303E+03  0.86064318305E+03  0.50400001928E-02 0.  1.
    10030    2    1    2    0    0  0.00000000000E+00  0.00000000000E+00  0.30340763835E+03  0.20246940044E+04  0.20018315655E+04 0.  0.
        4    1    3    3  502    0 -0.19091928999E+03  0.55303975122E+03  0.97309184497E+03  0.11354349358E+04  0.12699999809E+01 0. -1.
       -4    1    3    3    0  502  0.19091928999E+03 -0.55303975122E+03 -0.66968420662E+03  0.88925906867E+03  0.12699999809E+01 0.  1.
</event>
<event>
 5   0  0.5118981E-06  0.2000903E+04  0.7818609E-02  0.8606198E-01
        2   -1    0    0  501    0  0.00000000000E+00  0.00000000000E+00  0.88756593386E+03  0.88756593386E+03  0.25500000920E-02 0. -1.
       -2   -1    0    0    0  501  0.00000000000E+00  0.00000000000E+00 -0.11276947738E+04  0.11276947738E+04  0.25500000920E-02 0.  1.
    10030    2    1    2    0    0  0.00000000000E+00  0.00000000000E+00 -0.24012883997E+03  0.20152607077E+04  0.20009032611E+04 0.  0.
        4    1    3    3  502    0  0.15718680508E+03  0.19067421072E+03 -0.10964728751E+04  0.11239745215E+04  0.12699999809E+01 0.  1.
       -4    1    3    3    0  502 -0.15718680508E+03 -0.19067421072E+03  0.85634403511E+03  0.89128618619E+03  0.12699999809E+01 0. -1.
</event>
<event>
 5   0  0.1777750E-06  0.2000296E+04  0.7818609E-02  0.8606482E-01
        3   -1    0    0  501    0  0.00000000000E+00  0.00000000000E+00  0.38107350255E+03  0.38107351594E+03  0.10100000352E+00 0. -1.
       -3   -1    0    0    0  501  0.00000000000E+00  0.00000000000E+00 -0.26249418948E+04  0.26249418968E+04  0.10100000352E+00 0.  1.
    10030    2    1    2    0    0  0.00000000000E+00  0.00000000000E+00 -0.22438683923E+04  0.30060154127E+04  0.20002958030E+04 0.  0.
        4    1    3    3  502    0 -0.40272064741E+03 -0.49657133748E+03  0.33870191030E+02  0.64024668355E+03  0.12699999809E+01 0. -1.
       -4    1    3    3    0  502  0.40272064741E+03  0.49657133748E+03 -0.22777385833E+04  0.23657687291E+04  0.12699999809E+01 0.  1.
</event>
<event>
 5   0  0.5251252E-06  0.2000891E+04  0.7818609E-02  0.8606204E-01
       -2   -1    0    0    0  501  0.00000000000E+00  0.00000000000E+00  0.12911121327E+04  0.12911121327E+04  0.25500000920E-02 0. -1.
        2   -1    0    0  501    0  0.00000000000E+00  0.00000000000E+00 -0.77521645411E+03  0.77521645411E+03  0.25500000920E-02 0.  1.
    10030    2    1    2    0    0  0.00000000000E+00  0.00000000000E+00  0.51589567859E+03  0.20663285868E+04  0.20008911708E+04 0.  0.
        5    1    3    3  502    0  0.58600501843E+03 -0.59210970687E+03 -0.31413063183E+03  0.89033472944E+03  0.46999998093E+01 0.  1.
       -5    1    3    3    0  502 -0.58600501843E+03  0.59210970687E+03  0.83002631043E+03  0.11759938574E+04  0.46999998093E+01 0. -1.
</event>
<event>
 5   0  0.5251252E-06  0.2000185E+04  0.7818609E-02  0.8606534E-01
        2   -1    0    0  501    0  0.00000000000E+00  0.00000000000E+00  0.12413388457E+04  0.12413388457E+04  0.25500000920E-02 0. -1.
       -2   -1    0    0    0  501  0.00000000000E+00  0.00000000000E+00 -0.80573047261E+03  0.80573047261E+03  0.25500000920E-02 0.  1.
    10030    2    1    2    0    0  0.00000000000E+00  0.00000000000E+00  0.43560837307E+03  0.20470693183E+04  0.20001845263E+04 0.  0.
        5    1    3    3  502    0 -0.99225057296E+03  0.19264437531E+01  0.89986645722E+02  0.99633558460E+03  0.46999998093E+01 0. -1.
       -5    1    3    3    0  502  0.99225057296E+03 -0.19264437531E+01  0.34562172735E+03  0.10507337337E+04  0.46999998093E+01 0.  1.
</event>
<event>
 5   0  0.5118981E-06  0.2002717E+04  0.7818609E-02  0.8605351E-01
        2   -1    0    0  501    0  0.00000000000E+00  0.00000000000E+00  0.16172391334E+04  0.16172391334E+04  0.25500000920E-02 0.  1.
       -2   -1    0    0    0  501  0.00000000000E+00  0.00000000000E+00 -0.62001890055E+03  0.62001890056E+03  0.25500000920E-02 0. -1.
    10030    2    1    2    0    0  0.00000000000E+00  0.00000000000E+00  0.99722023282E+03  0.22372580339E+04  0.20027169839E+04 0.  0.
        4    1    3    3  502    0  0.54691894614E+03  0.83304584938E+03  0.60824363759E+03  0.11674963196E+04  0.12699999809E+01 0.  1.
       -4    1    3    3    0  502 -0.54691894614E+03 -0.83304584938E+03  0.38897659523E+03  0.10697617143E+04  0.12699999809E+01 0. -1.
</event>
<event>
 5   0  0.2356996E-06  0.2000526E+04  0.7818609E-02  0.8606375E-01
        1   -1    0    0  501    0  0.00000000000E+00  0.00000000000E+00  0.11299888639E+04  0.11299888639E+04  0.50400001928E-02 0.  1.
       -1   -1    0    0    0  501  0.00000000000E+00  0.00000000000E+00 -0.88542982894E+03  0.88542982896E+03  0.50400001928E-02 0. -1.
    10030    2    1    2    0    0  0.00000000000E+00  0.00000000000E+00  0.24455903499E+03  0.20154186929E+04  0.20005257774E+04 0.  0.
        4    1    3    3  502    0 -0.53574726755E+03 -0.55857620572E+03 -0.51607131318E+03  0.93024928136E+03  0.12699999809E+01 0. -1.
       -4    1    3    3    0  502  0.53574726755E+03  0.55857620572E+03  0.76063034817E+03  0.10851694115E+04  0.12699999809E+01 0.  1.
</event>
<event>
 5   0  0.2386776E-06  0.2000593E+04  0.7818609E-02  0.8606344E-01
       -1   -1    0    0    0  501  0.00000000000E+00  0.00000000000E+00  0.94221792449E+03  0.94221792450E+03  0.50400001928E-02 0. -1.
        1   -1    0    0  501    0  0.00000000000E+00  0.00000000000E+00 -0.10619548772E+04  0.10619548773E+04  0.50400001928E-02 0.  1.
    10030    2    1    2    0    0  0.00000000000E+00  0.00000000000E+00 -0.11973695275E+03  0.20041728018E+04  0.20005928325E+04 0.  0.
        2    1    3    3  502    0  0.14232161722E+02 -0.13756475200E+03  0.93259413035E+03  0.94279288679E+03  0.25500000920E-02 0. -1.
       -2    1    3    3    0  502 -0.14232161722E+02  0.13756475200E+03 -0.10523310831E+04  0.10613799150E+04  0.25500000920E-02 0.  1.
</event>
<event>
 5   0  0.5129100E-06  0.2001268E+04  0.7818609E-02  0.8606028E-01
        2   -1    0    0  501    0  0.00000000000E+00  0.00000000000E+00  0.16538477562E+04  0.16538477562E+04  0.25500000920E-02 0.  1.
       -2   -1    0    0    0  501  0.00000000000E+00  0.00000000000E+00 -0.60541768587E+03  0.60541768587E+03  0.25500000920E-02 0. -1.
    10030    2    1    2    0    0  0.00000000000E+00  0.00000000000E+00  0.10484300704E+04  0.22592654421E+04  0.20012682792E+04 0.  0.
        2    1    3    3  502    0  0.61647269352E+03 -0.30527951914E+03 -0.29612348150E+03  0.74894811767E+03  0.25500000920E-02 0. -1.
       -2    1    3    3    0  502 -0.61647269352E+03  0.30527951914E+03  0.13445535519E+04  0.15103173244E+04  0.25500000920E-02 0.  1.
</event>
<event>
 5   0  0.2386776E-06  0.2000511E+04  0.7818609E-02  0.8606382E-01
        1   -1    0    0  501    0  0.00000000000E+00  0.00000000000E+00  0.16081191902E+04  0.16081191903E+04  0.50400001928E-02 0. -1.
       -1   -1    0    0    0  501  0.00000000000E+00  0.00000000000E+00 -0.62216245566E+03  0.62216245568E+03  0.50400001928E-02 0.  1.
    10030    2    1    2    0    0  0.00000000000E+00  0.00000000000E+00  0.98595673458E+03  0.22302816459E+04  0.20005113191E+04 0.  0.
        2    1    3    3  502    0  0.17372051914E+03  0.66321638312E+03  0.13049704804E+04  0.14741040480E+04  0.25500000920E-02 0. -1.
       -2    1    3    3    0  502 -0.17372051914E+03 -0.66321638312E+03 -0.31901374581E+03  0.75617759794E+03  0.25500000920E-02 0.  1.
</event>
<event>
 5   0  0.5030137E-06  0.2000379E+04  0.7818609E-02  0.8606443E-01
        2   -1    0    0  501    0  0.00000000000E+00  0.00000000000E+00  0.12494557057E+04  0.12494557057E+04  0.25500000920E-02 0.  1.
       -2   -1    0    0    0  501  0.00000000000E+00  0.00000000000E+00 -0.80065200542E+03  0.80065200542E+03  0.25500000920E-02 0. -1.
    10030    2    1    2    0    0  0.00000000000E+00  0.00000000000E+00  0.44880370028E+03  0.20501077111E+04  0.20003791805E+04 0.  0.
        3    1    3    3  502    0  0.99160082210E+03  0.10456634118E+03  0.14388090967E+03  0.10074264422E+04  0.10100000352E+00 0. -1.
       -3    1    3    3    0  502 -0.99160082210E+03 -0.10456634118E+03  0.30492279061E+03  0.10426812689E+04  0.10100000352E+00 0.  1.
</event>
<event>
 5   0  0.5251252E-06  0.2000163E+04  0.7818609E-02  0.8606544E-01
        2   -1    0    0  501    0  0.00000000000E+00  0.00000000000E+00  0.25005019532E+04  0.25005019532E+04  0.25500000920E-02 0. -1.
       -2   -1    0    0    0  501  0.00000000000E+00  0.00000000000E+00 -0.39998487328E+03  0.39998487328E+03  0.25500000920E-02 0.  1.
    10030    2    1    2    0    0  0.00000000000E+00  0.00000000000E+00  0.21005170799E+04  0.29004868265E+04  0.20001629503E+04 0.  0.
        5    1    3    3  502    0  0.30561162812E+03 -0.67957638721E+03  0.82993102231E+02  0.74975494551E+03  0.46999998093E+01 0.  1.
       -5    1    3    3    0  502 -0.30561162812E+03  0.67957638721E+03  0.20175239777E+04  0.21507318810E+04  0.46999998093E+01 0. -1.
</event>
<event>
 5   0  0.2379743E-06  0.2000687E+04  0.7818609E-02  0.8606299E-01
        1   -1    0    0  501    0  0.00000000000E+00  0.00000000000E+00  0.18023560943E+04  0.18023560943E+04  0.50400001928E-02 0. -1.
       -1   -1    0    0    0  501  0.00000000000E+00  0.00000000000E+00 -0.55521073239E+03  0.55521073242E+03  0.50400001928E-02 0.  1.
    10030    2    1    2    0    0  0.00000000000E+00  0.00000000000E+00  0.12471453619E+04  0.23575668267E+04  0.20006873291E+04 0.  0.
        5    1    3    3  502    0  0.93642095737E+03 -0.32548984974E+03  0.78095351776E+03  0.12620373761E+04  0.46999998093E+01 0.  1.
       -5    1    3    3    0  502 -0.93642095737E+03  0.32548984974E+03  0.46619184412E+03  0.10955294506E+04  0.46999998093E+01 0. -1.
</event>
<event>
 5   0  0.2311520E-06  0.1999686E+04  0.7818609E-02  0.8606767E-01
        1   -1    0    0  501    0  0.00000000000E+00  0.00000000000E+00  0.66709652246E+03  0.66709652248E+03  0.50400001928E-02 0.  1.
       -1   -1    0    0    0  501  0.00000000000E+00  0.00000000000E+00 -0.14985631395E+04  0.14985631395E+04  0.50400001928E-02 0. -1.
    10030    2    1    2    0    0  0.00000000000E+00  0.00000000000E+00 -0.83146661700E+03  0.21656596620E+04  0.19996862344E+04 0.  0.
        3    1    3    3  502    0  0.70748476588E+03 -0.22988327157E+02 -0.11804746067E+04  0.13764386889E+04  0.10100000352E+00 0. -1.
       -3    1    3    3    0  502 -0.70748476588E+03  0.22988327157E+02  0.34900798971E+03  0.78922097300E+03  0.10100000352E+00 0.  1.
</event>
<event>
 5   0  0.5030137E-06  0.2001067E+04  0.7818609E-02  0.8606122E-01
       -2   -1    0    0    0  501  0.00000000000E+00  0.00000000000E+00  0.74082234965E+03  0.74082234965E+03  0.25500000920E-02 0.  1.
        2   -1    0    0  501    0  0.00000000000E+00  0.00000000000E+00 -0.13512917770E+04  0.13512917770E+04  0.25500000920E-02 0. -1.
    10030    2    1    2    0    0  0.00000000000E+00  0.00000000000E+00 -0.61046942739E+03  0.20921141267E+04  0.20010668648E+04 0.  0.
        3    1    3    3  502    0 -0.46732735638E+03 -0.77810589655E+02  0.61612122530E+03  0.77720957299E+03  0.10100000352E+00 0.  1.
       -3    1    3    3    0  502  0.46732735638E+03  0.77810589655E+02 -0.12265906527E+04  0.13149045537E+04  0.10100000352E+00 0. -1.
</event>
<event>
 5   0  0.4956214E-06  0.1999862E+04  0.7818609E-02  0.8606685E-01
        2   -1    0    0  501    0  0.00000000000E+00  0.00000000000E+00  0.57313870026E+03  0.57313870027E+03  0.25500000920E-02 0. -1.
       -2   -1    0    0    0  501  0.00000000000E+00  0.00000000000E+00 -0.17445373074E+04  0.17445373074E+04  0.25500000920E-02 0.  1.
    10030    2    1    2    0    0  0.00000000000E+00  0.00000000000E+00 -0.11713986071E+04  0.23176760076E+04  0.19998618401E+04 0.  0.
        1    1    3    3  502    0  0.28500236906E+03  0.83090317416E+03 -0.32037907472E+02  0.87900674784E+03  0.50400001928E-02 0. -1.
       -1    1    3    3    0  502 -0.28500236906E+03 -0.83090317416E+03 -0.11393606996E+04  0.14386692598E+04  0.50400001928E-02 0.  1.
</event>
<event>
 5   0  0.4956214E-06  0.1999565E+04  0.7818609E-02  0.8606824E-01
       -2   -1    0    0    0  501  0.00000000000E+00  0.00000000000E+00  0.13768305424E+04  0.13768305424E+04  0.25500000920E-02 0.  1.
        2   -1    0    0  501    0  0.00000000000E+00  0.00000000000E+00 -0.72598967599E+03  0.72598967599E+03  0.25500000920E-02 0. -1.
    10030    2    1    2    0    0  0.00000000000E+00  0.00000000000E+00  0.65084086640E+03  0.21028202184E+04  0.19995647120E+04 0.  0.
        1    1    3    3  502    0 -0.53562908477E+01  0.56264822234E+03  0.11945114949E+04  0.13204012358E+04  0.50400001928E-02 0.  1.
       -1    1    3    3    0  502  0.53562908477E+01 -0.56264822234E+03 -0.54367062853E+03  0.78241898258E+03  0.50400001928E-02 0. -1.
</event>
<event>
 5   0  0.5129100E-06  0.2004585E+04  0.7818609E-02  0.8604480E-01
       -2   -1    0    0    0  501  0.00000000000E+00  0.00000000000E+00  0.96559050994E+03  0.96559050994E+03  0.25500000920E-02 0. -1.
        2   -1    0    0  501    0  0.00000000000E+00  0.00000000000E+00 -0.10403895043E+04  0.10403895043E+04  0.25500000920E-02 0.  1.
    10030    2    1    2    0    0  0.00000000000E+00  0.00000000000E+00 -0.74798994318E+02  0.20059800142E+04  0.20045849765E+04 0.  0.
        2    1    3    3  502    0  0.13375921239E+03  0.27735627095E+03 -0.99188307915E+03  0.10385807964E+04  0.25500000920E-02 0.  1.
       -2    1    3    3    0  502 -0.13375921239E+03 -0.27735627095E+03  0.91708408483E+03  0.96739921780E+03  0.25500000920E-02 0. -1.
</event>
<event>
 5   0  0.2313821E-06  0.2001435E+04  0.7818609E-02  0.8605950E-01
       -1   -1    0    0    0  501  0.00000000000E+00  0.00000000000E+00  0.98447115712E+03  0.98447115714E+03  0.50400001928E-02 0. -1.
        1   -1    0    0  501    0  0.00000000000E+00  0.00000000000E+00 -0.10172322181E+04  0.10172322182E+04  0.50400001928E-02 0.  1.
    10030    2    1    2    0    0  0.00000000000E+00  0.00000000000E+00 -0.32761061021E+02  0.20017033753E+04  0.20014352639E+04 0.  0.
        1    1    3    3  502    0  0.55167112142E+03 -0.32117426574E+03 -0.78715999489E+03  0.10134667201E+04  0.50400001928E-02 0.  1.
       -1    1    3    3    0  502 -0.55167112142E+03  0.32117426574E+03  0.75439893387E+03  0.98823665518E+03  0.50400001928E-02 0. -1.
</event>
<event>
 5   0  0.4956214E-06  0.2000367E+04  0.7818609E-02  0.8606449E-01
       -2   -1    0    0    0  501  0.00000000000E+00  0.00000000000E+00  0.56788106265E+03  0.56788106265E+03  0.25500000920E-02 0.  1.
        2   -1    0    0  501    0  0.00000000000E+00  0.00000000000E+00 -0.17615784750E+04  0.17615784750E+04  0.25500000920E-02 0. -1.
    10030    2    1    2    0    0  0.00000000000E+00  0.00000000000E+00 -0.11936974123E+04  0.23294595376E+04  0.20003670226E+04 0.  0.
        1    1    3    3  502    0 -0.25096032638E+03 -0.16873461243E+03  0.51336612592E+03  0.59581644331E+03  0.50400001928E-02 0.  1.
       -1    1    3    3    0  502  0.25096032638E+03  0.16873461243E+03 -0.17070635382E+04  0.17336430943E+04  0.50400001928E-02 0. -1.
</event>
<event>
 5   0  0.5118981E-06  0.2000431E+04  0.7818609E-02  0.8606419E-01
       -2   -1    0    0    0  501  0.00000000000E+00  0.00000000000E+00  0.81372107275E+03  0.81372107275E+03  0.25500000920E-02 0.  1.
        2   -1    0    0  501    0  0.00000000000E+00  0.00000000000E+00 -0.12294520860E+04  0.12294520860E+04  0.25500000920E-02 0. -1.
    10030    2    1    2    0    0  0.00000000000E+00  0.00000000000E+00 -0.41573101323E+03  0.20431731587E+04  0.20004310239E+04 0.  0.
        4    1    3    3  502    0 -0.95059340846E+03  0.10947330257E+03  0.89591103016E+02  0.96106212641E+03  0.12699999809E+01 0.  1.
       -4    1    3    3    0  502  0.95059340846E+03 -0.10947330257E+03 -0.50532211625E+03  0.10821110323E+04  0.12699999809E+01 0. -1.
</event>
<event>
 5   0  0.5030137E-06  0.2000004E+04  0.7818609E-02  0.8606619E-01
        2   -1    0    0  501    0  0.00000000000E+00  0.00000000000E+00  0.24165916760E+04  0.24165916760E+04  0.25500000920E-02 0.  1.
       -2   -1    0    0    0  501  0.00000000000E+00  0.00000000000E+00 -0.41380776291E+03  0.41380776292E+03  0.25500000920E-02 0. -1.
    10030    2    1    2    0    0  0.00000000000E+00  0.00000000000E+00  0.20027839131E+04  0.28303994389E+04  0.20000043953E+04 0.  0.
        3    1    3    3  502    0 -0.19968591479E+03  0.97985858637E+03  0.99762868638E+03  0.14125368384E+04  0.10100000352E+00 0.  1.
       -3    1    3    3    0  502  0.19968591479E+03 -0.97985858637E+03  0.10051552267E+04  0.14178626005E+04  0.10100000352E+00 0. -1.
</event>
<event>
 5   0  0.2379743E-06  0.2000210E+04  0.7818609E-02  0.8606523E-01
        1   -1    0    0  501    0  0.00000000000E+00  0.00000000000E+00  0.13588456186E+04  0.13588456186E+04  0.50400001928E-02 0. -1.
       -1   -1    0    0    0  501  0.00000000000E+00  0.00000000000E+00 -0.73607325128E+03  0.73607325130E+03  0.50400001928E-02 0.  1.
    10030    2    1    2    0    0  0.00000000000E+00  0.00000000000E+00  0.62277236732E+03  0.20949188699E+04  0.20002099015E+04 0.  0.
        5    1    3    3  502    0  0.54321680058E+02 -0.61098646377E+02  0.13553283296E+04  0.13578000075E+04  0.46999998093E+01 0. -1.
       -5    1    3    3    0  502 -0.54321680058E+02  0.61098646377E+02 -0.73255596223E+03  0.73711886240E+03  0.46999998093E+01 0.  1.
</event>
<event>
 5   0  0.2386776E-06  0.1999804E+04  0.7818609E-02  0.8606712E-01
       -1   -1    0    0    0  501  0.00000000000E+00  0.00000000000E+00  0.11167769357E+04  0.11167769357E+04  0.50400001928E-02 0.  1.
        1   -1    0    0  501    0  0.00000000000E+00  0.00000000000E+00 -0.89525837222E+03  0.89525837223E+03  0.50400001928E-02 0. -1.
    10030    2    1    2    0    0  0.00000000000E+00  0.00000000000E+00  0.22151856350E+03  0.20120353080E+04  0.19998038920E+04 0.  0.
        2    1    3    3  502    0 -0.32561214541E+03 -0.11887060139E+03  0.10543925499E+04  0.11099086171E+04  0.25500000920E-02 0.  1.
       -2    1    3    3    0  502  0.32561214541E+03  0.11887060139E+03 -0.83287398638E+03  0.90212669083E+03  0.25500000920E-02 0. -1.
</event>
<event>
 5   0  0.4956214E-06  0.1999046E+04  0.7818609E-02  0.8607067E-01
        2   -1    0    0  501    0  0.00000000000E+00  0.00000000000E+00  0.12679628948E+04  0.12679628948E+04  0.25500000920E-02 0.  1.
       -2   -1    0    0    0  501  0.00000000000E+00  0.00000000000E+00 -0.78791450532E+03  0.78791450533E+03  0.25500000920E-02 0. -1.
    10030    2    1    2    0    0  0.00000000000E+00  0.00000000000E+00  0.48004838951E+03  0.20558774002E+04  0.19990461296E+04 0.  0.
        1    1    3    3  502    0  0.71215418907E+03 -0.56898828335E+03 -0.18167579613E+03  0.92947154369E+03  0.50400001928E-02 0. -1.
       -1    1    3    3    0  502 -0.71215418907E+03  0.56898828335E+03  0.66172418564E+03  0.11264058565E+04  0.50400001928E-02 0.  1.
</event>
<event>
 5   0  0.5118981E-06  0.2003726E+04  0.7818609E-02  0.8604881E-01
       -2   -1    0    0    0  501  0.00000000000E+00  0.00000000000E+00  0.67554423823E+03  0.67554423823E+03  0.25500000920E-02 0.  1.
        2   -1    0    0  501    0  0.00000000000E+00  0.00000000000E+00 -0.14858079732E+04  0.14858079732E+04  0.25500000920E-02 0. -1.
    10030    2    1    2    0    0  0.00000000000E+00  0.00000000000E+00 -0.81026373502E+03  0.21613522115E+04  0.20037255455E+04 0.  0.
        4    1    3    3  502    0 -0.61787622377E+03 -0.38934518889E+03  0.33465325475E+03  0.80333997649E+03  0.12699999809E+01 0.  1.
       -4    1    3    3    0  502  0.61787622377E+03  0.38934518889E+03 -0.11449169898E+04  0.13580122350E+04  0.12699999809E+01 0. -1.
</event>
<event>
 5   0  0.5030137E-06  0.2001184E+04  0.7818609E-02  0.8606067E-01
       -2   -1    0    0    0  501  0.00000000000E+00  0.00000000000E+00  0.60868364304E+03  0.60868364304E+03  0.25500000920E-02 0.  1.
        2   -1    0    0  501    0  0.00000000000E+00  0.00000000000E+00 -0.16448353498E+04  0.16448353498E+04  0.25500000920E-02 0. -1.
    10030    2    1    2    0    0  0.00000000000E+00  0.00000000000E+00 -0.10361517068E+04  0.22535189929E+04  0.20011840225E+04 0.  0.
        3    1    3    3  502    0 -0.56948585993E+03  0.67404812650E+03 -0.10492878044E+04  0.13710069030E+04  0.10100000352E+00 0.  1.
       -3    1    3    3    0  502  0.56948585993E+03 -0.67404812650E+03  0.13136097576E+02  0.88251208987E+03  0.10100000352E+00 0. -1.
</event>
<event>
 5   0  0.2313821E-06  0.2013770E+04  0.7818609E-02  0.8600210E-01
        1   -1    0    0  501    0  0.00000000000E+00  0.00000000000E+00  0.12515460765E+04  0.12515460765E+04  0.50400001928E-02 0.  1.
       -1   -1    0    0    0  501  0.00000000000E+00  0.00000000000E+00 -0.81005165869E+03  0.81005165870E+03  0.50400001928E-02 0. -1.
    10030    2    1    2    0    0  0.00000000000E+00  0.00000000000E+00  0.44149441783E+03  0.20615977352E+04  0.20137695749E+04 0.  0.
        1    1    3    3  502    0 -0.41635198271E+03 -0.91164592466E+03  0.31984345945E+03  0.10520204865E+04  0.50400001928E-02 0.  1.
       -1    1    3    3    0  502  0.41635198271E+03  0.91164592466E+03  0.12165095839E+03  0.10095772487E+04  0.50400001928E-02 0. -1.
</event>
<event>
 5   0  0.5129100E-06  0.2000254E+04  0.7818609E-02  0.8606502E-01
        2   -1    0    0  501    0  0.00000000000E+00  0.00000000000E+00  0.16294929572E+04  0.16294929572E+04  0.25500000920E-02 0.  1.
       -2   -1    0    0    0  501  0.00000000000E+00  0.00000000000E+00 -0.61384392659E+03  0.61384392660E+03  0.25500000920E-02 0. -1.
    10030    2    1    2    0    0  0.00000000000E+00  0.00000000000E+00  0.10156490307E+04  0.22433368838E+04  0.20002543391E+04 0.  0.
        2    1    3    3  502    0  0.67998150717E+03  0.49386574014E+03  0.11159109486E+04  0.13969736807E+04  0.25500000920E-02 0.  1.
       -2    1    3    3    0  502 -0.67998150717E+03 -0.49386574014E+03 -0.10026191798E+03  0.84636320311E+03  0.25500000920E-02 0. -1.
</event>
<event>
 5   0  0.2313821E-06  0.2000516E+04  0.7818609E-02  0.8606379E-01
        1   -1    0    0  501    0  0.00000000000E+00  0.00000000000E+00  0.10998263778E+04  0.10998263778E+04  0.50400001928E-02 0. -1.
       -1   -1    0    0    0  501  0.00000000000E+00  0.00000000000E+00 -0.90970406986E+03  0.90970406988E+03  0.50400001928E-02 0.  1.
    10030    2    1    2    0    0  0.00000000000E+00  0.00000000000E+00  0.19012230796E+03  0.20095304477E+04  0.20005164654E+04 0.  0.
        1    1    3    3  502    0 -0.56357554182E+03  0.54975385882E+03  0.71482564900E+03  0.10634013377E+04  0.50400001928E-02 0. -1.
       -1    1    3    3    0  502  0.56357554182E+03 -0.54975385882E+03 -0.52470334103E+03  0.94612910997E+03  0.50400001928E-02 0.  1.
</event>
<event>
 5   0  0.2386776E-06  0.1999334E+04  0.7818609E-02  0.8606932E-01
        1   -1    0    0  501    0  0.00000000000E+00  0.00000000000E+00  0.17440894147E+04  0.17440894147E+04  0.50400001928E-02 0.  1.
       -1   -1    0    0    0  501  0.00000000000E+00  0.00000000000E+00 -0.57298336150E+03  0.57298336152E+03  0.50400001928E-02 0. -1.
    10030    2    1    2    0    0  0.00000000000E+00  0.00000000000E+00  0.11711060532E+04  0.23170727762E+04  0.19993341048E+04 0.  0.
        2    1    3    3  502    0  0.31643913950E+03  0.15090325185E+03 -0.49940414419E+03  0.61017212298E+03  0.25500000920E-02 0. -1.
       -2    1    3    3    0  502 -0.31643913950E+03 -0.15090325185E+03  0.16705101974E+04  0.17069006533E+04  0.25500000920E-02 0.  1.
</event>
<event>
 5   0  0.5251252E-06  0.1999266E+04  0.7818609E-02  0.8606964E-01
       -2   -1    0    0    0  501  0.00000000000E+00  0.00000000000E+00  0.83472619815E+03  0.83472619815E+03  0.25500000920E-02 0.  1.
        2   -1    0    0  501    0  0.00000000000E+00  0.00000000000E+00 -0.11971184828E+04  0.11971184828E+04  0.25500000920E-02 0. -1.
    10030    2    1    2    0    0  0.00000000000E+00  0.00000000000E+00 -0.36239228468E+03  0.20318446810E+04  0.19992660252E+04 0.  0.
        5    1    3    3  502    0  0.14482604851E+03  0.30696285168E+03  0.77436105381E+03  0.84549270150E+03  0.46999998093E+01 0.  1.
       -5    1    3    3    0  502 -0.14482604851E+03 -0.30696285168E+03 -0.11367533385E+04  0.11863519795E+04  0.46999998093E+01 0. -1.
</event>
<event>
 5   0  0.2313821E-06  0.2000703E+04  0.7818609E-02  0.8606292E-01
       -1   -1    0    0    0  501  0.00000000000E+00  0.00000000000E+00  0.13053795331E+04  0.13053795331E+04  0.50400001928E-02 0. -1.
        1   -1    0    0  501    0  0.00000000000E+00  0.00000000000E+00 -0.76659939414E+03  0.76659939415E+03  0.50400001928E-02 0.  1.
    10030    2    1    2    0    0  0.00000000000E+00  0.00000000000E+00  0.53878013900E+03  0.20719789273E+04  0.20007030357E+04 0.  0.
        1    1    3    3  502    0 -0.46253963561E+03  0.45327198694E+03  0.10589855233E+04  0.12413092875E+04  0.50400001928E-02 0. -1.
       -1    1    3    3    0  502  0.46253963561E+03 -0.45327198694E+03 -0.52020538428E+03  0.83066963982E+03  0.50400001928E-02 0.  1.
</event>
<event>
 5   0  0.5118981E-06  0.2000909E+04  0.7818609E-02  0.8606196E-01
       -2   -1    0    0    0  501  0.00000000000E+00  0.00000000000E+00  0.96258402529E+03  0.96258402529E+03  0.25500000920E-02 0.  1.
        2   -1    0    0  501    0  0.00000000000E+00  0.00000000000E+00 -0.10398146896E+04  0.10398146896E+04  0.25500000920E-02 0. -1.
    10030    2    1    2    0    0  0.00000000000E+00  0.00000000000E+00 -0.77230664346E+02  0.20023987149E+04  0.20009088030E+04 0.  0.
        4    1    3    3  502    0 -0.12233652445E+02 -0.52994458784E+03  0.81049537456E+03  0.96844994373E+03  0.12699999809E+01 0.  1.
       -4    1    3    3    0  502  0.12233652445E+02  0.52994458784E+03 -0.88772603890E+03  0.10339487712E+04  0.12699999809E+01 0. -1.
</event>
<event>
 5   0  0.1777750E-06  0.1997727E+04  0.7818609E-02  0.8607684E-01
       -3   -1    0    0    0  501  0.00000000000E+00  0.00000000000E+00  0.55522433154E+03  0.55522434073E+03  0.10100000352E+00 0.  1.
        3   -1    0    0  501    0  0.00000000000E+00  0.00000000000E+00 -0.17969824856E+04  0.17969824884E+04  0.10100000352E+00 0. -1.
    10030    2    1    2    0    0  0.00000000000E+00  0.00000000000E+00 -0.12417581540E+04  0.23522068291E+04  0.19977271220E+04 0.  0.
        1    1    3    3  502    0  0.49013194322E+03 -0.46194934678E+03  0.24764019370E+03  0.71760169058E+03  0.50400001928E-02 0.  1.
       -1    1    3    3    0  502 -0.49013194322E+03  0.46194934678E+03 -0.14893983477E+04  0.16346051386E+04  0.50400001928E-02 0. -1.
</event>
<event>
 5   0  0.5030137E-06  0.2000612E+04  0.7818609E-02  0.8606335E-01
       -2   -1    0    0    0  501  0.00000000000E+00  0.00000000000E+00  0.39055974098E+03  0.39055974099E+03  0.25500000920E-02 0.  1.
        2   -1    0    0  501    0  0.00000000000E+00  0.00000000000E+00 -0.25619950492E+04  0.25619950492E+04  0.25500000920E-02 0. -1.
    10030    2    1    2    0    0  0.00000000000E+00  0.00000000000E+00 -0.21714353082E+04  0.29525547902E+04  0.20006120292E+04 0.  0.
        3    1    3    3  502    0 -0.10761545691E+03  0.35442250587E+03  0.28562209288E+03  0.46773538393E+03  0.10100000352E+00 0.  1.
       -3    1    3    3    0  502  0.10761545691E+03 -0.35442250587E+03 -0.24570574011E+04  0.24848194063E+04  0.10100000352E+00 0. -1.
</event>
<event>
 5   0  0.5251252E-06  0.2000145E+04  0.7818609E-02  0.8606553E-01
       -2   -1    0    0    0  501  0.00000000000E+00  0.00000000000E+00  0.11740688332E+04  0.11740688332E+04  0.25500000920E-02 0.  1.
        2   -1    0    0  501    0  0.00000000000E+00  0.00000000000E+00 -0.85186254126E+03  0.85186254126E+03  0.25500000920E-02 0. -1.
    10030    2    1    2    0    0  0.00000000000E+00  0.00000000000E+00  0.32220629195E+03  0.20259313745E+04  0.20001452546E+04 0.  0.
        5    1    3    3  502    0  0.84518555717E+03  0.51954082672E+03  0.28867075947E+03  0.10332541769E+04  0.46999998093E+01 0.  1.
       -5    1    3    3    0  502 -0.84518555717E+03 -0.51954082672E+03  0.33535532480E+02  0.99267719759E+03  0.46999998093E+01 0. -1.
</event>
<event>
 5   0  0.2311520E-06  0.1996288E+04  0.7818609E-02  0.8608358E-01
        1   -1    0    0  501    0  0.00000000000E+00  0.00000000000E+00  0.12641448059E+04  0.12641448059E+04  0.50400001928E-02 0. -1.
       -1   -1    0    0    0  501  0.00000000000E+00  0.00000000000E+00 -0.78811474623E+03  0.78811474625E+03  0.50400001928E-02 0.  1.
    10030    2    1    2    0    0  0.00000000000E+00  0.00000000000E+00  0.47603005970E+03  0.20522595522E+04  0.19962877177E+04 0.  0.
        3    1    3    3  502    0  0.26250752390E+03  0.69960753704E+03  0.91833249752E+03  0.11839322160E+04  0.10100000352E+00 0. -1.
       -3    1    3    3    0  502 -0.26250752390E+03 -0.69960753704E+03 -0.44230243782E+03  0.86832733614E+03  0.10100000352E+00 0.  1.
</event>
<event>
 5   0  0.5129100E-06  0.1999895E+04  0.7818609E-02  0.8606670E-01
       -2   -1    0    0    0  501  0.00000000000E+00  0.00000000000E+00  0.10418882164E+04  0.10418882164E+04  0.25500000920E-02 0.  1.
        2   -1    0    0  501    0  0.00000000000E+00  0.00000000000E+00 -0.95969512183E+03  0.95969512183E+03  0.25500000920E-02 0. -1.
    10030    2    1    2    0    0  0.00000000000E+00  0.00000000000E+00  0.82193094601E+02  0.20015833383E+04  0.19998950361E+04 0.  0.
        2    1    3    3  502    0 -0.74012726633E+03  0.52362635105E+03 -0.38106768825E+03  0.98345590085E+03  0.25500000920E-02 0. -1.
       -2    1    3    3    0  502  0.74012726633E+03 -0.52362635105E+03  0.46326078285E+03  0.10181274374E+04  0.25500000920E-02 0.  1.
</event>
<event>
 5   0  0.5118981E-06  0.1999949E+04  0.7818609E-02  0.8606644E-01
       -2   -1    0    0    0  501  0.00000000000E+00  0.00000000000E+00  0.78014408354E+03  0.78014408354E+03  0.25500000920E-02 0.  1.
        2   -1    0    0  501    0  0.00000000000E+00  0.00000000000E+00 -0.12817494243E+04  0.12817494243E+04  0.25500000920E-02 0. -1.
    10030    2    1    2    0    0  0.00000000000E+00  0.00000000000E+00 -0.50160534076E+03  0.20618935078E+04  0.19999492293E+04 0.  0.
        4    1    3    3  502    0 -0.38904896801E+03 -0.10022450996E+03  0.69328010847E+03  0.80127584115E+03  0.12699999809E+01 0.  1.
       -4    1    3    3    0  502  0.38904896801E+03  0.10022450996E+03 -0.11948854492E+04  0.12606176667E+04  0.12699999809E+01 0. -1.
</event>
<event>
 5   0  0.5118981E-06  0.2001432E+04  0.7818609E-02  0.8605952E-01
        2   -1    0    0  501    0  0.00000000000E+00  0.00000000000E+00  0.29001311885E+04  0.29001311885E+04  0.25500000920E-02 0. -1.
       -2   -1    0    0    0  501  0.00000000000E+00  0.00000000000E+00 -0.34530579054E+03  0.34530579055E+03  0.25500000920E-02 0.  1.
    10030    2    1    2    0    0  0.00000000000E+00  0.00000000000E+00  0.25548253980E+04  0.32454369791E+04  0.20014315804E+04 0.  0.
        4    1    3    3  502    0  0.16881884498E+03  0.35613909069E+02  0.28758297894E+04  0.28810009968E+04  0.12699999809E+01 0. -1.
       -4    1    3    3    0  502 -0.16881884498E+03 -0.35613909069E+02 -0.32100439145E+03  0.36443598226E+03  0.12699999809E+01 0.  1.
</event>
<event>
 5   0  0.2356996E-06  0.1999166E+04  0.7818609E-02  0.8607010E-01
        1   -1    0    0  501    0  0.00000000000E+00  0.00000000000E+00  0.62054531392E+03  0.62054531394E+03  0.50400001928E-02 0.  1.
       -1   -1    0    0    0  501  0.00000000000E+00  0.00000000000E+00 -0.16101429214E+04  0.16101429214E+04  0.50400001928E-02 0. -1.
    10030    2    1    2    0    0  0.00000000000E+00  0.00000000000E+00 -0.98959760752E+03  0.22306882354E+04  0.19991664710E+04 0.  0.
        4    1    3    3  502    0 -0.43253519015E+03  0.87429429130E+03 -0.73846411843E+03  0.12234410757E+04  0.12699999809E+01 0. -1.
       -4    1    3    3    0  502  0.43253519015E+03 -0.87429429130E+03 -0.25113348909E+03  0.10072471597E+04  0.12699999809E+01 0.  1.
</event>
<event>
 5   0  0.2379743E-06  0.2000976E+04  0.7818609E-02  0.8606165E-01
        1   -1    0    0  501    0  0.00000000000E+00  0.00000000000E+00  0.17159763014E+04  0.17159763014E+04  0.50400001928E-02 0. -1.
       -1   -1    0    0    0  501  0.00000000000E+00  0.00000000000E+00 -0.58332741712E+03  0.58332741714E+03  0.50400001928E-02 0.  1.
    10030    2    1    2    0    0  0.00000000000E+00  0.00000000000E+00  0.11326488842E+04  0.22993037185E+04  0.20009757857E+04 0.  0.
        5    1    3    3  502    0 -0.21189054010E+03 -0.57960048798E+03  0.14712070481E+04  0.15954017033E+04  0.46999998093E+01 0. -1.
       -5    1    3    3    0  502  0.21189054010E+03  0.57960048798E+03 -0.33855816385E+03  0.70390201517E+03  0.46999998093E+01 0.  1.
</event>
<event>
 5   0  0.2313821E-06  0.2007107E+04  0.7818609E-02  0.8603305E-01
        1   -1    0    0  501    0  0.00000000000E+00  0.00000000000E+00  0.80156342216E+03  0.80156342217E+03  0.50400001928E-02 0.  1.
       -1   -1    0    0    0  501  0.00000000000E+00  0.00000000000E+00 -0.12564437137E+04  0.12564437137E+04  0.50400001928E-02 0. -1.
    10030    2    1    2    0    0  0.00000000000E+00  0.00000000000E+00 -0.45488029156E+03  0.20580071359E+04  0.20071066967E+04 0.  0.
        1    1    3    3  502    0  0.18479367265E+03  0.69983151796E+03 -0.94019927041E+03  0.11865443620E+04  0.50400001928E-02 0. -1.
       -1    1    3    3    0  502 -0.18479367265E+03 -0.69983151796E+03  0.48531897885E+03  0.87146277387E+03  0.50400001928E-02 0.  1.
</event>
<event>
 5   0  0.2356996E-06  0.2000322E+04  0.7818609E-02  0.8606470E-01
        1   -1    0    0  501    0  0.00000000000E+00  0.00000000000E+00  0.23515635466E+04  0.23515635466E+04  0.50400001928E-02 0. -1.
       -1   -1    0    0    0  501  0.00000000000E+00  0.00000000000E+00 -0.42538579165E+03  0.42538579168E+03  0.50400001928E-02 0.  1.
    10030    2    1    2    0    0  0.00000000000E+00  0.00000000000E+00  0.19261777550E+04  0.27769493383E+04  0.20003216951E+04 0.  0.
        4    1    3    3  502    0 -0.56970590966E+03 -0.18863230497E+03 -0.14766243470E+03  0.61802328233E+03  0.12699999809E+01 0.  1.
       -4    1    3    3    0  502  0.56970590966E+03  0.18863230497E+03  0.20738401897E+04  0.21589260560E+04  0.12699999809E+01 0. -1.
</event>
<event>
 5   0  0.2313821E-06  0.2000569E+04  0.7818609E-02  0.8606355E-01
       -1   -1    0    0    0  501  0.00000000000E+00  0.00000000000E+00  0.43209086080E+03  0.43209086083E+03  0.50400001928E-02 0. -1.
        1   -1    0    0  501    0  0.00000000000E+00  0.00000000000E+00 -0.23156459954E+04  0.23156459954E+04  0.50400001928E-02 0.  1.
    10030    2    1    2    0    0  0.00000000000E+00  0.00000000000E+00 -0.18835551346E+04  0.27477368563E+04  0.20005693905E+04 0.  0.
        1    1    3    3  502    0  0.95715882846E+03 -0.28985478861E+03 -0.91428570527E+03  0.13550229416E+04  0.50400001928E-02 0.  1.
       -1    1    3    3    0  502 -0.95715882846E+03  0.28985478861E+03 -0.96926942936E+03  0.13927139147E+04  0.50400001928E-02 0. -1.
</event>
<event>
 5   0  0.5129100E-06  0.2000343E+04  0.7818609E-02  0.8606460E-01
        2   -1    0    0  501    0  0.00000000000E+00  0.00000000000E+00  0.10887005716E+04  0.10887005716E+04  0.25500000920E-02 0. -1.
       -2   -1    0    0    0  501  0.00000000000E+00  0.00000000000E+00 -0.91884099428E+03  0.91884099428E+03  0.25500000920E-02 0.  1.
    10030    2    1    2    0    0  0.00000000000E+00  0.00000000000E+00  0.16985957728E+03  0.20075415658E+04  0.20003426863E+04 0.  0.
        2    1    3    3  502    0  0.13425136958E+03 -0.75530026839E+03  0.72898755645E+03  0.10582649872E+04  0.25500000920E-02 0. -1.
       -2    1    3    3    0  502 -0.13425136958E+03  0.75530026839E+03 -0.55912797917E+03  0.94927657864E+03  0.25500000920E-02 0.  1.
</event>
<event>
 5   0  0.2356996E-06  0.2003092E+04  0.7818609E-02  0.8605176E-01
        1   -1    0    0  501    0  0.00000000000E+00  0.00000000000E+00  0.23812700654E+04  0.23812700654E+04  0.50400001928E-02 0. -1.
       -1   -1    0    0    0  501  0.00000000000E+00  0.00000000000E+00 -0.42124353132E+03  0.42124353135E+03  0.50400001928E-02 0.  1.
    10030    2    1    2    0    0  0.00000000000E+00  0.00000000000E+00  0.19600265341E+04  0.28025135967E+04  0.20030922210E+04 0.  0.
        4    1    3    3  502    0 -0.25205109662E+00 -0.43249626316E+03 -0.28385696649E+03  0.51732917133E+03  0.12699999809E+01 0.  1.
       -4    1    3    3    0  502  0.25205109662E+00  0.43249626316E+03  0.22438835005E+04  0.22851844254E+04  0.12699999809E+01 0. -1.
</event>
<event>
 5   0  0.5118981E-06  0.2000377E+04  0.7818609E-02  0.8606444E-01
       -2   -1    0    0    0  501  0.00000000000E+00  0.00000000000E+00  0.53497565177E+03  0.53497565177E+03  0.25500000920E-02 0. -1.
        2   -1    0    0  501    0  0.00000000000E+00  0.00000000000E+00 -0.18699485903E+04  0.18699485903E+04  0.25500000920E-02 0.  1.
    10030    2    1    2    0    0  0.00000000000E+00  0.00000000000E+00 -0.13349729386E+04  0.24049242421E+04  0.20003769304E+04 0.  0.
        4    1    3    3  502    0  0.87319222839E+03  0.48628718452E+03 -0.62193682121E+03  0.11771775210E+04  0.12699999809E+01 0. -1.
       -4    1    3    3    0  502 -0.87319222839E+03 -0.48628718452E+03 -0.71303611734E+03  0.12277467211E+04  0.12699999809E+01 0.  1.
</event>
<event>
 5   0  0.2313821E-06  0.2000094E+04  0.7818609E-02  0.8606577E-01
       -1   -1    0    0    0  501  0.00000000000E+00  0.00000000000E+00  0.96500226703E+03  0.96500226704E+03  0.50400001928E-02 0.  1.
        1   -1    0    0  501    0  0.00000000000E+00  0.00000000000E+00 -0.10363643686E+04  0.10363643686E+04  0.50400001928E-02 0. -1.
    10030    2    1    2    0    0  0.00000000000E+00  0.00000000000E+00 -0.71362101583E+02  0.20013666357E+04  0.20000939630E+04 0.  0.
        1    1    3    3  502    0  0.37548435080E+03  0.70213581367E+02  0.88912319936E+03  0.96770786313E+03  0.50400001928E-02 0.  1.
       -1    1    3    3    0  502 -0.37548435080E+03 -0.70213581367E+02 -0.96048530094E+03  0.10336587725E+04  0.50400001928E-02 0. -1.
</event>
<event>
 5   0  0.2311520E-06  0.2001241E+04  0.7818609E-02  0.8606040E-01
       -1   -1    0    0    0  501  0.00000000000E+00  0.00000000000E+00  0.21005307356E+04  0.21005307356E+04  0.50400001928E-02 0.  1.
        1   -1    0    0  501    0  0.00000000000E+00  0.00000000000E+00 -0.47666135661E+03  0.47666135664E+03  0.50400001928E-02 0. -1.
    10030    2    1    2    0    0  0.00000000000E+00  0.00000000000E+00  0.16238693790E+04  0.25771920923E+04  0.20012414448E+04 0.  0.
        3    1    3    3  502    0 -0.32536749545E+03 -0.57646738124E+03  0.17782655799E+04  0.18974738817E+04  0.10100000352E+00 0.  1.
       -3    1    3    3    0  502  0.32536749545E+03  0.57646738124E+03 -0.15439620093E+03  0.67971821057E+03  0.10100000352E+00 0. -1.
</event>
<event>
 5   0  0.5129100E-06  0.1999165E+04  0.7818609E-02  0.8607011E-01
        2   -1    0    0  501    0  0.00000000000E+00  0.00000000000E+00  0.60116423839E+03  0.60116423840E+03  0.25500000920E-02 0. -1.
       -2   -1    0    0    0  501  0.00000000000E+00  0.00000000000E+00 -0.16620504445E+04  0.16620504445E+04  0.25500000920E-02 0.  1.
    10030    2    1    2    0    0  0.00000000000E+00  0.00000000000E+00 -0.10608862061E+04  0.22632146829E+04  0.19991651154E+04 0.  0.
        2    1    3    3  502    0  0.16115371741E+03  0.98366114887E+03 -0.61520189866E+03  0.11713381888E+04  0.25500000920E-02 0.  1.
       -2    1    3    3    0  502 -0.16115371741E+03 -0.98366114887E+03 -0.44568430745E+03  0.10918764941E+04  0.25500000920E-02 0. -1.
</event>
<event>
 5   0  0.5030137E-06  0.1999878E+04  0.7818609E-02  0.8606678E-01
        2   -1    0    0  501    0  0.00000000000E+00  0.00000000000E+00  0.12515640343E+04  0.12515640343E+04  0.25500000920E-02 0. -1.
       -2   -1    0    0    0  501  0.00000000000E+00  0.00000000000E+00 -0.79890313564E+03  0.79890313565E+03  0.25500000920E-02 0.  1.
    10030    2    1    2    0    0  0.00000000000E+00  0.00000000000E+00  0.45266089863E+03  0.20504671699E+04  0.19998784277E+04 0.  0.
        3    1    3    3  502    0 -0.72601609487E+03 -0.68656949719E+03  0.26471236802E+03  0.10337067730E+04  0.10100000352E+00 0. -1.
       -3    1    3    3    0  502  0.72601609487E+03  0.68656949719E+03  0.18794853061E+03  0.10167603970E+04  0.10100000352E+00 0.  1.
</event>
<event>
 5   0  0.5251252E-06  0.2000575E+04  0.7818609E-02  0.8606352E-01
       -2   -1    0    0    0  501  0.00000000000E+00  0.00000000000E+00  0.11265449842E+04  0.11265449842E+04  0.25500000920E-02 0. -1.
        2   -1    0    0  501    0  0.00000000000E+00  0.00000000000E+00 -0.88818000824E+03  0.88818000825E+03  0.25500000920E-02 0.  1.
    10030    2    1    2    0    0  0.00000000000E+00  0.00000000000E+00  0.23836497592E+03  0.20147249924E+04  0.20005746508E+04 0.  0.
        5    1    3    3  502    0  0.94161238357E+03  0.25026643460E+03 -0.10888228013E+03  0.98037982951E+03  0.46999998093E+01 0. -1.
       -5    1    3    3    0  502 -0.94161238357E+03 -0.25026643460E+03  0.34724725605E+03  0.10343451629E+04  0.46999998093E+01 0.  1.
</event>
<event>
 5   0  0.2356996E-06  0.1993097E+04  0.7818609E-02  0.8609855E-01
        1   -1    0    0  501    0  0.00000000000E+00  0.00000000000E+00  0.74541141500E+03  0.74541141501E+03  0.50400001928E-02 0.  1.
       -1   -1    0    0    0  501  0.00000000000E+00  0.00000000000E+00 -0.13322967423E+04  0.13322967423E+04  0.50400001928E-02 0. -1.
    10030    2    1    2    0    0  0.00000000000E+00  0.00000000000E+00 -0.58688532733E+03  0.20777081573E+04  0.19930972881E+04 0.  0.
        4    1    3    3  502    0 -0.44820408551E+03  0.75953607497E+03 -0.77717365857E+03  0.11754924329E+04  0.12699999809E+01 0. -1.
       -4    1    3    3    0  502  0.44820408551E+03 -0.75953607497E+03  0.19028833124E+03  0.90221572440E+03  0.12699999809E+01 0.  1.
</event>
<event>
 5   0  0.2313821E-06  0.2000012E+04  0.7818609E-02  0.8606615E-01
       -1   -1    0    0    0  501  0.00000000000E+00  0.00000000000E+00  0.48884931171E+03  0.48884931174E+03  0.50400001928E-02 0. -1.
        1   -1    0    0  501    0  0.00000000000E+00  0.00000000000E+00 -0.20456438806E+04  0.20456438806E+04  0.50400001928E-02 0.  1.
    10030    2    1    2    0    0  0.00000000000E+00  0.00000000000E+00 -0.15567945689E+04  0.25344931923E+04  0.20000116030E+04 0.  0.
        1    1    3    3  502    0  0.42929507162E+02  0.14380805676E+03  0.47449665832E+03  0.49766532786E+03  0.50400001928E-02 0. -1.
       -1    1    3    3    0  502 -0.42929507162E+02 -0.14380805676E+03 -0.20312912272E+04  0.20368278645E+04  0.50400001928E-02 0.  1.
</event>
<event>
 5   0  0.2379743E-06  0.2001063E+04  0.7818609E-02  0.8606124E-01
        1   -1    0    0  501    0  0.00000000000E+00  0.00000000000E+00  0.19433435150E+04  0.19433435150E+04  0.50400001928E-02 0. -1.
       -1   -1    0    0    0  501  0.00000000000E+00  0.00000000000E+00 -0.51512413488E+03  0.51512413490E+03  0.50400001928E-02 0.  1.
    10030    2    1    2    0    0  0.00000000000E+00  0.00000000000E+00  0.14282193801E+04  0.24584676499E+04  0.20010628645E+04 0.  0.
        5    1    3    3  502    0  0.23281768485E+02 -0.93871330285E+03  0.11384885556E+04  0.14757719969E+04  0.46999998093E+01 0. -1.
       -5    1    3    3    0  502 -0.23281768485E+02  0.93871330285E+03  0.28973082450E+03  0.98269565296E+03  0.46999998093E+01 0.  1.
</event>
<event>
 5   0  0.5030137E-06  0.1998111E+04  0.7818609E-02  0.8607504E-01
       -2   -1    0    0    0  501  0.00000000000E+00  0.00000000000E+00  0.76659915650E+03  0.76659915650E+03  0.25500000920E-02 0.  1.
        2   -1    0    0  501    0  0.00000000000E+00  0.00000000000E+00 -0.13020002296E+04  0.13020002296E+04  0.25500000920E-02 0. -1.
    10030    2    1    2    0    0  0.00000000000E+00  0.00000000000E+00 -0.53540107314E+03  0.20685993861E+04  0.19981113861E+04 0.  0.
        3    1    3    3  502    0 -0.89994735587E+01  0.29639762063E+03 -0.12553896707E+04  0.12899363455E+04  0.10100000352E+00 0. -1.
       -3    1    3    3    0  502  0.89994735587E+01 -0.29639762063E+03  0.71998859754E+03  0.77866304062E+03  0.10100000352E+00 0.  1.
</event>
<event>
 5   0  0.5129100E-06  0.1999302E+04  0.7818609E-02  0.8606947E-01
        2   -1    0    0  501    0  0.00000000000E+00  0.00000000000E+00  0.12426922026E+04  0.12426922026E+04  0.25500000920E-02 0. -1.
       -2   -1    0    0    0  501  0.00000000000E+00  0.00000000000E+00 -0.80414330238E+03  0.80414330238E+03  0.25500000920E-02 0.  1.
    10030    2    1    2    0    0  0.00000000000E+00  0.00000000000E+00  0.43854890019E+03  0.20468355050E+04  0.19993024900E+04 0.  0.
        2    1    3    3  502    0  0.47311976927E+03 -0.21130238550E+03  0.10944741301E+04  0.12109354383E+04  0.25500000920E-02 0. -1.
       -2    1    3    3    0  502 -0.47311976927E+03  0.21130238550E+03 -0.65592522993E+03  0.83590006667E+03  0.25500000920E-02 0.  1.
</event>
<event>
 5   0  0.2386776E-06  0.1999505E+04  0.7818609E-02  0.8606852E-01
        1   -1    0    0  501    0  0.00000000000E+00  0.00000000000E+00  0.94983028629E+03  0.94983028631E+03  0.50400001928E-02 0. -1.
       -1   -1    0    0    0  501  0.00000000000E+00  0.00000000000E+00 -0.10522983953E+04  0.10522983953E+04  0.50400001928E-02 0.  1.
    10030    2    1    2    0    0  0.00000000000E+00  0.00000000000E+00 -0.10246810898E+03  0.20021286816E+04  0.19995048248E+04 0.  0.
        2    1    3    3  502    0 -0.22347031909E+03  0.95813963587E+03 -0.22904619444E+03  0.10101646918E+04  0.25500000920E-02 0.  1.
       -2    1    3    3    0  502  0.22347031909E+03 -0.95813963587E+03  0.12657808546E+03  0.99196398980E+03  0.25500000920E-02 0. -1.
</event>
<event>
 5   0  0.2386776E-06  0.2003983E+04  0.7818609E-02  0.8604761E-01
        1   -1    0    0  501    0  0.00000000000E+00  0.00000000000E+00  0.17228618045E+04  0.17228618045E+04  0.50400001928E-02 0.  1.
       -1   -1    0    0    0  501  0.00000000000E+00  0.00000000000E+00 -0.58274376103E+03  0.58274376105E+03  0.50400001928E-02 0. -1.
    10030    2    1    2    0    0  0.00000000000E+00  0.00000000000E+00  0.11401180435E+04  0.23056055656E+04  0.20039830017E+04 0.  0.
        2    1    3    3  502    0 -0.83798204761E+03 -0.75013689114E+02  0.11961593269E+04  0.14624083223E+04  0.25500000920E-02 0.  1.
       -2    1    3    3    0  502  0.83798204761E+03  0.75013689114E+02 -0.56041283420E+02  0.84319724331E+03  0.25500000920E-02 0. -1.
</event>
<event>
 5   0  0.4956214E-06  0.2001384E+04  0.7818609E-02  0.8605974E-01
       -2   -1    0    0    0  501  0.00000000000E+00  0.00000000000E+00  0.61455348116E+03  0.61455348117E+03  0.25500000920E-02 0. -1.
        2   -1    0    0  501    0  0.00000000000E+00  0.00000000000E+00 -0.16294497528E+04  0.16294497528E+04  0.25500000920E-02 0.  1.
    10030    2    1    2    0    0  0.00000000000E+00  0.00000000000E+00 -0.10148962717E+04  0.22440032340E+04  0.20013835394E+04 0.  0.
        1    1    3    3  502    0 -0.87310486190E+03 -0.21673117101E+03 -0.16024215650E+02  0.89974511717E+03  0.50400001928E-02 0. -1.
       -1    1    3    3    0  502  0.87310486190E+03  0.21673117101E+03 -0.99887205601E+03  0.13442581168E+04  0.50400001928E-02 0.  1.
</event>
<event>
 5   0  0.2311520E-06  0.1998120E+04  0.7818609E-02  0.8607500E-01
        1   -1    0    0  501    0  0.00000000000E+00  0.00000000000E+00  0.12723303741E+04  0.12723303741E+04  0.50400001928E-02 0. -1.
       -1   -1    0    0    0  501  0.00000000000E+00  0.00000000000E+00 -0.78448245944E+03  0.78448245945E+03  0.50400001928E-02 0.  1.
    10030    2    1    2    0    0  0.00000000000E+00  0.00000000000E+00  0.48784791463E+03  0.20568128335E+04  0.19981199775E+04 0.  0.
        3    1    3    3  502    0  0.23330922464E+02  0.11278086791E+03  0.12654743577E+04  0.12707042206E+04  0.10100000352E+00 0. -1.
       -3    1    3    3    0  502 -0.23330922464E+02 -0.11278086791E+03 -0.77762644307E+03  0.78610861290E+03  0.10100000352E+00 0.  1.
</event>
<event>
 5   0  0.4956214E-06  0.2000277E+04  0.7818609E-02  0.8606491E-01
       -2   -1    0    0    0  501  0.00000000000E+00  0.00000000000E+00  0.65050177172E+03  0.65050177172E+03  0.25500000920E-02 0. -1.
        2   -1    0    0  501    0  0.00000000000E+00  0.00000000000E+00 -0.15377000291E+04  0.15377000291E+04  0.25500000920E-02 0.  1.
    10030    2    1    2    0    0  0.00000000000E+00  0.00000000000E+00 -0.88719825739E+03  0.21882018008E+04  0.20002765742E+04 0.  0.
        1    1    3    3  502    0 -0.25193189303E+03 -0.12534024710E+03  0.60630572675E+03  0.66842089329E+03  0.50400001928E-02 0. -1.
       -1    1    3    3    0  502  0.25193189303E+03  0.12534024710E+03 -0.14935039841E+04  0.15197809075E+04  0.50400001928E-02 0.  1.
</event>
<event>
 5   0  0.2386776E-06  0.2000611E+04  0.7818609E-02  0.8606335E-01
        1   -1    0    0  501    0  0.00000000000E+00  0.00000000000E+00  0.13327780461E+04  0.13327780461E+04  0.50400001928E-02 0.  1.
       -1   -1    0    0    0  501  0.00000000000E+00  0.00000000000E+00 -0.75077091812E+03  0.75077091814E+03  0.50400001928E-02 0. -1.
    10030    2    1    2    0    0  0.00000000000E+00  0.00000000000E+00  0.58200712795E+03  0.20835489642E+04  0.20006109040E+04 0.  0.
        2    1    3    3  502    0 -0.18554696328E+03 -0.75610075799E+03 -0.36312303907E+03  0.85905434829E+03  0.25500000920E-02 0. -1.
       -2    1    3    3    0  502  0.18554696328E+03  0.75610075799E+03  0.94513016702E+03  0.12244946159E+04  0.25500000920E-02 0.  1.
</event>
<event>
 5   0  0.2356996E-06  0.1999904E+04  0.7818609E-02  0.8606666E-01
        1   -1    0    0  501    0  0.00000000000E+00  0.00000000000E+00  0.99355130414E+03  0.99355130415E+03  0.50400001928E-02 0. -1.
       -1   -1    0    0    0  501  0.00000000000E+00  0.00000000000E+00 -0.10063937845E+04  0.10063937845E+04  0.50400001928E-02 0.  1.
    10030    2    1    2    0    0  0.00000000000E+00  0.00000000000E+00 -0.12842480374E+02  0.19999450887E+04  0.19999038548E+04 0.  0.
        4    1    3    3  502    0 -0.28688519845E+03  0.50802947151E+03 -0.81853722867E+03  0.10051874793E+04  0.12699999809E+01 0.  1.
       -4    1    3    3    0  502  0.28688519845E+03 -0.50802947151E+03  0.80569474830E+03  0.99475760934E+03  0.12699999809E+01 0. -1.
</event>
<event>
 5   0  0.5118981E-06  0.1997080E+04  0.7818609E-02  0.8607987E-01
       -2   -1    0    0    0  501  0.00000000000E+00  0.00000000000E+00  0.10282183261E+04  0.10282183261E+04  0.25500000920E-02 0.  1.
        2   -1    0    0  501    0  0.00000000000E+00  0.00000000000E+00 -0.96971848460E+03  0.96971848461E+03  0.25500000920E-02 0. -1.
    10030    2    1    2    0    0  0.00000000000E+00  0.00000000000E+00  0.58499841480E+02  0.19979368107E+04  0.19970801857E+04 0.  0.
        4    1    3    3  502    0  0.36600625123E+02 -0.59322489428E+03 -0.77348151930E+03  0.97546432767E+03  0.12699999809E+01 0. -1.
       -4    1    3    3    0  502 -0.36600625123E+02  0.59322489428E+03  0.83198136079E+03  0.10224724830E+04  0.12699999809E+01 0.  1.
</event>
<event>
 5   0  0.5129100E-06  0.1999949E+04  0.7818609E-02  0.8606645E-01
        2   -1    0    0  501    0  0.00000000000E+00  0.00000000000E+00  0.13716884831E+04  0.13716884831E+04  0.25500000920E-02 0. -1.
       -2   -1    0    0    0  501  0.00000000000E+00  0.00000000000E+00 -0.72899105244E+03  0.72899105244E+03  0.25500000920E-02 0.  1.
    10030    2    1    2    0    0  0.00000000000E+00  0.00000000000E+00  0.64269743070E+03  0.21006795356E+04  0.19999486303E+04 0.  0.
        2    1    3    3  502    0 -0.67236955987E+02  0.38659606068E+03  0.12874413718E+04  0.13459132989E+04  0.25500000920E-02 0. -1.
       -2    1    3    3    0  502  0.67236955987E+02 -0.38659606068E+03 -0.64474394111E+03  0.75476623665E+03  0.25500000920E-02 0.  1.
</event>
<event>
 5   0  0.2379743E-06  0.2000932E+04  0.7818609E-02  0.8606185E-01
       -1   -1    0    0    0  501  0.00000000000E+00  0.00000000000E+00  0.16030263641E+04  0.16030263641E+04  0.50400001928E-02 0. -1.
        1   -1    0    0  501    0  0.00000000000E+00  0.00000000000E+00 -0.62440169610E+03  0.62440169612E+03  0.50400001928E-02 0.  1.
    10030    2    1    2    0    0  0.00000000000E+00  0.00000000000E+00  0.97862466803E+03  0.22274280603E+04  0.20009321635E+04 0.  0.
        5    1    3    3  502    0  0.21782305345E+03  0.94159243085E+03  0.20145481851E+03  0.98724329440E+03  0.46999998093E+01 0.  1.
       -5    1    3    3    0  502 -0.21782305345E+03 -0.94159243085E+03  0.77716984952E+03  0.12401847659E+04  0.46999998093E+01 0. -1.
</event>
<event>
 5   0  0.5251252E-06  0.1999270E+04  0.7818609E-02  0.8606962E-01
        2   -1    0    0  501    0  0.00000000000E+00  0.00000000000E+00  0.12358522751E+04  0.12358522751E+04  0.25500000920E-02 0. -1.
       -2   -1    0    0    0  501  0.00000000000E+00  0.00000000000E+00 -0.80856776468E+03  0.80856776468E+03  0.25500000920E-02 0.  1.
    10030    2    1    2    0    0  0.00000000000E+00  0.00000000000E+00  0.42728451043E+03  0.20444200398E+04  0.19992701784E+04 0.  0.
        5    1    3    3  502    0  0.12535973901E+03 -0.95317172601E+03  0.49368224968E+03  0.10807384777E+04  0.46999998093E+01 0. -1.
       -5    1    3    3    0  502 -0.12535973901E+03  0.95317172601E+03 -0.66397739251E+02  0.96368156214E+03  0.46999998093E+01 0.  1.
</event>
<event>
 5   0  0.5129100E-06  0.1999567E+04  0.7818609E-02  0.8606823E-01
       -2   -1    0    0    0  501  0.00000000000E+00  0.00000000000E+00  0.98928143309E+03  0.98928143309E+03  0.25500000920E-02 0. -1.
        2   -1    0    0  501    0  0.00000000000E+00  0.00000000000E+00 -0.10103968860E+04  0.10103968860E+04  0.25500000920E-02 0.  1.
    10030    2    1    2    0    0  0.00000000000E+00  0.00000000000E+00 -0.21115452910E+02  0.19996783191E+04  0.19995668325E+04 0.  0.
        2    1    3    3  502    0 -0.35726817619E+03  0.73782557690E+03 -0.58290051967E+03  0.10058827703E+04  0.25500000920E-02 0.  1.
       -2    1    3    3    0  502  0.35726817619E+03 -0.73782557690E+03  0.56178506676E+03  0.99379554884E+03  0.25500000920E-02 0. -1.
</event>
<event>
 5   0  0.2386776E-06  0.1999677E+04  0.7818609E-02  0.8606772E-01
       -1   -1    0    0    0  501  0.00000000000E+00  0.00000000000E+00  0.54671945022E+03  0.54671945024E+03  0.50400001928E-02 0. -1.
        1   -1    0    0  501    0  0.00000000000E+00  0.00000000000E+00 -0.18285012978E+04  0.18285012979E+04  0.50400001928E-02 0.  1.
    10030    2    1    2    0    0  0.00000000000E+00  0.00000000000E+00 -0.12817818476E+04  0.23752207481E+04  0.19996771983E+04 0.  0.
        2    1    3    3  502    0  0.62798107845E+03  0.87984417955E+02  0.27731599243E+03  0.69210234240E+03  0.25500000920E-02 0. -1.
       -2    1    3    3    0  502 -0.62798107845E+03 -0.87984417955E+02 -0.15590978401E+04  0.16831184057E+04  0.25500000920E-02 0.  1.
</event>
<event>
 5   0  0.2311520E-06  0.1999011E+04  0.7818609E-02  0.8607083E-01
        1   -1    0    0  501    0  0.00000000000E+00  0.00000000000E+00  0.10171225752E+04  0.10171225752E+04  0.50400001928E-02 0. -1.
       -1   -1    0    0    0  501  0.00000000000E+00  0.00000000000E+00 -0.98219314708E+03  0.98219314709E+03  0.50400001928E-02 0.  1.
    10030    2    1    2    0    0  0.00000000000E+00  0.00000000000E+00  0.34929428156E+02  0.19993157223E+04  0.19990105784E+04 0.  0.
        3    1    3    3  502    0  0.13570030619E+03  0.69125775051E+03  0.72662792780E+03  0.10120474329E+04  0.10100000352E+00 0. -1.
       -3    1    3    3    0  502 -0.13570030619E+03 -0.69125775051E+03 -0.69169849965E+03  0.98726828945E+03  0.10100000352E+00 0.  1.
</event>
<event>
 5   0  0.4956214E-06  0.1999859E+04  0.7818609E-02  0.8606687E-01
       -2   -1    0    0    0  501  0.00000000000E+00  0.00000000000E+00  0.64377878463E+03  0.64377878463E+03  0.25500000920E-02 0. -1.
        2   -1    0    0  501    0  0.00000000000E+00  0.00000000000E+00 -0.15531088419E+04  0.15531088419E+04  0.25500000920E-02 0.  1.
    10030    2    1    2    0    0  0.00000000000E+00  0.00000000000E+00 -0.90933005724E+03  0.21968876265E+04  0.19998585176E+04 0.  0.
        1    1    3    3  502    0 -0.57826777214E+03  0.40028424160E+03  0.32616468280E+03  0.77524479405E+03  0.50400001928E-02 0. -1.
       -1    1    3    3    0  502  0.57826777214E+03 -0.40028424160E+03 -0.12354947400E+04  0.14216428324E+04  0.50400001928E-02 0.  1.
</event>
<event>
 5   0  0.2311520E-06  0.1999394E+04  0.7818609E-02  0.8606904E-01
       -1   -1    0    0    0  501  0.00000000000E+00  0.00000000000E+00  0.18942049789E+04  0.18942049789E+04  0.50400001928E-02 0. -1.
        1   -1    0    0  501    0  0.00000000000E+00  0.00000000000E+00 -0.52760624182E+03  0.52760624185E+03  0.50400001928E-02 0.  1.
    10030    2    1    2    0    0  0.00000000000E+00  0.00000000000E+00  0.13665987371E+04  0.24218112208E+04  0.19993942785E+04 0.  0.
        3    1    3    3  502    0 -0.32083954635E+03 -0.19197623240E+03  0.18063269361E+04  0.18446164638E+04  0.10100000352E+00 0. -1.
       -3    1    3    3    0  502  0.32083954635E+03  0.19197623240E+03 -0.43972819898E+03  0.57719475698E+03  0.10100000352E+00 0.  1.
</event>
<event>
 5   0  0.5129100E-06  0.1993714E+04  0.7818609E-02  0.8609565E-01
       -2   -1    0    0    0  501  0.00000000000E+00  0.00000000000E+00  0.53192749112E+03  0.53192749113E+03  0.25500000920E-02 0. -1.
        2   -1    0    0  501    0  0.00000000000E+00  0.00000000000E+00 -0.18681572284E+04  0.18681572284E+04  0.25500000920E-02 0.  1.
    10030    2    1    2    0    0  0.00000000000E+00  0.00000000000E+00 -0.13362297372E+04  0.24000847195E+04  0.19937143100E+04 0.  0.
        2    1    3    3  502    0  0.59822933108E+03 -0.42041775202E+03  0.14755574838E+03  0.74592366744E+03  0.25500000920E-02 0. -1.
       -2    1    3    3    0  502 -0.59822933108E+03  0.42041775202E+03 -0.14837854856E+04  0.16541610520E+04  0.25500000920E-02 0.  1.
</event>
<event>
 5   0  0.5030137E-06  0.2000210E+04  0.7818609E-02  0.8606522E-01
        2   -1    0    0  501    0  0.00000000000E+00  0.00000000000E+00  0.10195958056E+04  0.10195958056E+04  0.25500000920E-02 0. -1.
       -2   -1    0    0    0  501  0.00000000000E+00  0.00000000000E+00 -0.98098721085E+03  0.98098721086E+03  0.25500000920E-02 0.  1.
    10030    2    1    2    0    0  0.00000000000E+00  0.00000000000E+00  0.38608594704E+02  0.20005830164E+04  0.20002104344E+04 0.  0.
        3    1    3    3  502    0 -0.23304616035E+03 -0.76412630725E+02  0.98905234602E+03  0.10190063574E+04  0.10100000352E+00 0. -1.
       -3    1    3    3    0  502  0.23304616035E+03  0.76412630725E+02 -0.95044375131E+03  0.98157665905E+03  0.10100000352E+00 0.  1.
</event>
<event>
 5   0  0.4956214E-06  0.2000363E+04  0.7818609E-02  0.8606451E-01
        2   -1    0    0  501    0  0.00000000000E+00  0.00000000000E+00  0.83554513915E+03  0.83554513916E+03  0.25500000920E-02 0.  1.
       -2   -1    0    0    0  501  0.00000000000E+00  0.00000000000E+00 -0.11972578987E+04  0.11972578987E+04  0.25500000920E-02 0. -1.
    10030    2    1    2    0    0  0.00000000000E+00  0.00000000000E+00 -0.36171275955E+03  0.20328030379E+04  0.20003629846E+04 0.  0.
        1    1    3    3  502    0 -0.72693478571E+03 -0.18024470930E+03  0.49279719742E+03  0.89653299756E+03  0.50400001928E-02 0.  1.
       -1    1    3    3    0  502  0.72693478571E+03  0.18024470930E+03 -0.85450995697E+03  0.11362700403E+04  0.50400001928E-02 0. -1.
</event>
<event>
 5   0  0.5251252E-06  0.1999966E+04  0.7818609E-02  0.8606636E-01
       -2   -1    0    0    0  501  0.00000000000E+00  0.00000000000E+00  0.77874104411E+03  0.77874104411E+03  0.25500000920E-02 0.  1.
        2   -1    0    0  501    0  0.00000000000E+00  0.00000000000E+00 -0.12840805859E+04  0.12840805860E+04  0.25500000920E-02 0. -1.
    10030    2    1    2    0    0  0.00000000000E+00  0.00000000000E+00 -0.50533954184E+03  0.20628216301E+04  0.19999662559E+04 0.  0.
        5    1    3    3  502    0  0.13001564536E+03 -0.76698707996E+03 -0.90072435035E+03  0.11901679269E+04  0.46999998093E+01 0. -1.
       -5    1    3    3    0  502 -0.13001564536E+03  0.76698707996E+03  0.39538480851E+03  0.87265370318E+03  0.46999998093E+01 0.  1.
</event>
<event>
 5   0  0.2356996E-06  0.1999431E+04  0.7818609E-02  0.8606887E-01
        1   -1    0    0  501    0  0.00000000000E+00  0.00000000000E+00  0.67937392842E+03  0.67937392844E+03  0.50400001928E-02 0. -1.
       -1   -1    0    0    0  501  0.00000000000E+00  0.00000000000E+00 -0.14711065915E+04  0.14711065915E+04  0.50400001928E-02 0.  1.
    10030    2    1    2    0    0  0.00000000000E+00  0.00000000000E+00 -0.79173266308E+03  0.21504805199E+04  0.19994313834E+04 0.  0.
        4    1    3    3  502    0 -0.81431591170E+02 -0.89597553706E+03  0.72986117913E+02  0.90262497936E+03  0.12699999809E+01 0.  1.
       -4    1    3    3    0  502  0.81431591170E+02  0.89597553706E+03 -0.86471878099E+03  0.12478555406E+04  0.12699999809E+01 0. -1.
</event>
<event>
 5   0  0.2379743E-06  0.2004008E+04  0.7818609E-02  0.8604749E-01
        1   -1    0    0  501    0  0.00000000000E+00  0.00000000000E+00  0.14652095837E+04  0.14652095837E+04  0.50400001928E-02 0.  1.
       -1   -1    0    0    0  501  0.00000000000E+00  0.00000000000E+00 -0.68523463123E+03  0.68523463125E+03  0.50400001928E-02 0. -1.
    10030    2    1    2    0    0  0.00000000000E+00  0.00000000000E+00  0.77997495249E+03  0.21504442150E+04  0.20040083321E+04 0.  0.
        5    1    3    3  502    0 -0.70384831667E+03  0.33628283311E+03 -0.28485562806E+03  0.83045374077E+03  0.46999998093E+01 0. -1.
       -5    1    3    3    0  502  0.70384831667E+03 -0.33628283311E+03  0.10648305806E+04  0.13199904742E+04  0.46999998093E+01 0.  1.
</event>
<event>
 5   0  0.5118981E-06  0.1999599E+04  0.7818609E-02  0.8606808E-01
        2   -1    0    0  501    0  0.00000000000E+00  0.00000000000E+00  0.18828168374E+04  0.18828168374E+04  0.25500000920E-02 0. -1.
       -2   -1    0    0    0  501  0.00000000000E+00  0.00000000000E+00 -0.53090592894E+03  0.53090592894E+03  0.25500000920E-02 0.  1.
    10030    2    1    2    0    0  0.00000000000E+00  0.00000000000E+00  0.13519109084E+04  0.24137227663E+04  0.19995985818E+04 0.  0.
        4    1    3    3  502    0 -0.43534916590E+03  0.20157882593E+03 -0.38288439765E+03  0.61381185568E+03  0.12699999809E+01 0.  1.
       -4    1    3    3    0  502  0.43534916590E+03 -0.20157882593E+03  0.17347953061E+04  0.17999109106E+04  0.12699999809E+01 0. -1.
</event>
<event>
 5   0  0.2356996E-06  0.1999285E+04  0.7818609E-02  0.8606955E-01
       -1   -1    0    0    0  501  0.00000000000E+00  0.00000000000E+00  0.78379630643E+03  0.78379630645E+03  0.50400001928E-02 0. -1.
        1   -1    0    0  501    0  0.00000000000E+00  0.00000000000E+00 -0.12749297280E+04  0.12749297280E+04  0.50400001928E-02 0.  1.
    10030    2    1    2    0    0  0.00000000000E+00  0.00000000000E+00 -0.49113342153E+03  0.20587260344E+04  0.19992850840E+04 0.  0.
        4    1    3    3  502    0 -0.20096650665E+03 -0.62829811928E+03  0.52785494681E+03  0.84485414200E+03  0.12699999809E+01 0. -1.
       -4    1    3    3    0  502  0.20096650665E+03  0.62829811928E+03 -0.10189883683E+04  0.12138718924E+04  0.12699999809E+01 0.  1.
</event>
<event>
 5   0  0.2311520E-06  0.2000223E+04  0.7818609E-02  0.8606516E-01
        1   -1    0    0  501    0  0.00000000000E+00  0.00000000000E+00  0.15890207407E+04  0.15890207407E+04  0.50400001928E-02 0. -1.
       -1   -1    0    0    0  501  0.00000000000E+00  0.00000000000E+00 -0.62945886079E+03  0.62945886082E+03  0.50400001928E-02 0.  1.
    10030    2    1    2    0    0  0.00000000000E+00  0.00000000000E+00  0.95956187987E+03  0.22184796015E+04  0.20002231728E+04 0.  0.
        3    1    3    3  502    0  0.91832087850E+03 -0.38801530638E+03  0.56819120259E+03  0.11474800071E+04  0.10100000352E+00 0. -1.
       -3    1    3    3    0  502 -0.91832087850E+03  0.38801530638E+03  0.39137067728E+03  0.10709995944E+04  0.10100000352E+00 0.  1.
</event>
<event>
 5   0  0.4956214E-06  0.2000773E+04  0.7818609E-02  0.8606259E-01
        2   -1    0    0  501    0  0.00000000000E+00  0.00000000000E+00  0.64998535195E+03  0.64998535196E+03  0.25500000920E-02 0. -1.
       -2   -1    0    0    0  501  0.00000000000E+00  0.00000000000E+00 -0.15396855948E+04  0.15396855948E+04  0.25500000920E-02 0.  1.
    10030    2    1    2    0    0  0.00000000000E+00  0.00000000000E+00 -0.88970024288E+03  0.21896709468E+04  0.20007729339E+04 0.  0.
        1    1    3    3  502    0 -0.15960153471E+03  0.28037857226E+03  0.59148878156E+03  0.67375349528E+03  0.50400001928E-02 0. -1.
       -1    1    3    3    0  502  0.15960153471E+03 -0.28037857226E+03 -0.14811890244E+04  0.15159174515E+04  0.50400001928E-02 0.  1.
</event>
<event>
 5   0  0.2379743E-06  0.1999219E+04  0.7818609E-02  0.8606986E-01
       -1   -1    0    0    0  501  0.00000000000E+00  0.00000000000E+00  0.12468615459E+04  0.12468615459E+04  0.50400001928E-02 0.  1.
        1   -1    0    0  501    0  0.00000000000E+00  0.00000000000E+00 -0.80138740771E+03  0.80138740772E+03  0.50400001928E-02 0. -1.
    10030    2    1    2    0    0  0.00000000000E+00  0.00000000000E+00  0.44547413820E+03  0.20482489536E+04  0.19992189896E+04 0.  0.
        5    1    3    3  502    0 -0.94215001162E+03  0.26441940936E+03  0.13691918119E+02  0.97865919863E+03  0.46999998093E+01 0. -1.
       -5    1    3    3    0  502  0.94215001162E+03 -0.26441940936E+03  0.43178222008E+03  0.10695897550E+04  0.46999998093E+01 0.  1.
</event>
<event>
 5   0  0.5118981E-06  0.1998213E+04  0.7818609E-02  0.8607456E-01
       -2   -1    0    0    0  501  0.00000000000E+00  0.00000000000E+00  0.15056449541E+04  0.15056449541E+04  0.25500000920E-02 0.  1.
        2   -1    0    0  501    0  0.00000000000E+00  0.00000000000E+00 -0.66298102127E+03  0.66298102127E+03  0.25500000920E-02 0. -1.
    10030    2    1    2    0    0  0.00000000000E+00  0.00000000000E+00  0.84266393281E+03  0.21686259754E+04  0.19982132312E+04 0.  0.
        4    1    3    3  502    0 -0.93391087338E+03  0.34469550972E+03  0.32919216337E+03  0.10485101846E+04  0.12699999809E+01 0.  1.
       -4    1    3    3    0  502  0.93391087338E+03 -0.34469550972E+03  0.51347176945E+03  0.11201157908E+04  0.12699999809E+01 0. -1.
</event>
<event>
 5   0  0.4956214E-06  0.1998975E+04  0.7818609E-02  0.8607100E-01
        2   -1    0    0  501    0  0.00000000000E+00  0.00000000000E+00  0.20815499828E+04  0.20815499828E+04  0.25500000920E-02 0. -1.
       -2   -1    0    0    0  501  0.00000000000E+00  0.00000000000E+00 -0.47991877715E+03  0.47991877716E+03  0.25500000920E-02 0.  1.
    10030    2    1    2    0    0  0.00000000000E+00  0.00000000000E+00  0.16016312056E+04  0.25614687600E+04  0.19989746595E+04 0.  0.
        1    1    3    3  502    0 -0.79335504810E+03  0.58134962426E+03  0.10285837801E+04  0.14231529119E+04  0.50400001928E-02 0. -1.
       -1    1    3    3    0  502  0.79335504810E+03 -0.58134962426E+03  0.57304742556E+03  0.11383158481E+04  0.50400001928E-02 0.  1.
</event>
<event>
 5   0  0.5030137E-06  0.1999585E+04  0.7818609E-02  0.8606815E-01
       -2   -1    0    0    0  501  0.00000000000E+00  0.00000000000E+00  0.12037938895E+04  0.12037938895E+04  0.25500000920E-02 0. -1.
        2   -1    0    0  501    0  0.00000000000E+00  0.00000000000E+00 -0.83036214119E+03  0.83036214120E+03  0.25500000920E-02 0.  1.
    10030    2    1    2    0    0  0.00000000000E+00  0.00000000000E+00  0.37343174828E+03  0.20341560307E+04  0.19995848285E+04 0.  0.
        3    1    3    3  502    0  0.49942266581E+03 -0.52066078043E+03 -0.51740274321E+03  0.88781544044E+03  0.10100000352E+00 0.  1.
       -3    1    3    3    0  502 -0.49942266581E+03  0.52066078043E+03  0.89083449148E+03  0.11463405902E+04  0.10100000352E+00 0. -1.
</event>
<event>
 5   0  0.5129100E-06  0.1997811E+04  0.7818609E-02  0.8607645E-01
        2   -1    0    0  501    0  0.00000000000E+00  0.00000000000E+00  0.12496172610E+04  0.12496172610E+04  0.25500000920E-02 0.  1.
       -2   -1    0    0    0  501  0.00000000000E+00  0.00000000000E+00 -0.79849431414E+03  0.79849431414E+03  0.25500000920E-02 0. -1.
    10030    2    1    2    0    0  0.00000000000E+00  0.00000000000E+00  0.45112294685E+03  0.20481115751E+04  0.19978110799E+04 0.  0.
        2    1    3    3  502    0 -0.53946628676E+03 -0.62427594152E+03  0.80282666175E+03  0.11512058784E+04  0.25500000920E-02 0. -1.
       -2    1    3    3    0  502  0.53946628676E+03  0.62427594152E+03 -0.35170371490E+03  0.89690569671E+03  0.25500000920E-02 0.  1.
</event>
<event>
 5   0  0.4956214E-06  0.2000042E+04  0.7818609E-02  0.8606601E-01
        2   -1    0    0  501    0  0.00000000000E+00  0.00000000000E+00  0.12036142126E+04  0.12036142126E+04  0.25500000920E-02 0. -1.
       -2   -1    0    0    0  501  0.00000000000E+00  0.00000000000E+00 -0.83086552051E+03  0.83086552052E+03  0.25500000920E-02 0.  1.
    10030    2    1    2    0    0  0.00000000000E+00  0.00000000000E+00  0.37274869204E+03  0.20344797331E+04  0.20000415488E+04 0.  0.
        1    1    3    3  502    0  0.35422642037E+03  0.26526135678E+03  0.10985885238E+04  0.11843718542E+04  0.50400001928E-02 0. -1.
       -1    1    3    3    0  502 -0.35422642037E+03 -0.26526135678E+03 -0.72583983179E+03  0.85010787888E+03  0.50400001928E-02 0.  1.
</event>
<event>
 5   0  0.5251252E-06  0.2000281E+04  0.7818609E-02  0.8606489E-01
       -2   -1    0    0    0  501  0.00000000000E+00  0.00000000000E+00  0.62660812159E+03  0.62660812159E+03  0.25500000920E-02 0. -1.
        2   -1    0    0  501    0  0.00000000000E+00  0.00000000000E+00 -0.15963422228E+04  0.15963422228E+04  0.25500000920E-02 0.  1.
    10030    2    1    2    0    0  0.00000000000E+00  0.00000000000E+00 -0.96973410123E+03  0.22229503444E+04  0.20002809819E+04 0.  0.
        5    1    3    3  502    0 -0.53249590258E+03 -0.60970184651E+03 -0.11375914550E+04  0.13962179759E+04  0.46999998093E+01 0.  1.
       -5    1    3    3    0  502  0.53249590258E+03  0.60970184651E+03  0.16785735373E+03  0.82673236848E+03  0.46999998093E+01 0. -1.
</event>
<event>
 5   0  0.5129100E-06  0.1998984E+04  0.7818609E-02  0.8607096E-01
       -2   -1    0    0    0  501  0.00000000000E+00  0.00000000000E+00  0.90739488130E+03  0.90739488131E+03  0.25500000920E-02 0. -1.
        2   -1    0    0  501    0  0.00000000000E+00  0.00000000000E+00 -0.11009366106E+04  0.11009366106E+04  0.25500000920E-02 0.  1.
    10030    2    1    2    0    0  0.00000000000E+00  0.00000000000E+00 -0.19354172934E+03  0.20083314920E+04  0.19989839871E+04 0.  0.
        2    1    3    3  502    0  0.70258954157E+03  0.61548704179E+03 -0.45414177901E+03  0.10386053716E+04  0.25500000920E-02 0.  1.
       -2    1    3    3    0  502 -0.70258954157E+03 -0.61548704179E+03  0.26060004967E+03  0.96972612032E+03  0.25500000920E-02 0. -1.
</event>
<event>
 5   0  0.2311520E-06  0.1999903E+04  0.7818609E-02  0.8606666E-01
       -1   -1    0    0    0  501  0.00000000000E+00  0.00000000000E+00  0.82338407150E+03  0.82338407152E+03  0.50400001928E-02 0.  1.
        1   -1    0    0  501    0  0.00000000000E+00  0.00000000000E+00 -0.12143825487E+04  0.12143825487E+04  0.50400001928E-02 0. -1.
    10030    2    1    2    0    0  0.00000000000E+00  0.00000000000E+00 -0.39099847720E+03  0.20377666202E+04  0.19999032450E+04 0.  0.
        3    1    3    3  502    0 -0.56748117154E+03 -0.81111828549E+03 -0.33943761247E+03  0.10465016274E+04  0.10100000352E+00 0. -1.
       -3    1    3    3    0  502  0.56748117154E+03  0.81111828549E+03 -0.51560864738E+02  0.99126499287E+03  0.10100000352E+00 0.  1.
</event>
<event>
 5   0  0.2313821E-06  0.1999404E+04  0.7818609E-02  0.8606899E-01
       -1   -1    0    0    0  501  0.00000000000E+00  0.00000000000E+00  0.90709211529E+03  0.90709211530E+03  0.50400001928E-02 0. -1.
        1   -1    0    0  501    0  0.00000000000E+00  0.00000000000E+00 -0.11017670960E+04  0.11017670960E+04  0.50400001928E-02 0.  1.
    10030    2    1    2    0    0  0.00000000000E+00  0.00000000000E+00 -0.19467498075E+03  0.20088592113E+04  0.19994041570E+04 0.  0.
        1    1    3    3  502    0 -0.41848905494E+03 -0.15871175000E+03 -0.99547847017E+03  0.10914668540E+04  0.50400001928E-02 0.  1.
       -1    1    3    3    0  502  0.41848905494E+03  0.15871175000E+03  0.80080348942E+03  0.91739235739E+03  0.50400001928E-02 0. -1.
</event>
<event>
 5   0  0.5118981E-06  0.1999848E+04  0.7818609E-02  0.8606692E-01
        2   -1    0    0  501    0  0.00000000000E+00  0.00000000000E+00  0.13052081128E+04  0.13052081128E+04  0.25500000920E-02 0. -1.
       -2   -1    0    0    0  501  0.00000000000E+00  0.00000000000E+00 -0.76604454478E+03  0.76604454479E+03  0.25500000920E-02 0.  1.
    10030    2    1    2    0    0  0.00000000000E+00  0.00000000000E+00  0.53916356798E+03  0.20712526576E+04  0.19998475488E+04 0.  0.
        4    1    3    3  502    0  0.70673817035E+03  0.59438820187E+02  0.99961378569E+03  0.12256594748E+04  0.12699999809E+01 0. -1.
       -4    1    3    3    0  502 -0.70673817035E+03 -0.59438820187E+02 -0.46045021771E+03  0.84559318273E+03  0.12699999809E+01 0.  1.
</event>
<event>
 5   0  0.5251252E-06  0.2000371E+04  0.7818609E-02  0.8606447E-01
        2   -1    0    0  501    0  0.00000000000E+00  0.00000000000E+00  0.11787080333E+04  0.11787080333E+04  0.25500000920E-02 0.  1.
       -2   -1    0    0    0  501  0.00000000000E+00  0.00000000000E+00 -0.84870087987E+03  0.84870087987E+03  0.25500000920E-02 0. -1.
    10030    2    1    2    0    0  0.00000000000E+00  0.00000000000E+00  0.33000715348E+03  0.20274089132E+04  0.20003705107E+04 0.  0.
        5    1    3    3  502    0 -0.99618628849E+03  0.19866439245E+02  0.25316588799E+03  0.10280548884E+04  0.46999998093E+01 0.  1.
       -5    1    3    3    0  502  0.99618628849E+03 -0.19866439245E+02  0.76841265487E+02  0.99935402479E+03  0.46999998093E+01 0. -1.
</event>
<event>
 5   0  0.5251252E-06  0.1999797E+04  0.7818609E-02  0.8606716E-01
        2   -1    0    0  501    0  0.00000000000E+00  0.00000000000E+00  0.20962002333E+04  0.20962002333E+04  0.25500000920E-02 0. -1.
       -2   -1    0    0    0  501  0.00000000000E+00  0.00000000000E+00 -0.47695687102E+03  0.47695687102E+03  0.25500000920E-02 0.  1.
    10030    2    1    2    0    0  0.00000000000E+00  0.00000000000E+00  0.16192433623E+04  0.25731571043E+04  0.19997970940E+04 0.  0.
        5    1    3    3  502    0  0.72683074603E+03 -0.77629922323E+02  0.16874795382E+04  0.18389993529E+04  0.46999998093E+01 0. -1.
       -5    1    3    3    0  502 -0.72683074603E+03  0.77629922323E+02 -0.68236175925E+02  0.73415775139E+03  0.46999998093E+01 0.  1.
</event>
<event>
 5   0  0.2356996E-06  0.1999796E+04  0.7818609E-02  0.8606716E-01
       -1   -1    0    0    0  501  0.00000000000E+00  0.00000000000E+00  0.13706247605E+04  0.13706247605E+04  0.50400001928E-02 0.  1.
        1   -1    0    0  501    0  0.00000000000E+00  0.00000000000E+00 -0.72944565094E+03  0.72944565096E+03  0.50400001928E-02 0. -1.
    10030    2    1    2    0    0  0.00000000000E+00  0.00000000000E+00  0.64117910959E+03  0.21000704115E+04  0.19997962603E+04 0.  0.
        4    1    3    3  502    0  0.17141455454E+03 -0.10657002013E+03 -0.70782865221E+03  0.73604560490E+03  0.12699999809E+01 0. -1.
       -4    1    3    3    0  502 -0.17141455454E+03  0.10657002013E+03  0.13490077618E+04  0.13640248066E+04  0.12699999809E+01 0.  1.
</event>
<event>
 5   0  0.2379743E-06  0.1998788E+04  0.7818609E-02  0.8607187E-01
       -1   -1    0    0    0  501  0.00000000000E+00  0.00000000000E+00  0.76858394330E+03  0.76858394331E+03  0.50400001928E-02 0. -1.
        1   -1    0    0  501    0  0.00000000000E+00  0.00000000000E+00 -0.12995179317E+04  0.12995179317E+04  0.50400001928E-02 0.  1.
    10030    2    1    2    0    0  0.00000000000E+00  0.00000000000E+00 -0.53093398840E+03  0.20681018750E+04  0.19987882493E+04 0.  0.
        5    1    3    3  502    0  0.44623941860E+03  0.40565121394E+03 -0.10900240771E+04  0.12457355677E+04  0.46999998093E+01 0.  1.
       -5    1    3    3    0  502 -0.44623941860E+03 -0.40565121394E+03  0.55909008869E+03  0.82236630728E+03  0.46999998093E+01 0. -1.
</event>
<event>
 5   0  0.4956214E-06  0.2000511E+04  0.7818609E-02  0.8606382E-01
       -2   -1    0    0    0  501  0.00000000000E+00  0.00000000000E+00  0.99086426808E+03  0.99086426808E+03  0.25500000920E-02 0. -1.
        2   -1    0    0  501    0  0.00000000000E+00  0.00000000000E+00 -0.10097356726E+04  0.10097356726E+04  0.25500000920E-02 0.  1.
    10030    2    1    2    0    0  0.00000000000E+00  0.00000000000E+00 -0.18871404497E+02  0.20005999407E+04  0.20005109329E+04 0.  0.
        1    1    3    3  502    0 -0.97785219077E+03 -0.19346005470E+03  0.73569788167E+02  0.99951699011E+03  0.50400001928E-02 0. -1.
       -1    1    3    3    0  502  0.97785219077E+03  0.19346005470E+03 -0.92441192664E+02  0.10010829506E+04  0.50400001928E-02 0.  1.
</event>
<event>
 5   0  0.5118981E-06  0.2001931E+04  0.7818609E-02  0.8605719E-01
       -2   -1    0    0    0  501  0.00000000000E+00  0.00000000000E+00  0.41131733320E+03  0.41131733321E+03  0.25500000920E-02 0.  1.
        2   -1    0    0  501    0  0.00000000000E+00  0.00000000000E+00 -0.24359088726E+04  0.24359088726E+04  0.25500000920E-02 0. -1.
    10030    2    1    2    0    0  0.00000000000E+00  0.00000000000E+00 -0.20245915394E+04  0.28472262058E+04  0.20019306096E+04 0.  0.
        4    1    3    3  502    0  0.12817157286E+03 -0.97175710478E+03 -0.72364720277E+03  0.12183623064E+04  0.12699999809E+01 0.  1.
       -4    1    3    3    0  502 -0.12817157286E+03  0.97175710478E+03 -0.13009443366E+04  0.16288638994E+04  0.12699999809E+01 0. -1.
</event>
<event>
 5   0  0.5129100E-06  0.1999422E+04  0.7818609E-02  0.8606891E-01
        2   -1    0    0  501    0  0.00000000000E+00  0.00000000000E+00  0.13854950867E+04  0.13854950867E+04  0.25500000920E-02 0. -1.
       -2   -1    0    0    0  501  0.00000000000E+00  0.00000000000E+00 -0.72134631289E+03  0.72134631289E+03  0.25500000920E-02 0.  1.
    10030    2    1    2    0    0  0.00000000000E+00  0.00000000000E+00  0.66414877381E+03  0.21068413996E+04  0.19994216887E+04 0.  0.
        2    1    3    3  502    0  0.47423245405E+03  0.52094501485E+03 -0.41535914372E+03  0.81780397850E+03  0.25500000920E-02 0.  1.
       -2    1    3    3    0  502 -0.47423245405E+03 -0.52094501485E+03  0.10795079175E+04  0.12890374211E+04  0.25500000920E-02 0. -1.
</event>
<event>
 5   0  0.5129100E-06  0.2001471E+04  0.7818609E-02  0.8605933E-01
       -2   -1    0    0    0  501  0.00000000000E+00  0.00000000000E+00  0.10203671499E+04  0.10203671499E+04  0.25500000920E-02 0. -1.
        2   -1    0    0  501    0  0.00000000000E+00  0.00000000000E+00 -0.98148121070E+03  0.98148121070E+03  0.25500000920E-02 0.  1.
    10030    2    1    2    0    0  0.00000000000E+00  0.00000000000E+00  0.38885939250E+02  0.20018483606E+04  0.20014706450E+04 0.  0.
        2    1    3    3  502    0 -0.81282725163E+03 -0.58272555319E+03 -0.15405740404E+02  0.10002472435E+04  0.25500000920E-02 0. -1.
       -2    1    3    3    0  502  0.81282725163E+03  0.58272555319E+03  0.54291679654E+02  0.10016011171E+04  0.25500000920E-02 0.  1.
</event>
<event>
 5   0  0.2386776E-06  0.1999938E+04  0.7818609E-02  0.8606650E-01
        1   -1    0    0  501    0  0.00000000000E+00  0.00000000000E+00  0.15713869216E+04  0.15713869216E+04  0.50400001928E-02 0. -1.
       -1   -1    0    0    0  501  0.00000000000E+00  0.00000000000E+00 -0.63634073134E+03  0.63634073136E+03  0.50400001928E-02 0.  1.
    10030    2    1    2    0    0  0.00000000000E+00  0.00000000000E+00  0.93504619029E+03  0.22077276530E+04  0.19999375020E+04 0.  0.
        2    1    3    3  502    0 -0.32191821326E+02  0.83188075268E+03  0.10790425168E+04  0.13628626685E+04  0.25500000920E-02 0. -1.
       -2    1    3    3    0  502  0.32191821326E+02 -0.83188075268E+03 -0.14399632651E+03  0.84486498453E+03  0.25500000920E-02 0.  1.
</event>
<event>
 5   0  0.2311520E-06  0.2000635E+04  0.7818609E-02  0.8606324E-01
        1   -1    0    0  501    0  0.00000000000E+00  0.00000000000E+00  0.17529498263E+04  0.17529498263E+04  0.50400001928E-02 0. -1.
       -1   -1    0    0    0  501  0.00000000000E+00  0.00000000000E+00 -0.57082900480E+03  0.57082900482E+03  0.50400001928E-02 0.  1.
    10030    2    1    2    0    0  0.00000000000E+00  0.00000000000E+00  0.11821208215E+04  0.23237788312E+04  0.20006345042E+04 0.  0.
        3    1    3    3  502    0  0.30950189899E+03  0.69557959755E+03  0.13447185142E+04  0.15452800053E+04  0.10100000352E+00 0. -1.
       -3    1    3    3    0  502 -0.30950189899E+03 -0.69557959755E+03 -0.16259769272E+03  0.77849882587E+03  0.10100000352E+00 0.  1.
</event>
<event>
 5   0  0.5251252E-06  0.2003498E+04  0.7818609E-02  0.8604987E-01
       -2   -1    0    0    0  501  0.00000000000E+00  0.00000000000E+00  0.11837703136E+04  0.11837703136E+04  0.25500000920E-02 0.  1.
        2   -1    0    0  501    0  0.00000000000E+00  0.00000000000E+00 -0.84771614477E+03  0.84771614477E+03  0.25500000920E-02 0. -1.
    10030    2    1    2    0    0  0.00000000000E+00  0.00000000000E+00  0.33605416883E+03  0.20314864584E+04  0.20034981473E+04 0.  0.
        5    1    3    3  502    0 -0.97654398872E+03  0.15764985561E+03  0.77445518405E+01  0.98922884459E+03  0.46999998093E+01 0. -1.
       -5    1    3    3    0  502  0.97654398872E+03 -0.15764985561E+03  0.32830961699E+03  0.10422576138E+04  0.46999998093E+01 0.  1.
</event>
<event>
 5   0  0.4956214E-06  0.2001849E+04  0.7818609E-02  0.8605757E-01
        2   -1    0    0  501    0  0.00000000000E+00  0.00000000000E+00  0.20706523789E+04  0.20706523789E+04  0.25500000920E-02 0. -1.
       -2   -1    0    0    0  501  0.00000000000E+00  0.00000000000E+00 -0.48383298025E+03  0.48383298026E+03  0.25500000920E-02 0.  1.
    10030    2    1    2    0    0  0.00000000000E+00  0.00000000000E+00  0.15868193986E+04  0.25544853591E+04  0.20018490568E+04 0.  0.
        1    1    3    3  502    0 -0.95745580093E+03 -0.18932604273E+03  0.51012387310E+03  0.11012685082E+04  0.50400001928E-02 0.  1.
       -1    1    3    3    0  502  0.95745580093E+03  0.18932604273E+03  0.10766955255E+04  0.14532168510E+04  0.50400001928E-02 0. -1.
</event>
<event>
 5   0  0.2356996E-06  0.2000458E+04  0.7818609E-02  0.8606406E-01
       -1   -1    0    0    0  501  0.00000000000E+00  0.00000000000E+00  0.51327689521E+03  0.51327689523E+03  0.50400001928E-02 0.  1.
        1   -1    0    0  501    0  0.00000000000E+00  0.00000000000E+00 -0.19491594499E+04  0.19491594500E+04  0.50400001928E-02 0. -1.
    10030    2    1    2    0    0  0.00000000000E+00  0.00000000000E+00 -0.14358825547E+04  0.24624363452E+04  0.20004584582E+04 0.  0.
        4    1    3    3  502    0  0.57738653171E+03  0.79013686904E+03 -0.46338615455E+03  0.10827833670E+04  0.12699999809E+01 0.  1.
       -4    1    3    3    0  502 -0.57738653171E+03 -0.79013686904E+03 -0.97249640018E+03  0.13796529781E+04  0.12699999809E+01 0. -1.
</event>
<event>
 5   0  0.2311520E-06  0.2000270E+04  0.7818609E-02  0.8606494E-01
        1   -1    0    0  501    0  0.00000000000E+00  0.00000000000E+00  0.16701202399E+04  0.16701202399E+04  0.50400001928E-02 0. -1.
       -1   -1    0    0    0  501  0.00000000000E+00  0.00000000000E+00 -0.59892088711E+03  0.59892088713E+03  0.50400001928E-02 0.  1.
    10030    2    1    2    0    0  0.00000000000E+00  0.00000000000E+00  0.10711993528E+04  0.22690411271E+04  0.20002698775E+04 0.  0.
        3    1    3    3  502    0 -0.62460726812E+03  0.77681013653E+03  0.62846314471E+03  0.11783607945E+04  0.10100000352E+00 0.  1.
       -3    1    3    3    0  502  0.62460726812E+03 -0.77681013653E+03  0.44273620809E+03  0.10906803325E+04  0.10100000352E+00 0. -1.
</event>
<event>
 5   0  0.5251252E-06  0.1999861E+04  0.7818609E-02  0.8606685E-01
       -2   -1    0    0    0  501  0.00000000000E+00  0.00000000000E+00  0.88401346346E+03  0.88401346346E+03  0.25500000920E-02 0.  1.
        2   -1    0    0  501    0  0.00000000000E+00  0.00000000000E+00 -0.11310476743E+04  0.11310476743E+04  0.25500000920E-02 0. -1.
    10030    2    1    2    0    0  0.00000000000E+00  0.00000000000E+00 -0.24703421083E+03  0.20150611378E+04  0.19998613671E+04 0.  0.
        5    1    3    3  502    0 -0.23555467063E+03 -0.12841059398E+03 -0.10940952297E+04  0.11265175299E+04  0.46999998093E+01 0. -1.
       -5    1    3    3    0  502  0.23555467063E+03  0.12841059398E+03  0.84706101883E+03  0.88854360789E+03  0.46999998093E+01 0.  1.
</event>
<event>
 5   0  0.1777750E-06  0.1997538E+04  0.7818609E-02  0.8607772E-01
       -4   -1    0    0    0  501  0.00000000000E+00  0.00000000000E+00  0.14854177127E+04  0.14854182556E+04  0.12699999809E+01 0. -1.
        4   -1    0    0  501    0  0.00000000000E+00  0.00000000000E+00 -0.67155386945E+03  0.67155507032E+03  0.12699999809E+01 0.  1.
    10030    2    1    2    0    0  0.00000000000E+00  0.00000000000E+00  0.81386384325E+03  0.21569733259E+04  0.19975383785E+04 0.  0.
        5    1    3    3  502    0 -0.54450929476E+03  0.35189576582E+03 -0.41344153490E+03  0.76894537833E+03  0.46999998093E+01 0.  1.
       -5    1    3    3    0  502  0.54450929476E+03 -0.35189576582E+03  0.12273053781E+04  0.13880279476E+04  0.46999998093E+01 0. -1.
</event>
<event>
 5   0  0.5129100E-06  0.2001128E+04  0.7818609E-02  0.8606093E-01
        2   -1    0    0  501    0  0.00000000000E+00  0.00000000000E+00  0.88270407444E+03  0.88270407445E+03  0.25500000920E-02 0. -1.
       -2   -1    0    0    0  501  0.00000000000E+00  0.00000000000E+00 -0.11341607362E+04  0.11341607363E+04  0.25500000920E-02 0.  1.
    10030    2    1    2    0    0  0.00000000000E+00  0.00000000000E+00 -0.25145666180E+03  0.20168648107E+04  0.20011279849E+04 0.  0.
        2    1    3    3  502    0  0.58439360522E+02 -0.84288461517E+03 -0.66590832482E+03  0.10757804285E+04  0.25500000920E-02 0.  1.
       -2    1    3    3    0  502 -0.58439360522E+02  0.84288461517E+03  0.41445166302E+03  0.94108438216E+03  0.25500000920E-02 0. -1.
</event>
<event>
 5   0  0.5118981E-06  0.2001129E+04  0.7818609E-02  0.8606093E-01
       -2   -1    0    0    0  501  0.00000000000E+00  0.00000000000E+00  0.84055681948E+03  0.84055681949E+03  0.25500000920E-02 0. -1.
        2   -1    0    0  501    0  0.00000000000E+00  0.00000000000E+00 -0.11910307989E+04  0.11910307989E+04  0.25500000920E-02 0.  1.
    10030    2    1    2    0    0  0.00000000000E+00  0.00000000000E+00 -0.35047397944E+03  0.20315876184E+04  0.20011287417E+04 0.  0.
        4    1    3    3  502    0  0.36431882835E+02 -0.81198691450E+03  0.41714886922E+03  0.91359992524E+03  0.12699999809E+01 0. -1.
       -4    1    3    3    0  502 -0.36431882835E+02  0.81198691450E+03 -0.76762284866E+03  0.11179876932E+04  0.12699999809E+01 0.  1.
</event>
<event>
 5   0  0.2313821E-06  0.2010710E+04  0.7818609E-02  0.8601629E-01
        1   -1    0    0  501    0  0.00000000000E+00  0.00000000000E+00  0.10369733721E+04  0.10369733722E+04  0.50400001928E-02 0.  1.
       -1   -1    0    0    0  501  0.00000000000E+00  0.00000000000E+00 -0.97470115585E+03  0.97470115586E+03  0.50400001928E-02 0. -1.
    10030    2    1    2    0    0  0.00000000000E+00  0.00000000000E+00  0.62272216298E+02  0.20116745280E+04  0.20107104659E+04 0.  0.
        1    1    3    3  502    0  0.36847248574E+03 -0.75311440511E+03  0.58618662779E+03  0.10230190822E+04  0.50400001928E-02 0.  1.
       -1    1    3    3    0  502 -0.36847248574E+03  0.75311440511E+03 -0.52391441149E+03  0.98865544581E+03  0.50400001928E-02 0. -1.
</event>
<event>
 5   0  0.2313821E-06  0.1997963E+04  0.7818609E-02  0.8607574E-01
        1   -1    0    0  501    0  0.00000000000E+00  0.00000000000E+00  0.20501624369E+04  0.20501624369E+04  0.50400001928E-02 0. -1.
       -1   -1    0    0    0  501  0.00000000000E+00  0.00000000000E+00 -0.48677312961E+03  0.48677312964E+03  0.50400001928E-02 0.  1.
    10030    2    1    2    0    0  0.00000000000E+00  0.00000000000E+00  0.15633893073E+04  0.25369355666E+04  0.19979629483E+04 0.  0.
        1    1    3    3  502    0 -0.11745597633E+03  0.38811430604E+03  0.19409631190E+04  0.19828682383E+04  0.50400001928E-02 0. -1.
       -1    1    3    3    0  502  0.11745597633E+03 -0.38811430604E+03 -0.37757381173E+03  0.55406732827E+03  0.50400001928E-02 0.  1.
</event>
<event>
 5   0  0.2379743E-06  0.2001284E+04  0.7818609E-02  0.8606021E-01
        1   -1    0    0  501    0  0.00000000000E+00  0.00000000000E+00  0.16366119819E+04  0.16366119819E+04  0.50400001928E-02 0. -1.
       -1   -1    0    0    0  501  0.00000000000E+00  0.00000000000E+00 -0.61180288771E+03  0.61180288773E+03  0.50400001928E-02 0.  1.
    10030    2    1    2    0    0  0.00000000000E+00  0.00000000000E+00  0.10248090942E+04  0.22484148696E+04  0.20012835248E+04 0.  0.
        5    1    3    3  502    0  0.91362461596E+03  0.33113885508E+03  0.78039542859E+03  0.12463554851E+04  0.46999998093E+01 0.  1.
       -5    1    3    3    0  502 -0.91362461596E+03 -0.33113885508E+03  0.24441366558E+03  0.10020593845E+04  0.46999998093E+01 0. -1.
</event>
<event>
 5   0  0.4956214E-06  0.2000265E+04  0.7818609E-02  0.8606497E-01
       -2   -1    0    0    0  501  0.00000000000E+00  0.00000000000E+00  0.55800147114E+03  0.55800147115E+03  0.25500000920E-02 0.  1.
        2   -1    0    0  501    0  0.00000000000E+00  0.00000000000E+00 -0.17925847363E+04  0.17925847363E+04  0.25500000920E-02 0. -1.
    10030    2    1    2    0    0  0.00000000000E+00  0.00000000000E+00 -0.12345832651E+04  0.23505862074E+04  0.20002649025E+04 0.  0.
        1    1    3    3  502    0  0.84731849403E+03  0.51563436499E+03 -0.46662869300E+03  0.10961613776E+04  0.50400001928E-02 0. -1.
       -1    1    3    3    0  502 -0.84731849403E+03 -0.51563436499E+03 -0.76795457212E+03  0.12544248298E+04  0.50400001928E-02 0.  1.
</event>
<event>
 5   0  0.5118981E-06  0.2000274E+04  0.7818609E-02  0.8606492E-01
       -2   -1    0    0    0  501  0.00000000000E+00  0.00000000000E+00  0.58464228167E+03  0.58464228168E+03  0.25500000920E-02 0.  1.
        2   -1    0    0  501    0  0.00000000000E+00  0.00000000000E+00 -0.17109168017E+04  0.17109168017E+04  0.25500000920E-02 0. -1.
    10030    2    1    2    0    0  0.00000000000E+00  0.00000000000E+00 -0.11262745201E+04  0.22955590834E+04  0.20002742839E+04 0.  0.
        4    1    3    3  502    0  0.46988704201E+03  0.71535806080E+03 -0.11569601495E+04  0.14391279956E+04  0.12699999809E+01 0. -1.
       -4    1    3    3    0  502 -0.46988704201E+03 -0.71535806080E+03  0.30685629402E+02  0.85643108781E+03  0.12699999809E+01 0.  1.
</event>
<event>
 5   0  0.2356996E-06  0.2000211E+04  0.7818609E-02  0.8606522E-01
       -1   -1    0    0    0  501  0.00000000000E+00  0.00000000000E+00  0.86264805045E+03  0.86264805047E+03  0.50400001928E-02 0. -1.
        1   -1    0    0  501    0  0.00000000000E+00  0.00000000000E+00 -0.11594656790E+04  0.11594656790E+04  0.50400001928E-02 0.  1.
    10030    2    1    2    0    0  0.00000000000E+00  0.00000000000E+00 -0.29681762854E+03  0.20221137295E+04  0.20002107965E+04 0.  0.
        4    1    3    3  502    0 -0.32571095705E+03 -0.71430123333E+03 -0.77478641209E+03  0.11030002161E+04  0.12699999809E+01 0.  1.
       -4    1    3    3    0  502  0.32571095705E+03  0.71430123333E+03  0.47796878355E+03  0.91911351335E+03  0.12699999809E+01 0. -1.
</event>
<event>
 5   0  0.2379743E-06  0.1999812E+04  0.7818609E-02  0.8606708E-01
       -1   -1    0    0    0  501  0.00000000000E+00  0.00000000000E+00  0.67367403067E+03  0.67367403069E+03  0.50400001928E-02 0. -1.
        1   -1    0    0  501    0  0.00000000000E+00  0.00000000000E+00 -0.14841187018E+04  0.14841187018E+04  0.50400001928E-02 0.  1.
    10030    2    1    2    0    0  0.00000000000E+00  0.00000000000E+00 -0.81044467112E+03  0.21577927325E+04  0.19998122190E+04 0.  0.
        5    1    3    3  502    0 -0.37061073695E+03 -0.84618995382E+03  0.76270216496E+01  0.92383441035E+03  0.46999998093E+01 0. -1.
       -5    1    3    3    0  502  0.37061073695E+03  0.84618995382E+03 -0.81807169277E+03  0.12339583221E+04  0.46999998093E+01 0.  1.
</event>
<event>
 5   0  0.4956214E-06  0.2000359E+04  0.7818609E-02  0.8606453E-01
        2   -1    0    0  501    0  0.00000000000E+00  0.00000000000E+00  0.78114012362E+03  0.78114012363E+03  0.25500000920E-02 0.  1.
       -2   -1    0    0    0  501  0.00000000000E+00  0.00000000000E+00 -0.12806400508E+04  0.12806400508E+04  0.25500000920E-02 0. -1.
    10030    2    1    2    0    0  0.00000000000E+00  0.00000000000E+00 -0.49949992717E+03  0.20617801744E+04  0.20003592953E+04 0.  0.
        1    1    3    3  502    0 -0.87469464315E+03 -0.15653088894E+03  0.22343979645E+03  0.91625213812E+03  0.50400001928E-02 0.  1.
       -1    1    3    3    0  502  0.87469464315E+03  0.15653088894E+03 -0.72293972362E+03  0.11455280363E+04  0.50400001928E-02 0. -1.
</event>
<event>
 5   0  0.2311520E-06  0.2000050E+04  0.7818609E-02  0.8606597E-01
        1   -1    0    0  501    0  0.00000000000E+00  0.00000000000E+00  0.13369238416E+04  0.13369238416E+04  0.50400001928E-02 0. -1.
       -1   -1    0    0    0  501  0.00000000000E+00  0.00000000000E+00 -0.74802348131E+03  0.74802348132E+03  0.50400001928E-02 0.  1.
    10030    2    1    2    0    0  0.00000000000E+00  0.00000000000E+00  0.58890036027E+03  0.20849473229E+04  0.20000504256E+04 0.  0.
        3    1    3    3  502    0  0.20779864834E+03  0.20095256785E+03  0.12924203984E+04  0.13243536949E+04  0.10100000352E+00 0. -1.
       -3    1    3    3    0  502 -0.20779864834E+03 -0.20095256785E+03 -0.70352003811E+03  0.76059362803E+03  0.10100000352E+00 0.  1.
</event>
<event>
 5   0  0.5129100E-06  0.2000132E+04  0.7818609E-02  0.8606559E-01
        2   -1    0    0  501    0  0.00000000000E+00  0.00000000000E+00  0.10219084809E+04  0.10219084809E+04  0.25500000920E-02 0.  1.
       -2   -1    0    0    0  501  0.00000000000E+00  0.00000000000E+00 -0.97869029476E+03  0.97869029476E+03  0.25500000920E-02 0. -1.
    10030    2    1    2    0    0  0.00000000000E+00  0.00000000000E+00  0.43218186158E+02  0.20005987757E+04  0.20001319081E+04 0.  0.
        2    1    3    3  502    0  0.56627896503E+03  0.56146544860E+03 -0.58203537660E+03  0.98725908242E+03  0.25500000920E-02 0. -1.
       -2    1    3    3    0  502 -0.56627896503E+03 -0.56146544860E+03  0.62525356276E+03  0.10133396933E+04  0.25500000920E-02 0.  1.
</event>
<event>
 5   0  0.5129100E-06  0.1999591E+04  0.7818609E-02  0.8606812E-01
       -2   -1    0    0    0  501  0.00000000000E+00  0.00000000000E+00  0.10476616671E+04  0.10476616671E+04  0.25500000920E-02 0. -1.
        2   -1    0    0  501    0  0.00000000000E+00  0.00000000000E+00 -0.95411589843E+03  0.95411589843E+03  0.25500000920E-02 0.  1.
    10030    2    1    2    0    0  0.00000000000E+00  0.00000000000E+00  0.93545768670E+02  0.20017775655E+04  0.19995906109E+04 0.  0.
        2    1    3    3  502    0 -0.10860189514E+03  0.40220448467E+03 -0.86308187166E+03  0.95837004143E+03  0.25500000920E-02 0.  1.
       -2    1    3    3    0  502  0.10860189514E+03 -0.40220448467E+03  0.95662764033E+03  0.10434075241E+04  0.25500000920E-02 0. -1.
</event>
<event>
 5   0  0.5118981E-06  0.1998678E+04  0.7818609E-02  0.8607239E-01
       -2   -1    0    0    0  501  0.00000000000E+00  0.00000000000E+00  0.74039059538E+03  0.74039059538E+03  0.25500000920E-02 0. -1.
        2   -1    0    0  501    0  0.00000000000E+00  0.00000000000E+00 -0.13488529172E+04  0.13488529172E+04  0.25500000920E-02 0.  1.
    10030    2    1    2    0    0  0.00000000000E+00  0.00000000000E+00 -0.60846232179E+03  0.20892435125E+04  0.19986775772E+04 0.  0.
        4    1    3    3  502    0 -0.17360736093E+03 -0.68336981111E+03 -0.10445183433E+04  0.12602198209E+04  0.12699999809E+01 0.  1.
       -4    1    3    3    0  502  0.17360736093E+03  0.68336981111E+03  0.43605602155E+03  0.82902369166E+03  0.12699999809E+01 0. -1.
</event>
<event>
 5   0  0.5251252E-06  0.1996459E+04  0.7818609E-02  0.8608278E-01
       -2   -1    0    0    0  501  0.00000000000E+00  0.00000000000E+00  0.52876853125E+03  0.52876853126E+03  0.25500000920E-02 0. -1.
        2   -1    0    0  501    0  0.00000000000E+00  0.00000000000E+00 -0.18844960703E+04  0.18844960703E+04  0.25500000920E-02 0.  1.
    10030    2    1    2    0    0  0.00000000000E+00  0.00000000000E+00 -0.13557275390E+04  0.24132646015E+04  0.19964590847E+04 0.  0.
        5    1    3    3  502    0 -0.57919639667E+03  0.81285687971E+03 -0.65931959298E+03  0.11962145244E+04  0.46999998093E+01 0. -1.
       -5    1    3    3    0  502  0.57919639667E+03 -0.81285687971E+03 -0.69640794603E+03  0.12170500771E+04  0.46999998093E+01 0.  1.
</event>
<event>
 5   0  0.4956214E-06  0.2000843E+04  0.7818609E-02  0.8606226E-01
        2   -1    0    0  501    0  0.00000000000E+00  0.00000000000E+00  0.10411839235E+04  0.10411839235E+04  0.25500000920E-02 0.  1.
       -2   -1    0    0    0  501  0.00000000000E+00  0.00000000000E+00 -0.96125540066E+03  0.96125540066E+03  0.25500000920E-02 0. -1.
    10030    2    1    2    0    0  0.00000000000E+00  0.00000000000E+00  0.79928522833E+02  0.20024393242E+04  0.20008434917E+04 0.  0.
        1    1    3    3  502    0  0.83182304658E+03 -0.34791304823E+03 -0.39382186410E+03  0.98390483820E+03  0.50400001928E-02 0.  1.
       -1    1    3    3    0  502 -0.83182304658E+03  0.34791304823E+03  0.47375038693E+03  0.10185344860E+04  0.50400001928E-02 0. -1.
</event>
<event>
 5   0  0.5251252E-06  0.2001008E+04  0.7818609E-02  0.8606149E-01
        2   -1    0    0  501    0  0.00000000000E+00  0.00000000000E+00  0.14327941050E+04  0.14327941050E+04  0.25500000920E-02 0.  1.
       -2   -1    0    0    0  501  0.00000000000E+00  0.00000000000E+00 -0.69864089653E+03  0.69864089653E+03  0.25500000920E-02 0. -1.
    10030    2    1    2    0    0  0.00000000000E+00  0.00000000000E+00  0.73415320849E+03  0.21314350016E+04  0.20010083039E+04 0.  0.
        5    1    3    3  502    0 -0.32304341321E+03 -0.31638323594E+03  0.13177351633E+04  0.13931631094E+04  0.46999998093E+01 0.  1.
       -5    1    3    3    0  502  0.32304341321E+03  0.31638323594E+03 -0.58358195480E+03  0.73827189217E+03  0.46999998093E+01 0. -1.
</event>
<event>
 5   0  0.2356996E-06  0.2000094E+04  0.7818609E-02  0.8606577E-01
       -1   -1    0    0    0  501  0.00000000000E+00  0.00000000000E+00  0.62410007928E+03  0.62410007930E+03  0.50400001928E-02 0.  1.
        1   -1    0    0  501    0  0.00000000000E+00  0.00000000000E+00 -0.16024580261E+04  0.16024580261E+04  0.50400001928E-02 0. -1.
    10030    2    1    2    0    0  0.00000000000E+00  0.00000000000E+00 -0.97835794678E+03  0.22265581054E+04  0.20000941789E+04 0.  0.
        4    1    3    3  502    0 -0.94549390897E+03  0.13816896931E+03 -0.16074283103E+03  0.96896298516E+03  0.12699999809E+01 0. -1.
       -4    1    3    3    0  502  0.94549390897E+03 -0.13816896931E+03 -0.81761511576E+03  0.12575951202E+04  0.12699999809E+01 0.  1.
</event>
<event>
 5   0  0.2379743E-06  0.1997720E+04  0.7818609E-02  0.8607687E-01
       -1   -1    0    0    0  501  0.00000000000E+00  0.00000000000E+00  0.50200628863E+03  0.50200628866E+03  0.50400001928E-02 0. -1.
        1   -1    0    0  501    0  0.00000000000E+00  0.00000000000E+00 -0.19874685072E+04  0.19874685072E+04  0.50400001928E-02 0.  1.
    10030    2    1    2    0    0  0.00000000000E+00  0.00000000000E+00 -0.14854622186E+04  0.24894747959E+04  0.19977203900E+04 0.  0.
        5    1    3    3  502    0  0.73560584599E+03 -0.14229250893E+03 -0.15658902279E+04  0.17359139998E+04  0.46999998093E+01 0.  1.
       -5    1    3    3    0  502 -0.73560584599E+03  0.14229250893E+03  0.80428009320E+02  0.75356079611E+03  0.46999998093E+01 0. -1.
</event>
<event>
 5   0  0.5118981E-06  0.1999999E+04  0.7818609E-02  0.8606621E-01
        2   -1    0    0  501    0  0.00000000000E+00  0.00000000000E+00  0.22555544669E+04  0.22555544669E+04  0.25500000920E-02 0. -1.
       -2   -1    0    0    0  501  0.00000000000E+00  0.00000000000E+00 -0.44334958462E+03  0.44334958463E+03  0.25500000920E-02 0.  1.
    10030    2    1    2    0    0  0.00000000000E+00  0.00000000000E+00  0.18122048823E+04  0.26989040516E+04  0.19999991360E+04 0.  0.
        4    1    3    3  502    0  0.37084635498E+03  0.42761269733E+03 -0.20637198722E+03  0.60247045399E+03  0.12699999809E+01 0.  1.
       -4    1    3    3    0  502 -0.37084635498E+03 -0.42761269733E+03  0.20185768695E+04  0.20964335976E+04  0.12699999809E+01 0. -1.
</event>
<event>
 5   0  0.5129100E-06  0.1999962E+04  0.7818609E-02  0.8606639E-01
        2   -1    0    0  501    0  0.00000000000E+00  0.00000000000E+00  0.20049408007E+04  0.20049408007E+04  0.25500000920E-02 0. -1.
       -2   -1    0    0    0  501  0.00000000000E+00  0.00000000000E+00 -0.49874868373E+03  0.49874868373E+03  0.25500000920E-02 0.  1.
    10030    2    1    2    0    0  0.00000000000E+00  0.00000000000E+00  0.15061921170E+04  0.25036894845E+04  0.19999615850E+04 0.  0.
        2    1    3    3  502    0 -0.17281346421E+03 -0.77666929705E+03  0.15113627022E+04  0.17080096334E+04  0.25500000920E-02 0.  1.
       -2    1    3    3    0  502  0.17281346421E+03  0.77666929705E+03 -0.51705851657E+01  0.79567985104E+03  0.25500000920E-02 0. -1.
</event>
<event>
 5   0  0.2379743E-06  0.2000280E+04  0.7818609E-02  0.8606490E-01
        1   -1    0    0  501    0  0.00000000000E+00  0.00000000000E+00  0.92770074541E+03  0.92770074543E+03  0.50400001928E-02 0.  1.
       -1   -1    0    0    0  501  0.00000000000E+00  0.00000000000E+00 -0.10782353167E+04  0.10782353167E+04  0.50400001928E-02 0. -1.
    10030    2    1    2    0    0  0.00000000000E+00  0.00000000000E+00 -0.15053457132E+03  0.20059360622E+04  0.20002796875E+04 0.  0.
        5    1    3    3  502    0  0.83073644084E+03  0.82971944211E+01 -0.63367736945E+03  0.10448736652E+04  0.46999998093E+01 0.  1.
       -5    1    3    3    0  502 -0.83073644084E+03 -0.82971944211E+01  0.48314279814E+03  0.96106239702E+03  0.46999998093E+01 0. -1.
</event>
<event>
 5   0  0.2356996E-06  0.1999922E+04  0.7818609E-02  0.8606657E-01
       -1   -1    0    0    0  501  0.00000000000E+00  0.00000000000E+00  0.57856789874E+03  0.57856789876E+03  0.50400001928E-02 0. -1.
        1   -1    0    0  501    0  0.00000000000E+00  0.00000000000E+00 -0.17282706618E+04  0.17282706618E+04  0.50400001928E-02 0.  1.
    10030    2    1    2    0    0  0.00000000000E+00  0.00000000000E+00 -0.11497027631E+04  0.23068385606E+04  0.19999219238E+04 0.  0.
        4    1    3    3  502    0  0.97540755128E+03  0.69382408279E+02 -0.81594060645E+03  0.12735754771E+04  0.12699999809E+01 0. -1.
       -4    1    3    3    0  502 -0.97540755128E+03 -0.69382408279E+02 -0.33376215664E+03  0.10332630835E+04  0.12699999809E+01 0.  1.
</event>
<event>
 5   0  0.5251252E-06  0.1999784E+04  0.7818609E-02  0.8606722E-01
       -2   -1    0    0    0  501  0.00000000000E+00  0.00000000000E+00  0.53176300801E+03  0.53176300801E+03  0.25500000920E-02 0. -1.
        2   -1    0    0  501    0  0.00000000000E+00  0.00000000000E+00 -0.18801314067E+04  0.18801314067E+04  0.25500000920E-02 0.  1.
    10030    2    1    2    0    0  0.00000000000E+00  0.00000000000E+00 -0.13483683986E+04  0.24118944147E+04  0.19997843206E+04 0.  0.
        5    1    3    3  502    0 -0.14019118233E+03 -0.38796747084E+03  0.42433301038E+03  0.59182169590E+03  0.46999998093E+01 0. -1.
       -5    1    3    3    0  502  0.14019118233E+03  0.38796747084E+03 -0.17727014090E+04  0.18200727188E+04  0.46999998093E+01 0.  1.
</event>
<event>
 5   0  0.2386776E-06  0.2000675E+04  0.7818609E-02  0.8606305E-01
        1   -1    0    0  501    0  0.00000000000E+00  0.00000000000E+00  0.21051960172E+04  0.21051960172E+04  0.50400001928E-02 0. -1.
       -1   -1    0    0    0  501  0.00000000000E+00  0.00000000000E+00 -0.47533574992E+03  0.47533574994E+03  0.50400001928E-02 0.  1.
    10030    2    1    2    0    0  0.00000000000E+00  0.00000000000E+00  0.16298602673E+04  0.25805317672E+04  0.20006748138E+04 0.  0.
        2    1    3    3  502    0 -0.38868453747E+03 -0.29603015071E+03  0.19408314647E+04  0.20013835949E+04  0.25500000920E-02 0. -1.
       -2    1    3    3    0  502  0.38868453747E+03  0.29603015071E+03 -0.31097119738E+03  0.57914817223E+03  0.25500000920E-02 0.  1.
</event>
<event>
 5   0  0.2311520E-06  0.2005440E+04  0.7818609E-02  0.8604082E-01
       -1   -1    0    0    0  501  0.00000000000E+00  0.00000000000E+00  0.73155494458E+03  0.73155494460E+03  0.50400001928E-02 0.  1.
        1   -1    0    0  501    0  0.00000000000E+00  0.00000000000E+00 -0.13743972297E+04  0.13743972297E+04  0.50400001928E-02 0. -1.
    10030    2    1    2    0    0  0.00000000000E+00  0.00000000000E+00 -0.64284228516E+03  0.21059521743E+04  0.20054396917E+04 0.  0.
        3    1    3    3  502    0  0.73215510926E+03 -0.59595087781E+03  0.33510888200E+02  0.94463302007E+03  0.10100000352E+00 0. -1.
       -3    1    3    3    0  502 -0.73215510926E+03  0.59595087781E+03 -0.67635317336E+03  0.11613191543E+04  0.10100000352E+00 0.  1.
</event>
<event>
 5   0  0.2313821E-06  0.2004752E+04  0.7818609E-02  0.8604402E-01
        1   -1    0    0  501    0  0.00000000000E+00  0.00000000000E+00  0.76323116221E+03  0.76323116222E+03  0.50400001928E-02 0. -1.
       -1   -1    0    0    0  501  0.00000000000E+00  0.00000000000E+00 -0.13164528140E+04  0.13164528140E+04  0.50400001928E-02 0.  1.
    10030    2    1    2    0    0  0.00000000000E+00  0.00000000000E+00 -0.55322165177E+03  0.20796839762E+04  0.20047521655E+04 0.  0.
        1    1    3    3  502    0 -0.25452252419E+03  0.27714143171E+03 -0.12404054553E+04  0.12962232763E+04  0.50400001928E-02 0.  1.
       -1    1    3    3    0  502  0.25452252419E+03 -0.27714143171E+03  0.68718380351E+03  0.78346069992E+03  0.50400001928E-02 0. -1.
</event>
<event>
 5   0  0.4956214E-06  0.2000055E+04  0.7818609E-02  0.8606595E-01
       -2   -1    0    0    0  501  0.00000000000E+00  0.00000000000E+00  0.13279786527E+04  0.13279786527E+04  0.25500000920E-02 0.  1.
        2   -1    0    0  501    0  0.00000000000E+00  0.00000000000E+00 -0.75306582764E+03  0.75306582765E+03  0.25500000920E-02 0. -1.
    10030    2    1    2    0    0  0.00000000000E+00  0.00000000000E+00  0.57491282507E+03  0.20810444804E+04  0.20000553424E+04 0.  0.
        1    1    3    3  502    0 -0.86437351348E+03 -0.46152744100E+03  0.49531094656E+03  0.10979444810E+04  0.50400001928E-02 0.  1.
       -1    1    3    3    0  502  0.86437351348E+03  0.46152744100E+03  0.79601878506E+02  0.98309999934E+03  0.50400001928E-02 0. -1.
</event>
<event>
 5   0  0.5030137E-06  0.2001202E+04  0.7818609E-02  0.8606059E-01
        2   -1    0    0  501    0  0.00000000000E+00  0.00000000000E+00  0.16614715019E+04  0.16614715019E+04  0.25500000920E-02 0. -1.
       -2   -1    0    0    0  501  0.00000000000E+00  0.00000000000E+00 -0.60259992614E+03  0.60259992615E+03  0.25500000920E-02 0.  1.
    10030    2    1    2    0    0  0.00000000000E+00  0.00000000000E+00  0.10588715758E+04  0.22640714281E+04  0.20012022430E+04 0.  0.
        3    1    3    3  502    0  0.38664155595E+03  0.47541805618E+03 -0.36547193281E+03  0.71350106153E+03  0.10100000352E+00 0.  1.
       -3    1    3    3    0  502 -0.38664155595E+03 -0.47541805618E+03  0.14243435086E+04  0.15505703666E+04  0.10100000352E+00 0. -1.
</event>
<event>
 5   0  0.5251252E-06  0.1998395E+04  0.7818609E-02  0.8607371E-01
        2   -1    0    0  501    0  0.00000000000E+00  0.00000000000E+00  0.18763146384E+04  0.18763146384E+04  0.25500000920E-02 0. -1.
       -2   -1    0    0    0  501  0.00000000000E+00  0.00000000000E+00 -0.53210458609E+03  0.53210458610E+03  0.25500000920E-02 0.  1.
    10030    2    1    2    0    0  0.00000000000E+00  0.00000000000E+00  0.13442100523E+04  0.24084192245E+04  0.19983949801E+04 0.  0.
        5    1    3    3  502    0 -0.57658139832E+03  0.17640311155E+03 -0.28811866838E+03  0.66828034814E+03  0.46999998093E+01 0.  1.
       -5    1    3    3    0  502  0.57658139832E+03 -0.17640311155E+03  0.16323287207E+04  0.17401388764E+04  0.46999998093E+01 0. -1.
</event>
<event>
 5   0  0.5118981E-06  0.2000272E+04  0.7818609E-02  0.8606494E-01
       -2   -1    0    0    0  501  0.00000000000E+00  0.00000000000E+00  0.10653380437E+04  0.10653380437E+04  0.25500000920E-02 0.  1.
        2   -1    0    0  501    0  0.00000000000E+00  0.00000000000E+00 -0.93892436171E+03  0.93892436172E+03  0.25500000920E-02 0. -1.
    10030    2    1    2    0    0  0.00000000000E+00  0.00000000000E+00  0.12641368198E+03  0.20042624054E+04  0.20002718242E+04 0.  0.
        4    1    3    3  502    0  0.77080766507E+03 -0.44127715052E+03  0.52390694551E+03  0.10311886736E+04  0.12699999809E+01 0.  1.
       -4    1    3    3    0  502 -0.77080766507E+03  0.44127715052E+03 -0.39749326354E+03  0.97307373182E+03  0.12699999809E+01 0. -1.
</event>
<event>
 5   0  0.4956214E-06  0.1999579E+04  0.7818609E-02  0.8606817E-01
       -2   -1    0    0    0  501  0.00000000000E+00  0.00000000000E+00  0.10010044375E+04  0.10010044375E+04  0.25500000920E-02 0.  1.
        2   -1    0    0  501    0  0.00000000000E+00  0.00000000000E+00 -0.99857622470E+03  0.99857622471E+03  0.25500000920E-02 0. -1.
    10030    2    1    2    0    0  0.00000000000E+00  0.00000000000E+00  0.24282127644E+01  0.19995806622E+04  0.19995791878E+04 0.  0.
        1    1    3    3  502    0  0.56926328804E+03 -0.53009400189E+03  0.62932195691E+03  0.10005530808E+04  0.50400001928E-02 0.  1.
       -1    1    3    3    0  502 -0.56926328804E+03  0.53009400189E+03 -0.62689374415E+03  0.99902758142E+03  0.50400001928E-02 0. -1.
</event>
<event>
 5   0  0.2386776E-06  0.1999440E+04  0.7818609E-02  0.8606883E-01
       -1   -1    0    0    0  501  0.00000000000E+00  0.00000000000E+00  0.10049070783E+04  0.10049070784E+04  0.50400001928E-02 0. -1.
        1   -1    0    0  501    0  0.00000000000E+00  0.00000000000E+00 -0.99455946067E+03  0.99455946068E+03  0.50400001928E-02 0.  1.
    10030    2    1    2    0    0  0.00000000000E+00  0.00000000000E+00  0.10347617667E+02  0.19994665390E+04  0.19994397634E+04 0.  0.
        2    1    3    3  502    0  0.48177315229E+03  0.83763544193E+03  0.26149996382E+03  0.10010598059E+04  0.25500000920E-02 0. -1.
       -2    1    3    3    0  502 -0.48177315229E+03 -0.83763544193E+03 -0.25115234615E+03  0.99840673316E+03  0.25500000920E-02 0.  1.
</event>
<event>
 5   0  0.2311520E-06  0.2000778E+04  0.7818609E-02  0.8606257E-01
        1   -1    0    0  501    0  0.00000000000E+00  0.00000000000E+00  0.12802118070E+04  0.12802118070E+04  0.50400001928E-02 0. -1.
       -1   -1    0    0    0  501  0.00000000000E+00  0.00000000000E+00 -0.78172838122E+03  0.78172838124E+03  0.50400001928E-02 0.  1.
    10030    2    1    2    0    0  0.00000000000E+00  0.00000000000E+00  0.49848342577E+03  0.20619401882E+04  0.20007777523E+04 0.  0.
        3    1    3    3  502    0  0.35853902129E+02  0.73160994860E+03 -0.45293779814E+03  0.86121500124E+03  0.10100000352E+00 0.  1.
       -3    1    3    3    0  502 -0.35853902129E+02 -0.73160994860E+03  0.95142122390E+03  0.12007251870E+04  0.10100000352E+00 0. -1.
</event>
<event>
 5   0  0.5030137E-06  0.2000082E+04  0.7818609E-02  0.8606582E-01
        2   -1    0    0  501    0  0.00000000000E+00  0.00000000000E+00  0.12830404832E+04  0.12830404832E+04  0.25500000920E-02 0.  1.
       -2   -1    0    0    0  501  0.00000000000E+00  0.00000000000E+00 -0.77946261715E+03  0.77946261715E+03  0.25500000920E-02 0. -1.
    10030    2    1    2    0    0  0.00000000000E+00  0.00000000000E+00  0.50357786607E+03  0.20625031004E+04  0.20000820913E+04 0.  0.
        3    1    3    3  502    0 -0.80129793602E+03  0.30463608224E+03  0.78283721179E+03  0.11609115536E+04  0.10100000352E+00 0.  1.
       -3    1    3    3    0  502  0.80129793602E+03 -0.30463608224E+03 -0.27925934573E+03  0.90159154679E+03  0.10100000352E+00 0. -1.
</event>
<event>
 5   0  0.5030137E-06  0.1994605E+04  0.7818609E-02  0.8609147E-01
       -2   -1    0    0    0  501  0.00000000000E+00  0.00000000000E+00  0.90576216970E+03  0.90576216970E+03  0.25500000920E-02 0.  1.
        2   -1    0    0  501    0  0.00000000000E+00  0.00000000000E+00 -0.10980938876E+04  0.10980938876E+04  0.25500000920E-02 0. -1.
    10030    2    1    2    0    0  0.00000000000E+00  0.00000000000E+00 -0.19233171795E+03  0.20038560573E+04  0.19946046247E+04 0.  0.
        3    1    3    3  502    0  0.38437175637E+03  0.34615172269E+03 -0.95279256432E+03  0.10841477496E+04  0.10100000352E+00 0. -1.
       -3    1    3    3    0  502 -0.38437175637E+03 -0.34615172269E+03  0.76046084637E+03  0.91970830771E+03  0.10100000352E+00 0.  1.
</event>
<event>
 5   0  0.2356996E-06  0.1998989E+04  0.7818609E-02  0.8607094E-01
       -1   -1    0    0    0  501  0.00000000000E+00  0.00000000000E+00  0.62329214859E+03  0.62329214861E+03  0.50400001928E-02 0.  1.
        1   -1    0    0  501    0  0.00000000000E+00  0.00000000000E+00 -0.16027622083E+04  0.16027622083E+04  0.50400001928E-02 0. -1.
    10030    2    1    2    0    0  0.00000000000E+00  0.00000000000E+00 -0.97947005968E+03  0.22260543569E+04  0.19989888449E+04 0.  0.
        4    1    3    3  502    0 -0.92508537196E+03  0.30864751350E+03 -0.73356107352E+03  0.12203113105E+04  0.12699999809E+01 0. -1.
       -4    1    3    3    0  502  0.92508537196E+03 -0.30864751350E+03 -0.24590898616E+03  0.10057430464E+04  0.12699999809E+01 0.  1.
</event>
<event>
 5   0  0.2313821E-06  0.2003276E+04  0.7818609E-02  0.8605091E-01
        1   -1    0    0  501    0  0.00000000000E+00  0.00000000000E+00  0.22596961328E+04  0.22596961328E+04  0.50400001928E-02 0. -1.
       -1   -1    0    0    0  501  0.00000000000E+00  0.00000000000E+00 -0.44398823875E+03  0.44398823877E+03  0.50400001928E-02 0.  1.
    10030    2    1    2    0    0  0.00000000000E+00  0.00000000000E+00  0.18157078941E+04  0.27036843716E+04  0.20032758234E+04 0.  0.
        1    1    3    3  502    0  0.43079525718E+03 -0.78754377945E+03  0.15075958968E+04  0.17546096848E+04  0.50400001928E-02 0.  1.
       -1    1    3    3    0  502 -0.43079525718E+03  0.78754377945E+03  0.30811199732E+03  0.94907468677E+03  0.50400001928E-02 0. -1.
</event>
<event>
 5   0  0.5251252E-06  0.2000297E+04  0.7818609E-02  0.8606482E-01
       -2   -1    0    0    0  501  0.00000000000E+00  0.00000000000E+00  0.11118409653E+04  0.11118409653E+04  0.25500000920E-02 0. -1.
        2   -1    0    0  501    0  0.00000000000E+00  0.00000000000E+00 -0.89967661520E+03  0.89967661520E+03  0.25500000920E-02 0.  1.
    10030    2    1    2    0    0  0.00000000000E+00  0.00000000000E+00  0.21216435011E+03  0.20115175805E+04  0.20002972942E+04 0.  0.
        5    1    3    3  502    0  0.29404936142E+03  0.52836485670E+03  0.90719423901E+03  0.10902558993E+04  0.46999998093E+01 0. -1.
       -5    1    3    3    0  502 -0.29404936142E+03 -0.52836485670E+03 -0.69502988890E+03  0.92126168118E+03  0.46999998093E+01 0.  1.
</event>
<event>
 5   0  0.2313821E-06  0.2000207E+04  0.7818609E-02  0.8606524E-01
       -1   -1    0    0    0  501  0.00000000000E+00  0.00000000000E+00  0.14360704185E+04  0.14360704185E+04  0.50400001928E-02 0.  1.
        1   -1    0    0  501    0  0.00000000000E+00  0.00000000000E+00 -0.69648870715E+03  0.69648870717E+03  0.50400001928E-02 0. -1.
    10030    2    1    2    0    0  0.00000000000E+00  0.00000000000E+00  0.73958171135E+03  0.21325591257E+04  0.20002068185E+04 0.  0.
        1    1    3    3  502    0  0.72118196369E+03 -0.17063575296E+03  0.10857827638E+04  0.13145889834E+04  0.50400001928E-02 0.  1.
       -1    1    3    3    0  502 -0.72118196369E+03  0.17063575296E+03 -0.34620105249E+03  0.81797014231E+03  0.50400001928E-02 0. -1.
</event>
<event>
 5   0  0.2313821E-06  0.1999640E+04  0.7818609E-02  0.8606789E-01
       -1   -1    0    0    0  501  0.00000000000E+00  0.00000000000E+00  0.13693333136E+04  0.13693333136E+04  0.50400001928E-02 0.  1.
        1   -1    0    0  501    0  0.00000000000E+00  0.00000000000E+00 -0.73001946672E+03  0.73001946674E+03  0.50400001928E-02 0. -1.
    10030    2    1    2    0    0  0.00000000000E+00  0.00000000000E+00  0.63931384684E+03  0.20993527803E+04  0.19996399429E+04 0.  0.
        1    1    3    3  502    0 -0.76013144703E+03  0.63857842260E+03  0.44413464590E+03  0.10875834691E+04  0.50400001928E-02 0.  1.
       -1    1    3    3    0  502  0.76013144703E+03 -0.63857842260E+03  0.19517920094E+03  0.10117693112E+04  0.50400001928E-02 0. -1.
</event>
<event>
 5   0  0.5118981E-06  0.1999124E+04  0.7818609E-02  0.8607030E-01
        2   -1    0    0  501    0  0.00000000000E+00  0.00000000000E+00  0.76196962376E+03  0.76196962376E+03  0.25500000920E-02 0. -1.
       -2   -1    0    0    0  501  0.00000000000E+00  0.00000000000E+00 -0.13112390313E+04  0.13112390313E+04  0.25500000920E-02 0.  1.
    10030    2    1    2    0    0  0.00000000000E+00  0.00000000000E+00 -0.54926940758E+03  0.20732086551E+04  0.19991241196E+04 0.  0.
        4    1    3    3  502    0  0.13144797106E+03 -0.52813416115E+03  0.59483753819E+03  0.80624907504E+03  0.12699999809E+01 0. -1.
       -4    1    3    3    0  502 -0.13144797106E+03  0.52813416115E+03 -0.11441069458E+04  0.12669595801E+04  0.12699999809E+01 0.  1.
</event>
<event>
 5   0  0.2311520E-06  0.1994586E+04  0.7818609E-02  0.8609156E-01
        1   -1    0    0  501    0  0.00000000000E+00  0.00000000000E+00  0.76776219677E+03  0.76776219678E+03  0.50400001928E-02 0.  1.
       -1   -1    0    0    0  501  0.00000000000E+00  0.00000000000E+00 -0.12954443175E+04  0.12954443175E+04  0.50400001928E-02 0. -1.
    10030    2    1    2    0    0  0.00000000000E+00  0.00000000000E+00 -0.52768212077E+03  0.20632065143E+04  0.19945858468E+04 0.  0.
        3    1    3    3  502    0  0.98078245432E+03 -0.62760982868E+02 -0.88540948227E+02  0.98676880443E+03  0.10100000352E+00 0. -1.
       -3    1    3    3    0  502 -0.98078245432E+03  0.62760982868E+02 -0.43914117254E+03  0.10764377099E+04  0.10100000352E+00 0.  1.
</event>
<event>
 5   0  0.2311520E-06  0.1999785E+04  0.7818609E-02  0.8606721E-01
        1   -1    0    0  501    0  0.00000000000E+00  0.00000000000E+00  0.14769534031E+04  0.14769534031E+04  0.50400001928E-02 0.  1.
       -1   -1    0    0    0  501  0.00000000000E+00  0.00000000000E+00 -0.67692369895E+03  0.67692369897E+03  0.50400001928E-02 0. -1.
    10030    2    1    2    0    0  0.00000000000E+00  0.00000000000E+00  0.80002970417E+03  0.21538771021E+04  0.19997847493E+04 0.  0.
        3    1    3    3  502    0 -0.32603322711E+03 -0.13828834566E+03 -0.60711079813E+03  0.70285479519E+03  0.10100000352E+00 0. -1.
       -3    1    3    3    0  502  0.32603322711E+03  0.13828834566E+03  0.14071405023E+04  0.14510223069E+04  0.10100000352E+00 0.  1.
</event>
<event>
 5   0  0.2313821E-06  0.2003303E+04  0.7818609E-02  0.8605078E-01
       -1   -1    0    0    0  501  0.00000000000E+00  0.00000000000E+00  0.97095402863E+03  0.97095402864E+03  0.50400001928E-02 0. -1.
        1   -1    0    0  501    0  0.00000000000E+00  0.00000000000E+00 -0.10333195376E+04  0.10333195376E+04  0.50400001928E-02 0.  1.
    10030    2    1    2    0    0  0.00000000000E+00  0.00000000000E+00 -0.62365508986E+02  0.20042735663E+04  0.20033030404E+04 0.  0.
        1    1    3    3  502    0  0.42411232186E+03  0.82016527562E+03  0.35728801784E+03  0.99004902333E+03  0.50400001928E-02 0. -1.
       -1    1    3    3    0  502 -0.42411232186E+03 -0.82016527562E+03 -0.41965352683E+03  0.10142245429E+04  0.50400001928E-02 0.  1.
</event>
<event>
 5   0  0.2379743E-06  0.1998095E+04  0.7818609E-02  0.8607512E-01
        1   -1    0    0  501    0  0.00000000000E+00  0.00000000000E+00  0.18357777862E+04  0.18357777862E+04  0.50400001928E-02 0. -1.
       -1   -1    0    0    0  501  0.00000000000E+00  0.00000000000E+00 -0.54369094813E+03  0.54369094815E+03  0.50400001928E-02 0.  1.
    10030    2    1    2    0    0  0.00000000000E+00  0.00000000000E+00  0.12920868381E+04  0.23794687344E+04  0.19980948578E+04 0.  0.
        5    1    3    3  502    0  0.70494791626E+03 -0.61496894712E+03  0.10635873845E+04  0.14164669375E+04  0.46999998093E+01 0. -1.
       -5    1    3    3    0  502 -0.70494791626E+03  0.61496894712E+03  0.22849945364E+03  0.96300179692E+03  0.46999998093E+01 0.  1.
</event>
<event>
 5   0  0.2379743E-06  0.2000408E+04  0.7818609E-02  0.8606430E-01
       -1   -1    0    0    0  501  0.00000000000E+00  0.00000000000E+00  0.49602124237E+03  0.49602124239E+03  0.50400001928E-02 0. -1.
        1   -1    0    0  501    0  0.00000000000E+00  0.00000000000E+00 -0.20168653284E+04  0.20168653284E+04  0.50400001928E-02 0.  1.
    10030    2    1    2    0    0  0.00000000000E+00  0.00000000000E+00 -0.15208440860E+04  0.25128865708E+04  0.20004080043E+04 0.  0.
        5    1    3    3  502    0  0.58377439297E+03 -0.73952753298E+03 -0.33872389206E+03  0.10012239904E+04  0.46999998093E+01 0.  1.
       -5    1    3    3    0  502 -0.58377439297E+03  0.73952753298E+03 -0.11821201939E+04  0.15116625803E+04  0.46999998093E+01 0. -1.
</event>
<event>
 5   0  0.2386776E-06  0.1997806E+04  0.7818609E-02  0.8607647E-01
        1   -1    0    0  501    0  0.00000000000E+00  0.00000000000E+00  0.11732464879E+04  0.11732464879E+04  0.50400001928E-02 0.  1.
       -1   -1    0    0    0  501  0.00000000000E+00  0.00000000000E+00 -0.85046648159E+03  0.85046648161E+03  0.50400001928E-02 0. -1.
    10030    2    1    2    0    0  0.00000000000E+00  0.00000000000E+00  0.32278000633E+03  0.20237129695E+04  0.19978056088E+04 0.  0.
        2    1    3    3  502    0 -0.69047644981E+03 -0.41377920827E+03  0.76052935356E+03  0.11074185562E+04  0.25500000920E-02 0.  1.
       -2    1    3    3    0  502  0.69047644981E+03  0.41377920827E+03 -0.43774934723E+03  0.91629441336E+03  0.25500000920E-02 0. -1.
</event>
<event>
 5   0  0.2386776E-06  0.2001825E+04  0.7818609E-02  0.8605768E-01
       -1   -1    0    0    0  501  0.00000000000E+00  0.00000000000E+00  0.11934006895E+04  0.11934006895E+04  0.50400001928E-02 0. -1.
        1   -1    0    0  501    0  0.00000000000E+00  0.00000000000E+00 -0.83947135376E+03  0.83947135377E+03  0.50400001928E-02 0.  1.
    10030    2    1    2    0    0  0.00000000000E+00  0.00000000000E+00  0.35392933578E+03  0.20328720433E+04  0.20018248599E+04 0.  0.
        2    1    3    3  502    0  0.12730017106E+03  0.10363283727E+03  0.11796384929E+04  0.11910046484E+04  0.25500000920E-02 0. -1.
       -2    1    3    3    0  502 -0.12730017106E+03 -0.10363283727E+03 -0.82570915712E+03  0.84186739494E+03  0.25500000920E-02 0.  1.
</event>
<event>
 5   0  0.2386776E-06  0.1999422E+04  0.7818609E-02  0.8606891E-01
       -1   -1    0    0    0  501  0.00000000000E+00  0.00000000000E+00  0.92129795120E+03  0.92129795122E+03  0.50400001928E-02 0.  1.
        1   -1    0    0  501    0  0.00000000000E+00  0.00000000000E+00 -0.10847979817E+04  0.10847979817E+04  0.50400001928E-02 0. -1.
    10030    2    1    2    0    0  0.00000000000E+00  0.00000000000E+00 -0.16350003049E+03  0.20060959329E+04  0.19994220745E+04 0.  0.
        2    1    3    3  502    0  0.97659373790E+03 -0.16259238773E+03  0.57459437026E+02  0.99170217322E+03  0.25500000920E-02 0.  1.
       -2    1    3    3    0  502 -0.97659373790E+03  0.16259238773E+03 -0.22095946752E+03  0.10143937597E+04  0.25500000920E-02 0. -1.
</event>
<event>
 5   0  0.5251252E-06  0.1999244E+04  0.7818609E-02  0.8606974E-01
        2   -1    0    0  501    0  0.00000000000E+00  0.00000000000E+00  0.89386786323E+03  0.89386786323E+03  0.25500000920E-02 0. -1.
       -2   -1    0    0    0  501  0.00000000000E+00  0.00000000000E+00 -0.11178879074E+04  0.11178879074E+04  0.25500000920E-02 0.  1.
    10030    2    1    2    0    0  0.00000000000E+00  0.00000000000E+00 -0.22402004416E+03  0.20117557706E+04  0.19992439322E+04 0.  0.
        5    1    3    3  502    0 -0.24835552358E+03  0.74422079768E+03 -0.73530310689E+03  0.10752849905E+04  0.46999998093E+01 0.  1.
       -5    1    3    3    0  502  0.24835552358E+03 -0.74422079768E+03  0.51128306273E+03  0.93647078012E+03  0.46999998093E+01 0. -1.
</event>
<event>
 5   0  0.2313821E-06  0.1999273E+04  0.7818609E-02  0.8606961E-01
        1   -1    0    0  501    0  0.00000000000E+00  0.00000000000E+00  0.15819697961E+04  0.15819697961E+04  0.50400001928E-02 0. -1.
       -1   -1    0    0    0  501  0.00000000000E+00  0.00000000000E+00 -0.63166401260E+03  0.63166401262E+03  0.50400001928E-02 0.  1.
    10030    2    1    2    0    0  0.00000000000E+00  0.00000000000E+00  0.95030578349E+03  0.22136338087E+04  0.19992732572E+04 0.  0.
        1    1    3    3  502    0  0.62515087344E+03 -0.46812714424E+03  0.11660051281E+04  0.14033975191E+04  0.50400001928E-02 0. -1.
       -1    1    3    3    0  502 -0.62515087344E+03  0.46812714424E+03 -0.21569934463E+03  0.81023628964E+03  0.50400001928E-02 0.  1.
</event>
<event>
 5   0  0.1777750E-06  0.2003980E+04  0.7818609E-02  0.8604762E-01
       -3   -1    0    0    0  501  0.00000000000E+00  0.00000000000E+00  0.82269118404E+03  0.82269119024E+03  0.10100000352E+00 0. -1.
        3   -1    0    0  501    0  0.00000000000E+00  0.00000000000E+00 -0.12203659090E+04  0.12203659132E+04  0.10100000352E+00 0.  1.
    10030    2    1    2    0    0  0.00000000000E+00  0.00000000000E+00 -0.39767472497E+03  0.20430571034E+04  0.20039803245E+04 0.  0.
        3    1    3    3  502    0  0.75168823439E+03 -0.47336253507E+03  0.27374988868E+03  0.92954090985E+03  0.10100000352E+00 0. -1.
       -3    1    3    3    0  502 -0.75168823439E+03  0.47336253507E+03 -0.67142461365E+03  0.11135161936E+04  0.10100000352E+00 0.  1.
</event>
<event>
 5   0  0.5251252E-06  0.2000059E+04  0.7818609E-02  0.8606593E-01
       -2   -1    0    0    0  501  0.00000000000E+00  0.00000000000E+00  0.15195749238E+04  0.15195749238E+04  0.25500000920E-02 0.  1.
        2   -1    0    0  501    0  0.00000000000E+00  0.00000000000E+00 -0.65811753866E+03  0.65811753867E+03  0.25500000920E-02 0. -1.
    10030    2    1    2    0    0  0.00000000000E+00  0.00000000000E+00  0.86145738510E+03  0.21776924624E+04  0.20000589078E+04 0.  0.
        5    1    3    3  502    0  0.36440481729E+03  0.89241416276E+03  0.72053107841E+03  0.12034870310E+04  0.46999998093E+01 0.  1.
       -5    1    3    3    0  502 -0.36440481729E+03 -0.89241416276E+03  0.14092630669E+03  0.97420543146E+03  0.46999998093E+01 0. -1.
</event>
<event>
 5   0  0.2356996E-06  0.2000095E+04  0.7818609E-02  0.8606576E-01
       -1   -1    0    0    0  501  0.00000000000E+00  0.00000000000E+00  0.39448060719E+03  0.39448060723E+03  0.50400001928E-02 0.  1.
        1   -1    0    0  501    0  0.00000000000E+00  0.00000000000E+00 -0.25352199157E+04  0.25352199157E+04  0.50400001928E-02 0. -1.
    10030    2    1    2    0    0  0.00000000000E+00  0.00000000000E+00 -0.21407393085E+04  0.29297005229E+04  0.20000950895E+04 0.  0.
        4    1    3    3  502    0  0.80801753221E+03  0.85124254812E+02 -0.19244196729E+04  0.20889066904E+04  0.12699999809E+01 0. -1.
       -4    1    3    3    0  502 -0.80801753221E+03 -0.85124254812E+02 -0.21631963565E+03  0.84079383251E+03  0.12699999809E+01 0.  1.
</event>
<event>
 5   0  0.5118981E-06  0.1998385E+04  0.7818609E-02  0.8607376E-01
        2   -1    0    0  501    0  0.00000000000E+00  0.00000000000E+00  0.10825287946E+04  0.10825287946E+04  0.25500000920E-02 0.  1.
       -2   -1    0    0    0  501  0.00000000000E+00  0.00000000000E+00 -0.92227208148E+03  0.92227208149E+03  0.25500000920E-02 0. -1.
    10030    2    1    2    0    0  0.00000000000E+00  0.00000000000E+00  0.16025671309E+03  0.20048008761E+04  0.19983854329E+04 0.  0.
        4    1    3    3  502    0 -0.54217707685E+03  0.60272313564E+03 -0.50583004194E+03  0.95556098975E+03  0.12699999809E+01 0. -1.
       -4    1    3    3    0  502  0.54217707685E+03 -0.60272313564E+03  0.66608675503E+03  0.10492398863E+04  0.12699999809E+01 0.  1.
</event>
<event>
 5   0  0.4956214E-06  0.2001232E+04  0.7818609E-02  0.8606045E-01
        2   -1    0    0  501    0  0.00000000000E+00  0.00000000000E+00  0.13613495191E+04  0.13613495191E+04  0.25500000920E-02 0.  1.
       -2   -1    0    0    0  501  0.00000000000E+00  0.00000000000E+00 -0.73547026748E+03  0.73547026748E+03  0.25500000920E-02 0. -1.
    10030    2    1    2    0    0  0.00000000000E+00  0.00000000000E+00  0.62587925159E+03  0.20968197866E+04  0.20012317156E+04 0.  0.
        1    1    3    3  502    0  0.37335818238E+03 -0.62198225980E+03  0.10350416634E+04  0.12639499629E+04  0.50400001928E-02 0.  1.
       -1    1    3    3    0  502 -0.37335818238E+03  0.62198225980E+03 -0.40916241178E+03  0.83286982362E+03  0.50400001928E-02 0. -1.
</event>
<event>
 5   0  0.2311520E-06  0.2000049E+04  0.7818609E-02  0.8606598E-01
        1   -1    0    0  501    0  0.00000000000E+00  0.00000000000E+00  0.16030968293E+04  0.16030968293E+04  0.50400001928E-02 0. -1.
       -1   -1    0    0    0  501  0.00000000000E+00  0.00000000000E+00 -0.62382298944E+03  0.62382298946E+03  0.50400001928E-02 0.  1.
    10030    2    1    2    0    0  0.00000000000E+00  0.00000000000E+00  0.97927383986E+03  0.22269198188E+04  0.20000486559E+04 0.  0.
        3    1    3    3  502    0  0.35043113426E+03  0.21189377530E+03  0.15054561026E+04  0.15601599402E+04  0.10100000352E+00 0. -1.
       -3    1    3    3    0  502 -0.35043113426E+03 -0.21189377530E+03 -0.52618226274E+03  0.66675987859E+03  0.10100000352E+00 0.  1.
</event>
<event>
 5   0  0.5030137E-06  0.1999944E+04  0.7818609E-02  0.8606647E-01
       -2   -1    0    0    0  501  0.00000000000E+00  0.00000000000E+00  0.11335448757E+04  0.11335448757E+04  0.25500000920E-02 0.  1.
        2   -1    0    0  501    0  0.00000000000E+00  0.00000000000E+00 -0.88213876982E+03  0.88213876982E+03  0.25500000920E-02 0. -1.
    10030    2    1    2    0    0  0.00000000000E+00  0.00000000000E+00  0.25140610591E+03  0.20156836456E+04  0.19999438814E+04 0.  0.
        3    1    3    3  502    0 -0.82608387964E+03  0.45147641485E+03  0.46554863593E+03  0.10502290569E+04  0.10100000352E+00 0.  1.
       -3    1    3    3    0  502  0.82608387964E+03 -0.45147641485E+03 -0.21414253002E+03  0.96545458864E+03  0.10100000352E+00 0. -1.
</event>
<event>
 5   0  0.2356996E-06  0.1999475E+04  0.7818609E-02  0.8606866E-01
       -1   -1    0    0    0  501  0.00000000000E+00  0.00000000000E+00  0.98134692476E+03  0.98134692477E+03  0.50400001928E-02 0.  1.
        1   -1    0    0  501    0  0.00000000000E+00  0.00000000000E+00 -0.10184727695E+04  0.10184727695E+04  0.50400001928E-02 0. -1.
    10030    2    1    2    0    0  0.00000000000E+00  0.00000000000E+00 -0.37125844707E+02  0.19998196943E+04  0.19994750514E+04 0.  0.
        4    1    3    3  502    0 -0.46588644107E+03 -0.38892668093E+03  0.77602940627E+03  0.98515856156E+03  0.12699999809E+01 0.  1.
       -4    1    3    3    0  502  0.46588644107E+03  0.38892668093E+03 -0.81315525098E+03  0.10146611327E+04  0.12699999809E+01 0. -1.
</event>
<event>
 5   0  0.5129100E-06  0.1999218E+04  0.7818609E-02  0.8606986E-01
        2   -1    0    0  501    0  0.00000000000E+00  0.00000000000E+00  0.77700126103E+03  0.77700126104E+03  0.25500000920E-02 0. -1.
       -2   -1    0    0    0  501  0.00000000000E+00  0.00000000000E+00 -0.12859927034E+04  0.12859927035E+04  0.25500000920E-02 0.  1.
    10030    2    1    2    0    0  0.00000000000E+00  0.00000000000E+00 -0.50899144242E+03  0.20629939645E+04  0.19992177993E+04 0.  0.
        2    1    3    3  502    0  0.97541336002E+03 -0.21677832102E+03 -0.22542085592E+03  0.10243234966E+04  0.25500000920E-02 0.  1.
       -2    1    3    3    0  502 -0.97541336002E+03  0.21677832102E+03 -0.28357058650E+03  0.10386704679E+04  0.25500000920E-02 0. -1.
</event>
<event>
 5   0  0.2356996E-06  0.2001648E+04  0.7818609E-02  0.8605851E-01
       -1   -1    0    0    0  501  0.00000000000E+00  0.00000000000E+00  0.51462843520E+03  0.51462843523E+03  0.50400001928E-02 0. -1.
        1   -1    0    0  501    0  0.00000000000E+00  0.00000000000E+00 -0.19463528830E+04  0.19463528830E+04  0.50400001928E-02 0.  1.
    10030    2    1    2    0    0  0.00000000000E+00  0.00000000000E+00 -0.14317244477E+04  0.24609813182E+04  0.20016478597E+04 0.  0.
        4    1    3    3  502    0  0.95852211377E+03 -0.22462636081E+03 -0.93725452547E+03  0.13592899996E+04  0.12699999809E+01 0.  1.
       -4    1    3    3    0  502 -0.95852211377E+03  0.22462636081E+03 -0.49446992228E+03  0.11016913186E+04  0.12699999809E+01 0. -1.
</event>
<event>
 5   0  0.2356996E-06  0.1997562E+04  0.7818609E-02  0.8607761E-01
       -1   -1    0    0    0  501  0.00000000000E+00  0.00000000000E+00  0.65895460953E+03  0.65895460955E+03  0.50400001928E-02 0. -1.
        1   -1    0    0  501    0  0.00000000000E+00  0.00000000000E+00 -0.15138582980E+04  0.15138582980E+04  0.50400001928E-02 0.  1.
    10030    2    1    2    0    0  0.00000000000E+00  0.00000000000E+00 -0.85490368844E+03  0.21728129075E+04  0.19975624182E+04 0.  0.
        4    1    3    3  502    0  0.60580597148E+03 -0.59019243812E+03  0.15041379496E+03  0.85904243883E+03  0.12699999809E+01 0. -1.
       -4    1    3    3    0  502 -0.60580597148E+03  0.59019243812E+03 -0.10053174834E+04  0.13137704687E+04  0.12699999809E+01 0.  1.
</event>
<event>
 5   0  0.2386776E-06  0.2000459E+04  0.7818609E-02  0.8606406E-01
        1   -1    0    0  501    0  0.00000000000E+00  0.00000000000E+00  0.12219567628E+04  0.12219567628E+04  0.50400001928E-02 0.  1.
       -1   -1    0    0    0  501  0.00000000000E+00  0.00000000000E+00 -0.81873517624E+03  0.81873517626E+03  0.50400001928E-02 0. -1.
    10030    2    1    2    0    0  0.00000000000E+00  0.00000000000E+00  0.40322158656E+03  0.20406919391E+04  0.20004589329E+04 0.  0.
        2    1    3    3  502    0  0.70109730161E+03  0.10959737378E+03  0.92070645079E+03  0.11624325267E+04  0.25500000920E-02 0.  1.
       -2    1    3    3    0  502 -0.70109730161E+03 -0.10959737378E+03 -0.51748486423E+03  0.87825941235E+03  0.25500000920E-02 0. -1.
</event>
<event>
 5   0  0.5129100E-06  0.1999191E+04  0.7818609E-02  0.8606999E-01
        2   -1    0    0  501    0  0.00000000000E+00  0.00000000000E+00  0.16501282524E+04  0.16501282524E+04  0.25500000920E-02 0.  1.
       -2   -1    0    0    0  501  0.00000000000E+00  0.00000000000E+00 -0.60552334504E+03  0.60552334505E+03  0.25500000920E-02 0. -1.
    10030    2    1    2    0    0  0.00000000000E+00  0.00000000000E+00  0.10446049074E+04  0.22556515975E+04  0.19991910156E+04 0.  0.
        2    1    3    3  502    0 -0.18960988915E+03 -0.58191461139E+03 -0.36940790874E+03  0.71486972804E+03  0.25500000920E-02 0. -1.
       -2    1    3    3    0  502  0.18960988915E+03  0.58191461139E+03  0.14140128161E+04  0.15407818694E+04  0.25500000920E-02 0.  1.
</event>
<event>
 5   0  0.4956214E-06  0.2006687E+04  0.7818609E-02  0.8603501E-01
       -2   -1    0    0    0  501  0.00000000000E+00  0.00000000000E+00  0.16247320162E+04  0.16247320162E+04  0.25500000920E-02 0.  1.
        2   -1    0    0  501    0  0.00000000000E+00  0.00000000000E+00 -0.61960855016E+03  0.61960855017E+03  0.25500000920E-02 0. -1.
    10030    2    1    2    0    0  0.00000000000E+00  0.00000000000E+00  0.10051234660E+04  0.22443405663E+04  0.20066866710E+04 0.  0.
        1    1    3    3  502    0 -0.26314052935E+03 -0.94309872843E+03  0.25747550331E+03  0.10124089019E+04  0.50400001928E-02 0. -1.
       -1    1    3    3    0  502  0.26314052935E+03  0.94309872843E+03  0.74764796268E+03  0.12319316645E+04  0.50400001928E-02 0.  1.
</event>
<event>
 5   0  0.2386776E-06  0.1999819E+04  0.7818609E-02  0.8606705E-01
       -1   -1    0    0    0  501  0.00000000000E+00  0.00000000000E+00  0.12029591173E+04  0.12029591173E+04  0.50400001928E-02 0.  1.
        1   -1    0    0  501    0  0.00000000000E+00  0.00000000000E+00 -0.83113274779E+03  0.83113274780E+03  0.50400001928E-02 0. -1.
    10030    2    1    2    0    0  0.00000000000E+00  0.00000000000E+00  0.37182636951E+03  0.20340918651E+04  0.19998187084E+04 0.  0.
        2    1    3    3  502    0  0.38993645888E+03  0.77905807601E+03  0.68507499387E+03  0.11082913313E+04  0.25500000920E-02 0. -1.
       -2    1    3    3    0  502 -0.38993645888E+03 -0.77905807601E+03 -0.31324862436E+03  0.92580053383E+03  0.25500000920E-02 0.  1.
</event>
<event>
 5   0  0.4956214E-06  0.1997327E+04  0.7818609E-02  0.8607871E-01
        2   -1    0    0  501    0  0.00000000000E+00  0.00000000000E+00  0.14347243798E+04  0.14347243798E+04  0.25500000920E-02 0.  1.
       -2   -1    0    0    0  501  0.00000000000E+00  0.00000000000E+00 -0.69513623178E+03  0.69513623179E+03  0.25500000920E-02 0. -1.
    10030    2    1    2    0    0  0.00000000000E+00  0.00000000000E+00  0.73958814802E+03  0.21298606116E+04  0.19973271129E+04 0.  0.
        1    1    3    3  502    0  0.82554793091E+03  0.25571300522E+03  0.90340921152E+03  0.12502266717E+04  0.50400001928E-02 0.  1.
       -1    1    3    3    0  502 -0.82554793091E+03 -0.25571300522E+03 -0.16382106349E+03  0.87963393985E+03  0.50400001928E-02 0. -1.
</event>
<event>
 5   0  0.2313821E-06  0.1998223E+04  0.7818609E-02  0.8607452E-01
       -1   -1    0    0    0  501  0.00000000000E+00  0.00000000000E+00  0.85128328330E+03  0.85128328332E+03  0.50400001928E-02 0. -1.
        1   -1    0    0  501    0  0.00000000000E+00  0.00000000000E+00 -0.11726109337E+04  0.11726109337E+04  0.50400001928E-02 0.  1.
    10030    2    1    2    0    0  0.00000000000E+00  0.00000000000E+00 -0.32132765040E+03  0.20238942170E+04  0.19982232965E+04 0.  0.
        1    1    3    3  502    0 -0.57481350767E+03 -0.77898886114E+03 -0.41079778019E+03  0.10516601308E+04  0.50400001928E-02 0.  1.
       -1    1    3    3    0  502  0.57481350767E+03  0.77898886114E+03  0.89470129788E+02  0.97223408628E+03  0.50400001928E-02 0. -1.
</event>
<event>
 5   0  0.5251252E-06  0.2000232E+04  0.7818609E-02  0.8606512E-01
        2   -1    0    0  501    0  0.00000000000E+00  0.00000000000E+00  0.96971568242E+03  0.96971568243E+03  0.25500000920E-02 0.  1.
       -2   -1    0    0    0  501  0.00000000000E+00  0.00000000000E+00 -0.10314688843E+04  0.10314688843E+04  0.25500000920E-02 0. -1.
    10030    2    1    2    0    0  0.00000000000E+00  0.00000000000E+00 -0.61753201897E+02  0.20011845667E+04  0.20002315397E+04 0.  0.
        5    1    3    3  502    0 -0.70865747860E+03 -0.63637095826E+03  0.27430323264E+03  0.99117494517E+03  0.46999998093E+01 0. -1.
       -5    1    3    3    0  502  0.70865747860E+03  0.63637095826E+03 -0.33605643454E+03  0.10100096216E+04  0.46999998093E+01 0.  1.
</event>
<event>
 5   0  0.5118981E-06  0.2000205E+04  0.7818609E-02  0.8606525E-01
       -2   -1    0    0    0  501  0.00000000000E+00  0.00000000000E+00  0.83903976139E+03  0.83903976139E+03  0.25500000920E-02 0.  1.
        2   -1    0    0  501    0  0.00000000000E+00  0.00000000000E+00 -0.11920832427E+04  0.11920832427E+04  0.25500000920E-02 0. -1.
    10030    2    1    2    0    0  0.00000000000E+00  0.00000000000E+00 -0.35304348129E+03  0.20311230041E+04  0.20002052290E+04 0.  0.
        4    1    3    3  502    0  0.98348959148E+03 -0.85585500907E+01 -0.36064910360E+03  0.10475659474E+04  0.12699999809E+01 0. -1.
       -4    1    3    3    0  502 -0.98348959148E+03  0.85585500907E+01  0.76056223153E+01  0.98355705667E+03  0.12699999809E+01 0.  1.
</event>
<event>
 5   0  0.5118981E-06  0.1993052E+04  0.7818609E-02  0.8609876E-01
       -2   -1    0    0    0  501  0.00000000000E+00  0.00000000000E+00  0.78382624598E+03  0.78382624598E+03  0.25500000920E-02 0.  1.
        2   -1    0    0  501    0  0.00000000000E+00  0.00000000000E+00 -0.12669443683E+04  0.12669443683E+04  0.25500000920E-02 0. -1.
    10030    2    1    2    0    0  0.00000000000E+00  0.00000000000E+00 -0.48311812234E+03  0.20507706143E+04  0.19930521800E+04 0.  0.
        4    1    3    3  502    0 -0.17144309241E+03  0.43002938398E+03  0.66646205697E+03  0.81147476319E+03  0.12699999809E+01 0.  1.
       -4    1    3    3    0  502  0.17144309241E+03 -0.43002938398E+03 -0.11495801793E+04  0.12392958511E+04  0.12699999809E+01 0. -1.
</event>
<event>
 5   0  0.2386776E-06  0.2000375E+04  0.7818609E-02  0.8606445E-01
       -1   -1    0    0    0  501  0.00000000000E+00  0.00000000000E+00  0.56030078404E+03  0.56030078406E+03  0.50400001928E-02 0.  1.
        1   -1    0    0  501    0  0.00000000000E+00  0.00000000000E+00 -0.17854258582E+04  0.17854258582E+04  0.50400001928E-02 0. -1.
    10030    2    1    2    0    0  0.00000000000E+00  0.00000000000E+00 -0.12251250741E+04  0.23457266422E+04  0.20003754730E+04 0.  0.
        2    1    3    3  502    0  0.51180497685E+02 -0.75108956898E+03 -0.13847465300E+04  0.15761592357E+04  0.25500000920E-02 0. -1.
       -2    1    3    3    0  502 -0.51180497685E+02  0.75108956898E+03  0.15962145590E+03  0.76956740651E+03  0.25500000920E-02 0.  1.
</event>
<event>
 5   0  0.2311520E-06  0.2000991E+04  0.7818609E-02  0.8606158E-01
        1   -1    0    0  501    0  0.00000000000E+00  0.00000000000E+00  0.17704850738E+04  0.17704850738E+04  0.50400001928E-02 0. -1.
       -1   -1    0    0    0  501  0.00000000000E+00  0.00000000000E+00 -0.56537675337E+03  0.56537675339E+03  0.50400001928E-02 0.  1.
    10030    2    1    2    0    0  0.00000000000E+00  0.00000000000E+00  0.12051083204E+04  0.23358618272E+04  0.20009908575E+04 0.  0.
        3    1    3    3  502    0  0.91773624629E+03 -0.69060500325E+02  0.10606295012E+04  0.14042592779E+04  0.10100000352E+00 0. -1.
       -3    1    3    3    0  502 -0.91773624629E+03  0.69060500325E+02  0.14447881919E+03  0.93160254930E+03  0.10100000352E+00 0.  1.
</event>
<event>
 5   0  0.2379743E-06  0.2000008E+04  0.7818609E-02  0.8606617E-01
        1   -1    0    0  501    0  0.00000000000E+00  0.00000000000E+00  0.13164438561E+04  0.13164438561E+04  0.50400001928E-02 0. -1.
       -1   -1    0    0    0  501  0.00000000000E+00  0.00000000000E+00 -0.75962836051E+03  0.75962836052E+03  0.50400001928E-02 0.  1.
    10030    2    1    2    0    0  0.00000000000E+00  0.00000000000E+00  0.55681549560E+03  0.20760722166E+04  0.20000080881E+04 0.  0.
        5    1    3    3  502    0  0.38100886123E+03 -0.28759518425E+03  0.11905225871E+04  0.12826709877E+04  0.46999998093E+01 0. -1.
       -5    1    3    3    0  502 -0.38100886123E+03  0.28759518425E+03 -0.63370709147E+03  0.79340122896E+03  0.46999998093E+01 0.  1.
</event>
<event>
 5   0  0.5118981E-06  0.2000113E+04  0.7818609E-02  0.8606568E-01
        2   -1    0    0  501    0  0.00000000000E+00  0.00000000000E+00  0.71116891247E+03  0.71116891248E+03  0.25500000920E-02 0. -1.
       -2   -1    0    0    0  501  0.00000000000E+00  0.00000000000E+00 -0.14062948339E+04  0.14062948339E+04  0.25500000920E-02 0.  1.
    10030    2    1    2    0    0  0.00000000000E+00  0.00000000000E+00 -0.69512592140E+03  0.21174637464E+04  0.20001131644E+04 0.  0.
        4    1    3    3  502    0  0.85056288604E+03 -0.42314694694E+03 -0.67830433984E+03  0.11673084220E+04  0.12699999809E+01 0.  1.
       -4    1    3    3    0  502 -0.85056288604E+03  0.42314694694E+03 -0.16821581565E+02  0.95015532432E+03  0.12699999809E+01 0. -1.
</event>
<event>
 5   0  0.5251252E-06  0.2002805E+04  0.7818609E-02  0.8605310E-01
        2   -1    0    0  501    0  0.00000000000E+00  0.00000000000E+00  0.16030180150E+04  0.16030180150E+04  0.25500000920E-02 0.  1.
       -2   -1    0    0    0  501  0.00000000000E+00  0.00000000000E+00 -0.62557434051E+03  0.62557434052E+03  0.25500000920E-02 0. -1.
    10030    2    1    2    0    0  0.00000000000E+00  0.00000000000E+00  0.97744367451E+03  0.22285923555E+04  0.20028049706E+04 0.  0.
        5    1    3    3  502    0 -0.85937160487E+03 -0.13088126518E+03 -0.64449213068E+02  0.87167955804E+03  0.46999998093E+01 0. -1.
       -5    1    3    3    0  502  0.85937160487E+03  0.13088126518E+03  0.10418928876E+04  0.13569127975E+04  0.46999998093E+01 0.  1.
</event>
<event>
 5   0  0.4956214E-06  0.2000109E+04  0.7818609E-02  0.8606570E-01
        2   -1    0    0  501    0  0.00000000000E+00  0.00000000000E+00  0.11307471449E+04  0.11307471449E+04  0.25500000920E-02 0.  1.
       -2   -1    0    0    0  501  0.00000000000E+00  0.00000000000E+00 -0.88446728399E+03  0.88446728399E+03  0.25500000920E-02 0. -1.
    10030    2    1    2    0    0  0.00000000000E+00  0.00000000000E+00  0.24627986095E+03  0.20152144289E+04  0.20001088532E+04 0.  0.
        1    1    3    3  502    0 -0.82382338091E+03 -0.51174349695E+03  0.36899610255E+03  0.10376533589E+04  0.50400001928E-02 0.  1.
       -1    1    3    3    0  502  0.82382338091E+03  0.51174349695E+03 -0.12271624159E+03  0.97756107000E+03  0.50400001928E-02 0. -1.
</event>
<event>
 5   0  0.4956214E-06  0.1999371E+04  0.7818609E-02  0.8606915E-01
       -2   -1    0    0    0  501  0.00000000000E+00  0.00000000000E+00  0.39034547050E+03  0.39034547051E+03  0.25500000920E-02 0. -1.
        2   -1    0    0  501    0  0.00000000000E+00  0.00000000000E+00 -0.25602230100E+04  0.25602230100E+04  0.25500000920E-02 0.  1.
    10030    2    1    2    0    0  0.00000000000E+00  0.00000000000E+00 -0.21698775395E+04  0.29505684805E+04  0.19993713566E+04 0.  0.
        1    1    3    3  502    0 -0.91735996531E+03  0.37706830333E+03 -0.12695055060E+04  0.16110164621E+04  0.50400001928E-02 0.  1.
       -1    1    3    3    0  502  0.91735996531E+03 -0.37706830333E+03 -0.90037203351E+03  0.13395520184E+04  0.50400001928E-02 0. -1.
</event>
<event>
 5   0  0.1777750E-06  0.1998415E+04  0.7818609E-02  0.8607362E-01
       -3   -1    0    0    0  501  0.00000000000E+00  0.00000000000E+00  0.21053986816E+04  0.21053986840E+04  0.10100000352E+00 0.  1.
        3   -1    0    0  501    0  0.00000000000E+00  0.00000000000E+00 -0.47421667809E+03  0.47421668884E+03  0.10100000352E+00 0. -1.
    10030    2    1    2    0    0  0.00000000000E+00  0.00000000000E+00  0.16311820035E+04  0.25796153729E+04  0.19984145574E+04 0.  0.
        4    1    3    3  502    0 -0.42310025073E+03  0.69527451905E+03  0.15638200199E+04  0.17629393485E+04  0.12699999809E+01 0.  1.
       -4    1    3    3    0  502  0.42310025073E+03 -0.69527451905E+03  0.67361983612E+02  0.81667602435E+03  0.12699999809E+01 0. -1.
</event>
<event>
 5   0  0.1777750E-06  0.2000767E+04  0.7818609E-02  0.8606262E-01
       -3   -1    0    0    0  501  0.00000000000E+00  0.00000000000E+00  0.56876238115E+03  0.56876239012E+03  0.10100000352E+00 0.  1.
        3   -1    0    0  501    0  0.00000000000E+00  0.00000000000E+00 -0.17595527975E+04  0.17595528004E+04  0.10100000352E+00 0. -1.
    10030    2    1    2    0    0  0.00000000000E+00  0.00000000000E+00 -0.11907904163E+04  0.23283151905E+04  0.20007673055E+04 0.  0.
        4    1    3    3  502    0  0.22680326349E+03 -0.54399099561E+03  0.34526923217E+03  0.68306542821E+03  0.12699999809E+01 0.  1.
       -4    1    3    3    0  502 -0.22680326349E+03  0.54399099561E+03 -0.15360596485E+04  0.16452497623E+04  0.12699999809E+01 0. -1.
</event>
<event>
 5   0  0.5118981E-06  0.2000520E+04  0.7818609E-02  0.8606377E-01
       -2   -1    0    0    0  501  0.00000000000E+00  0.00000000000E+00  0.11798377030E+04  0.11798377030E+04  0.25500000920E-02 0. -1.
        2   -1    0    0  501    0  0.00000000000E+00  0.00000000000E+00 -0.84801523484E+03  0.84801523484E+03  0.25500000920E-02 0.  1.
    10030    2    1    2    0    0  0.00000000000E+00  0.00000000000E+00  0.33182246814E+03  0.20278529378E+04  0.20005202791E+04 0.  0.
        4    1    3    3  502    0 -0.15222739783E+03 -0.59381116271E+03 -0.63528891110E+03  0.88282415637E+03  0.12699999809E+01 0.  1.
       -4    1    3    3    0  502  0.15222739783E+03  0.59381116271E+03  0.96711137924E+03  0.11450287815E+04  0.12699999809E+01 0. -1.
</event>
<event>
 5   0  0.2356996E-06  0.1999829E+04  0.7818609E-02  0.8606700E-01
        1   -1    0    0  501    0  0.00000000000E+00  0.00000000000E+00  0.12522927559E+04  0.12522927559E+04  0.50400001928E-02 0. -1.
       -1   -1    0    0    0  501  0.00000000000E+00  0.00000000000E+00 -0.79839910339E+03  0.79839910341E+03  0.50400001928E-02 0.  1.
    10030    2    1    2    0    0  0.00000000000E+00  0.00000000000E+00  0.45389365251E+03  0.20506918593E+04  0.19998294063E+04 0.  0.
        4    1    3    3  502    0  0.68919832329E+02 -0.91480983718E+03 -0.18091383706E+03  0.93507133997E+03  0.12699999809E+01 0.  1.
       -4    1    3    3    0  502 -0.68919832329E+02  0.91480983718E+03  0.63480748957E+03  0.11156205194E+04  0.12699999809E+01 0. -1.
</event>
<event>
 5   0  0.5118981E-06  0.2000065E+04  0.7818609E-02  0.8606590E-01
       -2   -1    0    0    0  501  0.00000000000E+00  0.00000000000E+00  0.57781438723E+03  0.57781438724E+03  0.25500000920E-02 0.  1.
        2   -1    0    0  501    0  0.00000000000E+00  0.00000000000E+00 -0.17307713076E+04  0.17307713076E+04  0.25500000920E-02 0. -1.
    10030    2    1    2    0    0  0.00000000000E+00  0.00000000000E+00 -0.11529569203E+04  0.23085856948E+04  0.20000645615E+04 0.  0.
        4    1    3    3  502    0 -0.80276298226E+03 -0.20890964188E+03  0.68244640021E+02  0.83230438420E+03  0.12699999809E+01 0.  1.
       -4    1    3    3    0  502  0.80276298226E+03  0.20890964188E+03 -0.12212015604E+04  0.14762813106E+04  0.12699999809E+01 0. -1.
</event>
<event>
 5   0  0.2311520E-06  0.2001090E+04  0.7818609E-02  0.8606111E-01
        1   -1    0    0  501    0  0.00000000000E+00  0.00000000000E+00  0.10152816387E+04  0.10152816387E+04  0.50400001928E-02 0. -1.
       -1   -1    0    0    0  501  0.00000000000E+00  0.00000000000E+00 -0.98602225217E+03  0.98602225218E+03  0.50400001928E-02 0.  1.
    10030    2    1    2    0    0  0.00000000000E+00  0.00000000000E+00  0.29259386490E+02  0.20013038908E+04  0.20010899909E+04 0.  0.
        3    1    3    3  502    0 -0.92337543814E+03 -0.36268694245E+03 -0.11548517337E+03  0.99874964503E+03  0.10100000352E+00 0.  1.
       -3    1    3    3    0  502  0.92337543814E+03  0.36268694245E+03  0.14474455986E+03  0.10025542458E+04  0.10100000352E+00 0. -1.
</event>
<event>
 5   0  0.2356996E-06  0.1999941E+04  0.7818609E-02  0.8606648E-01
        1   -1    0    0  501    0  0.00000000000E+00  0.00000000000E+00  0.16297816927E+04  0.16297816928E+04  0.50400001928E-02 0. -1.
       -1   -1    0    0    0  501  0.00000000000E+00  0.00000000000E+00 -0.61354266211E+03  0.61354266213E+03  0.50400001928E-02 0.  1.
    10030    2    1    2    0    0  0.00000000000E+00  0.00000000000E+00  0.10162390306E+04  0.22433243549E+04  0.19999405976E+04 0.  0.
        4    1    3    3  502    0 -0.22839967955E+03  0.13497379754E+03 -0.57334540781E+03  0.63175225302E+03  0.12699999809E+01 0.  1.
       -4    1    3    3    0  502  0.22839967955E+03 -0.13497379754E+03  0.15895844385E+04  0.16115721019E+04  0.12699999809E+01 0. -1.
</event>
<event>
 5   0  0.2386776E-06  0.2003682E+04  0.7818609E-02  0.8604901E-01
       -1   -1    0    0    0  501  0.00000000000E+00  0.00000000000E+00  0.44601009782E+03  0.44601009785E+03  0.50400001928E-02 0.  1.
        1   -1    0    0  501    0  0.00000000000E+00  0.00000000000E+00 -0.22503638950E+04  0.22503638951E+04  0.50400001928E-02 0. -1.
    10030    2    1    2    0    0  0.00000000000E+00  0.00000000000E+00 -0.18043537972E+04  0.26963739929E+04  0.20036816324E+04 0.  0.
        2    1    3    3  502    0 -0.31435527100E+03 -0.55661156555E+03 -0.19402499218E+04  0.20428424879E+04  0.25500000920E-02 0. -1.
       -2    1    3    3    0  502  0.31435527100E+03  0.55661156555E+03  0.13589612460E+03  0.65353150497E+03  0.25500000920E-02 0.  1.
</event>
<event>
 5   0  0.4956214E-06  0.1999689E+04  0.7818609E-02  0.8606766E-01
       -2   -1    0    0    0  501  0.00000000000E+00  0.00000000000E+00  0.59750489062E+03  0.59750489062E+03  0.25500000920E-02 0. -1.
        2   -1    0    0  501    0  0.00000000000E+00  0.00000000000E+00 -0.16731065532E+04  0.16731065532E+04  0.25500000920E-02 0.  1.
    10030    2    1    2    0    0  0.00000000000E+00  0.00000000000E+00 -0.10756016626E+04  0.22706114438E+04  0.19996893240E+04 0.  0.
        1    1    3    3  502    0 -0.62075369533E+03 -0.39862401351E+03  0.22850498618E+03  0.77230226152E+03  0.50400001928E-02 0. -1.
       -1    1    3    3    0  502  0.62075369533E+03  0.39862401351E+03 -0.13041066488E+04  0.14983091823E+04  0.50400001928E-02 0.  1.
</event>
<event>
 5   0  0.2311520E-06  0.1999078E+04  0.7818609E-02  0.8607052E-01
       -1   -1    0    0    0  501  0.00000000000E+00  0.00000000000E+00  0.23640063197E+04  0.23640063197E+04  0.50400001928E-02 0. -1.
        1   -1    0    0  501    0  0.00000000000E+00  0.00000000000E+00 -0.42262075243E+03  0.42262075246E+03  0.50400001928E-02 0.  1.
    10030    2    1    2    0    0  0.00000000000E+00  0.00000000000E+00  0.19413855672E+04  0.27866270721E+04  0.19990779171E+04 0.  0.
        3    1    3    3  502    0  0.47342509085E+03 -0.17267815699E+02 -0.25618557971E+03  0.53857270220E+03  0.10100000352E+00 0.  1.
       -3    1    3    3    0  502 -0.47342509085E+03  0.17267815699E+02  0.21975711469E+04  0.22480543699E+04  0.10100000352E+00 0. -1.
</event>
<event>
 5   0  0.5030137E-06  0.2001688E+04  0.7818609E-02  0.8605832E-01
        2   -1    0    0  501    0  0.00000000000E+00  0.00000000000E+00  0.12233764997E+04  0.12233764997E+04  0.25500000920E-02 0.  1.
       -2   -1    0    0    0  501  0.00000000000E+00  0.00000000000E+00 -0.81879030291E+03  0.81879030292E+03  0.25500000920E-02 0. -1.
    10030    2    1    2    0    0  0.00000000000E+00  0.00000000000E+00  0.40458619677E+03  0.20421668026E+04  0.20016881023E+04 0.  0.
        3    1    3    3  502    0 -0.30929586880E+03 -0.81620565323E+03  0.70192419062E+03  0.11200683829E+04  0.10100000352E+00 0. -1.
       -3    1    3    3    0  502  0.30929586880E+03  0.81620565323E+03 -0.29733799385E+03  0.92209841970E+03  0.10100000352E+00 0.  1.
</event>
<event>
 5   0  0.5129100E-06  0.2006214E+04  0.7818609E-02  0.8603721E-01
        2   -1    0    0  501    0  0.00000000000E+00  0.00000000000E+00  0.84471316701E+03  0.84471316701E+03  0.25500000920E-02 0.  1.
       -2   -1    0    0    0  501  0.00000000000E+00  0.00000000000E+00 -0.11912016894E+04  0.11912016894E+04  0.25500000920E-02 0. -1.
    10030    2    1    2    0    0  0.00000000000E+00  0.00000000000E+00 -0.34648852242E+03  0.20359148564E+04  0.20062140979E+04 0.  0.
        2    1    3    3  502    0  0.46935497587E+03 -0.17115698783E+03  0.70948095069E+03  0.86772808371E+03  0.25500000920E-02 0.  1.
       -2    1    3    3    0  502 -0.46935497587E+03  0.17115698783E+03 -0.10559694731E+04  0.11681867727E+04  0.25500000920E-02 0. -1.
</event>
<event>
 5   0  0.5118981E-06  0.2000202E+04  0.7818609E-02  0.8606526E-01
        2   -1    0    0  501    0  0.00000000000E+00  0.00000000000E+00  0.11945637210E+04  0.11945637210E+04  0.25500000920E-02 0. -1.
       -2   -1    0    0    0  501  0.00000000000E+00  0.00000000000E+00 -0.83729457252E+03  0.83729457253E+03  0.25500000920E-02 0.  1.
    10030    2    1    2    0    0  0.00000000000E+00  0.00000000000E+00  0.35726914851E+03  0.20318582936E+04  0.20002017100E+04 0.  0.
        4    1    3    3  502    0  0.74979112921E+03  0.26692031996E+03 -0.43656311634E+03  0.90775666458E+03  0.12699999809E+01 0.  1.
       -4    1    3    3    0  502 -0.74979112921E+03 -0.26692031996E+03  0.79383226485E+03  0.11241016290E+04  0.12699999809E+01 0. -1.
</event>
<event>
 5   0  0.2356996E-06  0.1995640E+04  0.7818609E-02  0.8608662E-01
       -1   -1    0    0    0  501  0.00000000000E+00  0.00000000000E+00  0.41291415352E+03  0.41291415355E+03  0.50400001928E-02 0. -1.
        1   -1    0    0  501    0  0.00000000000E+00  0.00000000000E+00 -0.24112643233E+04  0.24112643233E+04  0.50400001928E-02 0.  1.
    10030    2    1    2    0    0  0.00000000000E+00  0.00000000000E+00 -0.19983501697E+04  0.28241784768E+04  0.19956404155E+04 0.  0.
        4    1    3    3  502    0 -0.57004381335E+03  0.40877254395E+03  0.50986639733E+01  0.70147883154E+03  0.12699999809E+01 0. -1.
       -4    1    3    3    0  502  0.57004381335E+03 -0.40877254395E+03 -0.20034488337E+04  0.21226996453E+04  0.12699999809E+01 0.  1.
</event>
<event>
 5   0  0.2313821E-06  0.1999640E+04  0.7818609E-02  0.8606789E-01
        1   -1    0    0  501    0  0.00000000000E+00  0.00000000000E+00  0.12663165358E+04  0.12663165358E+04  0.50400001928E-02 0.  1.
       -1   -1    0    0    0  501  0.00000000000E+00  0.00000000000E+00 -0.78940792864E+03  0.78940792865E+03  0.50400001928E-02 0. -1.
    10030    2    1    2    0    0  0.00000000000E+00  0.00000000000E+00  0.47690860715E+03  0.20557244645E+04  0.19996402812E+04 0.  0.
        1    1    3    3  502    0  0.11795003348E+03  0.44395048142E+03 -0.67450484883E+03  0.81606435498E+03  0.50400001928E-02 0. -1.
       -1    1    3    3    0  502 -0.11795003348E+03 -0.44395048142E+03  0.11514134560E+04  0.12396601095E+04  0.50400001928E-02 0.  1.
</event>
<event>
 5   0  0.5118981E-06  0.2000016E+04  0.7818609E-02  0.8606613E-01
        2   -1    0    0  501    0  0.00000000000E+00  0.00000000000E+00  0.12428727327E+04  0.12428727327E+04  0.25500000920E-02 0.  1.
       -2   -1    0    0    0  501  0.00000000000E+00  0.00000000000E+00 -0.80460056944E+03  0.80460056944E+03  0.25500000920E-02 0. -1.
    10030    2    1    2    0    0  0.00000000000E+00  0.00000000000E+00  0.43827216325E+03  0.20474733021E+04  0.20000161084E+04 0.  0.
        4    1    3    3  502    0  0.96006715787E+03 -0.24025555311E+03  0.72336079870E+02  0.99231335765E+03  0.12699999809E+01 0. -1.
       -4    1    3    3    0  502 -0.96006715787E+03  0.24025555311E+03  0.36593608338E+03  0.10551599445E+04  0.12699999809E+01 0.  1.
</event>
<event>
 5   0  0.5251252E-06  0.1986680E+04  0.7818609E-02  0.8612874E-01
        2   -1    0    0  501    0  0.00000000000E+00  0.00000000000E+00  0.92719394132E+03  0.92719394132E+03  0.25500000920E-02 0.  1.
       -2   -1    0    0    0  501  0.00000000000E+00  0.00000000000E+00 -0.10642046199E+04  0.10642046199E+04  0.25500000920E-02 0. -1.
    10030    2    1    2    0    0  0.00000000000E+00  0.00000000000E+00 -0.13701067862E+03  0.19913985613E+04  0.19866797185E+04 0.  0.
        5    1    3    3  502    0  0.17793444698E+03 -0.45644481615E+03  0.79766487669E+03  0.93610570082E+03  0.46999998093E+01 0.  1.
       -5    1    3    3    0  502 -0.17793444698E+03  0.45644481615E+03 -0.93467555531E+03  0.10552928604E+04  0.46999998093E+01 0. -1.
</event>
<event>
 5   0  0.2386776E-06  0.1999788E+04  0.7818609E-02  0.8606720E-01
        1   -1    0    0  501    0  0.00000000000E+00  0.00000000000E+00  0.15167870849E+04  0.15167870849E+04  0.50400001928E-02 0. -1.
       -1   -1    0    0    0  501  0.00000000000E+00  0.00000000000E+00 -0.65914837281E+03  0.65914837283E+03  0.50400001928E-02 0.  1.
    10030    2    1    2    0    0  0.00000000000E+00  0.00000000000E+00  0.85763871210E+03  0.21759354577E+04  0.19997877277E+04 0.  0.
        2    1    3    3  502    0 -0.60287377676E+03  0.21526146054E+03 -0.40694858113E+03  0.75855219648E+03  0.25500000920E-02 0.  1.
       -2    1    3    3    0  502  0.60287377676E+03 -0.21526146054E+03  0.12645872932E+04  0.14173832613E+04  0.25500000920E-02 0. -1.
</event>
<event>
 5   0  0.2311520E-06  0.2000256E+04  0.7818609E-02  0.8606501E-01
        1   -1    0    0  501    0  0.00000000000E+00  0.00000000000E+00  0.15697984706E+04  0.15697984706E+04  0.50400001928E-02 0.  1.
       -1   -1    0    0    0  501  0.00000000000E+00  0.00000000000E+00 -0.63718746108E+03  0.63718746110E+03  0.50400001928E-02 0. -1.
    10030    2    1    2    0    0  0.00000000000E+00  0.00000000000E+00  0.93261100956E+03  0.22069859317E+04  0.20002558856E+04 0.  0.
        3    1    3    3  502    0 -0.69729854919E+03 -0.92232202122E+02  0.12507908428E+04  0.14349946998E+04  0.10100000352E+00 0.  1.
       -3    1    3    3    0  502  0.69729854919E+03  0.92232202122E+02 -0.31817983320E+03  0.77199123199E+03  0.10100000352E+00 0. -1.
</event>
<event>
 5   0  0.5129100E-06  0.2000741E+04  0.7818609E-02  0.8606274E-01
       -2   -1    0    0    0  501  0.00000000000E+00  0.00000000000E+00  0.74892793784E+03  0.74892793784E+03  0.25500000920E-02 0.  1.
        2   -1    0    0  501    0  0.00000000000E+00  0.00000000000E+00 -0.13362319589E+04  0.13362319589E+04  0.25500000920E-02 0. -1.
    10030    2    1    2    0    0  0.00000000000E+00  0.00000000000E+00 -0.58730402109E+03  0.20851598968E+04  0.20007413081E+04 0.  0.
        2    1    3    3  502    0  0.39237099176E+03  0.27774494567E+03  0.62065789312E+03  0.78505634850E+03  0.25500000920E-02 0.  1.
       -2    1    3    3    0  502 -0.39237099176E+03 -0.27774494567E+03 -0.12079619142E+04  0.13001035483E+04  0.25500000920E-02 0. -1.
</event>
<event>
 5   0  0.5118981E-06  0.2000650E+04  0.7818609E-02  0.8606317E-01
        2   -1    0    0  501    0  0.00000000000E+00  0.00000000000E+00  0.10801811287E+04  0.10801811287E+04  0.25500000920E-02 0. -1.
       -2   -1    0    0    0  501  0.00000000000E+00  0.00000000000E+00 -0.92637273121E+03  0.92637273121E+03  0.25500000920E-02 0.  1.
    10030    2    1    2    0    0  0.00000000000E+00  0.00000000000E+00  0.15380839746E+03  0.20065538599E+04  0.20006502367E+04 0.  0.
        4    1    3    3  502    0 -0.19139845212E+03  0.98099966030E+03  0.36102110707E+02  0.10001493270E+04  0.12699999809E+01 0.  1.
       -4    1    3    3    0  502  0.19139845212E+03 -0.98099966030E+03  0.11770628675E+03  0.10064045329E+04  0.12699999809E+01 0. -1.
</event>
<event>
 5   0  0.2313821E-06  0.2000588E+04  0.7818609E-02  0.8606346E-01
       -1   -1    0    0    0  501  0.00000000000E+00  0.00000000000E+00  0.10378086677E+04  0.10378086678E+04  0.50400001928E-02 0. -1.
        1   -1    0    0  501    0  0.00000000000E+00  0.00000000000E+00 -0.96413574368E+03  0.96413574369E+03  0.50400001928E-02 0.  1.
    10030    2    1    2    0    0  0.00000000000E+00  0.00000000000E+00  0.73672924067E+02  0.20019444115E+04  0.20005883452E+04 0.  0.
        1    1    3    3  502    0 -0.38438939864E+03  0.98421721939E+02  0.95568889854E+03  0.10347866041E+04  0.50400001928E-02 0. -1.
       -1    1    3    3    0  502  0.38438939864E+03 -0.98421721939E+02 -0.88201597447E+03  0.96715780739E+03  0.50400001928E-02 0.  1.
</event>
<event>
 5   0  0.2313821E-06  0.1999925E+04  0.7818609E-02  0.8606656E-01
        1   -1    0    0  501    0  0.00000000000E+00  0.00000000000E+00  0.11547824438E+04  0.11547824438E+04  0.50400001928E-02 0.  1.
       -1   -1    0    0    0  501  0.00000000000E+00  0.00000000000E+00 -0.86589920903E+03  0.86589920904E+03  0.50400001928E-02 0. -1.
    10030    2    1    2    0    0  0.00000000000E+00  0.00000000000E+00  0.28888323478E+03  0.20206816529E+04  0.19999252033E+04 0.  0.
        1    1    3    3  502    0  0.91904157884E+03  0.87826766606E+02  0.53258252994E+03  0.10658307163E+04  0.50400001928E-02 0. -1.
       -1    1    3    3    0  502 -0.91904157884E+03 -0.87826766606E+02 -0.24369929516E+03  0.95485093656E+03  0.50400001928E-02 0.  1.
</event>
<event>
 5   0  0.5030137E-06  0.2000193E+04  0.7818609E-02  0.8606531E-01
        2   -1    0    0  501    0  0.00000000000E+00  0.00000000000E+00  0.16084259082E+04  0.16084259082E+04  0.25500000920E-02 0. -1.
       -2   -1    0    0    0  501  0.00000000000E+00  0.00000000000E+00 -0.62184574465E+03  0.62184574466E+03  0.25500000920E-02 0.  1.
    10030    2    1    2    0    0  0.00000000000E+00  0.00000000000E+00  0.98658016351E+03  0.22302716528E+04  0.20001927973E+04 0.  0.
        3    1    3    3  502    0 -0.34278727889E+03 -0.92890480639E+03  0.65028962953E+03  0.11845859489E+04  0.10100000352E+00 0. -1.
       -3    1    3    3    0  502  0.34278727889E+03  0.92890480639E+03  0.33629053398E+03  0.10456857039E+04  0.10100000352E+00 0.  1.
</event>
<event>
 5   0  0.2356996E-06  0.1998905E+04  0.7818609E-02  0.8607133E-01
        1   -1    0    0  501    0  0.00000000000E+00  0.00000000000E+00  0.15469821687E+04  0.15469821687E+04  0.50400001928E-02 0.  1.
       -1   -1    0    0    0  501  0.00000000000E+00  0.00000000000E+00 -0.64571205439E+03  0.64571205441E+03  0.50400001928E-02 0. -1.
    10030    2    1    2    0    0  0.00000000000E+00  0.00000000000E+00  0.90127011426E+03  0.21926942231E+04  0.19989047344E+04 0.  0.
        4    1    3    3  502    0 -0.32968349003E+03  0.29235155317E+03  0.14346790674E+04  0.15008218660E+04  0.12699999809E+01 0.  1.
       -4    1    3    3    0  502  0.32968349003E+03 -0.29235155317E+03 -0.53340895313E+03  0.69187235703E+03  0.12699999809E+01 0. -1.
</event>
<event>
 5   0  0.2311520E-06  0.2000135E+04  0.7818609E-02  0.8606558E-01
        1   -1    0    0  501    0  0.00000000000E+00  0.00000000000E+00  0.70808582027E+03  0.70808582028E+03  0.50400001928E-02 0. -1.
       -1   -1    0    0    0  501  0.00000000000E+00  0.00000000000E+00 -0.14124486110E+04  0.14124486110E+04  0.50400001928E-02 0.  1.
    10030    2    1    2    0    0  0.00000000000E+00  0.00000000000E+00 -0.70436279077E+03  0.21205344313E+04  0.20001348288E+04 0.  0.
        3    1    3    3  502    0 -0.37375786718E+03  0.79871261642E+03 -0.85227252039E+03  0.12263789162E+04  0.10100000352E+00 0.  1.
       -3    1    3    3    0  502  0.37375786718E+03 -0.79871261642E+03  0.14790972962E+03  0.89415551512E+03  0.10100000352E+00 0. -1.
</event>
<event>
 5   0  0.2313821E-06  0.2006056E+04  0.7818609E-02  0.8603795E-01
       -1   -1    0    0    0  501  0.00000000000E+00  0.00000000000E+00  0.83535129595E+03  0.83535129596E+03  0.50400001928E-02 0. -1.
        1   -1    0    0  501    0  0.00000000000E+00  0.00000000000E+00 -0.12043612359E+04  0.12043612359E+04  0.50400001928E-02 0.  1.
    10030    2    1    2    0    0  0.00000000000E+00  0.00000000000E+00 -0.36900993994E+03  0.20397125319E+04  0.20060555518E+04 0.  0.
        1    1    3    3  502    0 -0.87716728515E+03  0.11381376029E+03 -0.66539750178E+03  0.11068558414E+04  0.50400001928E-02 0.  1.
       -1    1    3    3    0  502  0.87716728515E+03 -0.11381376029E+03  0.29638756184E+03  0.93285669050E+03  0.50400001928E-02 0. -1.
</event>
<event>
 5   0  0.2311520E-06  0.1999499E+04  0.7818609E-02  0.8606855E-01
       -1   -1    0    0    0  501  0.00000000000E+00  0.00000000000E+00  0.51731969462E+03  0.51731969465E+03  0.50400001928E-02 0.  1.
        1   -1    0    0  501    0  0.00000000000E+00  0.00000000000E+00 -0.19320725441E+04  0.19320725441E+04  0.50400001928E-02 0. -1.
    10030    2    1    2    0    0  0.00000000000E+00  0.00000000000E+00 -0.14147528495E+04  0.24493922388E+04  0.19994991158E+04 0.  0.
        3    1    3    3  502    0 -0.71887203161E+03  0.69388326070E+03 -0.75065546816E+03  0.12496938103E+04  0.10100000352E+00 0. -1.
       -3    1    3    3    0  502  0.71887203161E+03 -0.69388326070E+03 -0.66409738135E+03  0.11996984285E+04  0.10100000352E+00 0.  1.
</event>
<event>
 5   0  0.1777750E-06  0.2000383E+04  0.7818609E-02  0.8606442E-01
        4   -1    0    0  501    0  0.00000000000E+00  0.00000000000E+00  0.70167484570E+03  0.70167599502E+03  0.12699999809E+01 0. -1.
       -4   -1    0    0    0  501  0.00000000000E+00  0.00000000000E+00 -0.14257042076E+04  0.14257047733E+04  0.12699999809E+01 0.  1.
    10030    2    1    2    0    0  0.00000000000E+00  0.00000000000E+00 -0.72402936190E+03  0.21273807683E+04  0.20003825675E+04 0.  0.
        3    1    3    3  502    0 -0.28642612784E+03 -0.32121070147E+03 -0.13222005057E+04  0.13904784892E+04  0.10100000352E+00 0.  1.
       -3    1    3    3    0  502  0.28642612784E+03  0.32121070147E+03  0.59817114379E+03  0.73690227908E+03  0.10100000352E+00 0. -1.
</event>
<event>
 5   0  0.2356996E-06  0.1999530E+04  0.7818609E-02  0.8606840E-01
        1   -1    0    0  501    0  0.00000000000E+00  0.00000000000E+00  0.19701024979E+04  0.19701024979E+04  0.50400001928E-02 0. -1.
       -1   -1    0    0    0  501  0.00000000000E+00  0.00000000000E+00 -0.50734923848E+03  0.50734923850E+03  0.50400001928E-02 0.  1.
    10030    2    1    2    0    0  0.00000000000E+00  0.00000000000E+00  0.14627532594E+04  0.24774517364E+04  0.19995299468E+04 0.  0.
        4    1    3    3  502    0  0.54365080508E+03  0.67189913865E+03  0.10874899123E+03  0.87110998523E+03  0.12699999809E+01 0.  1.
       -4    1    3    3    0  502 -0.54365080508E+03 -0.67189913865E+03  0.13540042682E+04  0.16063417511E+04  0.12699999809E+01 0. -1.
</event>
<event>
 5   0  0.2313821E-06  0.2000090E+04  0.7818609E-02  0.8606578E-01
       -1   -1    0    0    0  501  0.00000000000E+00  0.00000000000E+00  0.42550990943E+03  0.42550990946E+03  0.50400001928E-02 0. -1.
        1   -1    0    0  501    0  0.00000000000E+00  0.00000000000E+00 -0.23503340402E+04  0.23503340402E+04  0.50400001928E-02 0.  1.
    10030    2    1    2    0    0  0.00000000000E+00  0.00000000000E+00 -0.19248241307E+04  0.27758439496E+04  0.20000904226E+04 0.  0.
        1    1    3    3  502    0  0.16487919557E+00  0.87452582076E+03 -0.16356239186E+04  0.18547401547E+04  0.50400001928E-02 0.  1.
       -1    1    3    3    0  502 -0.16487919557E+00 -0.87452582076E+03 -0.28920021219E+03  0.92110379498E+03  0.50400001928E-02 0. -1.
</event>
<event>
 5   0  0.2311520E-06  0.2000509E+04  0.7818609E-02  0.8606383E-01
       -1   -1    0    0    0  501  0.00000000000E+00  0.00000000000E+00  0.91665106863E+03  0.91665106865E+03  0.50400001928E-02 0. -1.
        1   -1    0    0  501    0  0.00000000000E+00  0.00000000000E+00 -0.10914831602E+04  0.10914831602E+04  0.50400001928E-02 0.  1.
    10030    2    1    2    0    0  0.00000000000E+00  0.00000000000E+00 -0.17483209158E+03  0.20081342289E+04  0.20005091404E+04 0.  0.
        3    1    3    3  502    0 -0.79755363762E+02  0.21606440597E+03 -0.10645040029E+04  0.10891343020E+04  0.10100000352E+00 0.  1.
       -3    1    3    3    0  502  0.79755363762E+02 -0.21606440597E+03  0.88967191129E+03  0.91899992683E+03  0.10100000352E+00 0. -1.
</event>
<event>
 5   0  0.5251252E-06  0.2000134E+04  0.7818609E-02  0.8606558E-01
        2   -1    0    0  501    0  0.00000000000E+00  0.00000000000E+00  0.11735359951E+04  0.11735359951E+04  0.25500000920E-02 0. -1.
       -2   -1    0    0    0  501  0.00000000000E+00  0.00000000000E+00 -0.85223988917E+03  0.85223988917E+03  0.25500000920E-02 0.  1.
    10030    2    1    2    0    0  0.00000000000E+00  0.00000000000E+00  0.32129610597E+03  0.20257758843E+04  0.20001341819E+04 0.  0.
        5    1    3    3  502    0 -0.53653313407E+03  0.52386604219E+03 -0.50950567820E+03  0.90659889711E+03  0.46999998093E+01 0.  1.
       -5    1    3    3    0  502  0.53653313407E+03 -0.52386604219E+03  0.83080178417E+03  0.11191769872E+04  0.46999998093E+01 0. -1.
</event>
<event>
 5   0  0.5118981E-06  0.1999978E+04  0.7818609E-02  0.8606631E-01
       -2   -1    0    0    0  501  0.00000000000E+00  0.00000000000E+00  0.44244926937E+03  0.44244926938E+03  0.25500000920E-02 0. -1.
        2   -1    0    0  501    0  0.00000000000E+00  0.00000000000E+00 -0.22600971195E+04  0.22600971195E+04  0.25500000920E-02 0.  1.
    10030    2    1    2    0    0  0.00000000000E+00  0.00000000000E+00 -0.18176478502E+04  0.27025463889E+04  0.19999783191E+04 0.  0.
        4    1    3    3  502    0 -0.91812156806E+03 -0.29516004220E+03 -0.55153656561E+03  0.11109729341E+04  0.12699999809E+01 0. -1.
       -4    1    3    3    0  502  0.91812156806E+03  0.29516004220E+03 -0.12661112846E+04  0.15915734548E+04  0.12699999809E+01 0.  1.
</event>
<event>
 5   0  0.2379743E-06  0.2000463E+04  0.7818609E-02  0.8606404E-01
        1   -1    0    0  501    0  0.00000000000E+00  0.00000000000E+00  0.28230979670E+04  0.28230979671E+04  0.50400001928E-02 0.  1.
       -1   -1    0    0    0  501  0.00000000000E+00  0.00000000000E+00 -0.35438497412E+03  0.35438497416E+03  0.50400001928E-02 0. -1.
    10030    2    1    2    0    0  0.00000000000E+00  0.00000000000E+00  0.24687129929E+04  0.31774829412E+04  0.20004634464E+04 0.  0.
        5    1    3    3  502    0 -0.98522202655E+03 -0.17068851386E+03  0.12746774014E+04  0.16200683868E+04  0.46999998093E+01 0. -1.
       -5    1    3    3    0  502  0.98522202655E+03  0.17068851386E+03  0.11940355915E+04  0.15574145544E+04  0.46999998093E+01 0.  1.
</event>
<event>
 5   0  0.5118981E-06  0.2000185E+04  0.7818609E-02  0.8606534E-01
       -2   -1    0    0    0  501  0.00000000000E+00  0.00000000000E+00  0.92912917254E+03  0.92912917255E+03  0.25500000920E-02 0. -1.
        2   -1    0    0  501    0  0.00000000000E+00  0.00000000000E+00 -0.10764757931E+04  0.10764757931E+04  0.25500000920E-02 0.  1.
    10030    2    1    2    0    0  0.00000000000E+00  0.00000000000E+00 -0.14734662059E+03  0.20056049657E+04  0.20001850544E+04 0.  0.
        4    1    3    3  502    0 -0.79825396303E+03  0.39791065716E+03  0.37992530789E+03  0.96947776305E+03  0.12699999809E+01 0. -1.
       -4    1    3    3    0  502  0.79825396303E+03 -0.39791065716E+03 -0.52727192848E+03  0.10361272026E+04  0.12699999809E+01 0.  1.
</event>
<event>
 5   0  0.2311520E-06  0.1999964E+04  0.7818609E-02  0.8606637E-01
       -1   -1    0    0    0  501  0.00000000000E+00  0.00000000000E+00  0.59382186670E+03  0.59382186672E+03  0.50400001928E-02 0. -1.
        1   -1    0    0  501    0  0.00000000000E+00  0.00000000000E+00 -0.16839460888E+04  0.16839460888E+04  0.50400001928E-02 0.  1.
    10030    2    1    2    0    0  0.00000000000E+00  0.00000000000E+00 -0.10901242221E+04  0.22777679555E+04  0.19999640096E+04 0.  0.
        3    1    3    3  502    0 -0.85173787080E+03  0.37257445966E+03 -0.96459790029E+03  0.13396709477E+04  0.10100000352E+00 0.  1.
       -3    1    3    3    0  502  0.85173787080E+03 -0.37257445966E+03 -0.12552632184E+03  0.93809700789E+03  0.10100000352E+00 0. -1.
</event>
<event>
 5   0  0.5129100E-06  0.1997511E+04  0.7818609E-02  0.8607785E-01
        2   -1    0    0  501    0  0.00000000000E+00  0.00000000000E+00  0.18207895193E+04  0.18207895193E+04  0.25500000920E-02 0. -1.
       -2   -1    0    0    0  501  0.00000000000E+00  0.00000000000E+00 -0.54784635536E+03  0.54784635537E+03  0.25500000920E-02 0.  1.
    10030    2    1    2    0    0  0.00000000000E+00  0.00000000000E+00  0.12729431639E+04  0.23686358746E+04  0.19975113537E+04 0.  0.
        2    1    3    3  502    0 -0.75382078309E+02  0.89837001801E+02  0.18125968287E+04  0.18163866351E+04  0.25500000920E-02 0. -1.
       -2    1    3    3    0  502  0.75382078309E+02 -0.89837001801E+02 -0.53965366482E+03  0.55224923955E+03  0.25500000920E-02 0.  1.
</event>
<event>
 5   0  0.4956214E-06  0.1999413E+04  0.7818609E-02  0.8606895E-01
        2   -1    0    0  501    0  0.00000000000E+00  0.00000000000E+00  0.11741439450E+04  0.11741439450E+04  0.25500000920E-02 0. -1.
       -2   -1    0    0    0  501  0.00000000000E+00  0.00000000000E+00 -0.85118468389E+03  0.85118468390E+03  0.25500000920E-02 0.  1.
    10030    2    1    2    0    0  0.00000000000E+00  0.00000000000E+00  0.32295926115E+03  0.20253286289E+04  0.19994132566E+04 0.  0.
        1    1    3    3  502    0 -0.26846119117E+03  0.15061081565E+03 -0.80198377480E+03  0.85903026956E+03  0.50400001928E-02 0.  1.
       -1    1    3    3    0  502  0.26846119117E+03 -0.15061081565E+03  0.11249430359E+04  0.11662983594E+04  0.50400001928E-02 0. -1.
</event>
<event>
 5   0  0.2356996E-06  0.1984817E+04  0.7818609E-02  0.8613752E-01
        1   -1    0    0  501    0  0.00000000000E+00  0.00000000000E+00  0.17073421428E+04  0.17073421428E+04  0.50400001928E-02 0.  1.
       -1   -1    0    0    0  501  0.00000000000E+00  0.00000000000E+00 -0.57684647497E+03  0.57684647499E+03  0.50400001928E-02 0. -1.
    10030    2    1    2    0    0  0.00000000000E+00  0.00000000000E+00  0.11304956678E+04  0.22841886178E+04  0.19848166632E+04 0.  0.
        4    1    3    3  502    0  0.33783913043E+03  0.28544624602E+02 -0.50812815276E+03  0.61085669856E+03  0.12699999809E+01 0. -1.
       -4    1    3    3    0  502 -0.33783913043E+03 -0.28544624602E+02  0.16386238206E+04  0.16733319192E+04  0.12699999809E+01 0.  1.
</event>
<event>
 5   0  0.4956214E-06  0.2000250E+04  0.7818609E-02  0.8606504E-01
        2   -1    0    0  501    0  0.00000000000E+00  0.00000000000E+00  0.16013886058E+04  0.16013886058E+04  0.25500000920E-02 0. -1.
       -2   -1    0    0    0  501  0.00000000000E+00  0.00000000000E+00 -0.62461413207E+03  0.62461413208E+03  0.25500000920E-02 0.  1.
    10030    2    1    2    0    0  0.00000000000E+00  0.00000000000E+00  0.97677447368E+03  0.22260027378E+04  0.20002499385E+04 0.  0.
        1    1    3    3  502    0 -0.87933092161E+03  0.47217634035E+03  0.55944145073E+03  0.11441801007E+04  0.50400001928E-02 0. -1.
       -1    1    3    3    0  502  0.87933092161E+03 -0.47217634035E+03  0.41733302296E+03  0.10818226371E+04  0.50400001928E-02 0.  1.
</event>
<event>
 5   0  0.2386776E-06  0.1999655E+04  0.7818609E-02  0.8606782E-01
        1   -1    0    0  501    0  0.00000000000E+00  0.00000000000E+00  0.11570821263E+04  0.11570821263E+04  0.50400001928E-02 0. -1.
       -1   -1    0    0    0  501  0.00000000000E+00  0.00000000000E+00 -0.86394474682E+03  0.86394474683E+03  0.50400001928E-02 0.  1.
    10030    2    1    2    0    0  0.00000000000E+00  0.00000000000E+00  0.29313737949E+03  0.20210268732E+04  0.19996549949E+04 0.  0.
        2    1    3    3  502    0 -0.96065513262E+03  0.14246079367E+03 -0.93672589463E+02  0.97566793305E+03  0.25500000920E-02 0.  1.
       -2    1    3    3    0  502  0.96065513262E+03 -0.14246079367E+03  0.38680996896E+03  0.10453589401E+04  0.25500000920E-02 0. -1.
</event>
<event>
 5   0  0.5118981E-06  0.2000245E+04  0.7818609E-02  0.8606506E-01
        2   -1    0    0  501    0  0.00000000000E+00  0.00000000000E+00  0.18013137482E+04  0.18013137482E+04  0.25500000920E-02 0.  1.
       -2   -1    0    0    0  501  0.00000000000E+00  0.00000000000E+00 -0.55528625321E+03  0.55528625321E+03  0.25500000920E-02 0. -1.
    10030    2    1    2    0    0  0.00000000000E+00  0.00000000000E+00  0.12460274950E+04  0.23566000014E+04  0.20002447471E+04 0.  0.
        4    1    3    3  502    0 -0.27212080444E+03  0.39622215858E+03  0.16563050483E+04  0.17246419214E+04  0.12699999809E+01 0.  1.
       -4    1    3    3    0  502  0.27212080444E+03 -0.39622215858E+03 -0.41027755335E+03  0.63195807997E+03  0.12699999809E+01 0. -1.
</event>
<event>
 5   0  0.5030137E-06  0.1996589E+04  0.7818609E-02  0.8608217E-01
        2   -1    0    0  501    0  0.00000000000E+00  0.00000000000E+00  0.95864423765E+03  0.95864423765E+03  0.25500000920E-02 0. -1.
       -2   -1    0    0    0  501  0.00000000000E+00  0.00000000000E+00 -0.10395842132E+04  0.10395842132E+04  0.25500000920E-02 0.  1.
    10030    2    1    2    0    0  0.00000000000E+00  0.00000000000E+00 -0.80939975593E+02  0.19982284509E+04  0.19965885060E+04 0.  0.
        3    1    3    3  502    0  0.33497795573E+03  0.48600407159E+03  0.76528832088E+03  0.96647628667E+03  0.10100000352E+00 0. -1.
       -3    1    3    3    0  502 -0.33497795573E+03 -0.48600407159E+03 -0.84622829647E+03  0.10317521642E+04  0.10100000352E+00 0.  1.
</event>
<event>
 5   0  0.2386776E-06  0.1999598E+04  0.7818609E-02  0.8606809E-01
       -1   -1    0    0    0  501  0.00000000000E+00  0.00000000000E+00  0.96378688542E+03  0.96378688543E+03  0.50400001928E-02 0. -1.
        1   -1    0    0  501    0  0.00000000000E+00  0.00000000000E+00 -0.10371565892E+04  0.10371565892E+04  0.50400001928E-02 0.  1.
    10030    2    1    2    0    0  0.00000000000E+00  0.00000000000E+00 -0.73369703765E+02  0.20009434746E+04  0.19995978784E+04 0.  0.
        2    1    3    3  502    0  0.35690371135E+03  0.37333389912E+03 -0.89332135331E+03  0.10318825029E+04  0.25500000920E-02 0.  1.
       -2    1    3    3    0  502 -0.35690371135E+03 -0.37333389912E+03  0.81995164955E+03  0.96906097177E+03  0.25500000920E-02 0. -1.
</event>
<event>
 5   0  0.2356996E-06  0.2004192E+04  0.7818609E-02  0.8604663E-01
       -1   -1    0    0    0  501  0.00000000000E+00  0.00000000000E+00  0.60047211109E+03  0.60047211111E+03  0.50400001928E-02 0.  1.
        1   -1    0    0  501    0  0.00000000000E+00  0.00000000000E+00 -0.16723442495E+04  0.16723442495E+04  0.50400001928E-02 0. -1.
    10030    2    1    2    0    0  0.00000000000E+00  0.00000000000E+00 -0.10718721384E+04  0.22728163606E+04  0.20041916894E+04 0.  0.
        4    1    3    3  502    0  0.28634329892E+03 -0.74176499419E+03  0.15571775600E+03  0.81022060198E+03  0.12699999809E+01 0.  1.
       -4    1    3    3    0  502 -0.28634329892E+03  0.74176499419E+03 -0.12275898944E+04  0.14625957587E+04  0.12699999809E+01 0. -1.
</event>
<event>
 5   0  0.2311520E-06  0.2000279E+04  0.7818609E-02  0.8606490E-01
       -1   -1    0    0    0  501  0.00000000000E+00  0.00000000000E+00  0.11397655190E+04  0.11397655190E+04  0.50400001928E-02 0.  1.
        1   -1    0    0  501    0  0.00000000000E+00  0.00000000000E+00 -0.87761790810E+03  0.87761790811E+03  0.50400001928E-02 0. -1.
    10030    2    1    2    0    0  0.00000000000E+00  0.00000000000E+00  0.26214761086E+03  0.20173834271E+04  0.20002786111E+04 0.  0.
        3    1    3    3  502    0  0.45719646349E+03  0.58264266089E+03  0.80896544475E+03  0.10967799130E+04  0.10100000352E+00 0.  1.
       -3    1    3    3    0  502 -0.45719646349E+03 -0.58264266089E+03 -0.54681783389E+03  0.92060351410E+03  0.10100000352E+00 0. -1.
</event>
<event>
 5   0  0.2311520E-06  0.2000256E+04  0.7818609E-02  0.8606501E-01
        1   -1    0    0  501    0  0.00000000000E+00  0.00000000000E+00  0.85030272833E+03  0.85030272834E+03  0.50400001928E-02 0. -1.
       -1   -1    0    0    0  501  0.00000000000E+00  0.00000000000E+00 -0.11763532388E+04  0.11763532388E+04  0.50400001928E-02 0.  1.
    10030    2    1    2    0    0  0.00000000000E+00  0.00000000000E+00 -0.32605051051E+03  0.20266559672E+04  0.20002563521E+04 0.  0.
        3    1    3    3  502    0  0.35030525645E+03  0.93168986008E+03 -0.26176186759E+03  0.10292128320E+04  0.10100000352E+00 0.  1.
       -3    1    3    3    0  502 -0.35030525645E+03 -0.93168986008E+03 -0.64288642917E+02  0.99744313516E+03  0.10100000352E+00 0. -1.
</event>
<event>
 5   0  0.5030137E-06  0.2001369E+04  0.7818609E-02  0.8605981E-01
       -2   -1    0    0    0  501  0.00000000000E+00  0.00000000000E+00  0.56119982836E+03  0.56119982837E+03  0.25500000920E-02 0. -1.
        2   -1    0    0  501    0  0.00000000000E+00  0.00000000000E+00 -0.17843369363E+04  0.17843369363E+04  0.25500000920E-02 0.  1.
    10030    2    1    2    0    0  0.00000000000E+00  0.00000000000E+00 -0.12231371079E+04  0.23455367646E+04  0.20013691138E+04 0.  0.
        3    1    3    3  502    0  0.49110297079E+03 -0.66320604448E+03 -0.12748901743E+04  0.15186735502E+04  0.10100000352E+00 0. -1.
       -3    1    3    3    0  502 -0.49110297079E+03  0.66320604448E+03  0.51753066367E+02  0.82686321446E+03  0.10100000352E+00 0.  1.
</event>
<event>
 5   0  0.5251252E-06  0.1999282E+04  0.7818609E-02  0.8606957E-01
       -2   -1    0    0    0  501  0.00000000000E+00  0.00000000000E+00  0.11945262018E+04  0.11945262018E+04  0.25500000920E-02 0.  1.
        2   -1    0    0  501    0  0.00000000000E+00  0.00000000000E+00 -0.83655085484E+03  0.83655085484E+03  0.25500000920E-02 0. -1.
    10030    2    1    2    0    0  0.00000000000E+00  0.00000000000E+00  0.35797534699E+03  0.20310770567E+04  0.19992817863E+04 0.  0.
        5    1    3    3  502    0  0.63881365840E+03 -0.44430914698E+02  0.95879049544E+03  0.11529780139E+04  0.46999998093E+01 0.  1.
       -5    1    3    3    0  502 -0.63881365840E+03  0.44430914698E+02 -0.60081514845E+03  0.87809904279E+03  0.46999998093E+01 0. -1.
</event>
<event>
 5   0  0.5129100E-06  0.2000213E+04  0.7818609E-02  0.8606521E-01
        2   -1    0    0  501    0  0.00000000000E+00  0.00000000000E+00  0.92529527549E+03  0.92529527549E+03  0.25500000920E-02 0. -1.
       -2   -1    0    0    0  501  0.00000000000E+00  0.00000000000E+00 -0.10809663888E+04  0.10809663888E+04  0.25500000920E-02 0.  1.
    10030    2    1    2    0    0  0.00000000000E+00  0.00000000000E+00 -0.15567111327E+03  0.20062616643E+04  0.20002130811E+04 0.  0.
        2    1    3    3  502    0 -0.81717211108E+03 -0.23216230975E+03  0.45153261051E+03  0.96205576531E+03  0.25500000920E-02 0. -1.
       -2    1    3    3    0  502  0.81717211108E+03  0.23216230975E+03 -0.60720372378E+03  0.10442058989E+04  0.25500000920E-02 0.  1.
</event>
<event>
 5   0  0.2311520E-06  0.2000537E+04  0.7818609E-02  0.8606370E-01
        1   -1    0    0  501    0  0.00000000000E+00  0.00000000000E+00  0.10058474043E+04  0.10058474043E+04  0.50400001928E-02 0. -1.
       -1   -1    0    0    0  501  0.00000000000E+00  0.00000000000E+00 -0.99472073634E+03  0.99472073635E+03  0.50400001928E-02 0.  1.
    10030    2    1    2    0    0  0.00000000000E+00  0.00000000000E+00  0.11126667946E+02  0.20005681407E+04  0.20005371985E+04 0.  0.
        3    1    3    3  502    0  0.35810303876E+03 -0.20007520124E+03  0.91786544042E+03  0.10053580703E+04  0.10100000352E+00 0. -1.
       -3    1    3    3    0  502 -0.35810303876E+03  0.20007520124E+03 -0.90673877247E+03  0.99521007040E+03  0.10100000352E+00 0.  1.
</event>
<event>
 5   0  0.5129100E-06  0.2000212E+04  0.7818609E-02  0.8606522E-01
       -2   -1    0    0    0  501  0.00000000000E+00  0.00000000000E+00  0.99420436026E+03  0.99420436026E+03  0.25500000920E-02 0.  1.
        2   -1    0    0  501    0  0.00000000000E+00  0.00000000000E+00 -0.10060426229E+04  0.10060426229E+04  0.25500000920E-02 0. -1.
    10030    2    1    2    0    0  0.00000000000E+00  0.00000000000E+00 -0.11838262656E+02  0.20002469832E+04  0.20002119511E+04 0.  0.
        2    1    3    3  502    0  0.37059667294E+03  0.84804408218E+03  0.37315386468E+03  0.99787998580E+03  0.25500000920E-02 0.  1.
       -2    1    3    3    0  502 -0.37059667294E+03 -0.84804408218E+03 -0.38499212733E+03  0.10023669974E+04  0.25500000920E-02 0. -1.
</event>
<event>
 5   0  0.2313821E-06  0.2001454E+04  0.7818609E-02  0.8605941E-01
        1   -1    0    0  501    0  0.00000000000E+00  0.00000000000E+00  0.21637071827E+04  0.21637071827E+04  0.50400001928E-02 0.  1.
       -1   -1    0    0    0  501  0.00000000000E+00  0.00000000000E+00 -0.46284215324E+03  0.46284215326E+03  0.50400001928E-02 0. -1.
    10030    2    1    2    0    0  0.00000000000E+00  0.00000000000E+00  0.17008650295E+04  0.26265493360E+04  0.20014543627E+04 0.  0.
        1    1    3    3  502    0 -0.29298324492E+02  0.44160712916E+03  0.20282937059E+04  0.20760179686E+04  0.50400001928E-02 0.  1.
       -1    1    3    3    0  502  0.29298324492E+02 -0.44160712916E+03 -0.32742867643E+03  0.55053136742E+03  0.50400001928E-02 0. -1.
</event>
<event>
 5   0  0.2379743E-06  0.2002573E+04  0.7818609E-02  0.8605419E-01
       -1   -1    0    0    0  501  0.00000000000E+00  0.00000000000E+00  0.62777744764E+03  0.62777744766E+03  0.50400001928E-02 0.  1.
        1   -1    0    0  501    0  0.00000000000E+00  0.00000000000E+00 -0.15970220099E+04  0.15970220099E+04  0.50400001928E-02 0. -1.
    10030    2    1    2    0    0  0.00000000000E+00  0.00000000000E+00 -0.96924456225E+03  0.22247994576E+04  0.20025727465E+04 0.  0.
        5    1    3    3  502    0  0.38851439677E+03 -0.83720645870E+03 -0.91589388737E+03  0.13002852740E+04  0.46999998093E+01 0. -1.
       -5    1    3    3    0  502 -0.38851439677E+03  0.83720645870E+03 -0.53350674885E+02  0.92451418351E+03  0.46999998093E+01 0.  1.
</event>
<event>
 5   0  0.5118981E-06  0.1999716E+04  0.7818609E-02  0.8606754E-01
        2   -1    0    0  501    0  0.00000000000E+00  0.00000000000E+00  0.10103020623E+04  0.10103020623E+04  0.25500000920E-02 0. -1.
       -2   -1    0    0    0  501  0.00000000000E+00  0.00000000000E+00 -0.98952157894E+03  0.98952157894E+03  0.25500000920E-02 0.  1.
    10030    2    1    2    0    0  0.00000000000E+00  0.00000000000E+00  0.20780483329E+02  0.19998236412E+04  0.19997156717E+04 0.  0.
        4    1    3    3  502    0  0.12397847855E+02 -0.69228671382E+03 -0.71096658003E+03  0.99241608793E+03  0.12699999809E+01 0.  1.
       -4    1    3    3    0  502 -0.12397847855E+02  0.69228671382E+03  0.73174706336E+03  0.10074075533E+04  0.12699999809E+01 0. -1.
</event>
<event>
 5   0  0.2311520E-06  0.2000227E+04  0.7818609E-02  0.8606515E-01
        1   -1    0    0  501    0  0.00000000000E+00  0.00000000000E+00  0.93487975993E+03  0.93487975994E+03  0.50400001928E-02 0.  1.
       -1   -1    0    0    0  501  0.00000000000E+00  0.00000000000E+00 -0.10698990588E+04  0.10698990588E+04  0.50400001928E-02 0. -1.
    10030    2    1    2    0    0  0.00000000000E+00  0.00000000000E+00 -0.13501929883E+03  0.20047788187E+04  0.20002269623E+04 0.  0.
        3    1    3    3  502    0  0.42902993767E+03  0.88444895769E+03  0.11705695600E+03  0.98995908367E+03  0.10100000352E+00 0.  1.
       -3    1    3    3    0  502 -0.42902993767E+03 -0.88444895769E+03 -0.25207625482E+03  0.10148197350E+04  0.10100000352E+00 0. -1.
</event>
<event>
 5   0  0.1777750E-06  0.2000428E+04  0.7818609E-02  0.8606420E-01
       -3   -1    0    0    0  501  0.00000000000E+00  0.00000000000E+00  0.94957797421E+03  0.94957797958E+03  0.10100000352E+00 0.  1.
        3   -1    0    0  501    0  0.00000000000E+00  0.00000000000E+00 -0.10535504649E+04  0.10535504697E+04  0.10100000352E+00 0. -1.
    10030    2    1    2    0    0  0.00000000000E+00  0.00000000000E+00 -0.10397249067E+03  0.20031284493E+04  0.20004282806E+04 0.  0.
        3    1    3    3  502    0  0.55832041464E+03  0.58200989446E+03  0.54039583570E+03  0.97081660065E+03  0.10100000352E+00 0.  1.
       -3    1    3    3    0  502 -0.55832041464E+03 -0.58200989446E+03 -0.64436832638E+03  0.10323118487E+04  0.10100000352E+00 0. -1.
</event>
<event>
 5   0  0.2313821E-06  0.2013287E+04  0.7818609E-02  0.8600434E-01
       -1   -1    0    0    0  501  0.00000000000E+00  0.00000000000E+00  0.97787680530E+03  0.97787680532E+03  0.50400001928E-02 0.  1.
        1   -1    0    0  501    0  0.00000000000E+00  0.00000000000E+00 -0.10362565994E+04  0.10362565994E+04  0.50400001928E-02 0. -1.
    10030    2    1    2    0    0  0.00000000000E+00  0.00000000000E+00 -0.58379794103E+02  0.20141334047E+04  0.20132871558E+04 0.  0.
        1    1    3    3  502    0  0.39843912610E+03  0.89701082212E+02  0.89126817880E+03  0.98038716226E+03  0.50400001928E-02 0.  1.
       -1    1    3    3    0  502 -0.39843912610E+03 -0.89701082212E+02 -0.94964797291E+03  0.10337462425E+04  0.50400001928E-02 0. -1.
</event>
<event>
 5   0  0.2386776E-06  0.2001997E+04  0.7818609E-02  0.8605688E-01
        1   -1    0    0  501    0  0.00000000000E+00  0.00000000000E+00  0.20342881300E+04  0.20342881300E+04  0.50400001928E-02 0. -1.
       -1   -1    0    0    0  501  0.00000000000E+00  0.00000000000E+00 -0.49255450171E+03  0.49255450173E+03  0.50400001928E-02 0.  1.
    10030    2    1    2    0    0  0.00000000000E+00  0.00000000000E+00  0.15417336283E+04  0.25268426317E+04  0.20019967794E+04 0.  0.
        2    1    3    3  502    0 -0.23474635805E+03  0.84851566280E+03  0.13721022916E+04  0.16302605256E+04  0.25500000920E-02 0. -1.
       -2    1    3    3    0  502  0.23474635805E+03 -0.84851566280E+03  0.16963133664E+03  0.89658210612E+03  0.25500000920E-02 0.  1.
</event>
<event>
 5   0  0.2356996E-06  0.1999649E+04  0.7818609E-02  0.8606785E-01
       -1   -1    0    0    0  501  0.00000000000E+00  0.00000000000E+00  0.81852001568E+03  0.81852001569E+03  0.50400001928E-02 0. -1.
        1   -1    0    0  501    0  0.00000000000E+00  0.00000000000E+00 -0.12212882598E+04  0.12212882598E+04  0.50400001928E-02 0.  1.
    10030    2    1    2    0    0  0.00000000000E+00  0.00000000000E+00 -0.40276824408E+03  0.20398082755E+04  0.19996488547E+04 0.  0.
        4    1    3    3  502    0 -0.93993555551E+03  0.61519464476E+02  0.14058542067E+03  0.95238089356E+03  0.12699999809E+01 0. -1.
       -4    1    3    3    0  502  0.93993555551E+03 -0.61519464476E+02 -0.54335366475E+03  0.10874273819E+04  0.12699999809E+01 0.  1.
</event>
<event>
 5   0  0.1777750E-06  0.1999975E+04  0.7818609E-02  0.8606632E-01
       -3   -1    0    0    0  501  0.00000000000E+00  0.00000000000E+00  0.11135517249E+04  0.11135517295E+04  0.10100000352E+00 0.  1.
        3   -1    0    0  501    0  0.00000000000E+00  0.00000000000E+00 -0.89800538220E+03  0.89800538788E+03  0.10100000352E+00 0. -1.
    10030    2    1    2    0    0  0.00000000000E+00  0.00000000000E+00  0.21554634269E+03  0.20115571173E+04  0.19999754525E+04 0.  0.
        2    1    3    3  502    0 -0.22644037987E+03  0.97391814228E+03  0.94142603239E+02  0.10043179891E+04  0.25500000920E-02 0.  1.
       -2    1    3    3    0  502  0.22644037987E+03 -0.97391814228E+03  0.12140373945E+03  0.10072391282E+04  0.25500000920E-02 0. -1.
</event>
<event>
 5   0  0.4956214E-06  0.2007736E+04  0.7818609E-02  0.8603012E-01
        2   -1    0    0  501    0  0.00000000000E+00  0.00000000000E+00  0.13066910604E+04  0.13066910604E+04  0.25500000920E-02 0. -1.
       -2   -1    0    0    0  501  0.00000000000E+00  0.00000000000E+00 -0.77122371743E+03  0.77122371743E+03  0.25500000920E-02 0.  1.
    10030    2    1    2    0    0  0.00000000000E+00  0.00000000000E+00  0.53546734292E+03  0.20779147778E+04  0.20077361750E+04 0.  0.
        1    1    3    3  502    0  0.96796586787E+03 -0.68567654643E+02  0.53380282273E+03  0.11075219629E+04  0.50400001928E-02 0. -1.
       -1    1    3    3    0  502 -0.96796586787E+03  0.68567654643E+02  0.16645201874E+01  0.97039281493E+03  0.50400001928E-02 0.  1.
</event>
<event>
 5   0  0.2386776E-06  0.1999615E+04  0.7818609E-02  0.8606801E-01
        1   -1    0    0  501    0  0.00000000000E+00  0.00000000000E+00  0.12503923914E+04  0.12503923914E+04  0.50400001928E-02 0. -1.
       -1   -1    0    0    0  501  0.00000000000E+00  0.00000000000E+00 -0.79944135513E+03  0.79944135514E+03  0.50400001928E-02 0.  1.
    10030    2    1    2    0    0  0.00000000000E+00  0.00000000000E+00  0.45095103629E+03  0.20498337466E+04  0.19996153509E+04 0.  0.
        2    1    3    3  502    0  0.57031879474E+03 -0.52773516512E+03 -0.41948941927E+03  0.88302848483E+03  0.25500000920E-02 0.  1.
       -2    1    3    3    0  502 -0.57031879474E+03  0.52773516512E+03  0.87044045556E+03  0.11668052617E+04  0.25500000920E-02 0. -1.
</event>
<event>
 5   0  0.5030137E-06  0.2000355E+04  0.7818609E-02  0.8606455E-01
       -2   -1    0    0    0  501  0.00000000000E+00  0.00000000000E+00  0.61815316735E+03  0.61815316735E+03  0.25500000920E-02 0.  1.
        2   -1    0    0  501    0  0.00000000000E+00  0.00000000000E+00 -0.16182967627E+04  0.16182967627E+04  0.25500000920E-02 0. -1.
    10030    2    1    2    0    0  0.00000000000E+00  0.00000000000E+00 -0.10001435954E+04  0.22364499301E+04  0.20003552380E+04 0.  0.
        3    1    3    3  502    0  0.83569183671E+03 -0.21859507972E+03 -0.10637507243E+04  0.13703029842E+04  0.10100000352E+00 0. -1.
       -3    1    3    3    0  502 -0.83569183671E+03  0.21859507972E+03  0.63607128923E+02  0.86614694589E+03  0.10100000352E+00 0.  1.
</event>
<event>
 5   0  0.2356996E-06  0.1998422E+04  0.7818609E-02  0.8607359E-01
       -1   -1    0    0    0  501  0.00000000000E+00  0.00000000000E+00  0.73536047710E+03  0.73536047712E+03  0.50400001928E-02 0. -1.
        1   -1    0    0  501    0  0.00000000000E+00  0.00000000000E+00 -0.13577326166E+04  0.13577326166E+04  0.50400001928E-02 0.  1.
    10030    2    1    2    0    0  0.00000000000E+00  0.00000000000E+00 -0.62237213945E+03  0.20930930937E+04  0.19984222824E+04 0.  0.
        4    1    3    3  502    0 -0.61335130281E+03  0.11114825365E+03 -0.11291215353E+04  0.12897561046E+04  0.12699999809E+01 0.  1.
       -4    1    3    3    0  502  0.61335130281E+03 -0.11114825365E+03  0.50674939585E+03  0.80333698909E+03  0.12699999809E+01 0. -1.
</event>
<event>
 5   0  0.4956214E-06  0.2000115E+04  0.7818609E-02  0.8606567E-01
        2   -1    0    0  501    0  0.00000000000E+00  0.00000000000E+00  0.13313524008E+04  0.13313524008E+04  0.25500000920E-02 0.  1.
       -2   -1    0    0    0  501  0.00000000000E+00  0.00000000000E+00 -0.75120265876E+03  0.75120265877E+03  0.25500000920E-02 0. -1.
    10030    2    1    2    0    0  0.00000000000E+00  0.00000000000E+00  0.58014974207E+03  0.20825550596E+04  0.20001154599E+04 0.  0.
        1    1    3    3  502    0  0.25940142178E+03 -0.39537547173E+03 -0.62744069830E+03  0.78567976376E+03  0.50400001928E-02 0. -1.
       -1    1    3    3    0  502 -0.25940142178E+03  0.39537547173E+03  0.12075904404E+04  0.12968752958E+04  0.50400001928E-02 0.  1.
</event>
<event>
 5   0  0.2311520E-06  0.1998846E+04  0.7818609E-02  0.8607160E-01
        1   -1    0    0  501    0  0.00000000000E+00  0.00000000000E+00  0.18727377647E+04  0.18727377647E+04  0.50400001928E-02 0. -1.
       -1   -1    0    0    0  501  0.00000000000E+00  0.00000000000E+00 -0.53336144806E+03  0.53336144808E+03  0.50400001928E-02 0.  1.
    10030    2    1    2    0    0  0.00000000000E+00  0.00000000000E+00  0.13393763166E+04  0.24060992128E+04  0.19988457930E+04 0.  0.
        3    1    3    3  502    0  0.33065942865E+03  0.16814602968E+03  0.17867974749E+04  0.18248983455E+04  0.10100000352E+00 0. -1.
       -3    1    3    3    0  502 -0.33065942865E+03 -0.16814602968E+03 -0.44742115825E+03  0.58120086726E+03  0.10100000352E+00 0.  1.
</event>
<event>
 5   0  0.5118981E-06  0.2002546E+04  0.7818609E-02  0.8605431E-01
        2   -1    0    0  501    0  0.00000000000E+00  0.00000000000E+00  0.10722831973E+04  0.10722831973E+04  0.25500000920E-02 0. -1.
       -2   -1    0    0    0  501  0.00000000000E+00  0.00000000000E+00 -0.93496489690E+03  0.93496489691E+03  0.25500000920E-02 0.  1.
    10030    2    1    2    0    0  0.00000000000E+00  0.00000000000E+00  0.13731830043E+03  0.20072480942E+04  0.20025455291E+04 0.  0.
        4    1    3    3  502    0  0.44488798883E+03 -0.58183993344E+03  0.75296469079E+03  0.10504382272E+04  0.12699999809E+01 0. -1.
       -4    1    3    3    0  502 -0.44488798883E+03  0.58183993344E+03 -0.61564639036E+03  0.95680986701E+03  0.12699999809E+01 0.  1.
</event>
<event>
 5   0  0.5118981E-06  0.2000762E+04  0.7818609E-02  0.8606264E-01
        2   -1    0    0  501    0  0.00000000000E+00  0.00000000000E+00  0.13818234287E+04  0.13818234287E+04  0.25500000920E-02 0. -1.
       -2   -1    0    0    0  501  0.00000000000E+00  0.00000000000E+00 -0.72423324772E+03  0.72423324773E+03  0.25500000920E-02 0.  1.
    10030    2    1    2    0    0  0.00000000000E+00  0.00000000000E+00  0.65759018099E+03  0.21060566764E+04  0.20007623243E+04 0.  0.
        4    1    3    3  502    0 -0.57368315697E+03 -0.83084729919E+02  0.11870222032E+04  0.13209991524E+04  0.12699999809E+01 0. -1.
       -4    1    3    3    0  502  0.57368315697E+03  0.83084729919E+02 -0.52943202222E+03  0.78505752400E+03  0.12699999809E+01 0.  1.
</event>
<event>
 5   0  0.5251252E-06  0.1999505E+04  0.7818609E-02  0.8606852E-01
        2   -1    0    0  501    0  0.00000000000E+00  0.00000000000E+00  0.19102393231E+04  0.19102393231E+04  0.25500000920E-02 0.  1.
       -2   -1    0    0    0  501  0.00000000000E+00  0.00000000000E+00 -0.52323573852E+03  0.52323573853E+03  0.25500000920E-02 0. -1.
    10030    2    1    2    0    0  0.00000000000E+00  0.00000000000E+00  0.13870035846E+04  0.24334750616E+04  0.19995054218E+04 0.  0.
        5    1    3    3  502    0 -0.18269703962E+03 -0.66519162183E+02  0.18869942890E+04  0.18969903911E+04  0.46999998093E+01 0.  1.
       -5    1    3    3    0  502  0.18269703962E+03  0.66519162183E+02 -0.49999070441E+03  0.53648467053E+03  0.46999998093E+01 0. -1.
</event>
<event>
 5   0  0.5129100E-06  0.2000504E+04  0.7818609E-02  0.8606385E-01
       -2   -1    0    0    0  501  0.00000000000E+00  0.00000000000E+00  0.10108883636E+04  0.10108883636E+04  0.25500000920E-02 0. -1.
        2   -1    0    0  501    0  0.00000000000E+00  0.00000000000E+00 -0.98972713056E+03  0.98972713056E+03  0.25500000920E-02 0.  1.
    10030    2    1    2    0    0  0.00000000000E+00  0.00000000000E+00  0.21161233069E+02  0.20006154942E+04  0.20005035761E+04 0.  0.
        2    1    3    3  502    0  0.86934608285E+03  0.22844647836E+02 -0.48363237012E+03  0.99508027774E+03  0.25500000920E-02 0.  1.
       -2    1    3    3    0  502 -0.86934608285E+03 -0.22844647836E+02  0.50479360319E+03  0.10055352165E+04  0.25500000920E-02 0. -1.
</event>
<event>
 5   0  0.5030137E-06  0.2000081E+04  0.7818609E-02  0.8606583E-01
       -2   -1    0    0    0  501  0.00000000000E+00  0.00000000000E+00  0.13006821805E+04  0.13006821806E+04  0.25500000920E-02 0.  1.
        2   -1    0    0  501    0  0.00000000000E+00  0.00000000000E+00 -0.76888993606E+03  0.76888993606E+03  0.25500000920E-02 0. -1.
    10030    2    1    2    0    0  0.00000000000E+00  0.00000000000E+00  0.53179224449E+03  0.20695721166E+04  0.20000814370E+04 0.  0.
        3    1    3    3  502    0  0.21002400185E+02  0.68460157107E+03 -0.48809147749E+03  0.84104322868E+03  0.10100000352E+00 0. -1.
       -3    1    3    3    0  502 -0.21002400185E+02 -0.68460157107E+03  0.10198837220E+04  0.12285288879E+04  0.10100000352E+00 0.  1.
</event>
<event>
 5   0  0.5030137E-06  0.1999819E+04  0.7818609E-02  0.8606705E-01
       -2   -1    0    0    0  501  0.00000000000E+00  0.00000000000E+00  0.16636972458E+04  0.16636972458E+04  0.25500000920E-02 0. -1.
        2   -1    0    0  501    0  0.00000000000E+00  0.00000000000E+00 -0.60096211062E+03  0.60096211063E+03  0.25500000920E-02 0.  1.
    10030    2    1    2    0    0  0.00000000000E+00  0.00000000000E+00  0.10627351352E+04  0.22646593564E+04  0.19998190001E+04 0.  0.
        3    1    3    3  502    0 -0.28739909391E+03  0.95670156600E+03  0.48145219147E+03  0.11089059241E+04  0.10100000352E+00 0.  1.
       -3    1    3    3    0  502  0.28739909391E+03 -0.95670156600E+03  0.58128294370E+03  0.11557534324E+04  0.10100000352E+00 0. -1.
</event>
<event>
 5   0  0.5129100E-06  0.2000146E+04  0.7818609E-02  0.8606552E-01
        2   -1    0    0  501    0  0.00000000000E+00  0.00000000000E+00  0.11924774261E+04  0.11924774261E+04  0.25500000920E-02 0. -1.
       -2   -1    0    0    0  501  0.00000000000E+00  0.00000000000E+00 -0.83871263461E+03  0.83871263461E+03  0.25500000920E-02 0.  1.
    10030    2    1    2    0    0  0.00000000000E+00  0.00000000000E+00  0.35376479144E+03  0.20311900607E+04  0.20001458784E+04 0.  0.
        2    1    3    3  502    0 -0.16600341198E+03  0.14536119205E+03 -0.81368470944E+03  0.84307165492E+03  0.25500000920E-02 0.  1.
       -2    1    3    3    0  502  0.16600341198E+03 -0.14536119205E+03  0.11674495009E+04  0.11881184057E+04  0.25500000920E-02 0. -1.
</event>
<event>
 5   0  0.2386776E-06  0.2000277E+04  0.7818609E-02  0.8606491E-01
        1   -1    0    0  501    0  0.00000000000E+00  0.00000000000E+00  0.18775856978E+04  0.18775856978E+04  0.50400001928E-02 0.  1.
       -1   -1    0    0    0  501  0.00000000000E+00  0.00000000000E+00 -0.53274620928E+03  0.53274620930E+03  0.50400001928E-02 0. -1.
    10030    2    1    2    0    0  0.00000000000E+00  0.00000000000E+00  0.13448394885E+04  0.24103319071E+04  0.20002766440E+04 0.  0.
        2    1    3    3  502    0  0.15163504436E+03 -0.85205509049E+02  0.18592207704E+04  0.18673390262E+04  0.25500000920E-02 0.  1.
       -2    1    3    3    0  502 -0.15163504436E+03  0.85205509049E+02 -0.51438128196E+03  0.54299288089E+03  0.25500000920E-02 0. -1.
</event>
<event>
 5   0  0.5030137E-06  0.2000841E+04  0.7818609E-02  0.8606228E-01
       -2   -1    0    0    0  501  0.00000000000E+00  0.00000000000E+00  0.53582097531E+03  0.53582097532E+03  0.25500000920E-02 0.  1.
        2   -1    0    0  501    0  0.00000000000E+00  0.00000000000E+00 -0.18678640901E+04  0.18678640901E+04  0.25500000920E-02 0. -1.
    10030    2    1    2    0    0  0.00000000000E+00  0.00000000000E+00 -0.13320431148E+04  0.24036850654E+04  0.20008405819E+04 0.  0.
        3    1    3    3  502    0 -0.65665376828E+02  0.88107698406E+03 -0.12297960746E+04  0.15142678062E+04  0.10100000352E+00 0. -1.
       -3    1    3    3    0  502  0.65665376828E+02 -0.88107698406E+03 -0.10224704016E+03  0.88941725921E+03  0.10100000352E+00 0.  1.
</event>
<event>
 5   0  0.2313821E-06  0.1999774E+04  0.7818609E-02  0.8606727E-01
       -1   -1    0    0    0  501  0.00000000000E+00  0.00000000000E+00  0.78305881892E+03  0.78305881893E+03  0.50400001928E-02 0. -1.
        1   -1    0    0  501    0  0.00000000000E+00  0.00000000000E+00 -0.12767541398E+04  0.12767541398E+04  0.50400001928E-02 0.  1.
    10030    2    1    2    0    0  0.00000000000E+00  0.00000000000E+00 -0.49369532087E+03  0.20598129587E+04  0.19997735760E+04 0.  0.
        1    1    3    3  502    0  0.77478880001E+03 -0.63175980629E+03 -0.26626711404E+03  0.10345609279E+04  0.50400001928E-02 0. -1.
       -1    1    3    3    0  502 -0.77478880001E+03  0.63175980629E+03 -0.22742820683E+03  0.10252520308E+04  0.50400001928E-02 0.  1.
</event>
<event>
 5   0  0.4956214E-06  0.2000777E+04  0.7818609E-02  0.8606257E-01
        2   -1    0    0  501    0  0.00000000000E+00  0.00000000000E+00  0.82684226301E+03  0.82684226301E+03  0.25500000920E-02 0.  1.
       -2   -1    0    0    0  501  0.00000000000E+00  0.00000000000E+00 -0.12103604431E+04  0.12103604431E+04  0.25500000920E-02 0. -1.
    10030    2    1    2    0    0  0.00000000000E+00  0.00000000000E+00 -0.38351818011E+03  0.20372027061E+04  0.20007770169E+04 0.  0.
        1    1    3    3  502    0  0.86613908540E+03 -0.49822582307E+03 -0.14238627441E+03  0.10093065625E+04  0.50400001928E-02 0. -1.
       -1    1    3    3    0  502 -0.86613908540E+03  0.49822582307E+03 -0.24113190570E+03  0.10278961436E+04  0.50400001928E-02 0.  1.
</event>
<event>
 5   0  0.5129100E-06  0.2000268E+04  0.7818609E-02  0.8606495E-01
       -2   -1    0    0    0  501  0.00000000000E+00  0.00000000000E+00  0.68098702500E+03  0.68098702500E+03  0.25500000920E-02 0. -1.
        2   -1    0    0  501    0  0.00000000000E+00  0.00000000000E+00 -0.14688507354E+04  0.14688507354E+04  0.25500000920E-02 0.  1.
    10030    2    1    2    0    0  0.00000000000E+00  0.00000000000E+00 -0.78786371039E+03  0.21498377604E+04  0.20002682745E+04 0.  0.
        2    1    3    3  502    0 -0.37691069233E+03  0.88490132539E+03 -0.68857750912E+03  0.11828994090E+04  0.25500000920E-02 0.  1.
       -2    1    3    3    0  502  0.37691069233E+03 -0.88490132539E+03 -0.99286201265E+02  0.96693835142E+03  0.25500000920E-02 0. -1.
</event>
<event>
 5   0  0.2386776E-06  0.1999494E+04  0.7818609E-02  0.8606857E-01
        1   -1    0    0  501    0  0.00000000000E+00  0.00000000000E+00  0.98122943760E+03  0.98122943761E+03  0.50400001928E-02 0.  1.
       -1   -1    0    0    0  501  0.00000000000E+00  0.00000000000E+00 -0.10186139181E+04  0.10186139181E+04  0.50400001928E-02 0. -1.
    10030    2    1    2    0    0  0.00000000000E+00  0.00000000000E+00 -0.37384480477E+02  0.19998433557E+04  0.19994938980E+04 0.  0.
        2    1    3    3  502    0 -0.32334248333E+03  0.41410257662E+03  0.83202249586E+03  0.98401866807E+03  0.25500000920E-02 0.  1.
       -2    1    3    3    0  502  0.32334248333E+03 -0.41410257662E+03 -0.86940697634E+03  0.10158246876E+04  0.25500000920E-02 0. -1.
</event>
<event>
 5   0  0.5251252E-06  0.1999907E+04  0.7818609E-02  0.8606664E-01
       -2   -1    0    0    0  501  0.00000000000E+00  0.00000000000E+00  0.34203222023E+03  0.34203222024E+03  0.25500000920E-02 0.  1.
        2   -1    0    0  501    0  0.00000000000E+00  0.00000000000E+00 -0.29234296491E+04  0.29234296491E+04  0.25500000920E-02 0. -1.
    10030    2    1    2    0    0  0.00000000000E+00  0.00000000000E+00 -0.25813974289E+04  0.32654618694E+04  0.19999071314E+04 0.  0.
        5    1    3    3  502    0 -0.17404527177E+03 -0.62746287766E+03 -0.25297867182E+04  0.26122489065E+04  0.46999998093E+01 0. -1.
       -5    1    3    3    0  502  0.17404527177E+03  0.62746287766E+03 -0.51610710649E+02  0.65321296291E+03  0.46999998093E+01 0.  1.
</event>
<event>
 5   0  0.2311520E-06  0.1999852E+04  0.7818609E-02  0.8606690E-01
        1   -1    0    0  501    0  0.00000000000E+00  0.00000000000E+00  0.22468854866E+04  0.22468854866E+04  0.50400001928E-02 0. -1.
       -1   -1    0    0    0  501  0.00000000000E+00  0.00000000000E+00 -0.44499470626E+03  0.44499470628E+03  0.50400001928E-02 0.  1.
    10030    2    1    2    0    0  0.00000000000E+00  0.00000000000E+00  0.18018907803E+04  0.26918801929E+04  0.19998521417E+04 0.  0.
        3    1    3    3  502    0 -0.59682528352E+03 -0.79696789388E+03  0.10249995290E+04  0.14289794566E+04  0.10100000352E+00 0.  1.
       -3    1    3    3    0  502  0.59682528352E+03  0.79696789388E+03  0.77689125135E+03  0.12629007362E+04  0.10100000352E+00 0. -1.
</event>
<event>
 5   0  0.2311520E-06  0.1997367E+04  0.7818609E-02  0.8607852E-01
       -1   -1    0    0    0  501  0.00000000000E+00  0.00000000000E+00  0.61874528100E+03  0.61874528102E+03  0.50400001928E-02 0. -1.
        1   -1    0    0  501    0  0.00000000000E+00  0.00000000000E+00 -0.16119221294E+04  0.16119221294E+04  0.50400001928E-02 0.  1.
    10030    2    1    2    0    0  0.00000000000E+00  0.00000000000E+00 -0.99317684840E+03  0.22306674104E+04  0.19973674784E+04 0.  0.
        3    1    3    3  502    0  0.80507569863E+03  0.57888185889E+03 -0.36389017745E+03  0.10562514656E+04  0.10100000352E+00 0.  1.
       -3    1    3    3    0  502 -0.80507569863E+03 -0.57888185889E+03 -0.62928667095E+03  0.11744159448E+04  0.10100000352E+00 0. -1.
</event>
<event>
 5   0  0.2356996E-06  0.1997932E+04  0.7818609E-02  0.8607588E-01
        1   -1    0    0  501    0  0.00000000000E+00  0.00000000000E+00  0.82485608614E+03  0.82485608616E+03  0.50400001928E-02 0. -1.
       -1   -1    0    0    0  501  0.00000000000E+00  0.00000000000E+00 -0.12098267609E+04  0.12098267609E+04  0.50400001928E-02 0.  1.
    10030    2    1    2    0    0  0.00000000000E+00  0.00000000000E+00 -0.38497067473E+03  0.20346828470E+04  0.19979318976E+04 0.  0.
        4    1    3    3  502    0 -0.14035312165E+03  0.78252197792E+03 -0.80850181308E+03  0.11338943687E+04  0.12699999809E+01 0.  1.
       -4    1    3    3    0  502  0.14035312165E+03 -0.78252197792E+03  0.42353113834E+03  0.90078847836E+03  0.12699999809E+01 0. -1.
</event>
<event>
 5   0  0.5118981E-06  0.1999796E+04  0.7818609E-02  0.8606716E-01
       -2   -1    0    0    0  501  0.00000000000E+00  0.00000000000E+00  0.98106301427E+03  0.98106301428E+03  0.25500000920E-02 0.  1.
        2   -1    0    0  501    0  0.00000000000E+00  0.00000000000E+00 -0.10190946012E+04  0.10190946012E+04  0.25500000920E-02 0. -1.
    10030    2    1    2    0    0  0.00000000000E+00  0.00000000000E+00 -0.38031586924E+02  0.20001576155E+04  0.19997960109E+04 0.  0.
        4    1    3    3  502    0  0.80861488654E+03 -0.18932514894E+03 -0.57597585848E+03  0.10106690107E+04  0.12699999809E+01 0. -1.
       -4    1    3    3    0  502 -0.80861488654E+03  0.18932514894E+03  0.53794427156E+03  0.98948860476E+03  0.12699999809E+01 0.  1.
</event>
<event>
 5   0  0.5129100E-06  0.2000402E+04  0.7818609E-02  0.8606433E-01
       -2   -1    0    0    0  501  0.00000000000E+00  0.00000000000E+00  0.11964763011E+04  0.11964763012E+04  0.25500000920E-02 0. -1.
        2   -1    0    0  501    0  0.00000000000E+00  0.00000000000E+00 -0.83612385630E+03  0.83612385631E+03  0.25500000920E-02 0.  1.
    10030    2    1    2    0    0  0.00000000000E+00  0.00000000000E+00  0.36035244484E+03  0.20326001575E+04  0.20004023384E+04 0.  0.
        2    1    3    3  502    0 -0.60763601057E+03 -0.55051932560E+03  0.76220423996E+03  0.11194857536E+04  0.25500000920E-02 0. -1.
       -2    1    3    3    0  502  0.60763601057E+03  0.55051932560E+03 -0.40185179511E+03  0.91311440381E+03  0.25500000920E-02 0.  1.
</event>
<event>
 5   0  0.5118981E-06  0.2001750E+04  0.7818609E-02  0.8605803E-01
        2   -1    0    0  501    0  0.00000000000E+00  0.00000000000E+00  0.21015590986E+04  0.21015590986E+04  0.25500000920E-02 0.  1.
       -2   -1    0    0    0  501  0.00000000000E+00  0.00000000000E+00 -0.47667032418E+03  0.47667032419E+03  0.25500000920E-02 0. -1.
    10030    2    1    2    0    0  0.00000000000E+00  0.00000000000E+00  0.16248887744E+04  0.25782294228E+04  0.20017500911E+04 0.  0.
        4    1    3    3  502    0 -0.91922090958E+03 -0.29946287365E+01  0.13224178865E+04  0.16105175342E+04  0.12699999809E+01 0.  1.
       -4    1    3    3    0  502  0.91922090958E+03  0.29946287365E+01  0.30247088789E+03  0.96771188860E+03  0.12699999809E+01 0. -1.
</event>
<event>
 5   0  0.4956214E-06  0.1999861E+04  0.7818609E-02  0.8606686E-01
        2   -1    0    0  501    0  0.00000000000E+00  0.00000000000E+00  0.17192162326E+04  0.17192162326E+04  0.25500000920E-02 0.  1.
       -2   -1    0    0    0  501  0.00000000000E+00  0.00000000000E+00 -0.58157956758E+03  0.58157956759E+03  0.25500000920E-02 0. -1.
    10030    2    1    2    0    0  0.00000000000E+00  0.00000000000E+00  0.11376366650E+04  0.23007958002E+04  0.19998610283E+04 0.  0.
        1    1    3    3  502    0 -0.13911363326E+03 -0.14757308633E+03  0.16953062980E+04  0.17073938804E+04  0.50400001928E-02 0.  1.
       -1    1    3    3    0  502  0.13911363326E+03  0.14757308633E+03 -0.55766963301E+03  0.59340191976E+03  0.50400001928E-02 0. -1.
</event>
<event>
 5   0  0.5030137E-06  0.2000722E+04  0.7818609E-02  0.8606283E-01
        2   -1    0    0  501    0  0.00000000000E+00  0.00000000000E+00  0.13471310767E+04  0.13471310767E+04  0.25500000920E-02 0.  1.
       -2   -1    0    0    0  501  0.00000000000E+00  0.00000000000E+00 -0.74285423027E+03  0.74285423028E+03  0.25500000920E-02 0. -1.
    10030    2    1    2    0    0  0.00000000000E+00  0.00000000000E+00  0.60427684639E+03  0.20899853069E+04  0.20007218888E+04 0.  0.
        3    1    3    3  502    0 -0.30159322826E+03 -0.60078768545E+03 -0.47173611946E+03  0.82124253112E+03  0.10100000352E+00 0. -1.
       -3    1    3    3    0  502  0.30159322826E+03  0.60078768545E+03  0.10760129659E+04  0.12687427758E+04  0.10100000352E+00 0.  1.
</event>
<event>
 5   0  0.2313821E-06  0.1994595E+04  0.7818609E-02  0.8609152E-01
        1   -1    0    0  501    0  0.00000000000E+00  0.00000000000E+00  0.12851578965E+04  0.12851578965E+04  0.50400001928E-02 0.  1.
       -1   -1    0    0    0  501  0.00000000000E+00  0.00000000000E+00 -0.77391476027E+03  0.77391476028E+03  0.50400001928E-02 0. -1.
    10030    2    1    2    0    0  0.00000000000E+00  0.00000000000E+00  0.51124313622E+03  0.20590726568E+04  0.19945953629E+04 0.  0.
        1    1    3    3  502    0  0.26747113270E+01 -0.93483522093E+03  0.61423952821E+03  0.11185768827E+04  0.50400001928E-02 0. -1.
       -1    1    3    3    0  502 -0.26747113270E+01  0.93483522093E+03 -0.10299639199E+03  0.94049577413E+03  0.50400001928E-02 0.  1.
</event>
<event>
 5   0  0.5129100E-06  0.2000228E+04  0.7818609E-02  0.8606514E-01
        2   -1    0    0  501    0  0.00000000000E+00  0.00000000000E+00  0.12137027773E+04  0.12137027773E+04  0.25500000920E-02 0.  1.
       -2   -1    0    0    0  501  0.00000000000E+00  0.00000000000E+00 -0.82411280249E+03  0.82411280249E+03  0.25500000920E-02 0. -1.
    10030    2    1    2    0    0  0.00000000000E+00  0.00000000000E+00  0.38958997476E+03  0.20378155797E+04  0.20002279842E+04 0.  0.
        2    1    3    3  502    0  0.74879745991E+03  0.37144781841E+02 -0.47957323571E+03  0.88998194319E+03  0.25500000920E-02 0. -1.
       -2    1    3    3    0  502 -0.74879745991E+03 -0.37144781841E+02  0.86916321047E+03  0.11478336366E+04  0.25500000920E-02 0.  1.
</event>
<event>
 5   0  0.2356996E-06  0.2000155E+04  0.7818609E-02  0.8606548E-01
        1   -1    0    0  501    0  0.00000000000E+00  0.00000000000E+00  0.19787129509E+04  0.19787129509E+04  0.50400001928E-02 0. -1.
       -1   -1    0    0    0  501  0.00000000000E+00  0.00000000000E+00 -0.50545742122E+03  0.50545742124E+03  0.50400001928E-02 0.  1.
    10030    2    1    2    0    0  0.00000000000E+00  0.00000000000E+00  0.14732555297E+04  0.24841703721E+04  0.20001551395E+04 0.  0.
        4    1    3    3  502    0  0.57152369757E+03 -0.82021544504E+03  0.70237004133E+03  0.12217683909E+04  0.12699999809E+01 0.  1.
       -4    1    3    3    0  502 -0.57152369757E+03  0.82021544504E+03  0.77088548834E+03  0.12624019812E+04  0.12699999809E+01 0. -1.
</event>
<event>
 5   0  0.5118981E-06  0.2000029E+04  0.7818609E-02  0.8606607E-01
       -2   -1    0    0    0  501  0.00000000000E+00  0.00000000000E+00  0.10779550588E+04  0.10779550588E+04  0.25500000920E-02 0. -1.
        2   -1    0    0  501    0  0.00000000000E+00  0.00000000000E+00 -0.92770903774E+03  0.92770903774E+03  0.25500000920E-02 0.  1.
    10030    2    1    2    0    0  0.00000000000E+00  0.00000000000E+00  0.15024602105E+03  0.20056640965E+04  0.20000286501E+04 0.  0.
        4    1    3    3  502    0 -0.76347962944E+03  0.29866415201E+03  0.64938445049E+03  0.10458504662E+04  0.12699999809E+01 0.  1.
       -4    1    3    3    0  502  0.76347962944E+03 -0.29866415201E+03 -0.49913842944E+03  0.95981363030E+03  0.12699999809E+01 0. -1.
</event>
<event>
 5   0  0.5118981E-06  0.2000272E+04  0.7818609E-02  0.8606493E-01
        2   -1    0    0  501    0  0.00000000000E+00  0.00000000000E+00  0.28744193441E+04  0.28744193441E+04  0.25500000920E-02 0. -1.
       -2   -1    0    0    0  501  0.00000000000E+00  0.00000000000E+00 -0.34799114247E+03  0.34799114248E+03  0.25500000920E-02 0.  1.
    10030    2    1    2    0    0  0.00000000000E+00  0.00000000000E+00  0.25264282016E+04  0.32224104866E+04  0.20002724529E+04 0.  0.
        4    1    3    3  502    0  0.17002782318E+03 -0.22724937701E+03  0.28081814846E+04  0.28224876623E+04  0.12699999809E+01 0. -1.
       -4    1    3    3    0  502 -0.17002782318E+03  0.22724937701E+03 -0.28175328302E+03  0.39992282431E+03  0.12699999809E+01 0.  1.
</event>
<event>
 5   0  0.2313821E-06  0.2000006E+04  0.7818609E-02  0.8606618E-01
        1   -1    0    0  501    0  0.00000000000E+00  0.00000000000E+00  0.43735573938E+03  0.43735573941E+03  0.50400001928E-02 0.  1.
       -1   -1    0    0    0  501  0.00000000000E+00  0.00000000000E+00 -0.22864809923E+04  0.22864809923E+04  0.50400001928E-02 0. -1.
    10030    2    1    2    0    0  0.00000000000E+00  0.00000000000E+00 -0.18491252529E+04  0.27238367317E+04  0.20000055850E+04 0.  0.
        1    1    3    3  502    0 -0.52109963997E+03 -0.84026422725E+03 -0.11284716595E+04  0.15003456577E+04  0.50400001928E-02 0. -1.
       -1    1    3    3    0  502  0.52109963997E+03  0.84026422725E+03 -0.72065359342E+03  0.12234910740E+04  0.50400001928E-02 0.  1.
</event>
<event>
 5   0  0.2311520E-06  0.1999992E+04  0.7818609E-02  0.8606625E-01
       -1   -1    0    0    0  501  0.00000000000E+00  0.00000000000E+00  0.86042419548E+03  0.86042419549E+03  0.50400001928E-02 0.  1.
        1   -1    0    0  501    0  0.00000000000E+00  0.00000000000E+00 -0.11622078683E+04  0.11622078683E+04  0.50400001928E-02 0. -1.
    10030    2    1    2    0    0  0.00000000000E+00  0.00000000000E+00 -0.30178367283E+03  0.20226320638E+04  0.19999917701E+04 0.  0.
        3    1    3    3  502    0 -0.84686113722E+03 -0.52429385834E+03 -0.60810938921E+02  0.99787565163E+03  0.10100000352E+00 0.  1.
       -3    1    3    3    0  502  0.84686113722E+03  0.52429385834E+03 -0.24097273391E+03  0.10247564122E+04  0.10100000352E+00 0. -1.
</event>
<event>
 5   0  0.5030137E-06  0.1999475E+04  0.7818609E-02  0.8606866E-01
        2   -1    0    0  501    0  0.00000000000E+00  0.00000000000E+00  0.15748711287E+04  0.15748711287E+04  0.25500000920E-02 0. -1.
       -2   -1    0    0    0  501  0.00000000000E+00  0.00000000000E+00 -0.63463896249E+03  0.63463896250E+03  0.25500000920E-02 0.  1.
    10030    2    1    2    0    0  0.00000000000E+00  0.00000000000E+00  0.94023216618E+03  0.22095100912E+04  0.19994745101E+04 0.  0.
        3    1    3    3  502    0 -0.33268113426E+03  0.12562524285E+03 -0.56238674858E+03  0.66538507942E+03  0.10100000352E+00 0.  1.
       -3    1    3    3    0  502  0.33268113426E+03 -0.12562524285E+03  0.15026189148E+04  0.15441250118E+04  0.10100000352E+00 0. -1.
</event>
<event>
 5   0  0.2379743E-06  0.1999927E+04  0.7818609E-02  0.8606655E-01
       -1   -1    0    0    0  501  0.00000000000E+00  0.00000000000E+00  0.14620321116E+04  0.14620321116E+04  0.50400001928E-02 0. -1.
        1   -1    0    0  501    0  0.00000000000E+00  0.00000000000E+00 -0.68392927136E+03  0.68392927138E+03  0.50400001928E-02 0.  1.
    10030    2    1    2    0    0  0.00000000000E+00  0.00000000000E+00  0.77810284021E+03  0.21459613830E+04  0.19999265555E+04 0.  0.
        5    1    3    3  502    0 -0.21703839014E+03 -0.57513591775E+03 -0.45721897860E+03  0.76613201935E+03  0.46999998093E+01 0.  1.
       -5    1    3    3    0  502  0.21703839014E+03  0.57513591775E+03  0.12353218188E+04  0.13798293636E+04  0.46999998093E+01 0. -1.
</event>
<event>
 5   0  0.2356996E-06  0.2000394E+04  0.7818609E-02  0.8606437E-01
       -1   -1    0    0    0  501  0.00000000000E+00  0.00000000000E+00  0.65488920299E+03  0.65488920301E+03  0.50400001928E-02 0. -1.
        1   -1    0    0  501    0  0.00000000000E+00  0.00000000000E+00 -0.15275774540E+04  0.15275774540E+04  0.50400001928E-02 0.  1.
    10030    2    1    2    0    0  0.00000000000E+00  0.00000000000E+00 -0.87268825103E+03  0.21824666570E+04  0.20003939426E+04 0.  0.
        4    1    3    3  502    0 -0.56902549796E+03  0.46330650891E+03 -0.11778751132E+04  0.13877443330E+04  0.12699999809E+01 0.  1.
       -4    1    3    3    0  502  0.56902549796E+03 -0.46330650891E+03  0.30518686222E+03  0.79472232402E+03  0.12699999809E+01 0. -1.
</event>
<event>
 5   0  0.5118981E-06  0.2003592E+04  0.7818609E-02  0.8604943E-01
       -2   -1    0    0    0  501  0.00000000000E+00  0.00000000000E+00  0.37405072261E+03  0.37405072262E+03  0.25500000920E-02 0.  1.
        2   -1    0    0  501    0  0.00000000000E+00  0.00000000000E+00 -0.26830459520E+04  0.26830459520E+04  0.25500000920E-02 0. -1.
    10030    2    1    2    0    0  0.00000000000E+00  0.00000000000E+00 -0.23089952294E+04  0.30570966746E+04  0.20035920515E+04 0.  0.
        4    1    3    3  502    0 -0.58648514960E+03 -0.67700671061E+03 -0.46993720530E+03  0.10115065530E+04  0.12699999809E+01 0.  1.
       -4    1    3    3    0  502  0.58648514960E+03  0.67700671061E+03 -0.18390580241E+04  0.20455901216E+04  0.12699999809E+01 0. -1.
</event>
<event>
 5   0  0.4956214E-06  0.2000769E+04  0.7818609E-02  0.8606261E-01
        2   -1    0    0  501    0  0.00000000000E+00  0.00000000000E+00  0.11965378385E+04  0.11965378385E+04  0.25500000920E-02 0. -1.
       -2   -1    0    0    0  501  0.00000000000E+00  0.00000000000E+00 -0.83638759810E+03  0.83638759810E+03  0.25500000920E-02 0.  1.
    10030    2    1    2    0    0  0.00000000000E+00  0.00000000000E+00  0.36015024044E+03  0.20329254366E+04  0.20007692609E+04 0.  0.
        1    1    3    3  502    0  0.59778595587E+03  0.46054826124E+03 -0.48722708439E+03  0.89824438866E+03  0.50400001928E-02 0.  1.
       -1    1    3    3    0  502 -0.59778595587E+03 -0.46054826124E+03  0.84737732483E+03  0.11346810480E+04  0.50400001928E-02 0. -1.
</event>
<event>
 5   0  0.2386776E-06  0.2000080E+04  0.7818609E-02  0.8606583E-01
        1   -1    0    0  501    0  0.00000000000E+00  0.00000000000E+00  0.75498622869E+03  0.75498622871E+03  0.50400001928E-02 0.  1.
       -1   -1    0    0    0  501  0.00000000000E+00  0.00000000000E+00 -0.13246335732E+04  0.13246335732E+04  0.50400001928E-02 0. -1.
    10030    2    1    2    0    0  0.00000000000E+00  0.00000000000E+00 -0.56964734449E+03  0.20796198019E+04  0.20000801042E+04 0.  0.
        2    1    3    3  502    0 -0.61608617912E+03  0.11536198793E+03 -0.10950490586E+04  0.12617460161E+04  0.25500000920E-02 0. -1.
       -2    1    3    3    0  502  0.61608617912E+03 -0.11536198793E+03  0.52540171410E+03  0.81787378583E+03  0.25500000920E-02 0.  1.
</event>
<event>
 5   0  0.5129100E-06  0.2000993E+04  0.7818609E-02  0.8606157E-01
       -2   -1    0    0    0  501  0.00000000000E+00  0.00000000000E+00  0.79226132525E+03  0.79226132526E+03  0.25500000920E-02 0.  1.
        2   -1    0    0  501    0  0.00000000000E+00  0.00000000000E+00 -0.12634635397E+04  0.12634635397E+04  0.25500000920E-02 0. -1.
    10030    2    1    2    0    0  0.00000000000E+00  0.00000000000E+00 -0.47120221442E+03  0.20557248649E+04  0.20009930518E+04 0.  0.
        2    1    3    3  502    0  0.35509549953E+03 -0.28291808419E+03 -0.11515350216E+04  0.12378078858E+04  0.25500000920E-02 0. -1.
       -2    1    3    3    0  502 -0.35509549953E+03  0.28291808419E+03  0.68033280721E+03  0.81791697911E+03  0.25500000920E-02 0.  1.
</event>
<event>
 5   0  0.4956214E-06  0.1999961E+04  0.7818609E-02  0.8606639E-01
        2   -1    0    0  501    0  0.00000000000E+00  0.00000000000E+00  0.13229293016E+04  0.13229293016E+04  0.25500000920E-02 0.  1.
       -2   -1    0    0    0  501  0.00000000000E+00  0.00000000000E+00 -0.75586888517E+03  0.75586888517E+03  0.25500000920E-02 0. -1.
    10030    2    1    2    0    0  0.00000000000E+00  0.00000000000E+00  0.56706041639E+03  0.20787981867E+04  0.19999610960E+04 0.  0.
        1    1    3    3  502    0 -0.79971274822E+03  0.54891940153E+03  0.53623548351E+03  0.11083327492E+04  0.50400001928E-02 0. -1.
       -1    1    3    3    0  502  0.79971274822E+03 -0.54891940153E+03  0.30824932881E+02  0.97046543759E+03  0.50400001928E-02 0.  1.
</event>
<event>
 5   0  0.5030137E-06  0.1998272E+04  0.7818609E-02  0.8607429E-01
       -2   -1    0    0    0  501  0.00000000000E+00  0.00000000000E+00  0.10100247907E+04  0.10100247907E+04  0.25500000920E-02 0.  1.
        2   -1    0    0  501    0  0.00000000000E+00  0.00000000000E+00 -0.98836473401E+03  0.98836473402E+03  0.25500000920E-02 0. -1.
    10030    2    1    2    0    0  0.00000000000E+00  0.00000000000E+00  0.21660056720E+02  0.19983895248E+04  0.19982721373E+04 0.  0.
        3    1    3    3  502    0 -0.81000956291E+03 -0.45932195656E+03  0.37304009781E+03  0.10031206690E+04  0.10100000352E+00 0.  1.
       -3    1    3    3    0  502  0.81000956291E+03  0.45932195656E+03 -0.35138004109E+03  0.99526885577E+03  0.10100000352E+00 0. -1.
</event>
<event>
 5   0  0.5129100E-06  0.1999363E+04  0.7818609E-02  0.8606919E-01
        2   -1    0    0  501    0  0.00000000000E+00  0.00000000000E+00  0.14529102789E+04  0.14529102789E+04  0.25500000920E-02 0. -1.
       -2   -1    0    0    0  501  0.00000000000E+00  0.00000000000E+00 -0.68783540199E+03  0.68783540199E+03  0.25500000920E-02 0.  1.
    10030    2    1    2    0    0  0.00000000000E+00  0.00000000000E+00  0.76507487688E+03  0.21407456809E+04  0.19993630243E+04 0.  0.
        2    1    3    3  502    0 -0.47712166964E+02 -0.17794732619E+03  0.14345765514E+04  0.14463580413E+04  0.25500000920E-02 0. -1.
       -2    1    3    3    0  502  0.47712166964E+02  0.17794732619E+03 -0.66950167453E+03  0.69438763956E+03  0.25500000920E-02 0.  1.
</event>
<event>
 5   0  0.2379743E-06  0.1998638E+04  0.7818609E-02  0.8607258E-01
        1   -1    0    0  501    0  0.00000000000E+00  0.00000000000E+00  0.85564725844E+03  0.85564725846E+03  0.50400001928E-02 0. -1.
       -1   -1    0    0    0  501  0.00000000000E+00  0.00000000000E+00 -0.11671147582E+04  0.11671147582E+04  0.50400001928E-02 0.  1.
    10030    2    1    2    0    0  0.00000000000E+00  0.00000000000E+00 -0.31146749976E+03  0.20227620167E+04  0.19986380795E+04 0.  0.
        5    1    3    3  502    0 -0.70117474732E+03 -0.36239222133E+03 -0.77602817864E+03  0.11068947431E+04  0.46999998093E+01 0.  1.
       -5    1    3    3    0  502  0.70117474732E+03  0.36239222133E+03  0.46456067888E+03  0.91586727353E+03  0.46999998093E+01 0. -1.
</event>
<event>
 5   0  0.5118981E-06  0.1999712E+04  0.7818609E-02  0.8606756E-01
       -2   -1    0    0    0  501  0.00000000000E+00  0.00000000000E+00  0.11993995332E+04  0.11993995332E+04  0.25500000920E-02 0. -1.
        2   -1    0    0  501    0  0.00000000000E+00  0.00000000000E+00 -0.83351001786E+03  0.83351001787E+03  0.25500000920E-02 0.  1.
    10030    2    1    2    0    0  0.00000000000E+00  0.00000000000E+00  0.36588951536E+03  0.20329095511E+04  0.19997115056E+04 0.  0.
        4    1    3    3  502    0  0.35570555183E+02 -0.72972023602E+03  0.87688452999E+03  0.11413522590E+04  0.12699999809E+01 0. -1.
       -4    1    3    3    0  502 -0.35570555183E+02  0.72972023602E+03 -0.51099501463E+03  0.89155729211E+03  0.12699999809E+01 0.  1.
</event>
<event>
 5   0  0.2311520E-06  0.2000748E+04  0.7818609E-02  0.8606271E-01
       -1   -1    0    0    0  501  0.00000000000E+00  0.00000000000E+00  0.43280091484E+03  0.43280091487E+03  0.50400001928E-02 0. -1.
        1   -1    0    0  501    0  0.00000000000E+00  0.00000000000E+00 -0.23122591107E+04  0.23122591107E+04  0.50400001928E-02 0.  1.
    10030    2    1    2    0    0  0.00000000000E+00  0.00000000000E+00 -0.18794581959E+04  0.27450600256E+04  0.20007477187E+04 0.  0.
        3    1    3    3  502    0  0.86456476399E+03  0.22163178587E+03 -0.15596545854E+04  0.17969739329E+04  0.10100000352E+00 0.  1.
       -3    1    3    3    0  502 -0.86456476399E+03 -0.22163178587E+03 -0.31980361049E+03  0.94808609268E+03  0.10100000352E+00 0. -1.
</event>
<event>
 5   0  0.2311520E-06  0.2000082E+04  0.7818609E-02  0.8606582E-01
       -1   -1    0    0    0  501  0.00000000000E+00  0.00000000000E+00  0.64080065232E+03  0.64080065233E+03  0.50400001928E-02 0.  1.
        1   -1    0    0  501    0  0.00000000000E+00  0.00000000000E+00 -0.15606757582E+04  0.15606757582E+04  0.50400001928E-02 0. -1.
    10030    2    1    2    0    0  0.00000000000E+00  0.00000000000E+00 -0.91987510589E+03  0.22014764105E+04  0.20000820423E+04 0.  0.
        3    1    3    3  502    0 -0.77689734985E+03  0.44239769944E+03  0.33286943201E+02  0.89464699601E+03  0.10100000352E+00 0.  1.
       -3    1    3    3    0  502  0.77689734985E+03 -0.44239769944E+03 -0.95316204909E+03  0.13068294145E+04  0.10100000352E+00 0. -1.
</event>
<event>
 5   0  0.5030137E-06  0.1999158E+04  0.7818609E-02  0.8607014E-01
       -2   -1    0    0    0  501  0.00000000000E+00  0.00000000000E+00  0.38757010236E+03  0.38757010237E+03  0.25500000920E-02 0. -1.
        2   -1    0    0  501    0  0.00000000000E+00  0.00000000000E+00 -0.25780074849E+04  0.25780074849E+04  0.25500000920E-02 0.  1.
    10030    2    1    2    0    0  0.00000000000E+00  0.00000000000E+00 -0.21904373825E+04  0.29655775873E+04  0.19991584478E+04 0.  0.
        3    1    3    3  502    0 -0.14889478937E+03 -0.90965414888E+03 -0.16688188052E+04  0.19064617865E+04  0.10100000352E+00 0.  1.
       -3    1    3    3    0  502  0.14889478937E+03  0.90965414888E+03 -0.52161857737E+03  0.10591158007E+04  0.10100000352E+00 0. -1.
</event>
<event>
 5   0  0.1777750E-06  0.2004913E+04  0.7818609E-02  0.8604327E-01
        3   -1    0    0  501    0  0.00000000000E+00  0.00000000000E+00  0.69511681759E+03  0.69511682493E+03  0.10100000352E+00 0. -1.
       -3   -1    0    0    0  501  0.00000000000E+00  0.00000000000E+00 -0.14456840206E+04  0.14456840242E+04  0.10100000352E+00 0.  1.
    10030    2    1    2    0    0  0.00000000000E+00  0.00000000000E+00 -0.75056720303E+03  0.21408008491E+04  0.20049132523E+04 0.  0.
        3    1    3    3  502    0 -0.60883612590E+03  0.55899164924E+03  0.23040706654E+03  0.85804459012E+03  0.10100000352E+00 0. -1.
       -3    1    3    3    0  502  0.60883612590E+03 -0.55899164924E+03 -0.98097426958E+03  0.12827562590E+04  0.10100000352E+00 0.  1.
</event>
<event>
 5   0  0.2311520E-06  0.1997998E+04  0.7818609E-02  0.8607557E-01
       -1   -1    0    0    0  501  0.00000000000E+00  0.00000000000E+00  0.53226496872E+03  0.53226496875E+03  0.50400001928E-02 0. -1.
        1   -1    0    0  501    0  0.00000000000E+00  0.00000000000E+00 -0.18750038366E+04  0.18750038366E+04  0.50400001928E-02 0.  1.
    10030    2    1    2    0    0  0.00000000000E+00  0.00000000000E+00 -0.13427388679E+04  0.24072688053E+04  0.19979978563E+04 0.  0.
        3    1    3    3  502    0  0.34611973319E+03 -0.25574983274E+03 -0.17575931500E+04  0.18095138955E+04  0.10100000352E+00 0.  1.
       -3    1    3    3    0  502 -0.34611973319E+03  0.25574983274E+03  0.41485428216E+03  0.59775490988E+03  0.10100000352E+00 0. -1.
</event>
<event>
 5   0  0.2356996E-06  0.1998716E+04  0.7818609E-02  0.8607221E-01
        1   -1    0    0  501    0  0.00000000000E+00  0.00000000000E+00  0.22623401485E+04  0.22623401485E+04  0.50400001928E-02 0. -1.
       -1   -1    0    0    0  501  0.00000000000E+00  0.00000000000E+00 -0.44145280342E+03  0.44145280345E+03  0.50400001928E-02 0.  1.
    10030    2    1    2    0    0  0.00000000000E+00  0.00000000000E+00  0.18208873450E+04  0.27037929519E+04  0.19987159887E+04 0.  0.
        4    1    3    3  502    0  0.10028367952E+03  0.16919541721E+02 -0.43443310970E+03  0.44618026287E+03  0.12699999809E+01 0.  1.
       -4    1    3    3    0  502 -0.10028367952E+03 -0.16919541721E+02  0.22553204547E+04  0.22576126890E+04  0.12699999809E+01 0. -1.
</event>
<event>
 5   0  0.2379743E-06  0.1995446E+04  0.7818609E-02  0.8608753E-01
        1   -1    0    0  501    0  0.00000000000E+00  0.00000000000E+00  0.13049457418E+04  0.13049457418E+04  0.50400001928E-02 0.  1.
       -1   -1    0    0    0  501  0.00000000000E+00  0.00000000000E+00 -0.76282989577E+03  0.76282989579E+03  0.50400001928E-02 0. -1.
    10030    2    1    2    0    0  0.00000000000E+00  0.00000000000E+00  0.54211584601E+03  0.20677756376E+04  0.19954464405E+04 0.  0.
        5    1    3    3  502    0  0.73224955444E+03 -0.55241288954E+02 -0.42884130871E+03  0.85039283160E+03  0.46999998093E+01 0. -1.
       -5    1    3    3    0  502 -0.73224955444E+03  0.55241288954E+02  0.97095715472E+03  0.12173828060E+04  0.46999998093E+01 0.  1.
</event>
<event>
 5   0  0.2356996E-06  0.2001910E+04  0.7818609E-02  0.8605728E-01
       -1   -1    0    0    0  501  0.00000000000E+00  0.00000000000E+00  0.68857517458E+03  0.68857517460E+03  0.50400001928E-02 0. -1.
        1   -1    0    0  501    0  0.00000000000E+00  0.00000000000E+00 -0.14550499975E+04  0.14550499975E+04  0.50400001928E-02 0.  1.
    10030    2    1    2    0    0  0.00000000000E+00  0.00000000000E+00 -0.76647482292E+03  0.21436251721E+04  0.20019103937E+04 0.  0.
        4    1    3    3  502    0  0.14425954218E+03  0.27940704003E+03  0.63431185002E+03  0.70797757415E+03  0.12699999809E+01 0. -1.
       -4    1    3    3    0  502 -0.14425954218E+03 -0.27940704003E+03 -0.14007866729E+04  0.14356475980E+04  0.12699999809E+01 0.  1.
</event>
<event>
 5   0  0.5030137E-06  0.2001041E+04  0.7818609E-02  0.8606134E-01
       -2   -1    0    0    0  501  0.00000000000E+00  0.00000000000E+00  0.96321265037E+03  0.96321265037E+03  0.25500000920E-02 0.  1.
        2   -1    0    0  501    0  0.00000000000E+00  0.00000000000E+00 -0.10392734196E+04  0.10392734196E+04  0.25500000920E-02 0. -1.
    10030    2    1    2    0    0  0.00000000000E+00  0.00000000000E+00 -0.76060769227E+02  0.20024860700E+04  0.20010410340E+04 0.  0.
        3    1    3    3  502    0  0.18854821472E+03  0.16459068164E+03  0.93138004434E+03  0.96442175367E+03  0.10100000352E+00 0.  1.
       -3    1    3    3    0  502 -0.18854821472E+03 -0.16459068164E+03 -0.10074408136E+04  0.10380643163E+04  0.10100000352E+00 0. -1.
</event>
<event>
 5   0  0.2313821E-06  0.2000652E+04  0.7818609E-02  0.8606316E-01
       -1   -1    0    0    0  501  0.00000000000E+00  0.00000000000E+00  0.17009838272E+04  0.17009838272E+04  0.50400001928E-02 0.  1.
        1   -1    0    0  501    0  0.00000000000E+00  0.00000000000E+00 -0.58827826579E+03  0.58827826581E+03  0.50400001928E-02 0. -1.
    10030    2    1    2    0    0  0.00000000000E+00  0.00000000000E+00  0.11127055614E+04  0.22892620930E+04  0.20006517099E+04 0.  0.
        1    1    3    3  502    0  0.84567347483E+03 -0.52229640422E+03  0.42742856497E+03  0.10819668840E+04  0.50400001928E-02 0.  1.
       -1    1    3    3    0  502 -0.84567347483E+03  0.52229640422E+03  0.68527699648E+03  0.12072952091E+04  0.50400001928E-02 0. -1.
</event>
<event>
 5   0  0.5030137E-06  0.2000154E+04  0.7818609E-02  0.8606549E-01
       -2   -1    0    0    0  501  0.00000000000E+00  0.00000000000E+00  0.14585716071E+04  0.14585716071E+04  0.25500000920E-02 0.  1.
        2   -1    0    0  501    0  0.00000000000E+00  0.00000000000E+00 -0.68570766900E+03  0.68570766900E+03  0.25500000920E-02 0. -1.
    10030    2    1    2    0    0  0.00000000000E+00  0.00000000000E+00  0.77286393806E+03  0.21442792761E+04  0.20001537308E+04 0.  0.
        3    1    3    3  502    0 -0.37868893491E+02 -0.49423935304E+03  0.13176092653E+04  0.14077644609E+04  0.10100000352E+00 0.  1.
       -3    1    3    3    0  502  0.37868893491E+02  0.49423935304E+03 -0.54474532724E+03  0.73651481515E+03  0.10100000352E+00 0. -1.
</event>
<event>
 5   0  0.5118981E-06  0.2000426E+04  0.7818609E-02  0.8606421E-01
        2   -1    0    0  501    0  0.00000000000E+00  0.00000000000E+00  0.86033750246E+03  0.86033750246E+03  0.25500000920E-02 0.  1.
       -2   -1    0    0    0  501  0.00000000000E+00  0.00000000000E+00 -0.11628298524E+04  0.11628298524E+04  0.25500000920E-02 0. -1.
    10030    2    1    2    0    0  0.00000000000E+00  0.00000000000E+00 -0.30249234997E+03  0.20231673549E+04  0.20004260856E+04 0.  0.
        4    1    3    3  502    0  0.44799753780E+03  0.87705945685E+03  0.25351091319E+02  0.98517986960E+03  0.12699999809E+01 0.  1.
       -4    1    3    3    0  502 -0.44799753780E+03 -0.87705945685E+03 -0.32784344129E+03  0.10379874853E+04  0.12699999809E+01 0. -1.
</event>
<event>
 5   0  0.2313821E-06  0.2001139E+04  0.7818609E-02  0.8606089E-01
        1   -1    0    0  501    0  0.00000000000E+00  0.00000000000E+00  0.79866569588E+03  0.79866569590E+03  0.50400001928E-02 0. -1.
       -1   -1    0    0    0  501  0.00000000000E+00  0.00000000000E+00 -0.12535142694E+04  0.12535142694E+04  0.50400001928E-02 0.  1.
    10030    2    1    2    0    0  0.00000000000E+00  0.00000000000E+00 -0.45484857348E+03  0.20521799653E+04  0.20011385222E+04 0.  0.
        1    1    3    3  502    0  0.74373935294E+03  0.40463110123E+03 -0.77418770056E+03  0.11472755331E+04  0.50400001928E-02 0.  1.
       -1    1    3    3    0  502 -0.74373935294E+03 -0.40463110123E+03  0.31933912708E+03  0.90490443214E+03  0.50400001928E-02 0. -1.
</event>
<event>
 5   0  0.2313821E-06  0.1999423E+04  0.7818609E-02  0.8606890E-01
       -1   -1    0    0    0  501  0.00000000000E+00  0.00000000000E+00  0.11083235588E+04  0.11083235588E+04  0.50400001928E-02 0.  1.
        1   -1    0    0  501    0  0.00000000000E+00  0.00000000000E+00 -0.90174326981E+03  0.90174326983E+03  0.50400001928E-02 0. -1.
    10030    2    1    2    0    0  0.00000000000E+00  0.00000000000E+00  0.20658028898E+03  0.20100668286E+04  0.19994232268E+04 0.  0.
        1    1    3    3  502    0 -0.47376149374E+03  0.15644427745E+03  0.97421501185E+03  0.10945408417E+04  0.50400001928E-02 0.  1.
       -1    1    3    3    0  502  0.47376149374E+03 -0.15644427745E+03 -0.76763472287E+03  0.91552598689E+03  0.50400001928E-02 0. -1.
</event>
<event>
 5   0  0.5129100E-06  0.1999203E+04  0.7818609E-02  0.8606993E-01
       -2   -1    0    0    0  501  0.00000000000E+00  0.00000000000E+00  0.81674726010E+03  0.81674726011E+03  0.25500000920E-02 0. -1.
        2   -1    0    0  501    0  0.00000000000E+00  0.00000000000E+00 -0.12233932916E+04  0.12233932916E+04  0.25500000920E-02 0.  1.
    10030    2    1    2    0    0  0.00000000000E+00  0.00000000000E+00 -0.40664603146E+03  0.20401405517E+04  0.19992029601E+04 0.  0.
        2    1    3    3  502    0 -0.70129142854E+03 -0.31756334608E+02  0.52285586233E+03  0.87532644500E+03  0.25500000920E-02 0. -1.
       -2    1    3    3    0  502  0.70129142854E+03  0.31756334608E+02 -0.92950189379E+03  0.11648141067E+04  0.25500000920E-02 0.  1.
</event>
<event>
 5   0  0.5030137E-06  0.2000287E+04  0.7818609E-02  0.8606487E-01
       -2   -1    0    0    0  501  0.00000000000E+00  0.00000000000E+00  0.95335766529E+03  0.95335766529E+03  0.25500000920E-02 0. -1.
        2   -1    0    0  501    0  0.00000000000E+00  0.00000000000E+00 -0.10492252167E+04  0.10492252167E+04  0.25500000920E-02 0.  1.
    10030    2    1    2    0    0  0.00000000000E+00  0.00000000000E+00 -0.95867551431E+02  0.20025828820E+04  0.20002868824E+04 0.  0.
        3    1    3    3  502    0  0.25522425325E+02 -0.94717618812E+03 -0.36844616530E+03  0.10166349947E+04  0.10100000352E+00 0.  1.
       -3    1    3    3    0  502 -0.25522425325E+02  0.94717618812E+03  0.27257861387E+03  0.98594788730E+03  0.10100000352E+00 0. -1.
</event>
<event>
 5   0  0.2356996E-06  0.2000780E+04  0.7818609E-02  0.8606256E-01
        1   -1    0    0  501    0  0.00000000000E+00  0.00000000000E+00  0.23114974698E+04  0.23114974698E+04  0.50400001928E-02 0.  1.
       -1   -1    0    0    0  501  0.00000000000E+00  0.00000000000E+00 -0.43295734179E+03  0.43295734182E+03  0.50400001928E-02 0. -1.
    10030    2    1    2    0    0  0.00000000000E+00  0.00000000000E+00  0.18785401280E+04  0.27444548116E+04  0.20007796481E+04 0.  0.
        4    1    3    3  502    0  0.12118936057E+03 -0.85700066673E+03  0.25117620391E+03  0.90123698449E+03  0.12699999809E+01 0.  1.
       -4    1    3    3    0  502 -0.12118936057E+03  0.85700066673E+03  0.16273639241E+04  0.18432178271E+04  0.12699999809E+01 0. -1.
</event>
<event>
 5   0  0.2386776E-06  0.2001501E+04  0.7818609E-02  0.8605919E-01
       -1   -1    0    0    0  501  0.00000000000E+00  0.00000000000E+00  0.78670646308E+03  0.78670646309E+03  0.50400001928E-02 0. -1.
        1   -1    0    0  501    0  0.00000000000E+00  0.00000000000E+00 -0.12730310197E+04  0.12730310197E+04  0.50400001928E-02 0.  1.
    10030    2    1    2    0    0  0.00000000000E+00  0.00000000000E+00 -0.48632455665E+03  0.20597374828E+04  0.20015011676E+04 0.  0.
        2    1    3    3  502    0  0.51381184343E+03  0.42753727194E+03 -0.10096221360E+04  0.12108375559E+04  0.25500000920E-02 0.  1.
       -2    1    3    3    0  502 -0.51381184343E+03 -0.42753727194E+03  0.52329757934E+03  0.84889992690E+03  0.25500000920E-02 0. -1.
</event>
<event>
 5   0  0.2313821E-06  0.1999922E+04  0.7818609E-02  0.8606657E-01
        1   -1    0    0  501    0  0.00000000000E+00  0.00000000000E+00  0.27610663230E+04  0.27610663230E+04  0.50400001928E-02 0. -1.
       -1   -1    0    0    0  501  0.00000000000E+00  0.00000000000E+00 -0.36215071751E+03  0.36215071754E+03  0.50400001928E-02 0.  1.
    10030    2    1    2    0    0  0.00000000000E+00  0.00000000000E+00  0.23989156055E+04  0.31232170405E+04  0.19999221485E+04 0.  0.
        1    1    3    3  502    0 -0.51738251721E+03 -0.20990882299E+03 -0.96046212026E+02  0.56654325338E+03  0.50400001928E-02 0.  1.
       -1    1    3    3    0  502  0.51738251721E+03  0.20990882299E+03  0.24949618175E+04  0.25566737872E+04  0.50400001928E-02 0. -1.
</event>
<event>
 5   0  0.5129100E-06  0.2005336E+04  0.7818609E-02  0.8604130E-01
       -2   -1    0    0    0  501  0.00000000000E+00  0.00000000000E+00  0.83354445838E+03  0.83354445838E+03  0.25500000920E-02 0. -1.
        2   -1    0    0  501    0  0.00000000000E+00  0.00000000000E+00 -0.12061060671E+04  0.12061060671E+04  0.25500000920E-02 0.  1.
    10030    2    1    2    0    0  0.00000000000E+00  0.00000000000E+00 -0.37256160872E+03  0.20396505255E+04  0.20053359105E+04 0.  0.
        2    1    3    3  502    0  0.61519616201E+03  0.25668999636E+03  0.57552628943E+03  0.88067393615E+03  0.25500000920E-02 0. -1.
       -2    1    3    3    0  502 -0.61519616201E+03 -0.25668999636E+03 -0.94808789815E+03  0.11589765893E+04  0.25500000920E-02 0.  1.
</event>
<event>
 5   0  0.2379743E-06  0.2000956E+04  0.7818609E-02  0.8606174E-01
        1   -1    0    0  501    0  0.00000000000E+00  0.00000000000E+00  0.11616298482E+04  0.11616298482E+04  0.50400001928E-02 0. -1.
       -1   -1    0    0    0  501  0.00000000000E+00  0.00000000000E+00 -0.86168226807E+03  0.86168226808E+03  0.50400001928E-02 0.  1.
    10030    2    1    2    0    0  0.00000000000E+00  0.00000000000E+00  0.29994758009E+03  0.20233121162E+04  0.20009556139E+04 0.  0.
        5    1    3    3  502    0  0.74561982575E+03  0.11371923420E+03  0.81462503236E+03  0.11101878319E+04  0.46999998093E+01 0. -1.
       -5    1    3    3    0  502 -0.74561982575E+03 -0.11371923420E+03 -0.51467745227E+03  0.91312428434E+03  0.46999998093E+01 0.  1.
</event>
<event>
 5   0  0.2311520E-06  0.1998437E+04  0.7818609E-02  0.8607352E-01
        1   -1    0    0  501    0  0.00000000000E+00  0.00000000000E+00  0.10929325281E+04  0.10929325281E+04  0.50400001928E-02 0. -1.
       -1   -1    0    0    0  501  0.00000000000E+00  0.00000000000E+00 -0.91354037740E+03  0.91354037742E+03  0.50400001928E-02 0.  1.
    10030    2    1    2    0    0  0.00000000000E+00  0.00000000000E+00  0.17939215069E+03  0.20064729055E+04  0.19984373838E+04 0.  0.
        3    1    3    3  502    0 -0.80149080948E+03 -0.30072031759E+03  0.60714954911E+03  0.10495002679E+04  0.10100000352E+00 0. -1.
       -3    1    3    3    0  502  0.80149080948E+03  0.30072031759E+03 -0.42775739842E+03  0.95697263764E+03  0.10100000352E+00 0.  1.
</event>
<event>
 5   0  0.5030137E-06  0.1999780E+04  0.7818609E-02  0.8606724E-01
        2   -1    0    0  501    0  0.00000000000E+00  0.00000000000E+00  0.70023821406E+03  0.70023821406E+03  0.25500000920E-02 0.  1.
       -2   -1    0    0    0  501  0.00000000000E+00  0.00000000000E+00 -0.14277706868E+04  0.14277706868E+04  0.25500000920E-02 0. -1.
    10030    2    1    2    0    0  0.00000000000E+00  0.00000000000E+00 -0.72753247275E+03  0.21280089009E+04  0.19997795837E+04 0.  0.
        3    1    3    3  502    0  0.35506253200E+03 -0.59328809978E+03 -0.11323829236E+04  0.13267822982E+04  0.10100000352E+00 0. -1.
       -3    1    3    3    0  502 -0.35506253200E+03  0.59328809978E+03  0.40485045089E+03  0.80122660263E+03  0.10100000352E+00 0.  1.
</event>
<event>
 5   0  0.5030137E-06  0.1999128E+04  0.7818609E-02  0.8607029E-01
        2   -1    0    0  501    0  0.00000000000E+00  0.00000000000E+00  0.95223260886E+03  0.95223260886E+03  0.25500000920E-02 0.  1.
       -2   -1    0    0    0  501  0.00000000000E+00  0.00000000000E+00 -0.10492479306E+04  0.10492479306E+04  0.25500000920E-02 0. -1.
    10030    2    1    2    0    0  0.00000000000E+00  0.00000000000E+00 -0.97015321753E+02  0.20014805395E+04  0.19991279042E+04 0.  0.
        3    1    3    3  502    0  0.84110984006E+03 -0.47167854954E+03 -0.31184127631E+03  0.10135045185E+04  0.10100000352E+00 0. -1.
       -3    1    3    3    0  502 -0.84110984006E+03  0.47167854954E+03  0.21482595455E+03  0.98797602101E+03  0.10100000352E+00 0.  1.
</event>
<event>
 5   0  0.2313821E-06  0.2000472E+04  0.7818609E-02  0.8606400E-01
       -1   -1    0    0    0  501  0.00000000000E+00  0.00000000000E+00  0.69589602471E+03  0.69589602473E+03  0.50400001928E-02 0.  1.
        1   -1    0    0  501    0  0.00000000000E+00  0.00000000000E+00 -0.14376753136E+04  0.14376753136E+04  0.50400001928E-02 0. -1.
    10030    2    1    2    0    0  0.00000000000E+00  0.00000000000E+00 -0.74177928891E+03  0.21335713384E+04  0.20004724798E+04 0.  0.
        1    1    3    3  502    0 -0.96033031838E+03  0.62584143320E+02 -0.66164762627E+03  0.11678735705E+04  0.50400001928E-02 0. -1.
       -1    1    3    3    0  502  0.96033031838E+03 -0.62584143320E+02 -0.80131662635E+02  0.96569776782E+03  0.50400001928E-02 0.  1.
</event>
<event>
 5   0  0.4956214E-06  0.1999975E+04  0.7818609E-02  0.8606632E-01
       -2   -1    0    0    0  501  0.00000000000E+00  0.00000000000E+00  0.51124036896E+03  0.51124036897E+03  0.25500000920E-02 0.  1.
        2   -1    0    0  501    0  0.00000000000E+00  0.00000000000E+00 -0.19559785226E+04  0.19559785226E+04  0.25500000920E-02 0. -1.
    10030    2    1    2    0    0  0.00000000000E+00  0.00000000000E+00 -0.14447381536E+04  0.24672188916E+04  0.19999751814E+04 0.  0.
        1    1    3    3  502    0  0.88493371218E+03  0.39356461927E+03 -0.41526241978E+03  0.10537759068E+04  0.50400001928E-02 0.  1.
       -1    1    3    3    0  502 -0.88493371218E+03 -0.39356461927E+03 -0.10294757338E+04  0.14134429847E+04  0.50400001928E-02 0. -1.
</event>
<event>
 5   0  0.2356996E-06  0.1999585E+04  0.7818609E-02  0.8606815E-01
        1   -1    0    0  501    0  0.00000000000E+00  0.00000000000E+00  0.12665720307E+04  0.12665720307E+04  0.50400001928E-02 0.  1.
       -1   -1    0    0    0  501  0.00000000000E+00  0.00000000000E+00 -0.78920496549E+03  0.78920496550E+03  0.50400001928E-02 0. -1.
    10030    2    1    2    0    0  0.00000000000E+00  0.00000000000E+00  0.47736706522E+03  0.20557769962E+04  0.19995848927E+04 0.  0.
        4    1    3    3  502    0  0.86073699432E+03  0.47723096275E+03  0.41959954669E+03  0.10698985735E+04  0.12699999809E+01 0.  1.
       -4    1    3    3    0  502 -0.86073699432E+03 -0.47723096275E+03  0.57767518530E+02  0.98587842267E+03  0.12699999809E+01 0. -1.
</event>
<event>
 5   0  0.2313821E-06  0.2001079E+04  0.7818609E-02  0.8606116E-01
        1   -1    0    0  501    0  0.00000000000E+00  0.00000000000E+00  0.70326492127E+03  0.70326492129E+03  0.50400001928E-02 0. -1.
       -1   -1    0    0    0  501  0.00000000000E+00  0.00000000000E+00 -0.14234737725E+04  0.14234737725E+04  0.50400001928E-02 0.  1.
    10030    2    1    2    0    0  0.00000000000E+00  0.00000000000E+00 -0.72020885121E+03  0.21267386938E+04  0.20010788796E+04 0.  0.
        1    1    3    3  502    0  0.65180453253E+03 -0.35509072394E+03  0.35295219576E+03  0.82189647972E+03  0.50400001928E-02 0. -1.
       -1    1    3    3    0  502 -0.65180453253E+03  0.35509072394E+03 -0.10731610470E+04  0.13048422141E+04  0.50400001928E-02 0.  1.
</event>
<event>
 5   0  0.2386776E-06  0.1994655E+04  0.7818609E-02  0.8609124E-01
       -1   -1    0    0    0  501  0.00000000000E+00  0.00000000000E+00  0.76017286513E+03  0.76017286514E+03  0.50400001928E-02 0. -1.
        1   -1    0    0  501    0  0.00000000000E+00  0.00000000000E+00 -0.13084687157E+04  0.13084687157E+04  0.50400001928E-02 0.  1.
    10030    2    1    2    0    0  0.00000000000E+00  0.00000000000E+00 -0.54829585058E+03  0.20686415809E+04  0.19946552710E+04 0.  0.
        2    1    3    3  502    0 -0.61396517899E+03 -0.40705681093E+03  0.42310975660E+03  0.84951183304E+03  0.25500000920E-02 0. -1.
       -2    1    3    3    0  502  0.61396517899E+03  0.40705681093E+03 -0.97140560718E+03  0.12191297478E+04  0.25500000920E-02 0.  1.
</event>
<event>
 5   0  0.5030137E-06  0.1999805E+04  0.7818609E-02  0.8606712E-01
        2   -1    0    0  501    0  0.00000000000E+00  0.00000000000E+00  0.18395352912E+04  0.18395352912E+04  0.25500000920E-02 0.  1.
       -2   -1    0    0    0  501  0.00000000000E+00  0.00000000000E+00 -0.54350977789E+03  0.54350977789E+03  0.25500000920E-02 0. -1.
    10030    2    1    2    0    0  0.00000000000E+00  0.00000000000E+00  0.12960255133E+04  0.23830450691E+04  0.19998054081E+04 0.  0.
        3    1    3    3  502    0  0.63180616213E+00  0.99914829172E+03  0.69428301108E+03  0.12166867377E+04  0.10100000352E+00 0.  1.
       -3    1    3    3    0  502 -0.63180616213E+00 -0.99914829172E+03  0.60174250225E+03  0.11663583314E+04  0.10100000352E+00 0. -1.
</event>
<event>
 5   0  0.2356996E-06  0.1999531E+04  0.7818609E-02  0.8606840E-01
       -1   -1    0    0    0  501  0.00000000000E+00  0.00000000000E+00  0.97322463378E+03  0.97322463379E+03  0.50400001928E-02 0.  1.
        1   -1    0    0  501    0  0.00000000000E+00  0.00000000000E+00 -0.10270305185E+04  0.10270305185E+04  0.50400001928E-02 0. -1.
    10030    2    1    2    0    0  0.00000000000E+00  0.00000000000E+00 -0.53805884693E+02  0.20002551523E+04  0.19995313453E+04 0.  0.
        4    1    3    3  502    0  0.92987003483E+03  0.21210860168E+03 -0.32681381345E+03  0.10081950318E+04  0.12699999809E+01 0. -1.
       -4    1    3    3    0  502 -0.92987003483E+03 -0.21210860168E+03  0.27300792876E+03  0.99206012048E+03  0.12699999809E+01 0.  1.
</event>
<event>
 5   0  0.2386776E-06  0.1998961E+04  0.7818609E-02  0.8607106E-01
        1   -1    0    0  501    0  0.00000000000E+00  0.00000000000E+00  0.17343681499E+04  0.17343681500E+04  0.50400001928E-02 0. -1.
       -1   -1    0    0    0  501  0.00000000000E+00  0.00000000000E+00 -0.57598004357E+03  0.57598004360E+03  0.50400001928E-02 0.  1.
    10030    2    1    2    0    0  0.00000000000E+00  0.00000000000E+00  0.11583881064E+04  0.23103481936E+04  0.19989611728E+04 0.  0.
        2    1    3    3  502    0 -0.42044091605E+03 -0.84219452661E+03  0.19084824397E+03  0.96046095015E+03  0.25500000920E-02 0.  1.
       -2    1    3    3    0  502  0.42044091605E+03  0.84219452661E+03  0.96753986241E+03  0.13498872434E+04  0.25500000920E-02 0. -1.
</event>
<event>
 5   0  0.5129100E-06  0.1999331E+04  0.7818609E-02  0.8606933E-01
        2   -1    0    0  501    0  0.00000000000E+00  0.00000000000E+00  0.10294072775E+04  0.10294072775E+04  0.25500000920E-02 0.  1.
       -2   -1    0    0    0  501  0.00000000000E+00  0.00000000000E+00 -0.97078310534E+03  0.97078310534E+03  0.25500000920E-02 0. -1.
    10030    2    1    2    0    0  0.00000000000E+00  0.00000000000E+00  0.58624172158E+02  0.20001903828E+04  0.19993310817E+04 0.  0.
        2    1    3    3  502    0 -0.48951302957E+03  0.47229384096E+03 -0.70356451320E+03  0.97861509418E+03  0.25500000920E-02 0. -1.
       -2    1    3    3    0  502  0.48951302957E+03 -0.47229384096E+03  0.76218868535E+03  0.10215752887E+04  0.25500000920E-02 0.  1.
</event>
<event>
 5   0  0.2311520E-06  0.2000288E+04  0.7818609E-02  0.8606486E-01
       -1   -1    0    0    0  501  0.00000000000E+00  0.00000000000E+00  0.15181579207E+04  0.15181579207E+04  0.50400001928E-02 0.  1.
        1   -1    0    0  501    0  0.00000000000E+00  0.00000000000E+00 -0.65888239418E+03  0.65888239420E+03  0.50400001928E-02 0. -1.
    10030    2    1    2    0    0  0.00000000000E+00  0.00000000000E+00  0.85927552648E+03  0.21770403149E+04  0.20002875049E+04 0.  0.
        3    1    3    3  502    0  0.39894152321E+02 -0.94034388852E+03  0.61440376409E+02  0.94319303544E+03  0.10100000352E+00 0. -1.
       -3    1    3    3    0  502 -0.39894152321E+02  0.94034388852E+03  0.79783515007E+03  0.12338472794E+04  0.10100000352E+00 0.  1.
</event>
<event>
 5   0  0.5251252E-06  0.1998935E+04  0.7818609E-02  0.8607119E-01
       -2   -1    0    0    0  501  0.00000000000E+00  0.00000000000E+00  0.55333422095E+03  0.55333422096E+03  0.25500000920E-02 0.  1.
        2   -1    0    0  501    0  0.00000000000E+00  0.00000000000E+00 -0.18053025097E+04  0.18053025097E+04  0.25500000920E-02 0. -1.
    10030    2    1    2    0    0  0.00000000000E+00  0.00000000000E+00 -0.12519682887E+04  0.23586367306E+04  0.19989353744E+04 0.  0.
        5    1    3    3  502    0 -0.19955351598E+03  0.95354531179E+03 -0.36255386060E+03  0.10394891338E+04  0.46999998093E+01 0.  1.
       -5    1    3    3    0  502  0.19955351598E+03 -0.95354531179E+03 -0.88941442811E+03  0.13191475969E+04  0.46999998093E+01 0. -1.
</event>
<event>
 5   0  0.2311520E-06  0.1997912E+04  0.7818609E-02  0.8607597E-01
        1   -1    0    0  501    0  0.00000000000E+00  0.00000000000E+00  0.96945119191E+03  0.96945119192E+03  0.50400001928E-02 0. -1.
       -1   -1    0    0    0  501  0.00000000000E+00  0.00000000000E+00 -0.10293590792E+04  0.10293590792E+04  0.50400001928E-02 0.  1.
    10030    2    1    2    0    0  0.00000000000E+00  0.00000000000E+00 -0.59907887295E+02  0.19988102711E+04  0.19979122966E+04 0.  0.
        3    1    3    3  502    0  0.67150202392E+03 -0.70849115958E+03 -0.24227252427E+03  0.10057686998E+04  0.10100000352E+00 0.  1.
       -3    1    3    3    0  502 -0.67150202392E+03  0.70849115958E+03  0.18236463698E+03  0.99304157131E+03  0.10100000352E+00 0. -1.
</event>
<event>
 5   0  0.5129100E-06  0.2001465E+04  0.7818609E-02  0.8605936E-01
       -2   -1    0    0    0  501  0.00000000000E+00  0.00000000000E+00  0.63616501255E+03  0.63616501255E+03  0.25500000920E-02 0.  1.
        2   -1    0    0  501    0  0.00000000000E+00  0.00000000000E+00 -0.15742235889E+04  0.15742235889E+04  0.25500000920E-02 0. -1.
    10030    2    1    2    0    0  0.00000000000E+00  0.00000000000E+00 -0.93805857635E+03  0.22103886015E+04  0.20014654323E+04 0.  0.
        2    1    3    3  502    0 -0.16837498760E+03  0.10033968545E+03  0.61475900586E+03  0.64524942791E+03  0.25500000920E-02 0.  1.
       -2    1    3    3    0  502  0.16837498760E+03 -0.10033968545E+03 -0.15528175822E+04  0.15651391735E+04  0.25500000920E-02 0. -1.
</event>
<event>
 5   0  0.5129100E-06  0.1999983E+04  0.7818609E-02  0.8606628E-01
       -2   -1    0    0    0  501  0.00000000000E+00  0.00000000000E+00  0.63423632704E+03  0.63423632704E+03  0.25500000920E-02 0.  1.
        2   -1    0    0  501    0  0.00000000000E+00  0.00000000000E+00 -0.15766729350E+04  0.15766729350E+04  0.25500000920E-02 0. -1.
    10030    2    1    2    0    0  0.00000000000E+00  0.00000000000E+00 -0.94243660796E+03  0.22109092620E+04  0.19999832512E+04 0.  0.
        2    1    3    3  502    0  0.50773636745E+03 -0.59093270257E+02  0.47889881969E+03  0.70045150648E+03  0.25500000920E-02 0.  1.
       -2    1    3    3    0  502 -0.50773636745E+03  0.59093270257E+02 -0.14213354277E+04  0.15104577556E+04  0.25500000920E-02 0. -1.
</event>
<event>
 5   0  0.2313821E-06  0.2000251E+04  0.7818609E-02  0.8606504E-01
        1   -1    0    0  501    0  0.00000000000E+00  0.00000000000E+00  0.94940192856E+03  0.94940192857E+03  0.50400001928E-02 0. -1.
       -1   -1    0    0    0  501  0.00000000000E+00  0.00000000000E+00 -0.10535586288E+04  0.10535586289E+04  0.50400001928E-02 0.  1.
    10030    2    1    2    0    0  0.00000000000E+00  0.00000000000E+00 -0.10415670028E+03  0.20029605574E+04  0.20002505784E+04 0.  0.
        1    1    3    3  502    0 -0.46943393037E+02  0.21798348691E+03  0.92419387115E+03  0.95071278219E+03  0.50400001928E-02 0. -1.
       -1    1    3    3    0  502  0.46943393037E+02 -0.21798348691E+03 -0.10283505714E+04  0.10522477752E+04  0.50400001928E-02 0.  1.
</event>
<event>
 5   0  0.5030137E-06  0.1996570E+04  0.7818609E-02  0.8608226E-01
       -2   -1    0    0    0  501  0.00000000000E+00  0.00000000000E+00  0.14201941518E+04  0.14201941518E+04  0.25500000920E-02 0.  1.
        2   -1    0    0  501    0  0.00000000000E+00  0.00000000000E+00 -0.70171587987E+03  0.70171587987E+03  0.25500000920E-02 0. -1.
    10030    2    1    2    0    0  0.00000000000E+00  0.00000000000E+00  0.71847827191E+03  0.21219100317E+04  0.19965698473E+04 0.  0.
        3    1    3    3  502    0  0.80490684472E+02  0.69741644908E+03  0.11135151509E+04  0.13163527093E+04  0.10100000352E+00 0.  1.
       -3    1    3    3    0  502 -0.80490684472E+02 -0.69741644908E+03 -0.39503687896E+03  0.80555732240E+03  0.10100000352E+00 0. -1.
</event>
<event>
 5   0  0.5129100E-06  0.1997777E+04  0.7818609E-02  0.8607660E-01
       -2   -1    0    0    0  501  0.00000000000E+00  0.00000000000E+00  0.49305754576E+03  0.49305754577E+03  0.25500000920E-02 0. -1.
        2   -1    0    0  501    0  0.00000000000E+00  0.00000000000E+00 -0.20236557408E+04  0.20236557408E+04  0.25500000920E-02 0.  1.
    10030    2    1    2    0    0  0.00000000000E+00  0.00000000000E+00 -0.15305981950E+04  0.25167132866E+04  0.19977774982E+04 0.  0.
        2    1    3    3  502    0 -0.69740536010E+03  0.65585549441E+03 -0.40619540676E+03  0.10399593138E+04  0.25500000920E-02 0. -1.
       -2    1    3    3    0  502  0.69740536010E+03 -0.65585549441E+03 -0.11244027883E+04  0.14767539728E+04  0.25500000920E-02 0.  1.
</event>
<event>
 5   0  0.2311520E-06  0.2000506E+04  0.7818609E-02  0.8606384E-01
        1   -1    0    0  501    0  0.00000000000E+00  0.00000000000E+00  0.76787656843E+03  0.76787656845E+03  0.50400001928E-02 0. -1.
       -1   -1    0    0    0  501  0.00000000000E+00  0.00000000000E+00 -0.13029519365E+04  0.13029519365E+04  0.50400001928E-02 0.  1.
    10030    2    1    2    0    0  0.00000000000E+00  0.00000000000E+00 -0.53507536805E+03  0.20708285049E+04  0.20005061978E+04 0.  0.
        3    1    3    3  502    0  0.73883022245E+03 -0.65570541934E+03 -0.10489501378E+03  0.99338948488E+03  0.10100000352E+00 0.  1.
       -3    1    3    3    0  502 -0.73883022245E+03  0.65570541934E+03 -0.43018035428E+03  0.10774390201E+04  0.10100000352E+00 0. -1.
</event>
<event>
 5   0  0.2311520E-06  0.1998174E+04  0.7818609E-02  0.8607475E-01
       -1   -1    0    0    0  501  0.00000000000E+00  0.00000000000E+00  0.11107482345E+04  0.11107482346E+04  0.50400001928E-02 0. -1.
        1   -1    0    0  501    0  0.00000000000E+00  0.00000000000E+00 -0.89865046120E+03  0.89865046122E+03  0.50400001928E-02 0.  1.
    10030    2    1    2    0    0  0.00000000000E+00  0.00000000000E+00  0.21209777334E+03  0.20093986958E+04  0.19981735793E+04 0.  0.
        3    1    3    3  502    0 -0.18946922515E+03 -0.75314048544E+03  0.73811398347E+03  0.10714156247E+04  0.10100000352E+00 0. -1.
       -3    1    3    3    0  502  0.18946922515E+03  0.75314048544E+03 -0.52601621013E+03  0.93798307106E+03  0.10100000352E+00 0.  1.
</event>
<event>
 5   0  0.2356996E-06  0.1999342E+04  0.7818609E-02  0.8606928E-01
        1   -1    0    0  501    0  0.00000000000E+00  0.00000000000E+00  0.17059880410E+04  0.17059880410E+04  0.50400001928E-02 0. -1.
       -1   -1    0    0    0  501  0.00000000000E+00  0.00000000000E+00 -0.58578513338E+03  0.58578513340E+03  0.50400001928E-02 0.  1.
    10030    2    1    2    0    0  0.00000000000E+00  0.00000000000E+00  0.11202029076E+04  0.22917731744E+04  0.19993423240E+04 0.  0.
        4    1    3    3  502    0 -0.93979778201E+03  0.82407542328E+02  0.18108851424E+03  0.96062767865E+03  0.12699999809E+01 0.  1.
       -4    1    3    3    0  502  0.93979778201E+03 -0.82407542328E+02  0.93911439335E+03  0.13311454957E+04  0.12699999809E+01 0. -1.
</event>
<event>
 5   0  0.5030137E-06  0.2000551E+04  0.7818609E-02  0.8606363E-01
        2   -1    0    0  501    0  0.00000000000E+00  0.00000000000E+00  0.14759430670E+04  0.14759430670E+04  0.25500000920E-02 0.  1.
       -2   -1    0    0    0  501  0.00000000000E+00  0.00000000000E+00 -0.67790637447E+03  0.67790637447E+03  0.25500000920E-02 0. -1.
    10030    2    1    2    0    0  0.00000000000E+00  0.00000000000E+00  0.79803669255E+03  0.21538494415E+04  0.20005511376E+04 0.  0.
        3    1    3    3  502    0 -0.18388928859E+03  0.49142751758E+02 -0.65822869788E+03  0.68519727774E+03  0.10100000352E+00 0. -1.
       -3    1    3    3    0  502  0.18388928859E+03 -0.49142751758E+02  0.14562653904E+04  0.14686521638E+04  0.10100000352E+00 0.  1.
</event>
<event>
 5   0  0.5129100E-06  0.1999961E+04  0.7818609E-02  0.8606639E-01
        2   -1    0    0  501    0  0.00000000000E+00  0.00000000000E+00  0.17681353228E+04  0.17681353228E+04  0.25500000920E-02 0. -1.
       -2   -1    0    0    0  501  0.00000000000E+00  0.00000000000E+00 -0.56554578946E+03  0.56554578946E+03  0.25500000920E-02 0.  1.
    10030    2    1    2    0    0  0.00000000000E+00  0.00000000000E+00  0.12025895333E+04  0.23336811123E+04  0.19999614866E+04 0.  0.
        2    1    3    3  502    0 -0.12928277944E+03  0.67107017094E+03 -0.25052505323E+03  0.72788186794E+03  0.25500000920E-02 0.  1.
       -2    1    3    3    0  502  0.12928277944E+03 -0.67107017094E+03  0.14531145866E+04  0.16057992443E+04  0.25500000920E-02 0. -1.
</event>
<event>
 5   0  0.5118981E-06  0.2000228E+04  0.7818609E-02  0.8606514E-01
        2   -1    0    0  501    0  0.00000000000E+00  0.00000000000E+00  0.14403775091E+04  0.14403775091E+04  0.25500000920E-02 0.  1.
       -2   -1    0    0    0  501  0.00000000000E+00  0.00000000000E+00 -0.69442043503E+03  0.69442043504E+03  0.25500000920E-02 0. -1.
    10030    2    1    2    0    0  0.00000000000E+00  0.00000000000E+00  0.74595707406E+03  0.21347979441E+04  0.20002275635E+04 0.  0.
        4    1    3    3  502    0 -0.70743307557E+03 -0.28377395978E+02 -0.38091471388E+03  0.80396795034E+03  0.12699999809E+01 0. -1.
       -4    1    3    3    0  502  0.70743307557E+03  0.28377395978E+02  0.11268717879E+04  0.13308299938E+04  0.12699999809E+01 0.  1.
</event>
<event>
 5   0  0.2386776E-06  0.1999135E+04  0.7818609E-02  0.8607025E-01
        1   -1    0    0  501    0  0.00000000000E+00  0.00000000000E+00  0.14690743160E+04  0.14690743160E+04  0.50400001928E-02 0.  1.
       -1   -1    0    0    0  501  0.00000000000E+00  0.00000000000E+00 -0.68011181888E+03  0.68011181890E+03  0.50400001928E-02 0. -1.
    10030    2    1    2    0    0  0.00000000000E+00  0.00000000000E+00  0.78896249709E+03  0.21491861349E+04  0.19991346179E+04 0.  0.
        2    1    3    3  502    0 -0.24886596174E+01 -0.49325499460E+03 -0.54015692237E+03  0.73148901831E+03  0.25500000920E-02 0. -1.
       -2    1    3    3    0  502  0.24886596174E+01  0.49325499460E+03  0.13291194195E+04  0.14176971166E+04  0.25500000920E-02 0.  1.
</event>
<event>
 5   0  0.1777750E-06  0.2000206E+04  0.7818609E-02  0.8606524E-01
       -3   -1    0    0    0  501  0.00000000000E+00  0.00000000000E+00  0.22773119564E+04  0.22773119587E+04  0.10100000352E+00 0. -1.
        3   -1    0    0  501    0  0.00000000000E+00  0.00000000000E+00 -0.43920459861E+03  0.43920461023E+03  0.10100000352E+00 0.  1.
    10030    2    1    2    0    0  0.00000000000E+00  0.00000000000E+00  0.18381073578E+04  0.27165165689E+04  0.20002058920E+04 0.  0.
        5    1    3    3  502    0  0.74432961300E+03  0.61815324831E+03  0.57535631040E+03  0.11256984432E+04  0.46999998093E+01 0.  1.
       -5    1    3    3    0  502 -0.74432961300E+03 -0.61815324831E+03  0.12627510474E+04  0.15908181257E+04  0.46999998093E+01 0. -1.
</event>
<event>
 5   0  0.5030137E-06  0.2000416E+04  0.7818609E-02  0.8606426E-01
        2   -1    0    0  501    0  0.00000000000E+00  0.00000000000E+00  0.11398815094E+04  0.11398815094E+04  0.25500000920E-02 0.  1.
       -2   -1    0    0    0  501  0.00000000000E+00  0.00000000000E+00 -0.87764957813E+03  0.87764957813E+03  0.25500000920E-02 0. -1.
    10030    2    1    2    0    0  0.00000000000E+00  0.00000000000E+00  0.26223193129E+03  0.20175310876E+04  0.20004164825E+04 0.  0.
        3    1    3    3  502    0  0.40482888048E+03  0.42723564999E+03  0.94673737363E+03  0.11147772818E+04  0.10100000352E+00 0.  1.
       -3    1    3    3    0  502 -0.40482888048E+03 -0.42723564999E+03 -0.68450544234E+03  0.90275380580E+03  0.10100000352E+00 0. -1.
</event>
<event>
 5   0  0.5129100E-06  0.2000682E+04  0.7818609E-02  0.8606302E-01
        2   -1    0    0  501    0  0.00000000000E+00  0.00000000000E+00  0.86392992761E+03  0.86392992761E+03  0.25500000920E-02 0. -1.
       -2   -1    0    0    0  501  0.00000000000E+00  0.00000000000E+00 -0.11582903113E+04  0.11582903113E+04  0.25500000920E-02 0.  1.
    10030    2    1    2    0    0  0.00000000000E+00  0.00000000000E+00 -0.29436038366E+03  0.20222202389E+04  0.20006815486E+04 0.  0.
        2    1    3    3  502    0 -0.38682062749E+03  0.81629329404E+03 -0.58159397458E+03  0.10743446798E+04  0.25500000920E-02 0.  1.
       -2    1    3    3    0  502  0.38682062749E+03 -0.81629329404E+03  0.28723359092E+03  0.94787555908E+03  0.25500000920E-02 0. -1.
</event>
<event>
 5   0  0.2313821E-06  0.1996894E+04  0.7818609E-02  0.8608074E-01
        1   -1    0    0  501    0  0.00000000000E+00  0.00000000000E+00  0.16089431995E+04  0.16089431995E+04  0.50400001928E-02 0.  1.
       -1   -1    0    0    0  501  0.00000000000E+00  0.00000000000E+00 -0.61959717375E+03  0.61959717377E+03  0.50400001928E-02 0. -1.
    10030    2    1    2    0    0  0.00000000000E+00  0.00000000000E+00  0.98934602574E+03  0.22285403733E+04  0.19968942477E+04 0.  0.
        1    1    3    3  502    0 -0.31873879774E+03  0.19372068086E+02  0.15504185067E+04  0.15829615422E+04  0.50400001928E-02 0.  1.
       -1    1    3    3    0  502  0.31873879774E+03 -0.19372068086E+02 -0.56107248095E+03  0.64557883106E+03  0.50400001928E-02 0. -1.
</event>
<event>
 5   0  0.2311520E-06  0.1999313E+04  0.7818609E-02  0.8606942E-01
       -1   -1    0    0    0  501  0.00000000000E+00  0.00000000000E+00  0.80573176813E+03  0.80573176815E+03  0.50400001928E-02 0. -1.
        1   -1    0    0  501    0  0.00000000000E+00  0.00000000000E+00 -0.12402559409E+04  0.12402559409E+04  0.50400001928E-02 0.  1.
    10030    2    1    2    0    0  0.00000000000E+00  0.00000000000E+00 -0.43452417272E+03  0.20459877090E+04  0.19993134944E+04 0.  0.
        3    1    3    3  502    0  0.57344141158E+03  0.65800205396E+03  0.28146707314E+03  0.91707441301E+03  0.10100000352E+00 0. -1.
       -3    1    3    3    0  502 -0.57344141158E+03 -0.65800205396E+03 -0.71599124587E+03  0.11289132960E+04  0.10100000352E+00 0.  1.
</event>
<event>
 5   0  0.2356996E-06  0.2001968E+04  0.7818609E-02  0.8605701E-01
        1   -1    0    0  501    0  0.00000000000E+00  0.00000000000E+00  0.19146557120E+04  0.19146557120E+04  0.50400001928E-02 0.  1.
       -1   -1    0    0    0  501  0.00000000000E+00  0.00000000000E+00 -0.52331521881E+03  0.52331521883E+03  0.50400001928E-02 0. -1.
    10030    2    1    2    0    0  0.00000000000E+00  0.00000000000E+00  0.13913404931E+04  0.24379709308E+04  0.20019675051E+04 0.  0.
        4    1    3    3  502    0 -0.26965372693E+03  0.45615444824E+03 -0.33850082849E+03  0.62878806993E+03  0.12699999809E+01 0. -1.
       -4    1    3    3    0  502  0.26965372693E+03 -0.45615444824E+03  0.17298413216E+04  0.18091828609E+04  0.12699999809E+01 0.  1.
</event>
<event>
 5   0  0.2311520E-06  0.2000175E+04  0.7818609E-02  0.8606539E-01
       -1   -1    0    0    0  501  0.00000000000E+00  0.00000000000E+00  0.16604526574E+04  0.16604526574E+04  0.50400001928E-02 0. -1.
        1   -1    0    0  501    0  0.00000000000E+00  0.00000000000E+00 -0.60235060120E+03  0.60235060122E+03  0.50400001928E-02 0.  1.
    10030    2    1    2    0    0  0.00000000000E+00  0.00000000000E+00  0.10581020562E+04  0.22628032586E+04  0.20001746488E+04 0.  0.
        3    1    3    3  502    0 -0.64118659871E+03  0.68564414452E+03  0.13888027776E+03  0.94895515649E+03  0.10100000352E+00 0.  1.
       -3    1    3    3    0  502  0.64118659871E+03 -0.68564414452E+03  0.91922177839E+03  0.13138481021E+04  0.10100000352E+00 0. -1.
</event>
<event>
 5   0  0.5030137E-06  0.2000298E+04  0.7818609E-02  0.8606481E-01
       -2   -1    0    0    0  501  0.00000000000E+00  0.00000000000E+00  0.10511159253E+04  0.10511159253E+04  0.25500000920E-02 0.  1.
        2   -1    0    0  501    0  0.00000000000E+00  0.00000000000E+00 -0.95165311426E+03  0.95165311426E+03  0.25500000920E-02 0. -1.
    10030    2    1    2    0    0  0.00000000000E+00  0.00000000000E+00  0.99462811002E+02  0.20027690395E+04  0.20002977216E+04 0.  0.
        3    1    3    3  502    0 -0.80507349660E+03  0.54017577295E+03 -0.19626408798E+03  0.98916773251E+03  0.10100000352E+00 0. -1.
       -3    1    3    3    0  502  0.80507349660E+03 -0.54017577295E+03  0.29572689898E+03  0.10136013070E+04  0.10100000352E+00 0.  1.
</event>
<event>
 5   0  0.2356996E-06  0.2000026E+04  0.7818609E-02  0.8606609E-01
        1   -1    0    0  501    0  0.00000000000E+00  0.00000000000E+00  0.73583048885E+03  0.73583048887E+03  0.50400001928E-02 0.  1.
       -1   -1    0    0    0  501  0.00000000000E+00  0.00000000000E+00 -0.13590437111E+04  0.13590437111E+04  0.50400001928E-02 0. -1.
    10030    2    1    2    0    0  0.00000000000E+00  0.00000000000E+00 -0.62321322223E+03  0.20948742000E+04  0.20000257982E+04 0.  0.
        4    1    3    3  502    0 -0.69336273197E+03 -0.71124389277E+03 -0.43287470850E+03  0.10835136728E+04  0.12699999809E+01 0.  1.
       -4    1    3    3    0  502  0.69336273197E+03  0.71124389277E+03 -0.19033851373E+03  0.10113605271E+04  0.12699999809E+01 0. -1.
</event>
<event>
 5   0  0.4956214E-06  0.2000314E+04  0.7818609E-02  0.8606474E-01
        2   -1    0    0  501    0  0.00000000000E+00  0.00000000000E+00  0.60043917014E+03  0.60043917014E+03  0.25500000920E-02 0. -1.
       -2   -1    0    0    0  501  0.00000000000E+00  0.00000000000E+00 -0.16659711779E+04  0.16659711779E+04  0.25500000920E-02 0.  1.
    10030    2    1    2    0    0  0.00000000000E+00  0.00000000000E+00 -0.10655320078E+04  0.22664103480E+04  0.20003143268E+04 0.  0.
        1    1    3    3  502    0  0.79404425191E+03 -0.47105696183E+03 -0.97009294407E+02  0.92833815956E+03  0.50400001928E-02 0. -1.
       -1    1    3    3    0  502 -0.79404425191E+03  0.47105696183E+03 -0.96852271336E+03  0.13380721885E+04  0.50400001928E-02 0.  1.
</event>
<event>
 5   0  0.2386776E-06  0.1999405E+04  0.7818609E-02  0.8606899E-01
       -1   -1    0    0    0  501  0.00000000000E+00  0.00000000000E+00  0.92701632181E+03  0.92701632182E+03  0.50400001928E-02 0. -1.
        1   -1    0    0  501    0  0.00000000000E+00  0.00000000000E+00 -0.10780884339E+04  0.10780884339E+04  0.50400001928E-02 0.  1.
    10030    2    1    2    0    0  0.00000000000E+00  0.00000000000E+00 -0.15107211206E+03  0.20051047557E+04  0.19994054862E+04 0.  0.
        2    1    3    3  502    0 -0.15917816936E+03 -0.97992169532E+03  0.42363322075E+02  0.99366939654E+03  0.25500000920E-02 0.  1.
       -2    1    3    3    0  502  0.15917816936E+03  0.97992169532E+03 -0.19343543414E+03  0.10114353592E+04  0.25500000920E-02 0. -1.
</event>
<event>
 5   0  0.2311520E-06  0.2000309E+04  0.7818609E-02  0.8606476E-01
        1   -1    0    0  501    0  0.00000000000E+00  0.00000000000E+00  0.88015990401E+03  0.88015990403E+03  0.50400001928E-02 0. -1.
       -1   -1    0    0    0  501  0.00000000000E+00  0.00000000000E+00 -0.11365082154E+04  0.11365082154E+04  0.50400001928E-02 0.  1.
    10030    2    1    2    0    0  0.00000000000E+00  0.00000000000E+00 -0.25634831136E+03  0.20166681194E+04  0.20003089379E+04 0.  0.
        3    1    3    3  502    0 -0.84571072876E+03  0.53204338911E+03 -0.82950339770E+02  0.10025854446E+04  0.10100000352E+00 0. -1.
       -3    1    3    3    0  502  0.84571072876E+03 -0.53204338911E+03 -0.17339797159E+03  0.10140826748E+04  0.10100000352E+00 0.  1.
</event>
<event>
 5   0  0.4956214E-06  0.1998492E+04  0.7818609E-02  0.8607326E-01
       -2   -1    0    0    0  501  0.00000000000E+00  0.00000000000E+00  0.10663913789E+04  0.10663913789E+04  0.25500000920E-02 0.  1.
        2   -1    0    0  501    0  0.00000000000E+00  0.00000000000E+00 -0.93632809648E+03  0.93632809649E+03  0.25500000920E-02 0. -1.
    10030    2    1    2    0    0  0.00000000000E+00  0.00000000000E+00  0.13006328242E+03  0.20027194754E+04  0.19984916411E+04 0.  0.
        1    1    3    3  502    0 -0.40528812344E+03  0.86987017802E+03  0.34411608023E+03  0.10194844120E+04  0.50400001928E-02 0.  1.
       -1    1    3    3    0  502  0.40528812344E+03 -0.86987017802E+03 -0.21405279781E+03  0.98323506339E+03  0.50400001928E-02 0. -1.
</event>
<event>
 5   0  0.2356996E-06  0.2000432E+04  0.7818609E-02  0.8606419E-01
        1   -1    0    0  501    0  0.00000000000E+00  0.00000000000E+00  0.13854271220E+04  0.13854271220E+04  0.50400001928E-02 0. -1.
       -1   -1    0    0    0  501  0.00000000000E+00  0.00000000000E+00 -0.72211105554E+03  0.72211105556E+03  0.50400001928E-02 0.  1.
    10030    2    1    2    0    0  0.00000000000E+00  0.00000000000E+00  0.66331606641E+03  0.21075381775E+04  0.20004321947E+04 0.  0.
        4    1    3    3  502    0  0.71979059266E+03 -0.13191470494E+03  0.10500239189E+04  0.12798639888E+04  0.12699999809E+01 0. -1.
       -4    1    3    3    0  502 -0.71979059266E+03  0.13191470494E+03 -0.38670785247E+03  0.82767418875E+03  0.12699999809E+01 0.  1.
</event>
<event>
 5   0  0.5129100E-06  0.2007839E+04  0.7818609E-02  0.8602964E-01
        2   -1    0    0  501    0  0.00000000000E+00  0.00000000000E+00  0.10896873165E+04  0.10896873165E+04  0.25500000920E-02 0.  1.
       -2   -1    0    0    0  501  0.00000000000E+00  0.00000000000E+00 -0.92490242182E+03  0.92490242182E+03  0.25500000920E-02 0. -1.
    10030    2    1    2    0    0  0.00000000000E+00  0.00000000000E+00  0.16478489464E+03  0.20145897383E+04  0.20078390752E+04 0.  0.
        2    1    3    3  502    0 -0.17811566423E+02  0.79983518561E+03 -0.52611246268E+03  0.95752174880E+03  0.25500000920E-02 0.  1.
       -2    1    3    3    0  502  0.17811566423E+02 -0.79983518561E+03  0.69089735732E+03  0.10570679895E+04  0.25500000920E-02 0. -1.
</event>
<event>
 5   0  0.2379743E-06  0.1999493E+04  0.7818609E-02  0.8606858E-01
       -1   -1    0    0    0  501  0.00000000000E+00  0.00000000000E+00  0.67564117977E+03  0.67564117979E+03  0.50400001928E-02 0.  1.
        1   -1    0    0  501    0  0.00000000000E+00  0.00000000000E+00 -0.14793253606E+04  0.14793253606E+04  0.50400001928E-02 0. -1.
    10030    2    1    2    0    0  0.00000000000E+00  0.00000000000E+00 -0.80368418082E+03  0.21549665404E+04  0.19994930677E+04 0.  0.
        5    1    3    3  502    0  0.99966493001E+03  0.10838547397E+02 -0.39660686390E+03  0.10755308182E+04  0.46999998093E+01 0.  1.
       -5    1    3    3    0  502 -0.99966493001E+03 -0.10838547397E+02 -0.40707731692E+03  0.10794357222E+04  0.46999998093E+01 0. -1.
</event>
<event>
 5   0  0.5030137E-06  0.1998666E+04  0.7818609E-02  0.8607245E-01
       -2   -1    0    0    0  501  0.00000000000E+00  0.00000000000E+00  0.60461817367E+03  0.60461817367E+03  0.25500000920E-02 0.  1.
        2   -1    0    0  501    0  0.00000000000E+00  0.00000000000E+00 -0.16517302793E+04  0.16517302793E+04  0.25500000920E-02 0. -1.
    10030    2    1    2    0    0  0.00000000000E+00  0.00000000000E+00 -0.10471121056E+04  0.22563484529E+04  0.19986656998E+04 0.  0.
        3    1    3    3  502    0 -0.45086437220E+02 -0.31761108653E+02 -0.16500109700E+04  0.16509323929E+04  0.10100000352E+00 0. -1.
       -3    1    3    3    0  502  0.45086437220E+02  0.31761108653E+02  0.60289886437E+03  0.60541606000E+03  0.10100000352E+00 0.  1.
</event>
<event>
 5   0  0.2386776E-06  0.2001267E+04  0.7818609E-02  0.8606029E-01
        1   -1    0    0  501    0  0.00000000000E+00  0.00000000000E+00  0.11795686382E+04  0.11795686382E+04  0.50400001928E-02 0.  1.
       -1   -1    0    0    0  501  0.00000000000E+00  0.00000000000E+00 -0.84884171287E+03  0.84884171289E+03  0.50400001928E-02 0. -1.
    10030    2    1    2    0    0  0.00000000000E+00  0.00000000000E+00  0.33072692531E+03  0.20284103511E+04  0.20012666622E+04 0.  0.
        2    1    3    3  502    0 -0.34552170695E+03  0.65385728035E+03  0.84856259182E+03  0.11255989807E+04  0.25500000920E-02 0. -1.
       -2    1    3    3    0  502  0.34552170695E+03 -0.65385728035E+03 -0.51783566651E+03  0.90281137042E+03  0.25500000920E-02 0.  1.
</event>
<event>
 5   0  0.5129100E-06  0.2000253E+04  0.7818609E-02  0.8606502E-01
        2   -1    0    0  501    0  0.00000000000E+00  0.00000000000E+00  0.21085604496E+04  0.21085604496E+04  0.25500000920E-02 0.  1.
       -2   -1    0    0    0  501  0.00000000000E+00  0.00000000000E+00 -0.47437736095E+03  0.47437736095E+03  0.25500000920E-02 0. -1.
    10030    2    1    2    0    0  0.00000000000E+00  0.00000000000E+00  0.16341830886E+04  0.25829378105E+04  0.20002533254E+04 0.  0.
        2    1    3    3  502    0  0.16539011613E+03 -0.71345323326E+03 -0.62403941891E+02  0.73502629785E+03  0.25500000920E-02 0. -1.
       -2    1    3    3    0  502 -0.16539011613E+03  0.71345323326E+03  0.16965870305E+04  0.18479115127E+04  0.25500000920E-02 0.  1.
</event>
<event>
 5   0  0.4956214E-06  0.1999885E+04  0.7818609E-02  0.8606674E-01
        2   -1    0    0  501    0  0.00000000000E+00  0.00000000000E+00  0.13723993540E+04  0.13723993540E+04  0.25500000920E-02 0. -1.
       -2   -1    0    0    0  501  0.00000000000E+00  0.00000000000E+00 -0.72856702704E+03  0.72856702705E+03  0.25500000920E-02 0.  1.
    10030    2    1    2    0    0  0.00000000000E+00  0.00000000000E+00  0.64383232696E+03  0.21009663810E+04  0.19998849140E+04 0.  0.
        1    1    3    3  502    0  0.89167890254E+03 -0.30837540761E+03 -0.26031534994E+02  0.94385607912E+03  0.50400001928E-02 0.  1.
       -1    1    3    3    0  502 -0.89167890254E+03  0.30837540761E+03  0.66986386195E+03  0.11571103019E+04  0.50400001928E-02 0. -1.
</event>
<event>
 5   0  0.2311520E-06  0.2000005E+04  0.7818609E-02  0.8606618E-01
        1   -1    0    0  501    0  0.00000000000E+00  0.00000000000E+00  0.14138336224E+04  0.14138336225E+04  0.50400001928E-02 0. -1.
       -1   -1    0    0    0  501  0.00000000000E+00  0.00000000000E+00 -0.70730040292E+03  0.70730040294E+03  0.50400001928E-02 0.  1.
    10030    2    1    2    0    0  0.00000000000E+00  0.00000000000E+00  0.70653321953E+03  0.21211340254E+04  0.20000050908E+04 0.  0.
        3    1    3    3  502    0 -0.99390165939E+03 -0.10975667618E+03  0.36478944210E+03  0.10644051784E+04  0.10100000352E+00 0. -1.
       -3    1    3    3    0  502  0.99390165939E+03  0.10975667618E+03  0.34174377743E+03  0.10567288470E+04  0.10100000352E+00 0.  1.
</event>
<event>
 5   0  0.2356996E-06  0.1998057E+04  0.7818609E-02  0.8607530E-01
        1   -1    0    0  501    0  0.00000000000E+00  0.00000000000E+00  0.11650179929E+04  0.11650179929E+04  0.50400001928E-02 0. -1.
       -1   -1    0    0    0  501  0.00000000000E+00  0.00000000000E+00 -0.85668889402E+03  0.85668889403E+03  0.50400001928E-02 0.  1.
    10030    2    1    2    0    0  0.00000000000E+00  0.00000000000E+00  0.30832909887E+03  0.20217068869E+04  0.19980570321E+04 0.  0.
        4    1    3    3  502    0  0.27385094511E+03 -0.34479057381E+03 -0.75321156850E+03  0.87247014835E+03  0.12699999809E+01 0.  1.
       -4    1    3    3    0  502 -0.27385094511E+03  0.34479057381E+03  0.10615406674E+04  0.11492367386E+04  0.12699999809E+01 0. -1.
</event>
<event>
 5   0  0.5129100E-06  0.2000996E+04  0.7818609E-02  0.8606155E-01
       -2   -1    0    0    0  501  0.00000000000E+00  0.00000000000E+00  0.64408852303E+03  0.64408852304E+03  0.25500000920E-02 0.  1.
        2   -1    0    0  501    0  0.00000000000E+00  0.00000000000E+00 -0.15541283328E+04  0.15541283328E+04  0.25500000920E-02 0. -1.
    10030    2    1    2    0    0  0.00000000000E+00  0.00000000000E+00 -0.91003980975E+03  0.21982168558E+04  0.20009959745E+04 0.  0.
        2    1    3    3  502    0 -0.46213273633E+02  0.97567847450E+03 -0.21708036465E+03  0.10006038362E+04  0.25500000920E-02 0.  1.
       -2    1    3    3    0  502  0.46213273633E+02 -0.97567847450E+03 -0.69295944510E+03  0.11976130196E+04  0.25500000920E-02 0. -1.
</event>
<event>
 5   0  0.5118981E-06  0.1999907E+04  0.7818609E-02  0.8606664E-01
        2   -1    0    0  501    0  0.00000000000E+00  0.00000000000E+00  0.13177522867E+04  0.13177522867E+04  0.25500000920E-02 0. -1.
       -2   -1    0    0    0  501  0.00000000000E+00  0.00000000000E+00 -0.75879707710E+03  0.75879707710E+03  0.25500000920E-02 0.  1.
    10030    2    1    2    0    0  0.00000000000E+00  0.00000000000E+00  0.55895520961E+03  0.20765493638E+04  0.19999065813E+04 0.  0.
        4    1    3    3  502    0 -0.10263716789E+03  0.63682421118E+03  0.10728445140E+04  0.12518292329E+04  0.12699999809E+01 0. -1.
       -4    1    3    3    0  502  0.10263716789E+03 -0.63682421118E+03 -0.51388930444E+03  0.82472013089E+03  0.12699999809E+01 0.  1.
</event>
<event>
 5   0  0.5030137E-06  0.2003854E+04  0.7818609E-02  0.8604821E-01
        2   -1    0    0  501    0  0.00000000000E+00  0.00000000000E+00  0.11360673300E+04  0.11360673300E+04  0.25500000920E-02 0. -1.
       -2   -1    0    0    0  501  0.00000000000E+00  0.00000000000E+00 -0.88362510040E+03  0.88362510040E+03  0.25500000920E-02 0.  1.
    10030    2    1    2    0    0  0.00000000000E+00  0.00000000000E+00  0.25244222955E+03  0.20196924304E+04  0.20038538954E+04 0.  0.
        3    1    3    3  502    0  0.63692854744E+03 -0.65390415050E+03 -0.29006763873E+03  0.95781410400E+03  0.10100000352E+00 0.  1.
       -3    1    3    3    0  502 -0.63692854744E+03  0.65390415050E+03  0.54250986829E+03  0.10618783264E+04  0.10100000352E+00 0. -1.
</event>
<event>
 5   0  0.5251252E-06  0.1999756E+04  0.7818609E-02  0.8606735E-01
        2   -1    0    0  501    0  0.00000000000E+00  0.00000000000E+00  0.12119799048E+04  0.12119799048E+04  0.25500000920E-02 0. -1.
       -2   -1    0    0    0  501  0.00000000000E+00  0.00000000000E+00 -0.82489507112E+03  0.82489507113E+03  0.25500000920E-02 0.  1.
    10030    2    1    2    0    0  0.00000000000E+00  0.00000000000E+00  0.38708483371E+03  0.20368749760E+04  0.19997562349E+04 0.  0.
        5    1    3    3  502    0 -0.68284794838E+03  0.43012525302E+02 -0.54910201204E+03  0.87730639321E+03  0.46999998093E+01 0. -1.
       -5    1    3    3    0  502  0.68284794838E+03 -0.43012525302E+02  0.93618684575E+03  0.11595685827E+04  0.46999998093E+01 0.  1.
</event>
<event>
 5   0  0.2356996E-06  0.2002279E+04  0.7818609E-02  0.8605556E-01
       -1   -1    0    0    0  501  0.00000000000E+00  0.00000000000E+00  0.11535017307E+04  0.11535017308E+04  0.50400001928E-02 0. -1.
        1   -1    0    0  501    0  0.00000000000E+00  0.00000000000E+00 -0.86890234816E+03  0.86890234817E+03  0.50400001928E-02 0.  1.
    10030    2    1    2    0    0  0.00000000000E+00  0.00000000000E+00  0.28459938258E+03  0.20224040789E+04  0.20022790639E+04 0.  0.
        4    1    3    3  502    0  0.56623588211E+03 -0.40405787161E+03 -0.58493209572E+03  0.90886358014E+03  0.12699999809E+01 0.  1.
       -4    1    3    3    0  502 -0.56623588211E+03  0.40405787161E+03  0.86953147830E+03  0.11135404988E+04  0.12699999809E+01 0. -1.
</event>
<event>
 5   0  0.2379743E-06  0.2001255E+04  0.7818609E-02  0.8606034E-01
        1   -1    0    0  501    0  0.00000000000E+00  0.00000000000E+00  0.23531493731E+04  0.23531493731E+04  0.50400001928E-02 0. -1.
       -1   -1    0    0    0  501  0.00000000000E+00  0.00000000000E+00 -0.42549601392E+03  0.42549601395E+03  0.50400001928E-02 0.  1.
    10030    2    1    2    0    0  0.00000000000E+00  0.00000000000E+00  0.19276533591E+04  0.27786453870E+04  0.20012552845E+04 0.  0.
        5    1    3    3  502    0 -0.90060552790E+03  0.25854794627E+03  0.47629197696E+03  0.10511010868E+04  0.46999998093E+01 0.  1.
       -5    1    3    3    0  502  0.90060552790E+03 -0.25854794627E+03  0.14513613822E+04  0.17275443002E+04  0.46999998093E+01 0. -1.
</event>
<event>
 5   0  0.2313821E-06  0.2000202E+04  0.7818609E-02  0.8606526E-01
        1   -1    0    0  501    0  0.00000000000E+00  0.00000000000E+00  0.87039015940E+03  0.87039015941E+03  0.50400001928E-02 0. -1.
       -1   -1    0    0    0  501  0.00000000000E+00  0.00000000000E+00 -0.11491423471E+04  0.11491423471E+04  0.50400001928E-02 0.  1.
    10030    2    1    2    0    0  0.00000000000E+00  0.00000000000E+00 -0.27875218773E+03  0.20195325065E+04  0.20002021805E+04 0.  0.
        1    1    3    3  502    0  0.15337686921E+03 -0.56152510408E+03 -0.96048035432E+03  0.11231016951E+04  0.50400001928E-02 0.  1.
       -1    1    3    3    0  502 -0.15337686921E+03  0.56152510408E+03  0.68172816659E+03  0.89643081143E+03  0.50400001928E-02 0. -1.
</event>
<event>
 5   0  0.5118981E-06  0.1998949E+04  0.7818609E-02  0.8607112E-01
       -2   -1    0    0    0  501  0.00000000000E+00  0.00000000000E+00  0.36421647104E+03  0.36421647105E+03  0.25500000920E-02 0.  1.
        2   -1    0    0  501    0  0.00000000000E+00  0.00000000000E+00 -0.27427355047E+04  0.27427355047E+04  0.25500000920E-02 0. -1.
    10030    2    1    2    0    0  0.00000000000E+00  0.00000000000E+00 -0.23785190337E+04  0.31069519758E+04  0.19989491705E+04 0.  0.
        4    1    3    3  502    0  0.56887249125E+03  0.72251049481E+03 -0.58067801207E+03  0.10875779940E+04  0.12699999809E+01 0.  1.
       -4    1    3    3    0  502 -0.56887249125E+03 -0.72251049481E+03 -0.17978410216E+04  0.20193739818E+04  0.12699999809E+01 0. -1.
</event>
<event>
 5   0  0.5118981E-06  0.2001276E+04  0.7818609E-02  0.8606025E-01
        2   -1    0    0  501    0  0.00000000000E+00  0.00000000000E+00  0.57181006129E+03  0.57181006129E+03  0.25500000920E-02 0. -1.
       -2   -1    0    0    0  501  0.00000000000E+00  0.00000000000E+00 -0.17510639553E+04  0.17510639553E+04  0.25500000920E-02 0.  1.
    10030    2    1    2    0    0  0.00000000000E+00  0.00000000000E+00 -0.11792538941E+04  0.23228740166E+04  0.20012755809E+04 0.  0.
        4    1    3    3  502    0  0.48578969642E+03 -0.24467820082E+03  0.38523070412E+03  0.66653083905E+03  0.12699999809E+01 0. -1.
       -4    1    3    3    0  502 -0.48578969642E+03  0.24467820082E+03 -0.15644845982E+04  0.16563431776E+04  0.12699999809E+01 0.  1.
</event>
<event>
 5   0  0.1777750E-06  0.1999948E+04  0.7818609E-02  0.8606645E-01
        3   -1    0    0  501    0  0.00000000000E+00  0.00000000000E+00  0.66737456542E+03  0.66737457307E+03  0.10100000352E+00 0.  1.
       -3   -1    0    0    0  501  0.00000000000E+00  0.00000000000E+00 -0.14983317119E+04  0.14983317153E+04  0.10100000352E+00 0. -1.
    10030    2    1    2    0    0  0.00000000000E+00  0.00000000000E+00 -0.83095714645E+03  0.21657062883E+04  0.19999484864E+04 0.  0.
        4    1    3    3  502    0  0.94739754267E+02  0.12596258004E+02 -0.14933736932E+04  0.14964293793E+04  0.12699999809E+01 0. -1.
       -4    1    3    3    0  502 -0.94739754267E+02 -0.12596258004E+02  0.66241654673E+03  0.66927690908E+03  0.12699999809E+01 0.  1.
</event>
<event>
 5   0  0.5129100E-06  0.1999938E+04  0.7818609E-02  0.8606650E-01
        2   -1    0    0  501    0  0.00000000000E+00  0.00000000000E+00  0.84498229183E+03  0.84498229183E+03  0.25500000920E-02 0. -1.
       -2   -1    0    0    0  501  0.00000000000E+00  0.00000000000E+00 -0.11833834135E+04  0.11833834135E+04  0.25500000920E-02 0.  1.
    10030    2    1    2    0    0  0.00000000000E+00  0.00000000000E+00 -0.33840112162E+03  0.20283657053E+04  0.19999380279E+04 0.  0.
        2    1    3    3  502    0 -0.75044569122E+03  0.52951845889E+03 -0.57027004910E+03  0.10810950294E+04  0.25500000920E-02 0.  1.
       -2    1    3    3    0  502  0.75044569122E+03 -0.52951845889E+03  0.23186892748E+03  0.94727067584E+03  0.25500000920E-02 0. -1.
</event>
<event>
 5   0  0.2386776E-06  0.1999958E+04  0.7818609E-02  0.8606640E-01
       -1   -1    0    0    0  501  0.00000000000E+00  0.00000000000E+00  0.89862958897E+03  0.89862958898E+03  0.50400001928E-02 0.  1.
        1   -1    0    0  501    0  0.00000000000E+00  0.00000000000E+00 -0.11127592167E+04  0.11127592167E+04  0.50400001928E-02 0. -1.
    10030    2    1    2    0    0  0.00000000000E+00  0.00000000000E+00 -0.21412962770E+03  0.20113888057E+04  0.19999583571E+04 0.  0.
        2    1    3    3  502    0  0.21294237260E+03  0.95638358895E+03 -0.30806787405E+03  0.10270929064E+04  0.25500000920E-02 0. -1.
       -2    1    3    3    0  502 -0.21294237260E+03 -0.95638358895E+03  0.93938246348E+02  0.98429589931E+03  0.25500000920E-02 0.  1.
</event>
<event>
 5   0  0.2311520E-06  0.2000662E+04  0.7818609E-02  0.8606311E-01
        1   -1    0    0  501    0  0.00000000000E+00  0.00000000000E+00  0.78267503225E+03  0.78267503226E+03  0.50400001928E-02 0. -1.
       -1   -1    0    0    0  501  0.00000000000E+00  0.00000000000E+00 -0.12785155675E+04  0.12785155675E+04  0.50400001928E-02 0.  1.
    10030    2    1    2    0    0  0.00000000000E+00  0.00000000000E+00 -0.49584053524E+03  0.20611905998E+04  0.20006621034E+04 0.  0.
        3    1    3    3  502    0 -0.48886871089E+02 -0.77936515927E+03 -0.89202465502E+03  0.11855412152E+04  0.10100000352E+00 0.  1.
       -3    1    3    3    0  502  0.48886871089E+02  0.77936515927E+03  0.39618411978E+03  0.87564938453E+03  0.10100000352E+00 0. -1.
</event>
<event>
 5   0  0.5251252E-06  0.1999937E+04  0.7818609E-02  0.8606650E-01
       -2   -1    0    0    0  501  0.00000000000E+00  0.00000000000E+00  0.12426214034E+04  0.12426214034E+04  0.25500000920E-02 0. -1.
        2   -1    0    0  501    0  0.00000000000E+00  0.00000000000E+00 -0.80470004297E+03  0.80470004298E+03  0.25500000920E-02 0.  1.
    10030    2    1    2    0    0  0.00000000000E+00  0.00000000000E+00  0.43792136043E+03  0.20473214464E+04  0.19999374957E+04 0.  0.
        5    1    3    3  502    0 -0.28880438124E+03 -0.53339473823E+03  0.10327786768E+04  0.11977361156E+04  0.46999998093E+01 0. -1.
       -5    1    3    3    0  502  0.28880438124E+03  0.53339473823E+03 -0.59485731638E+03  0.84958533076E+03  0.46999998093E+01 0.  1.
</event>
<event>
 5   0  0.4956214E-06  0.1999285E+04  0.7818609E-02  0.8606955E-01
       -2   -1    0    0    0  501  0.00000000000E+00  0.00000000000E+00  0.11832329965E+04  0.11832329965E+04  0.25500000920E-02 0.  1.
        2   -1    0    0  501    0  0.00000000000E+00  0.00000000000E+00 -0.84453756710E+03  0.84453756710E+03  0.25500000920E-02 0. -1.
    10030    2    1    2    0    0  0.00000000000E+00  0.00000000000E+00  0.33869542943E+03  0.20277705636E+04  0.19992845883E+04 0.  0.
        1    1    3    3  502    0 -0.41851176311E+03 -0.62196026198E+03  0.84005491377E+03  0.11259124839E+04  0.50400001928E-02 0.  1.
       -1    1    3    3    0  502  0.41851176311E+03  0.62196026198E+03 -0.50135948434E+03  0.90185807969E+03  0.50400001928E-02 0. -1.
</event>
<event>
 5   0  0.2356996E-06  0.1999478E+04  0.7818609E-02  0.8606865E-01
        1   -1    0    0  501    0  0.00000000000E+00  0.00000000000E+00  0.14639353046E+04  0.14639353046E+04  0.50400001928E-02 0. -1.
       -1   -1    0    0    0  501  0.00000000000E+00  0.00000000000E+00 -0.68273394187E+03  0.68273394189E+03  0.50400001928E-02 0.  1.
    10030    2    1    2    0    0  0.00000000000E+00  0.00000000000E+00  0.78120136275E+03  0.21466692465E+04  0.19994782531E+04 0.  0.
        4    1    3    3  502    0  0.10384729090E+02 -0.43597965744E+03  0.13564306983E+04  0.14248129549E+04  0.12699999809E+01 0. -1.
       -4    1    3    3    0  502 -0.10384729090E+02  0.43597965744E+03 -0.57522933557E+03  0.72185629158E+03  0.12699999809E+01 0.  1.
</event>
<event>
 5   0  0.2356996E-06  0.2000235E+04  0.7818609E-02  0.8606511E-01
        1   -1    0    0  501    0  0.00000000000E+00  0.00000000000E+00  0.67913806526E+03  0.67913806528E+03  0.50400001928E-02 0.  1.
       -1   -1    0    0    0  501  0.00000000000E+00  0.00000000000E+00 -0.14728010639E+04  0.14728010639E+04  0.50400001928E-02 0. -1.
    10030    2    1    2    0    0  0.00000000000E+00  0.00000000000E+00 -0.79366299867E+03  0.21519391292E+04  0.20002352513E+04 0.  0.
        4    1    3    3  502    0  0.17432785537E+03 -0.12052146057E+03 -0.14483644654E+04  0.14637885302E+04  0.12699999809E+01 0. -1.
       -4    1    3    3    0  502 -0.17432785537E+03  0.12052146057E+03  0.65470146668E+03  0.68815059906E+03  0.12699999809E+01 0.  1.
</event>
<event>
 5   0  0.2379743E-06  0.1998955E+04  0.7818609E-02  0.8607109E-01
        1   -1    0    0  501    0  0.00000000000E+00  0.00000000000E+00  0.17611319312E+04  0.17611319312E+04  0.50400001928E-02 0.  1.
       -1   -1    0    0    0  501  0.00000000000E+00  0.00000000000E+00 -0.56722369682E+03  0.56722369684E+03  0.50400001928E-02 0. -1.
    10030    2    1    2    0    0  0.00000000000E+00  0.00000000000E+00  0.11939082344E+04  0.23283556281E+04  0.19989554919E+04 0.  0.
        5    1    3    3  502    0 -0.28354414184E+03  0.38913502284E+03  0.16171301232E+04  0.16872922899E+04  0.46999998093E+01 0.  1.
       -5    1    3    3    0  502  0.28354414184E+03 -0.38913502284E+03 -0.42322188878E+03  0.64106333814E+03  0.46999998093E+01 0. -1.
</event>
<event>
 5   0  0.5118981E-06  0.2000490E+04  0.7818609E-02  0.8606392E-01
        2   -1    0    0  501    0  0.00000000000E+00  0.00000000000E+00  0.15906534046E+04  0.15906534046E+04  0.25500000920E-02 0. -1.
       -2   -1    0    0    0  501  0.00000000000E+00  0.00000000000E+00 -0.62898066275E+03  0.62898066276E+03  0.25500000920E-02 0.  1.
    10030    2    1    2    0    0  0.00000000000E+00  0.00000000000E+00  0.96167274186E+03  0.22196340674E+04  0.20004901726E+04 0.  0.
        4    1    3    3  502    0 -0.57475203081E+03 -0.18035548558E+03  0.13668208968E+04  0.14936763287E+04  0.12699999809E+01 0. -1.
       -4    1    3    3    0  502  0.57475203081E+03  0.18035548558E+03 -0.40514815489E+03  0.72595773872E+03  0.12699999809E+01 0.  1.
</event>
<event>
 5   0  0.2379743E-06  0.2000126E+04  0.7818609E-02  0.8606562E-01
       -1   -1    0    0    0  501  0.00000000000E+00  0.00000000000E+00  0.91313337988E+03  0.91313337990E+03  0.50400001928E-02 0.  1.
        1   -1    0    0  501    0  0.00000000000E+00  0.00000000000E+00 -0.10952680221E+04  0.10952680221E+04  0.50400001928E-02 0. -1.
    10030    2    1    2    0    0  0.00000000000E+00  0.00000000000E+00 -0.18213464226E+03  0.20084014020E+04  0.20001257870E+04 0.  0.
        5    1    3    3  502    0  0.43881108620E+03 -0.45254241595E+02  0.81014295863E+03  0.92247320784E+03  0.46999998093E+01 0.  1.
       -5    1    3    3    0  502 -0.43881108620E+03  0.45254241595E+02 -0.99227760089E+03  0.10859281942E+04  0.46999998093E+01 0. -1.
</event>
<event>
 5   0  0.5030137E-06  0.2002045E+04  0.7818609E-02  0.8605665E-01
        2   -1    0    0  501    0  0.00000000000E+00  0.00000000000E+00  0.93472740997E+03  0.93472740997E+03  0.25500000920E-02 0.  1.
       -2   -1    0    0    0  501  0.00000000000E+00  0.00000000000E+00 -0.10720190670E+04  0.10720190670E+04  0.25500000920E-02 0. -1.
    10030    2    1    2    0    0  0.00000000000E+00  0.00000000000E+00 -0.13729165705E+03  0.20067464770E+04  0.20020445609E+04 0.  0.
        3    1    3    3  502    0  0.49082126146E+03 -0.42639468895E+03 -0.83156916538E+03  0.10555686754E+04  0.10100000352E+00 0. -1.
       -3    1    3    3    0  502 -0.49082126146E+03  0.42639468895E+03  0.69427750834E+03  0.95117780160E+03  0.10100000352E+00 0.  1.
</event>
<event>
 5   0  0.5030137E-06  0.2000080E+04  0.7818609E-02  0.8606583E-01
       -2   -1    0    0    0  501  0.00000000000E+00  0.00000000000E+00  0.58001334298E+03  0.58001334298E+03  0.25500000920E-02 0.  1.
        2   -1    0    0  501    0  0.00000000000E+00  0.00000000000E+00 -0.17242367409E+04  0.17242367409E+04  0.25500000920E-02 0. -1.
    10030    2    1    2    0    0  0.00000000000E+00  0.00000000000E+00 -0.11442233979E+04  0.23042500838E+04  0.20000803145E+04 0.  0.
        3    1    3    3  502    0  0.55462031088E+03  0.31650412990E+03 -0.14587646939E+04  0.15924110637E+04  0.10100000352E+00 0. -1.
       -3    1    3    3    0  502 -0.55462031088E+03 -0.31650412990E+03  0.31454129601E+03  0.71183902013E+03  0.10100000352E+00 0.  1.
</event>
<event>
 5   0  0.1777750E-06  0.1999816E+04  0.7818609E-02  0.8606707E-01
       -3   -1    0    0    0  501  0.00000000000E+00  0.00000000000E+00  0.51133970981E+03  0.51133971978E+03  0.10100000352E+00 0. -1.
        3   -1    0    0  501    0  0.00000000000E+00  0.00000000000E+00 -0.19552865198E+04  0.19552865225E+04  0.10100000352E+00 0.  1.
    10030    2    1    2    0    0  0.00000000000E+00  0.00000000000E+00 -0.14439468100E+04  0.24666262422E+04  0.19998156487E+04 0.  0.
        3    1    3    3  502    0  0.55864996122E+03 -0.82884319064E+03 -0.75563563414E+03  0.12530187691E+04  0.10100000352E+00 0. -1.
       -3    1    3    3    0  502 -0.55864996122E+03  0.82884319064E+03 -0.68831117590E+03  0.12136074732E+04  0.10100000352E+00 0.  1.
</event>
<event>
 5   0  0.2379743E-06  0.2000660E+04  0.7818609E-02  0.8606312E-01
        1   -1    0    0  501    0  0.00000000000E+00  0.00000000000E+00  0.80137812264E+03  0.80137812265E+03  0.50400001928E-02 0. -1.
       -1   -1    0    0    0  501  0.00000000000E+00  0.00000000000E+00 -0.12486743579E+04  0.12486743579E+04  0.50400001928E-02 0.  1.
    10030    2    1    2    0    0  0.00000000000E+00  0.00000000000E+00 -0.44729623525E+03  0.20500524806E+04  0.20006602038E+04 0.  0.
        5    1    3    3  502    0  0.98690215528E+03  0.94538217099E+02 -0.36006978340E+03  0.10547917697E+04  0.46999998093E+01 0.  1.
       -5    1    3    3    0  502 -0.98690215528E+03 -0.94538217099E+02 -0.87226451847E+02  0.99526071081E+03  0.46999998093E+01 0. -1.
</event>
<event>
 5   0  0.5030137E-06  0.1999941E+04  0.7818609E-02  0.8606648E-01
       -2   -1    0    0    0  501  0.00000000000E+00  0.00000000000E+00  0.75000470584E+03  0.75000470585E+03  0.25500000920E-02 0. -1.
        2   -1    0    0  501    0  0.00000000000E+00  0.00000000000E+00 -0.13332465708E+04  0.13332465708E+04  0.25500000920E-02 0.  1.
    10030    2    1    2    0    0  0.00000000000E+00  0.00000000000E+00 -0.58324186491E+03  0.20832512766E+04  0.19999412013E+04 0.  0.
        3    1    3    3  502    0  0.90796908277E+03  0.26570579793E+03  0.45807798148E+02  0.94715668762E+03  0.10100000352E+00 0. -1.
       -3    1    3    3    0  502 -0.90796908277E+03 -0.26570579793E+03 -0.62904966306E+03  0.11360945890E+04  0.10100000352E+00 0.  1.
</event>
<event>
 5   0  0.5129100E-06  0.1996213E+04  0.7818609E-02  0.8608393E-01
       -2   -1    0    0    0  501  0.00000000000E+00  0.00000000000E+00  0.12852816643E+04  0.12852816643E+04  0.25500000920E-02 0.  1.
        2   -1    0    0  501    0  0.00000000000E+00  0.00000000000E+00 -0.77509589736E+03  0.77509589737E+03  0.25500000920E-02 0. -1.
    10030    2    1    2    0    0  0.00000000000E+00  0.00000000000E+00  0.51018576694E+03  0.20603775617E+04  0.19962129596E+04 0.  0.
        2    1    3    3  502    0  0.45088515228E+03 -0.86307162538E+03  0.28899247264E+02  0.97417925331E+03  0.25500000920E-02 0.  1.
       -2    1    3    3    0  502 -0.45088515228E+03  0.86307162538E+03  0.48128651968E+03  0.10861983084E+04  0.25500000920E-02 0. -1.
</event>
<event>
 5   0  0.4956214E-06  0.1999416E+04  0.7818609E-02  0.8606894E-01
       -2   -1    0    0    0  501  0.00000000000E+00  0.00000000000E+00  0.82268121935E+03  0.82268121936E+03  0.25500000920E-02 0. -1.
        2   -1    0    0  501    0  0.00000000000E+00  0.00000000000E+00 -0.12148275601E+04  0.12148275601E+04  0.25500000920E-02 0.  1.
    10030    2    1    2    0    0  0.00000000000E+00  0.00000000000E+00 -0.39214634071E+03  0.20375087794E+04  0.19994157331E+04 0.  0.
        1    1    3    3  502    0  0.97369738092E+03  0.27122170774E+02  0.33142469114E+02  0.97463871514E+03  0.50400001928E-02 0. -1.
       -1    1    3    3    0  502 -0.97369738092E+03 -0.27122170774E+02 -0.42528880982E+03  0.10628700643E+04  0.50400001928E-02 0.  1.
</event>
<event>
 5   0  0.2313821E-06  0.1998438E+04  0.7818609E-02  0.8607351E-01
       -1   -1    0    0    0  501  0.00000000000E+00  0.00000000000E+00  0.10202795252E+04  0.10202795253E+04  0.50400001928E-02 0. -1.
        1   -1    0    0  501    0  0.00000000000E+00  0.00000000000E+00 -0.97859286169E+03  0.97859286170E+03  0.50400001928E-02 0.  1.
    10030    2    1    2    0    0  0.00000000000E+00  0.00000000000E+00  0.41686663560E+02  0.19988723870E+04  0.19984376501E+04 0.  0.
        1    1    3    3  502    0  0.99001175488E+03  0.54591967608E+02 -0.10301697302E+03  0.99685307567E+03  0.50400001928E-02 0.  1.
       -1    1    3    3    0  502 -0.99001175488E+03 -0.54591967608E+02  0.14470363658E+03  0.10020193113E+04  0.50400001928E-02 0. -1.
</event>
<event>
 5   0  0.5118981E-06  0.1998144E+04  0.7818609E-02  0.8607489E-01
        2   -1    0    0  501    0  0.00000000000E+00  0.00000000000E+00  0.97154907937E+03  0.97154907937E+03  0.25500000920E-02 0. -1.
       -2   -1    0    0    0  501  0.00000000000E+00  0.00000000000E+00 -0.10273749208E+04  0.10273749208E+04  0.25500000920E-02 0.  1.
    10030    2    1    2    0    0  0.00000000000E+00  0.00000000000E+00 -0.55825841442E+02  0.19989240002E+04  0.19981442976E+04 0.  0.
        4    1    3    3  502    0  0.67291381303E+03 -0.58141496746E+03  0.42755275905E+03  0.98674177920E+03  0.12699999809E+01 0. -1.
       -4    1    3    3    0  502 -0.67291381303E+03  0.58141496746E+03 -0.48337860049E+03  0.10121822210E+04  0.12699999809E+01 0.  1.
</event>
<event>
 5   0  0.5118981E-06  0.2000141E+04  0.7818609E-02  0.8606555E-01
        2   -1    0    0  501    0  0.00000000000E+00  0.00000000000E+00  0.11222861785E+04  0.11222861786E+04  0.25500000920E-02 0. -1.
       -2   -1    0    0    0  501  0.00000000000E+00  0.00000000000E+00 -0.89116410238E+03  0.89116410238E+03  0.25500000920E-02 0.  1.
    10030    2    1    2    0    0  0.00000000000E+00  0.00000000000E+00  0.23112207617E+03  0.20134502809E+04  0.20001411499E+04 0.  0.
        4    1    3    3  502    0 -0.38748384381E+03 -0.60045313726E+02 -0.81055546330E+03  0.90041709274E+03  0.12699999809E+01 0.  1.
       -4    1    3    3    0  502  0.38748384381E+03  0.60045313726E+02  0.10416775395E+04  0.11130331882E+04  0.12699999809E+01 0. -1.
</event>
<event>
 5   0  0.5251252E-06  0.2000284E+04  0.7818609E-02  0.8606488E-01
       -2   -1    0    0    0  501  0.00000000000E+00  0.00000000000E+00  0.59039575441E+03  0.59039575442E+03  0.25500000920E-02 0. -1.
        2   -1    0    0  501    0  0.00000000000E+00  0.00000000000E+00 -0.16942596592E+04  0.16942596592E+04  0.25500000920E-02 0.  1.
    10030    2    1    2    0    0  0.00000000000E+00  0.00000000000E+00 -0.11038639048E+04  0.22846554136E+04  0.20002836896E+04 0.  0.
        5    1    3    3  502    0 -0.68117220614E+03 -0.54516821361E+03 -0.11103770058E+04  0.14121484131E+04  0.46999998093E+01 0.  1.
       -5    1    3    3    0  502  0.68117220614E+03  0.54516821361E+03  0.65131009923E+01  0.87250700056E+03  0.46999998093E+01 0. -1.
</event>
<event>
 5   0  0.2356996E-06  0.1999935E+04  0.7818609E-02  0.8606651E-01
        1   -1    0    0  501    0  0.00000000000E+00  0.00000000000E+00  0.26474424876E+04  0.26474424877E+04  0.50400001928E-02 0. -1.
       -1   -1    0    0    0  501  0.00000000000E+00  0.00000000000E+00 -0.37769865406E+03  0.37769865409E+03  0.50400001928E-02 0.  1.
    10030    2    1    2    0    0  0.00000000000E+00  0.00000000000E+00  0.22697438336E+04  0.30251411417E+04  0.19999354633E+04 0.  0.
        4    1    3    3  502    0  0.36206953393E+03  0.63395292607E+03  0.21684937735E+04  0.22880903650E+04  0.12699999809E+01 0. -1.
       -4    1    3    3    0  502 -0.36206953393E+03 -0.63395292607E+03  0.10125006006E+03  0.73705077670E+03  0.12699999809E+01 0.  1.
</event>
<event>
 5   0  0.2386776E-06  0.2000476E+04  0.7818609E-02  0.8606398E-01
       -1   -1    0    0    0  501  0.00000000000E+00  0.00000000000E+00  0.10861060701E+04  0.10861060701E+04  0.50400001928E-02 0. -1.
        1   -1    0    0  501    0  0.00000000000E+00  0.00000000000E+00 -0.92115844439E+03  0.92115844440E+03  0.50400001928E-02 0.  1.
    10030    2    1    2    0    0  0.00000000000E+00  0.00000000000E+00  0.16494762567E+03  0.20072645145E+04  0.20004757214E+04 0.  0.
        2    1    3    3  502    0  0.30636959324E+03 -0.31648831148E+03 -0.81859854672E+03  0.92958633793E+03  0.25500000920E-02 0.  1.
       -2    1    3    3    0  502 -0.30636959324E+03  0.31648831148E+03  0.98354617240E+03  0.10776781765E+04  0.25500000920E-02 0. -1.
</event>
<event>
 5   0  0.5030137E-06  0.1999074E+04  0.7818609E-02  0.8607054E-01
       -2   -1    0    0    0  501  0.00000000000E+00  0.00000000000E+00  0.78711085199E+03  0.78711085199E+03  0.25500000920E-02 0.  1.
        2   -1    0    0  501    0  0.00000000000E+00  0.00000000000E+00 -0.12692924341E+04  0.12692924341E+04  0.25500000920E-02 0. -1.
    10030    2    1    2    0    0  0.00000000000E+00  0.00000000000E+00 -0.48218158206E+03  0.20564032860E+04  0.19990736347E+04 0.  0.
        3    1    3    3  502    0 -0.42302747962E+02  0.89659837659E+02 -0.12642224518E+04  0.12681036341E+04  0.10100000352E+00 0. -1.
       -3    1    3    3    0  502  0.42302747962E+02 -0.89659837659E+02  0.78204086979E+03  0.78829965190E+03  0.10100000352E+00 0.  1.
</event>
<event>
 5   0  0.4956214E-06  0.2000172E+04  0.7818609E-02  0.8606540E-01
       -2   -1    0    0    0  501  0.00000000000E+00  0.00000000000E+00  0.21889617294E+04  0.21889617294E+04  0.25500000920E-02 0.  1.
        2   -1    0    0  501    0  0.00000000000E+00  0.00000000000E+00 -0.45691638068E+03  0.45691638068E+03  0.25500000920E-02 0. -1.
    10030    2    1    2    0    0  0.00000000000E+00  0.00000000000E+00  0.17320453487E+04  0.26458781101E+04  0.20001724634E+04 0.  0.
        1    1    3    3  502    0  0.42008446228E+01  0.52235456893E+03  0.19941531739E+04  0.20614361071E+04  0.50400001928E-02 0.  1.
       -1    1    3    3    0  502 -0.42008446228E+01 -0.52235456893E+03 -0.26210782518E+03  0.58444200296E+03  0.50400001928E-02 0. -1.
</event>
<event>
 5   0  0.5118981E-06  0.1999360E+04  0.7818609E-02  0.8606920E-01
       -2   -1    0    0    0  501  0.00000000000E+00  0.00000000000E+00  0.82952587246E+03  0.82952587247E+03  0.25500000920E-02 0. -1.
        2   -1    0    0  501    0  0.00000000000E+00  0.00000000000E+00 -0.12047363907E+04  0.12047363907E+04  0.25500000920E-02 0.  1.
    10030    2    1    2    0    0  0.00000000000E+00  0.00000000000E+00 -0.37521051819E+03  0.20342622631E+04  0.19993599031E+04 0.  0.
        4    1    3    3  502    0 -0.77278685859E+03 -0.26866845469E+03 -0.77206852952E+03  0.11249327511E+04  0.12699999809E+01 0.  1.
       -4    1    3    3    0  502  0.77278685859E+03  0.26866845469E+03  0.39685801133E+03  0.90932951201E+03  0.12699999809E+01 0. -1.
</event>
<event>
 5   0  0.2311520E-06  0.1998806E+04  0.7818609E-02  0.8607179E-01
        1   -1    0    0  501    0  0.00000000000E+00  0.00000000000E+00  0.95913931150E+03  0.95913931151E+03  0.50400001928E-02 0.  1.
       -1   -1    0    0    0  501  0.00000000000E+00  0.00000000000E+00 -0.10413572757E+04  0.10413572757E+04  0.50400001928E-02 0. -1.
    10030    2    1    2    0    0  0.00000000000E+00  0.00000000000E+00 -0.82217964201E+02  0.20004965872E+04  0.19988063443E+04 0.  0.
        3    1    3    3  502    0  0.57182801385E+03  0.34298206879E+03  0.70395502350E+03  0.96962707379E+03  0.10100000352E+00 0.  1.
       -3    1    3    3    0  502 -0.57182801385E+03 -0.34298206879E+03 -0.78617298770E+03  0.10308695134E+04  0.10100000352E+00 0. -1.
</event>
<event>
 5   0  0.2313821E-06  0.2001818E+04  0.7818609E-02  0.8605771E-01
       -1   -1    0    0    0  501  0.00000000000E+00  0.00000000000E+00  0.16537685151E+04  0.16537685151E+04  0.50400001928E-02 0. -1.
        1   -1    0    0  501    0  0.00000000000E+00  0.00000000000E+00 -0.60577957031E+03  0.60577957033E+03  0.50400001928E-02 0.  1.
    10030    2    1    2    0    0  0.00000000000E+00  0.00000000000E+00  0.10479889448E+04  0.22595480854E+04  0.20018183539E+04 0.  0.
        1    1    3    3  502    0 -0.10002651418E+03  0.52963265685E+03  0.14759667024E+04  0.15713032047E+04  0.50400001928E-02 0. -1.
       -1    1    3    3    0  502  0.10002651418E+03 -0.52963265685E+03 -0.42797775760E+03  0.68824488067E+03  0.50400001928E-02 0.  1.
</event>
<event>
 5   0  0.2356996E-06  0.2000084E+04  0.7818609E-02  0.8606581E-01
       -1   -1    0    0    0  501  0.00000000000E+00  0.00000000000E+00  0.79885791484E+03  0.79885791485E+03  0.50400001928E-02 0.  1.
        1   -1    0    0  501    0  0.00000000000E+00  0.00000000000E+00 -0.12518921522E+04  0.12518921522E+04  0.50400001928E-02 0. -1.
    10030    2    1    2    0    0  0.00000000000E+00  0.00000000000E+00 -0.45303423739E+03  0.20507500671E+04  0.20000839526E+04 0.  0.
        4    1    3    3  502    0  0.80265793075E+03  0.21745112051E+03 -0.79604967666E+03  0.11511913152E+04  0.12699999809E+01 0. -1.
       -4    1    3    3    0  502 -0.80265793075E+03 -0.21745112051E+03  0.34301543927E+03  0.89955875188E+03  0.12699999809E+01 0.  1.
</event>
<event>
 5   0  0.4956214E-06  0.1999730E+04  0.7818609E-02  0.8606747E-01
       -2   -1    0    0    0  501  0.00000000000E+00  0.00000000000E+00  0.65094353338E+03  0.65094353339E+03  0.25500000920E-02 0. -1.
        2   -1    0    0  501    0  0.00000000000E+00  0.00000000000E+00 -0.15358172441E+04  0.15358172441E+04  0.25500000920E-02 0.  1.
    10030    2    1    2    0    0  0.00000000000E+00  0.00000000000E+00 -0.88487371072E+03  0.21867607775E+04  0.19997302853E+04 0.  0.
        1    1    3    3  502    0  0.14436731761E+03  0.89542789941E+03 -0.90262536462E+03  0.12795958715E+04  0.50400001928E-02 0.  1.
       -1    1    3    3    0  502 -0.14436731761E+03 -0.89542789941E+03  0.17751653904E+02  0.90716490600E+03  0.50400001928E-02 0. -1.
</event>
<event>
 5   0  0.5118981E-06  0.1996835E+04  0.7818609E-02  0.8608102E-01
        2   -1    0    0  501    0  0.00000000000E+00  0.00000000000E+00  0.13124220283E+04  0.13124220283E+04  0.25500000920E-02 0. -1.
       -2   -1    0    0    0  501  0.00000000000E+00  0.00000000000E+00 -0.75954029235E+03  0.75954029236E+03  0.25500000920E-02 0.  1.
    10030    2    1    2    0    0  0.00000000000E+00  0.00000000000E+00  0.55288173599E+03  0.20719623207E+04  0.19968349066E+04 0.  0.
        4    1    3    3  502    0 -0.84755807090E+03  0.16558393142E+03  0.79635439431E+03  0.11747147127E+04  0.12699999809E+01 0. -1.
       -4    1    3    3    0  502  0.84755807090E+03 -0.16558393142E+03 -0.24347265833E+03  0.89724760804E+03  0.12699999809E+01 0.  1.
</event>
<event>
 5   0  0.2379743E-06  0.2000516E+04  0.7818609E-02  0.8606380E-01
        1   -1    0    0  501    0  0.00000000000E+00  0.00000000000E+00  0.28121404832E+04  0.28121404832E+04  0.50400001928E-02 0. -1.
       -1   -1    0    0    0  501  0.00000000000E+00  0.00000000000E+00 -0.35578447646E+03  0.35578447649E+03  0.50400001928E-02 0.  1.
    10030    2    1    2    0    0  0.00000000000E+00  0.00000000000E+00  0.24563560067E+04  0.31679249597E+04  0.20005158631E+04 0.  0.
        5    1    3    3  502    0  0.54019296130E+03 -0.20279077210E+02 -0.10452564319E+03  0.55060637164E+03  0.46999998093E+01 0.  1.
       -5    1    3    3    0  502 -0.54019296130E+03  0.20279077210E+02  0.25608816499E+04  0.26173185881E+04  0.46999998093E+01 0. -1.
</event>
<event>
 5   0  0.4956214E-06  0.2000074E+04  0.7818609E-02  0.8606586E-01
       -2   -1    0    0    0  501  0.00000000000E+00  0.00000000000E+00  0.50667756280E+03  0.50667756281E+03  0.25500000920E-02 0. -1.
        2   -1    0    0  501    0  0.00000000000E+00  0.00000000000E+00 -0.19737872378E+04  0.19737872378E+04  0.25500000920E-02 0.  1.
    10030    2    1    2    0    0  0.00000000000E+00  0.00000000000E+00 -0.14671096750E+04  0.24804648006E+04  0.20000737058E+04 0.  0.
        1    1    3    3  502    0 -0.44652626383E+03  0.31214595356E+03  0.30646790439E+03  0.62509469447E+03  0.50400001928E-02 0. -1.
       -1    1    3    3    0  502  0.44652626383E+03 -0.31214595356E+03 -0.17735775794E+04  0.18553701061E+04  0.50400001928E-02 0.  1.
</event>
<event>
 5   0  0.2311520E-06  0.2000030E+04  0.7818609E-02  0.8606607E-01
        1   -1    0    0  501    0  0.00000000000E+00  0.00000000000E+00  0.16208665747E+04  0.16208665747E+04  0.50400001928E-02 0.  1.
       -1   -1    0    0    0  501  0.00000000000E+00  0.00000000000E+00 -0.61697256438E+03  0.61697256440E+03  0.50400001928E-02 0. -1.
    10030    2    1    2    0    0  0.00000000000E+00  0.00000000000E+00  0.10038940103E+04  0.22378391391E+04  0.20000302069E+04 0.  0.
        3    1    3    3  502    0  0.79729279310E+03  0.55528778358E+03  0.23714295855E+03  0.10001285485E+04  0.10100000352E+00 0. -1.
       -3    1    3    3    0  502 -0.79729279310E+03 -0.55528778358E+03  0.76675105173E+03  0.12377105906E+04  0.10100000352E+00 0.  1.
</event>
<event>
 5   0  0.1777750E-06  0.1999995E+04  0.7818609E-02  0.8606623E-01
       -3   -1    0    0    0  501  0.00000000000E+00  0.00000000000E+00  0.47378214566E+03  0.47378215643E+03  0.10100000352E+00 0.  1.
        3   -1    0    0  501    0  0.00000000000E+00  0.00000000000E+00 -0.21106645528E+04  0.21106645552E+04  0.10100000352E+00 0. -1.
    10030    2    1    2    0    0  0.00000000000E+00  0.00000000000E+00 -0.16368824072E+04  0.25844467117E+04  0.19999951976E+04 0.  0.
        2    1    3    3  502    0  0.73971665341E+03 -0.41125156937E+03 -0.15067099565E+04  0.17281445176E+04  0.25500000920E-02 0. -1.
       -2    1    3    3    0  502 -0.73971665341E+03  0.41125156937E+03 -0.13017245063E+03  0.85630219405E+03  0.25500000920E-02 0.  1.
</event>
<event>
 5   0  0.2379743E-06  0.1999761E+04  0.7818609E-02  0.8606733E-01
       -1   -1    0    0    0  501  0.00000000000E+00  0.00000000000E+00  0.11457019739E+04  0.11457019739E+04  0.50400001928E-02 0.  1.
        1   -1    0    0  501    0  0.00000000000E+00  0.00000000000E+00 -0.87261831543E+03  0.87261831544E+03  0.50400001928E-02 0. -1.
    10030    2    1    2    0    0  0.00000000000E+00  0.00000000000E+00  0.27308365846E+03  0.20183202893E+04  0.19997605121E+04 0.  0.
        5    1    3    3  502    0  0.45803788932E+03 -0.18172673004E+03  0.10146250718E+04  0.11279669493E+04  0.46999998093E+01 0.  1.
       -5    1    3    3    0  502 -0.45803788932E+03  0.18172673004E+03 -0.74154141330E+03  0.89035334004E+03  0.46999998093E+01 0. -1.
</event>
<event>
 5   0  0.2386776E-06  0.1999589E+04  0.7818609E-02  0.8606813E-01
       -1   -1    0    0    0  501  0.00000000000E+00  0.00000000000E+00  0.54552543320E+03  0.54552543322E+03  0.50400001928E-02 0. -1.
        1   -1    0    0  501    0  0.00000000000E+00  0.00000000000E+00 -0.18323425039E+04  0.18323425039E+04  0.50400001928E-02 0.  1.
    10030    2    1    2    0    0  0.00000000000E+00  0.00000000000E+00 -0.12868170707E+04  0.23778679371E+04  0.19995893961E+04 0.  0.
        2    1    3    3  502    0  0.92705087322E+03 -0.33209451564E+03 -0.43785143907E+03  0.10776938209E+04  0.25500000920E-02 0. -1.
       -2    1    3    3    0  502 -0.92705087322E+03  0.33209451564E+03 -0.84896563163E+03  0.13001741162E+04  0.25500000920E-02 0.  1.
</event>
<event>
 5   0  0.5251252E-06  0.1997860E+04  0.7818609E-02  0.8607622E-01
       -2   -1    0    0    0  501  0.00000000000E+00  0.00000000000E+00  0.46840619867E+03  0.46840619867E+03  0.25500000920E-02 0. -1.
        2   -1    0    0  501    0  0.00000000000E+00  0.00000000000E+00 -0.21303338492E+04  0.21303338492E+04  0.25500000920E-02 0.  1.
    10030    2    1    2    0    0  0.00000000000E+00  0.00000000000E+00 -0.16619276505E+04  0.25987400478E+04  0.19978604358E+04 0.  0.
        5    1    3    3  502    0 -0.51561321133E+03 -0.67486468959E+03 -0.15149964179E+04  0.17368176557E+04  0.46999998093E+01 0.  1.
       -5    1    3    3    0  502  0.51561321133E+03  0.67486468959E+03 -0.14693123263E+03  0.86192239215E+03  0.46999998093E+01 0. -1.
</event>
<event>
 5   0  0.5118981E-06  0.1999109E+04  0.7818609E-02  0.8607037E-01
        2   -1    0    0  501    0  0.00000000000E+00  0.00000000000E+00  0.22082724699E+04  0.22082724699E+04  0.25500000920E-02 0. -1.
       -2   -1    0    0    0  501  0.00000000000E+00  0.00000000000E+00 -0.45243942042E+03  0.45243942043E+03  0.25500000920E-02 0.  1.
    10030    2    1    2    0    0  0.00000000000E+00  0.00000000000E+00  0.17558330495E+04  0.26607118903E+04  0.19991093181E+04 0.  0.
        4    1    3    3  502    0  0.27066194485E+03  0.87010190805E+03  0.14246962298E+04  0.16911818882E+04  0.12699999809E+01 0.  1.
       -4    1    3    3    0  502 -0.27066194485E+03 -0.87010190805E+03  0.33113681964E+03  0.96953000212E+03  0.12699999809E+01 0. -1.
</event>
<event>
 5   0  0.2313821E-06  0.2000174E+04  0.7818609E-02  0.8606539E-01
        1   -1    0    0  501    0  0.00000000000E+00  0.00000000000E+00  0.49555843161E+03  0.49555843164E+03  0.50400001928E-02 0. -1.
       -1   -1    0    0    0  501  0.00000000000E+00  0.00000000000E+00 -0.20182766681E+04  0.20182766681E+04  0.50400001928E-02 0.  1.
    10030    2    1    2    0    0  0.00000000000E+00  0.00000000000E+00 -0.15227182365E+04  0.25138350997E+04  0.20001740127E+04 0.  0.
        1    1    3    3  502    0  0.35820807998E+03 -0.26158754140E+03  0.36517363948E+03  0.57453708094E+03  0.50400001928E-02 0. -1.
       -1    1    3    3    0  502 -0.35820807998E+03  0.26158754140E+03 -0.18878918759E+04  0.19392980188E+04  0.50400001928E-02 0.  1.
</event>
<event>
 5   0  0.5251252E-06  0.2000234E+04  0.7818609E-02  0.8606511E-01
       -2   -1    0    0    0  501  0.00000000000E+00  0.00000000000E+00  0.98172091715E+03  0.98172091715E+03  0.25500000920E-02 0.  1.
        2   -1    0    0  501    0  0.00000000000E+00  0.00000000000E+00 -0.10188575773E+04  0.10188575773E+04  0.25500000920E-02 0. -1.
    10030    2    1    2    0    0  0.00000000000E+00  0.00000000000E+00 -0.37136660138E+02  0.20005784944E+04  0.20002337816E+04 0.  0.
        5    1    3    3  502    0  0.14578634356E+03 -0.72801204120E+03 -0.68872597680E+03  0.10127293573E+04  0.46999998093E+01 0. -1.
       -5    1    3    3    0  502 -0.14578634356E+03  0.72801204120E+03  0.65158931666E+03  0.98784913710E+03  0.46999998093E+01 0.  1.
</event>
<event>
 5   0  0.2379743E-06  0.2000086E+04  0.7818609E-02  0.8606581E-01
       -1   -1    0    0    0  501  0.00000000000E+00  0.00000000000E+00  0.66778168061E+03  0.66778168062E+03  0.50400001928E-02 0.  1.
        1   -1    0    0  501    0  0.00000000000E+00  0.00000000000E+00 -0.14976236104E+04  0.14976236104E+04  0.50400001928E-02 0. -1.
    10030    2    1    2    0    0  0.00000000000E+00  0.00000000000E+00 -0.82984192977E+03  0.21654052910E+04  0.20000856097E+04 0.  0.
        5    1    3    3  502    0 -0.13395313252E+03 -0.48140329482E+02  0.65674613886E+03  0.67201079898E+03  0.46999998093E+01 0.  1.
       -5    1    3    3    0  502  0.13395313252E+03  0.48140329482E+02 -0.14865880686E+04  0.14933944920E+04  0.46999998093E+01 0. -1.
</event>
<event>
 5   0  0.5030137E-06  0.1999019E+04  0.7818609E-02  0.8607080E-01
        2   -1    0    0  501    0  0.00000000000E+00  0.00000000000E+00  0.20761387925E+04  0.20761387925E+04  0.25500000920E-02 0. -1.
       -2   -1    0    0    0  501  0.00000000000E+00  0.00000000000E+00 -0.48119085126E+03  0.48119085127E+03  0.25500000920E-02 0.  1.
    10030    2    1    2    0    0  0.00000000000E+00  0.00000000000E+00  0.15949479412E+04  0.25573296438E+04  0.19990187522E+04 0.  0.
        3    1    3    3  502    0  0.55780450506E+03  0.18328022726E+03 -0.23731587140E+03  0.63329009197E+03  0.10100000352E+00 0.  1.
       -3    1    3    3    0  502 -0.55780450506E+03 -0.18328022726E+03  0.18322638126E+04  0.19240395518E+04  0.10100000352E+00 0. -1.
</event>
<event>
 5   0  0.5251252E-06  0.2000224E+04  0.7818609E-02  0.8606516E-01
        2   -1    0    0  501    0  0.00000000000E+00  0.00000000000E+00  0.14880277649E+04  0.14880277649E+04  0.25500000920E-02 0. -1.
       -2   -1    0    0    0  501  0.00000000000E+00  0.00000000000E+00 -0.67218095794E+03  0.67218095795E+03  0.25500000920E-02 0.  1.
    10030    2    1    2    0    0  0.00000000000E+00  0.00000000000E+00  0.81584680694E+03  0.21602087228E+04  0.20002239159E+04 0.  0.
        5    1    3    3  502    0  0.24493703720E+03  0.90073061238E+03  0.79565408237E+03  0.12265387467E+04  0.46999998093E+01 0. -1.
       -5    1    3    3    0  502 -0.24493703720E+03 -0.90073061238E+03  0.20192724571E+02  0.93366997617E+03  0.46999998093E+01 0.  1.
</event>
<event>
 5   0  0.2356996E-06  0.2000508E+04  0.7818609E-02  0.8606383E-01
        1   -1    0    0  501    0  0.00000000000E+00  0.00000000000E+00  0.74964977839E+03  0.74964977841E+03  0.50400001928E-02 0.  1.
       -1   -1    0    0    0  501  0.00000000000E+00  0.00000000000E+00 -0.13346345600E+04  0.13346345600E+04  0.50400001928E-02 0. -1.
    10030    2    1    2    0    0  0.00000000000E+00  0.00000000000E+00 -0.58498478160E+03  0.20842843384E+04  0.20005084375E+04 0.  0.
        4    1    3    3  502    0  0.95634369963E+03 -0.28742709145E+03 -0.35233719683E+03  0.10589384864E+04  0.12699999809E+01 0. -1.
       -4    1    3    3    0  502 -0.95634369963E+03  0.28742709145E+03 -0.23264758478E+03  0.10253458521E+04  0.12699999809E+01 0.  1.
</event>
<event>
 5   0  0.5030137E-06  0.1998515E+04  0.7818609E-02  0.8607315E-01
        2   -1    0    0  501    0  0.00000000000E+00  0.00000000000E+00  0.10695104052E+04  0.10695104052E+04  0.25500000920E-02 0.  1.
       -2   -1    0    0    0  501  0.00000000000E+00  0.00000000000E+00 -0.93361963305E+03  0.93361963305E+03  0.25500000920E-02 0. -1.
    10030    2    1    2    0    0  0.00000000000E+00  0.00000000000E+00  0.13589077215E+03  0.20031300382E+04  0.19985153610E+04 0.  0.
        3    1    3    3  502    0 -0.89691857353E+03  0.42375173566E+03  0.18858709778E+03  0.10097492583E+04  0.10100000352E+00 0. -1.
       -3    1    3    3    0  502  0.89691857353E+03 -0.42375173566E+03 -0.52696325631E+02  0.99338077994E+03  0.10100000352E+00 0.  1.
</event>
<event>
 5   0  0.5129100E-06  0.2000101E+04  0.7818609E-02  0.8606574E-01
        2   -1    0    0  501    0  0.00000000000E+00  0.00000000000E+00  0.20785562266E+04  0.20785562266E+04  0.25500000920E-02 0. -1.
       -2   -1    0    0    0  501  0.00000000000E+00  0.00000000000E+00 -0.48115161253E+03  0.48115161253E+03  0.25500000920E-02 0.  1.
    10030    2    1    2    0    0  0.00000000000E+00  0.00000000000E+00  0.15974046141E+04  0.25597078392E+04  0.20001006776E+04 0.  0.
        2    1    3    3  502    0 -0.80366158112E+03 -0.59480591777E+03  0.82538410437E+03  0.12965048926E+04  0.25500000920E-02 0. -1.
       -2    1    3    3    0  502  0.80366158112E+03  0.59480591777E+03  0.77202050974E+03  0.12632029466E+04  0.25500000920E-02 0.  1.
</event>
<event>
 5   0  0.5118981E-06  0.1990679E+04  0.7818609E-02  0.8610991E-01
       -2   -1    0    0    0  501  0.00000000000E+00  0.00000000000E+00  0.61993958780E+03  0.61993958780E+03  0.25500000920E-02 0.  1.
        2   -1    0    0  501    0  0.00000000000E+00  0.00000000000E+00 -0.15980600268E+04  0.15980600268E+04  0.25500000920E-02 0. -1.
    10030    2    1    2    0    0  0.00000000000E+00  0.00000000000E+00 -0.97812043897E+03  0.22179996146E+04  0.19906789538E+04 0.  0.
        4    1    3    3  502    0 -0.66267413174E+03 -0.60704375004E+03 -0.12347322306E+02  0.89877315748E+03  0.12699999809E+01 0. -1.
       -4    1    3    3    0  502  0.66267413174E+03  0.60704375004E+03 -0.96577311667E+03  0.13192264571E+04  0.12699999809E+01 0.  1.
</event>
<event>
 5   0  0.5251252E-06  0.2000269E+04  0.7818609E-02  0.8606495E-01
       -2   -1    0    0    0  501  0.00000000000E+00  0.00000000000E+00  0.10446385896E+04  0.10446385896E+04  0.25500000920E-02 0.  1.
        2   -1    0    0  501    0  0.00000000000E+00  0.00000000000E+00 -0.95752644735E+03  0.95752644735E+03  0.25500000920E-02 0. -1.
    10030    2    1    2    0    0  0.00000000000E+00  0.00000000000E+00  0.87112142274E+02  0.20021650370E+04  0.20002690594E+04 0.  0.
        5    1    3    3  502    0  0.26280505888E+03  0.82185490337E+03 -0.46262575262E+03  0.97905906775E+03  0.46999998093E+01 0. -1.
       -5    1    3    3    0  502 -0.26280505888E+03 -0.82185490337E+03  0.54973789490E+03  0.10231059692E+04  0.46999998093E+01 0.  1.
</event>
<event>
 5   0  0.4956214E-06  0.1999905E+04  0.7818609E-02  0.8606665E-01
        2   -1    0    0  501    0  0.00000000000E+00  0.00000000000E+00  0.22149316588E+04  0.22149316588E+04  0.25500000920E-02 0. -1.
       -2   -1    0    0    0  501  0.00000000000E+00  0.00000000000E+00 -0.45143819558E+03  0.45143819558E+03  0.25500000920E-02 0.  1.
    10030    2    1    2    0    0  0.00000000000E+00  0.00000000000E+00  0.17634934633E+04  0.26663698544E+04  0.19999047491E+04 0.  0.
        1    1    3    3  502    0  0.15534278850E+03 -0.95430245116E+03  0.12218693566E+04  0.15581364751E+04  0.50400001928E-02 0. -1.
       -1    1    3    3    0  502 -0.15534278850E+03  0.95430245116E+03  0.54162410665E+03  0.11082333794E+04  0.50400001928E-02 0.  1.
</event>
<event>
 5   0  0.4956214E-06  0.1992986E+04  0.7818609E-02  0.8609907E-01
        2   -1    0    0  501    0  0.00000000000E+00  0.00000000000E+00  0.84039548905E+03  0.84039548906E+03  0.25500000920E-02 0. -1.
       -2   -1    0    0    0  501  0.00000000000E+00  0.00000000000E+00 -0.11815845620E+04  0.11815845620E+04  0.25500000920E-02 0.  1.
    10030    2    1    2    0    0  0.00000000000E+00  0.00000000000E+00 -0.34118907291E+03  0.20219800510E+04  0.19929860369E+04 0.  0.
        1    1    3    3  502    0  0.91239594481E+03  0.25625240416E+03  0.14189067141E+03  0.95826124695E+03  0.50400001928E-02 0. -1.
       -1    1    3    3    0  502 -0.91239594481E+03 -0.25625240416E+03 -0.48307974431E+03  0.10637188041E+04  0.50400001928E-02 0.  1.
</event>
<event>
 5   0  0.2313821E-06  0.2000786E+04  0.7818609E-02  0.8606253E-01
        1   -1    0    0  501    0  0.00000000000E+00  0.00000000000E+00  0.12945618497E+04  0.12945618497E+04  0.50400001928E-02 0.  1.
       -1   -1    0    0    0  501  0.00000000000E+00  0.00000000000E+00 -0.77306924201E+03  0.77306924203E+03  0.50400001928E-02 0. -1.
    10030    2    1    2    0    0  0.00000000000E+00  0.00000000000E+00  0.52149260767E+03  0.20676310917E+04  0.20007857935E+04 0.  0.
        1    1    3    3  502    0 -0.97697375630E+03 -0.21442748629E+03  0.27949294745E+03  0.10385437762E+04  0.50400001928E-02 0.  1.
       -1    1    3    3    0  502  0.97697375630E+03  0.21442748629E+03  0.24199966021E+03  0.10290873155E+04  0.50400001928E-02 0. -1.
</event>
<event>
 5   0  0.2386776E-06  0.1999891E+04  0.7818609E-02  0.8606672E-01
       -1   -1    0    0    0  501  0.00000000000E+00  0.00000000000E+00  0.12788048736E+04  0.12788048736E+04  0.50400001928E-02 0. -1.
        1   -1    0    0  501    0  0.00000000000E+00  0.00000000000E+00 -0.78189510049E+03  0.78189510051E+03  0.50400001928E-02 0.  1.
    10030    2    1    2    0    0  0.00000000000E+00  0.00000000000E+00  0.49690977312E+03  0.20606999741E+04  0.19998912622E+04 0.  0.
        2    1    3    3  502    0  0.94248518471E+03 -0.13630044523E+03  0.56274583105E+03  0.11061369740E+04  0.25500000920E-02 0.  1.
       -2    1    3    3    0  502 -0.94248518471E+03  0.13630044523E+03 -0.65836057937E+02  0.95456300017E+03  0.25500000920E-02 0. -1.
</event>
<event>
 5   0  0.4956214E-06  0.1999856E+04  0.7818609E-02  0.8606688E-01
       -2   -1    0    0    0  501  0.00000000000E+00  0.00000000000E+00  0.66332705483E+03  0.66332705483E+03  0.25500000920E-02 0. -1.
        2   -1    0    0  501    0  0.00000000000E+00  0.00000000000E+00 -0.15073348406E+04  0.15073348406E+04  0.25500000920E-02 0.  1.
    10030    2    1    2    0    0  0.00000000000E+00  0.00000000000E+00 -0.84400778578E+03  0.21706618954E+04  0.19998559753E+04 0.  0.
        1    1    3    3  502    0 -0.14900371446E+03 -0.95058519481E+03 -0.12665759000E+03  0.97049289779E+03  0.50400001928E-02 0. -1.
       -1    1    3    3    0  502  0.14900371446E+03  0.95058519481E+03 -0.71735019578E+03  0.12001689977E+04  0.50400001928E-02 0.  1.
</event>
<event>
 5   0  0.2379743E-06  0.2000025E+04  0.7818609E-02  0.8606609E-01
        1   -1    0    0  501    0  0.00000000000E+00  0.00000000000E+00  0.11480435538E+04  0.11480435538E+04  0.50400001928E-02 0. -1.
       -1   -1    0    0    0  501  0.00000000000E+00  0.00000000000E+00 -0.87106925120E+03  0.87106925121E+03  0.50400001928E-02 0.  1.
    10030    2    1    2    0    0  0.00000000000E+00  0.00000000000E+00  0.27697430258E+03  0.20191128050E+04  0.20000254386E+04 0.  0.
        5    1    3    3  502    0  0.10593579885E+02 -0.88096139325E+02 -0.86707610855E+03  0.87161701551E+03  0.46999998093E+01 0.  1.
       -5    1    3    3    0  502 -0.10593579885E+02  0.88096139325E+02  0.11440504111E+04  0.11474957895E+04  0.46999998093E+01 0. -1.
</event>
<event>
 5   0  0.5251252E-06  0.1998202E+04  0.7818609E-02  0.8607462E-01
       -2   -1    0    0    0  501  0.00000000000E+00  0.00000000000E+00  0.93350403098E+03  0.93350403099E+03  0.25500000920E-02 0.  1.
        2   -1    0    0  501    0  0.00000000000E+00  0.00000000000E+00 -0.10693076316E+04  0.10693076316E+04  0.25500000920E-02 0. -1.
    10030    2    1    2    0    0  0.00000000000E+00  0.00000000000E+00 -0.13580360066E+03  0.20028116626E+04  0.19982021765E+04 0.  0.
        5    1    3    3  502    0 -0.23725451547E+03 -0.27494582230E+03  0.86499549638E+03  0.93814935329E+03  0.46999998093E+01 0.  1.
       -5    1    3    3    0  502  0.23725451547E+03  0.27494582230E+03 -0.10007990970E+04  0.10646623093E+04  0.46999998093E+01 0. -1.
</event>
<event>
 5   0  0.2311520E-06  0.2000371E+04  0.7818609E-02  0.8606447E-01
        1   -1    0    0  501    0  0.00000000000E+00  0.00000000000E+00  0.23021896282E+04  0.23021896282E+04  0.50400001928E-02 0. -1.
       -1   -1    0    0    0  501  0.00000000000E+00  0.00000000000E+00 -0.43453038139E+03  0.43453038142E+03  0.50400001928E-02 0.  1.
    10030    2    1    2    0    0  0.00000000000E+00  0.00000000000E+00  0.18676592468E+04  0.27367200096E+04  0.20003713027E+04 0.  0.
        3    1    3    3  502    0  0.55865893889E+02  0.67110648784E+03  0.19455497197E+04  0.20588027196E+04  0.10100000352E+00 0. -1.
       -3    1    3    3    0  502 -0.55865893889E+02 -0.67110648784E+03 -0.77890472924E+02  0.67791729001E+03  0.10100000352E+00 0.  1.
</event>
<event>
 5   0  0.5129100E-06  0.2002101E+04  0.7818609E-02  0.8605639E-01
        2   -1    0    0  501    0  0.00000000000E+00  0.00000000000E+00  0.13749304032E+04  0.13749304032E+04  0.25500000920E-02 0. -1.
       -2   -1    0    0    0  501  0.00000000000E+00  0.00000000000E+00 -0.72883808833E+03  0.72883808833E+03  0.25500000920E-02 0.  1.
    10030    2    1    2    0    0  0.00000000000E+00  0.00000000000E+00  0.64609231488E+03  0.21037684915E+04  0.20021005436E+04 0.  0.
        2    1    3    3  502    0 -0.99791409474E+03  0.73517164864E+02  0.35393861926E+03  0.10613716881E+04  0.25500000920E-02 0. -1.
       -2    1    3    3    0  502  0.99791409474E+03 -0.73517164864E+02  0.29215369562E+03  0.10423968035E+04  0.25500000920E-02 0.  1.
</event>
<event>
 5   0  0.2356996E-06  0.1999951E+04  0.7818609E-02  0.8606644E-01
       -1   -1    0    0    0  501  0.00000000000E+00  0.00000000000E+00  0.14601931083E+04  0.14601931083E+04  0.50400001928E-02 0.  1.
        1   -1    0    0  501    0  0.00000000000E+00  0.00000000000E+00 -0.68480716284E+03  0.68480716286E+03  0.50400001928E-02 0. -1.
    10030    2    1    2    0    0  0.00000000000E+00  0.00000000000E+00  0.77538594548E+03  0.21450002712E+04  0.19999506991E+04 0.  0.
        4    1    3    3  502    0  0.42754588551E+03  0.76609712959E+03 -0.12695082159E+03  0.88646399825E+03  0.12699999809E+01 0. -1.
       -4    1    3    3    0  502 -0.42754588551E+03 -0.76609712959E+03  0.90233676706E+03  0.12585362729E+04  0.12699999809E+01 0.  1.
</event>
<event>
 5   0  0.2379743E-06  0.1998847E+04  0.7818609E-02  0.8607160E-01
        1   -1    0    0  501    0  0.00000000000E+00  0.00000000000E+00  0.79770283134E+03  0.79770283135E+03  0.50400001928E-02 0.  1.
       -1   -1    0    0    0  501  0.00000000000E+00  0.00000000000E+00 -0.12521542134E+04  0.12521542134E+04  0.50400001928E-02 0. -1.
    10030    2    1    2    0    0  0.00000000000E+00  0.00000000000E+00 -0.45445138206E+03  0.20498570448E+04  0.19988466288E+04 0.  0.
        5    1    3    3  502    0 -0.10256988884E+03 -0.53110600799E+03 -0.10890473378E+04  0.12159935722E+04  0.46999998093E+01 0. -1.
       -5    1    3    3    0  502  0.10256988884E+03  0.53110600799E+03  0.63459595571E+03  0.83386347253E+03  0.46999998093E+01 0.  1.
</event>
<event>
 5   0  0.2313821E-06  0.2000261E+04  0.7818609E-02  0.8606499E-01
       -1   -1    0    0    0  501  0.00000000000E+00  0.00000000000E+00  0.45678688344E+03  0.45678688347E+03  0.50400001928E-02 0. -1.
        1   -1    0    0  501    0  0.00000000000E+00  0.00000000000E+00 -0.21897768215E+04  0.21897768215E+04  0.50400001928E-02 0.  1.
    10030    2    1    2    0    0  0.00000000000E+00  0.00000000000E+00 -0.17329899381E+04  0.26465637050E+04  0.20002613127E+04 0.  0.
        1    1    3    3  502    0  0.71706144567E+03  0.40306179178E+03 -0.16191863108E+04  0.18161498380E+04  0.50400001928E-02 0.  1.
       -1    1    3    3    0  502 -0.71706144567E+03 -0.40306179178E+03 -0.11380362722E+03  0.83041386697E+03  0.50400001928E-02 0. -1.
</event>
<event>
 5   0  0.2386776E-06  0.1998547E+04  0.7818609E-02  0.8607300E-01
        1   -1    0    0  501    0  0.00000000000E+00  0.00000000000E+00  0.26254341414E+04  0.26254341414E+04  0.50400001928E-02 0.  1.
       -1   -1    0    0    0  501  0.00000000000E+00  0.00000000000E+00 -0.38033625252E+03  0.38033625255E+03  0.50400001928E-02 0. -1.
    10030    2    1    2    0    0  0.00000000000E+00  0.00000000000E+00  0.22450978888E+04  0.30057703939E+04  0.19985472550E+04 0.  0.
        2    1    3    3  502    0 -0.62258903004E+03 -0.87257407930E+02 -0.45642712260E+02  0.63032865455E+03  0.25500000920E-02 0. -1.
       -2    1    3    3    0  502  0.62258903004E+03  0.87257407930E+02  0.22907406011E+04  0.23754417394E+04  0.25500000920E-02 0.  1.
</event>
<event>
 5   0  0.5030137E-06  0.1999693E+04  0.7818609E-02  0.8606764E-01
       -2   -1    0    0    0  501  0.00000000000E+00  0.00000000000E+00  0.11728361770E+04  0.11728361770E+04  0.25500000920E-02 0. -1.
        2   -1    0    0  501    0  0.00000000000E+00  0.00000000000E+00 -0.85237246960E+03  0.85237246961E+03  0.25500000920E-02 0.  1.
    10030    2    1    2    0    0  0.00000000000E+00  0.00000000000E+00  0.32046370740E+03  0.20252086466E+04  0.19996932451E+04 0.  0.
        3    1    3    3  502    0 -0.65870949371E+03 -0.66304553070E+03  0.51996215324E+03  0.10695271029E+04  0.10100000352E+00 0. -1.
       -3    1    3    3    0  502  0.65870949371E+03  0.66304553070E+03 -0.19949844583E+03  0.95568154370E+03  0.10100000352E+00 0.  1.
</event>
<event>
 5   0  0.4956214E-06  0.1997569E+04  0.7818609E-02  0.8607758E-01
       -2   -1    0    0    0  501  0.00000000000E+00  0.00000000000E+00  0.67110060697E+03  0.67110060697E+03  0.25500000920E-02 0. -1.
        2   -1    0    0  501    0  0.00000000000E+00  0.00000000000E+00 -0.14864697671E+04  0.14864697671E+04  0.25500000920E-02 0.  1.
    10030    2    1    2    0    0  0.00000000000E+00  0.00000000000E+00 -0.81536916016E+03  0.21575703741E+04  0.19975692859E+04 0.  0.
        1    1    3    3  502    0 -0.74893577414E+03  0.29950626804E+03  0.22853063704E+03  0.83835258124E+03  0.50400001928E-02 0. -1.
       -1    1    3    3    0  502  0.74893577414E+03 -0.29950626804E+03 -0.10438997972E+04  0.13192177929E+04  0.50400001928E-02 0.  1.
</event>
<event>
 5   0  0.2386776E-06  0.1999284E+04  0.7818609E-02  0.8606955E-01
        1   -1    0    0  501    0  0.00000000000E+00  0.00000000000E+00  0.16408945580E+04  0.16408945580E+04  0.50400001928E-02 0.  1.
       -1   -1    0    0    0  501  0.00000000000E+00  0.00000000000E+00 -0.60898746976E+03  0.60898746978E+03  0.50400001928E-02 0. -1.
    10030    2    1    2    0    0  0.00000000000E+00  0.00000000000E+00  0.10319070883E+04  0.22498820278E+04  0.19992840969E+04 0.  0.
        2    1    3    3  502    0  0.20787041502E+03  0.28552215549E+03 -0.53643923283E+03  0.64226167661E+03  0.25500000920E-02 0. -1.
       -2    1    3    3    0  502 -0.20787041502E+03 -0.28552215549E+03  0.15683463211E+04  0.16076203512E+04  0.25500000920E-02 0.  1.
</event>
<event>
 5   0  0.2356996E-06  0.2001992E+04  0.7818609E-02  0.8605690E-01
       -1   -1    0    0    0  501  0.00000000000E+00  0.00000000000E+00  0.10773051154E+04  0.10773051154E+04  0.50400001928E-02 0.  1.
        1   -1    0    0  501    0  0.00000000000E+00  0.00000000000E+00 -0.93009254678E+03  0.93009254680E+03  0.50400001928E-02 0. -1.
    10030    2    1    2    0    0  0.00000000000E+00  0.00000000000E+00  0.14721256859E+03  0.20073976622E+04  0.20019924660E+04 0.  0.
        4    1    3    3  502    0 -0.49957167618E+03  0.66715559345E+03  0.62947059356E+03  0.10444631571E+04  0.12699999809E+01 0.  1.
       -4    1    3    3    0  502  0.49957167618E+03 -0.66715559345E+03 -0.48225802496E+03  0.96293450507E+03  0.12699999809E+01 0. -1.
</event>
<event>
 5   0  0.2311520E-06  0.1997255E+04  0.7818609E-02  0.8607905E-01
        1   -1    0    0  501    0  0.00000000000E+00  0.00000000000E+00  0.90598189930E+03  0.90598189931E+03  0.50400001928E-02 0.  1.
       -1   -1    0    0    0  501  0.00000000000E+00  0.00000000000E+00 -0.11007475453E+04  0.11007475453E+04  0.50400001928E-02 0. -1.
    10030    2    1    2    0    0  0.00000000000E+00  0.00000000000E+00 -0.19476564596E+03  0.20067294446E+04  0.19972554686E+04 0.  0.
        3    1    3    3  502    0 -0.85375349334E+03  0.32830776113E+02  0.42206514801E+03  0.95294904723E+03  0.10100000352E+00 0. -1.
       -3    1    3    3    0  502  0.85375349334E+03 -0.32830776113E+02 -0.61683079397E+03  0.10537803973E+04  0.10100000352E+00 0.  1.
</event>
<event>
 5   0  0.2356996E-06  0.2002336E+04  0.7818609E-02  0.8605529E-01
        1   -1    0    0  501    0  0.00000000000E+00  0.00000000000E+00  0.17070725293E+04  0.17070725293E+04  0.50400001928E-02 0. -1.
       -1   -1    0    0    0  501  0.00000000000E+00  0.00000000000E+00 -0.58716751201E+03  0.58716751203E+03  0.50400001928E-02 0.  1.
    10030    2    1    2    0    0  0.00000000000E+00  0.00000000000E+00  0.11199050173E+04  0.22942400414E+04  0.20023361655E+04 0.  0.
        4    1    3    3  502    0  0.82418463989E+03  0.56226663402E+03  0.46469519175E+03  0.11006213347E+04  0.12699999809E+01 0.  1.
       -4    1    3    3    0  502 -0.82418463989E+03 -0.56226663402E+03  0.65520982556E+03  0.11936187066E+04  0.12699999809E+01 0. -1.
</event>
<event>
 5   0  0.5129100E-06  0.1997779E+04  0.7818609E-02  0.8607660E-01
       -2   -1    0    0    0  501  0.00000000000E+00  0.00000000000E+00  0.75028909521E+03  0.75028909521E+03  0.25500000920E-02 0. -1.
        2   -1    0    0  501    0  0.00000000000E+00  0.00000000000E+00 -0.13298612601E+04  0.13298612601E+04  0.25500000920E-02 0.  1.
    10030    2    1    2    0    0  0.00000000000E+00  0.00000000000E+00 -0.57957216484E+03  0.20801503553E+04  0.19977791685E+04 0.  0.
        2    1    3    3  502    0  0.64080655542E+03 -0.68157159609E+03 -0.65437696180E+03  0.11416576064E+04  0.25500000920E-02 0.  1.
       -2    1    3    3    0  502 -0.64080655542E+03  0.68157159609E+03  0.74804796955E+02  0.93849274889E+03  0.25500000920E-02 0. -1.
</event>
<event>
 5   0  0.4956214E-06  0.2000539E+04  0.7818609E-02  0.8606369E-01
        2   -1    0    0  501    0  0.00000000000E+00  0.00000000000E+00  0.13362364368E+04  0.13362364368E+04  0.25500000920E-02 0.  1.
       -2   -1    0    0    0  501  0.00000000000E+00  0.00000000000E+00 -0.74877409363E+03  0.74877409363E+03  0.25500000920E-02 0. -1.
    10030    2    1    2    0    0  0.00000000000E+00  0.00000000000E+00  0.58746234322E+03  0.20850105305E+04  0.20005391542E+04 0.  0.
        1    1    3    3  502    0  0.62092291345E+03  0.23789405392E+03 -0.48508336703E+03  0.82307029975E+03  0.50400001928E-02 0. -1.
       -1    1    3    3    0  502 -0.62092291345E+03 -0.23789405392E+03  0.10725457102E+04  0.12619402307E+04  0.50400001928E-02 0.  1.
</event>
<event>
 5   0  0.2313821E-06  0.1999631E+04  0.7818609E-02  0.8606793E-01
        1   -1    0    0  501    0  0.00000000000E+00  0.00000000000E+00  0.14690156942E+04  0.14690156942E+04  0.50400001928E-02 0.  1.
       -1   -1    0    0    0  501  0.00000000000E+00  0.00000000000E+00 -0.68047664127E+03  0.68047664128E+03  0.50400001928E-02 0. -1.
    10030    2    1    2    0    0  0.00000000000E+00  0.00000000000E+00  0.78853905296E+03  0.21494923355E+04  0.19996308315E+04 0.  0.
        1    1    3    3  502    0 -0.23042899502E+03 -0.40669520421E+02  0.14391683777E+04  0.14580662369E+04  0.50400001928E-02 0.  1.
       -1    1    3    3    0  502  0.23042899502E+03  0.40669520421E+02 -0.65062932476E+03  0.69142609865E+03  0.50400001928E-02 0. -1.
</event>
<event>
 5   0  0.5129100E-06  0.1999385E+04  0.7818609E-02  0.8606908E-01
        2   -1    0    0  501    0  0.00000000000E+00  0.00000000000E+00  0.10127861424E+04  0.10127861424E+04  0.25500000920E-02 0.  1.
       -2   -1    0    0    0  501  0.00000000000E+00  0.00000000000E+00 -0.98676835735E+03  0.98676835735E+03  0.25500000920E-02 0. -1.
    10030    2    1    2    0    0  0.00000000000E+00  0.00000000000E+00  0.26017785053E+02  0.19995544998E+04  0.19993852236E+04 0.  0.
        2    1    3    3  502    0 -0.93596045445E+03  0.23012829853E+03  0.27836946600E+03  0.10032300662E+04  0.25500000920E-02 0. -1.
       -2    1    3    3    0  502  0.93596045445E+03 -0.23012829853E+03 -0.25235168094E+03  0.99632443358E+03  0.25500000920E-02 0.  1.
</event>
<event>
 5   0  0.2311520E-06  0.1996759E+04  0.7818609E-02  0.8608138E-01
        1   -1    0    0  501    0  0.00000000000E+00  0.00000000000E+00  0.19107780355E+04  0.19107780355E+04  0.50400001928E-02 0. -1.
       -1   -1    0    0    0  501  0.00000000000E+00  0.00000000000E+00 -0.52165198715E+03  0.52165198717E+03  0.50400001928E-02 0.  1.
    10030    2    1    2    0    0  0.00000000000E+00  0.00000000000E+00  0.13891260484E+04  0.24324300227E+04  0.19967585325E+04 0.  0.
        3    1    3    3  502    0  0.43051451320E+03 -0.35442207968E+03  0.17033852011E+04  0.17923389496E+04  0.10100000352E+00 0. -1.
       -3    1    3    3    0  502 -0.43051451320E+03  0.35442207968E+03 -0.31425915272E+03  0.64009107314E+03  0.10100000352E+00 0.  1.
</event>
<event>
 5   0  0.4956214E-06  0.1996246E+04  0.7818609E-02  0.8608378E-01
       -2   -1    0    0    0  501  0.00000000000E+00  0.00000000000E+00  0.99860585921E+03  0.99860585922E+03  0.25500000920E-02 0. -1.
        2   -1    0    0  501    0  0.00000000000E+00  0.00000000000E+00 -0.99764007520E+03  0.99764007521E+03  0.25500000920E-02 0.  1.
    10030    2    1    2    0    0  0.00000000000E+00  0.00000000000E+00  0.96578401056E+00  0.19962459344E+04  0.19962457008E+04 0.  0.
        1    1    3    3  502    0 -0.10764651915E+03 -0.53186495247E+03  0.83820676535E+03  0.99852825812E+03  0.50400001928E-02 0. -1.
       -1    1    3    3    0  502  0.10764651915E+03  0.53186495247E+03 -0.83724098134E+03  0.99771767631E+03  0.50400001928E-02 0.  1.
</event>
<event>
 5   0  0.2311520E-06  0.1999761E+04  0.7818609E-02  0.8606732E-01
       -1   -1    0    0    0  501  0.00000000000E+00  0.00000000000E+00  0.94908368442E+03  0.94908368443E+03  0.50400001928E-02 0.  1.
        1   -1    0    0  501    0  0.00000000000E+00  0.00000000000E+00 -0.10533960613E+04  0.10533960614E+04  0.50400001928E-02 0. -1.
    10030    2    1    2    0    0  0.00000000000E+00  0.00000000000E+00 -0.10431237692E+03  0.20024797458E+04  0.19997610008E+04 0.  0.
        3    1    3    3  502    0 -0.17280981011E+03  0.89798344490E+03 -0.45708635673E+03  0.10223333339E+04  0.10100000352E+00 0. -1.
       -3    1    3    3    0  502  0.17280981011E+03 -0.89798344490E+03  0.35277397981E+03  0.98014641193E+03  0.10100000352E+00 0.  1.
</event>
<event>
 5   0  0.1777750E-06  0.2000277E+04  0.7818609E-02  0.8606491E-01
       -4   -1    0    0    0  501  0.00000000000E+00  0.00000000000E+00  0.15920410737E+04  0.15920415802E+04  0.12699999809E+01 0. -1.
        4   -1    0    0  501    0  0.00000000000E+00  0.00000000000E+00 -0.62829728053E+03  0.62829856408E+03  0.12699999809E+01 0.  1.
    10030    2    1    2    0    0  0.00000000000E+00  0.00000000000E+00  0.96374379315E+03  0.22203401443E+04  0.20002770452E+04 0.  0.
        4    1    3    3  502    0 -0.41596301344E+02  0.47724961348E+03  0.14563992123E+04  0.15331659155E+04  0.12699999809E+01 0. -1.
       -4    1    3    3    0  502  0.41596301344E+02 -0.47724961348E+03 -0.49265541916E+03  0.68717422884E+03  0.12699999809E+01 0.  1.
</event>
<event>
 5   0  0.4956214E-06  0.2002067E+04  0.7818609E-02  0.8605655E-01
        2   -1    0    0  501    0  0.00000000000E+00  0.00000000000E+00  0.82471325347E+03  0.82471325348E+03  0.25500000920E-02 0.  1.
       -2   -1    0    0    0  501  0.00000000000E+00  0.00000000000E+00 -0.12150498195E+04  0.12150498195E+04  0.25500000920E-02 0. -1.
    10030    2    1    2    0    0  0.00000000000E+00  0.00000000000E+00 -0.39033656604E+03  0.20397630730E+04  0.20020666221E+04 0.  0.
        1    1    3    3  502    0  0.88267998766E+03 -0.32730182752E+03  0.15155883594E+03  0.95353055939E+03  0.50400001928E-02 0. -1.
       -1    1    3    3    0  502 -0.88267998766E+03  0.32730182752E+03 -0.54189540198E+03  0.10862325136E+04  0.50400001928E-02 0.  1.
</event>
<event>
 5   0  0.2386776E-06  0.2001132E+04  0.7818609E-02  0.8606092E-01
       -1   -1    0    0    0  501  0.00000000000E+00  0.00000000000E+00  0.16422188838E+04  0.16422188838E+04  0.50400001928E-02 0.  1.
        1   -1    0    0  501    0  0.00000000000E+00  0.00000000000E+00 -0.60962165806E+03  0.60962165809E+03  0.50400001928E-02 0. -1.
    10030    2    1    2    0    0  0.00000000000E+00  0.00000000000E+00  0.10325972257E+04  0.22518405419E+04  0.20011318786E+04 0.  0.
        2    1    3    3  502    0 -0.69740306262E+03  0.50527650178E+03 -0.56885932485E+02  0.86308248987E+03  0.25500000920E-02 0. -1.
       -2    1    3    3    0  502  0.69740306262E+03 -0.50527650178E+03  0.10894831582E+04  0.13887580520E+04  0.25500000920E-02 0.  1.
</event>
<event>
 5   0  0.5129100E-06  0.1998866E+04  0.7818609E-02  0.8607151E-01
        2   -1    0    0  501    0  0.00000000000E+00  0.00000000000E+00  0.16059959163E+04  0.16059959163E+04  0.25500000920E-02 0. -1.
       -2   -1    0    0    0  501  0.00000000000E+00  0.00000000000E+00 -0.62196085222E+03  0.62196085223E+03  0.25500000920E-02 0.  1.
    10030    2    1    2    0    0  0.00000000000E+00  0.00000000000E+00  0.98403506407E+03  0.22279567685E+04  0.19988662674E+04 0.  0.
        2    1    3    3  502    0  0.63546801043E+03 -0.38512895563E+03  0.12369930889E+04  0.14430162185E+04  0.25500000920E-02 0. -1.
       -2    1    3    3    0  502 -0.63546801043E+03  0.38512895563E+03 -0.25295802486E+03  0.78494055004E+03  0.25500000920E-02 0.  1.
</event>
<event>
 5   0  0.4956214E-06  0.1996888E+04  0.7818609E-02  0.8608077E-01
       -2   -1    0    0    0  501  0.00000000000E+00  0.00000000000E+00  0.42876148919E+03  0.42876148920E+03  0.25500000920E-02 0.  1.
        2   -1    0    0  501    0  0.00000000000E+00  0.00000000000E+00 -0.23250465830E+04  0.23250465830E+04  0.25500000920E-02 0. -1.
    10030    2    1    2    0    0  0.00000000000E+00  0.00000000000E+00 -0.18962850939E+04  0.27538080722E+04  0.19968880143E+04 0.  0.
        1    1    3    3  502    0  0.81579030278E+03 -0.50430181876E+03 -0.13309531992E+04  0.16405092383E+04  0.50400001928E-02 0. -1.
       -1    1    3    3    0  502 -0.81579030278E+03  0.50430181876E+03 -0.56533189470E+03  0.11132988340E+04  0.50400001928E-02 0.  1.
</event>
<event>
 5   0  0.2386776E-06  0.2002264E+04  0.7818609E-02  0.8605563E-01
        1   -1    0    0  501    0  0.00000000000E+00  0.00000000000E+00  0.10847075246E+04  0.10847075246E+04  0.50400001928E-02 0. -1.
       -1   -1    0    0    0  501  0.00000000000E+00  0.00000000000E+00 -0.92399542898E+03  0.92399542900E+03  0.50400001928E-02 0.  1.
    10030    2    1    2    0    0  0.00000000000E+00  0.00000000000E+00  0.16071209560E+03  0.20087029536E+04  0.20022635136E+04 0.  0.
        2    1    3    3  502    0 -0.15776142113E+03  0.30132579845E+03 -0.86425534282E+03  0.92877510755E+03  0.25500000920E-02 0.  1.
       -2    1    3    3    0  502  0.15776142113E+03 -0.30132579845E+03  0.10249674384E+04  0.10799278460E+04  0.25500000920E-02 0. -1.
</event>
<event>
 5   0  0.2356996E-06  0.2000474E+04  0.7818609E-02  0.8606399E-01
        1   -1    0    0  501    0  0.00000000000E+00  0.00000000000E+00  0.10835765873E+04  0.10835765873E+04  0.50400001928E-02 0.  1.
       -1   -1    0    0    0  501  0.00000000000E+00  0.00000000000E+00 -0.92330704155E+03  0.92330704156E+03  0.50400001928E-02 0. -1.
    10030    2    1    2    0    0  0.00000000000E+00  0.00000000000E+00  0.16026954573E+03  0.20068836288E+04  0.20004738370E+04 0.  0.
        4    1    3    3  502    0 -0.90416750490E+03 -0.40732938343E+03  0.21107569112E+03  0.10138987444E+04  0.12699999809E+01 0.  1.
       -4    1    3    3    0  502  0.90416750490E+03  0.40732938343E+03 -0.50806145384E+02  0.99298488449E+03  0.12699999809E+01 0. -1.
</event>
<event>
 5   0  0.5251252E-06  0.1998673E+04  0.7818609E-02  0.8607241E-01
        2   -1    0    0  501    0  0.00000000000E+00  0.00000000000E+00  0.10672677615E+04  0.10672677615E+04  0.25500000920E-02 0. -1.
       -2   -1    0    0    0  501  0.00000000000E+00  0.00000000000E+00 -0.93572948438E+03  0.93572948439E+03  0.25500000920E-02 0.  1.
    10030    2    1    2    0    0  0.00000000000E+00  0.00000000000E+00  0.13153827711E+03  0.20029972459E+04  0.19986734723E+04 0.  0.
        5    1    3    3  502    0  0.26169260034E+03  0.91089775816E+03  0.38336808652E+03  0.10223555754E+04  0.46999998093E+01 0. -1.
       -5    1    3    3    0  502 -0.26169260034E+03 -0.91089775816E+03 -0.25182980941E+03  0.98064167044E+03  0.46999998093E+01 0.  1.
</event>
<event>
 5   0  0.2379743E-06  0.1997555E+04  0.7818609E-02  0.8607765E-01
       -1   -1    0    0    0  501  0.00000000000E+00  0.00000000000E+00  0.71017249807E+03  0.71017249809E+03  0.50400001928E-02 0.  1.
        1   -1    0    0  501    0  0.00000000000E+00  0.00000000000E+00 -0.14046674667E+04  0.14046674667E+04  0.50400001928E-02 0. -1.
    10030    2    1    2    0    0  0.00000000000E+00  0.00000000000E+00 -0.69449496859E+03  0.21148399648E+04  0.19975547089E+04 0.  0.
        5    1    3    3  502    0  0.81752637796E+03  0.90036232221E+02 -0.94715491891E+03  0.12544243429E+04  0.46999998093E+01 0. -1.
       -5    1    3    3    0  502 -0.81752637796E+03 -0.90036232221E+02  0.25265995032E+03  0.86041562181E+03  0.46999998093E+01 0.  1.
</event>
<event>
 5   0  0.2311520E-06  0.2000973E+04  0.7818609E-02  0.8606166E-01
       -1   -1    0    0    0  501  0.00000000000E+00  0.00000000000E+00  0.60717937306E+03  0.60717937308E+03  0.50400001928E-02 0.  1.
        1   -1    0    0  501    0  0.00000000000E+00  0.00000000000E+00 -0.16485622190E+04  0.16485622190E+04  0.50400001928E-02 0. -1.
    10030    2    1    2    0    0  0.00000000000E+00  0.00000000000E+00 -0.10413828459E+04  0.22557415921E+04  0.20009727381E+04 0.  0.
        3    1    3    3  502    0 -0.21945157088E+03  0.66864984616E+03 -0.13223765421E+04  0.14979757468E+04  0.10100000352E+00 0. -1.
       -3    1    3    3    0  502  0.21945157088E+03 -0.66864984616E+03  0.28099369620E+03  0.75776584525E+03  0.10100000352E+00 0.  1.
</event>
<event>
 5   0  0.5030137E-06  0.2000110E+04  0.7818609E-02  0.8606569E-01
       -2   -1    0    0    0  501  0.00000000000E+00  0.00000000000E+00  0.90889989836E+03  0.90889989836E+03  0.25500000920E-02 0.  1.
        2   -1    0    0  501    0  0.00000000000E+00  0.00000000000E+00 -0.11003524577E+04  0.11003524577E+04  0.25500000920E-02 0. -1.
    10030    2    1    2    0    0  0.00000000000E+00  0.00000000000E+00 -0.19145255934E+03  0.20092523561E+04  0.20001102339E+04 0.  0.
        3    1    3    3  502    0  0.67320541480E+03  0.50370388824E+03  0.44821619802E+03  0.95279636225E+03  0.10100000352E+00 0.  1.
       -3    1    3    3    0  502 -0.67320541480E+03 -0.50370388824E+03 -0.63966875736E+03  0.10564559938E+04  0.10100000352E+00 0. -1.
</event>
<event>
 5   0  0.5251252E-06  0.2000295E+04  0.7818609E-02  0.8606483E-01
        2   -1    0    0  501    0  0.00000000000E+00  0.00000000000E+00  0.79773847716E+03  0.79773847716E+03  0.25500000920E-02 0. -1.
       -2   -1    0    0    0  501  0.00000000000E+00  0.00000000000E+00 -0.12539130038E+04  0.12539130038E+04  0.25500000920E-02 0.  1.
    10030    2    1    2    0    0  0.00000000000E+00  0.00000000000E+00 -0.45617452660E+03  0.20516514809E+04  0.20002946284E+04 0.  0.
        5    1    3    3  502    0  0.70975816653E+03 -0.48893498004E+02  0.49290097247E+03  0.86551758374E+03  0.46999998093E+01 0.  1.
       -5    1    3    3    0  502 -0.70975816653E+03  0.48893498004E+02 -0.94907549907E+03  0.11861338972E+04  0.46999998093E+01 0. -1.
</event>
<event>
 5   0  0.2379743E-06  0.2000300E+04  0.7818609E-02  0.8606480E-01
       -1   -1    0    0    0  501  0.00000000000E+00  0.00000000000E+00  0.78525537553E+03  0.78525537555E+03  0.50400001928E-02 0.  1.
        1   -1    0    0  501    0  0.00000000000E+00  0.00000000000E+00 -0.12738537161E+04  0.12738537161E+04  0.50400001928E-02 0. -1.
    10030    2    1    2    0    0  0.00000000000E+00  0.00000000000E+00 -0.48859834059E+03  0.20591090917E+04  0.20003004557E+04 0.  0.
        5    1    3    3  502    0 -0.81076191530E+03 -0.57820942716E+03 -0.33985811028E+03  0.10522293714E+04  0.46999998093E+01 0. -1.
       -5    1    3    3    0  502  0.81076191530E+03  0.57820942716E+03 -0.14874023031E+03  0.10068797203E+04  0.46999998093E+01 0.  1.
</event>
<event>
 5   0  0.2386776E-06  0.1999993E+04  0.7818609E-02  0.8606624E-01
        1   -1    0    0  501    0  0.00000000000E+00  0.00000000000E+00  0.17671660286E+04  0.17671660286E+04  0.50400001928E-02 0.  1.
       -1   -1    0    0    0  501  0.00000000000E+00  0.00000000000E+00 -0.56587389671E+03  0.56587389674E+03  0.50400001928E-02 0. -1.
    10030    2    1    2    0    0  0.00000000000E+00  0.00000000000E+00  0.12012921319E+04  0.23330399254E+04  0.19999931268E+04 0.  0.
        2    1    3    3  502    0  0.18031044753E+03  0.26611289475E+02  0.17476263393E+04  0.17571049599E+04  0.25500000920E-02 0.  1.
       -2    1    3    3    0  502 -0.18031044753E+03 -0.26611289475E+02 -0.54633420743E+03  0.57593496545E+03  0.25500000920E-02 0. -1.
</event>
<event>
 5   0  0.5118981E-06  0.1998808E+04  0.7818609E-02  0.8607178E-01
       -2   -1    0    0    0  501  0.00000000000E+00  0.00000000000E+00  0.11708704158E+04  0.11708704158E+04  0.25500000920E-02 0. -1.
        2   -1    0    0  501    0  0.00000000000E+00  0.00000000000E+00 -0.85304782311E+03  0.85304782312E+03  0.25500000920E-02 0.  1.
    10030    2    1    2    0    0  0.00000000000E+00  0.00000000000E+00  0.31782259269E+03  0.20239182389E+04  0.19988081042E+04 0.  0.
        4    1    3    3  502    0 -0.83401786236E+03  0.35230752160E+03 -0.26960783465E+03  0.94466733928E+03  0.12699999809E+01 0.  1.
       -4    1    3    3    0  502  0.83401786236E+03 -0.35230752160E+03  0.58743042735E+03  0.10792508996E+04  0.12699999809E+01 0. -1.
</event>
<event>
 5   0  0.1777750E-06  0.2000836E+04  0.7818609E-02  0.8606230E-01
        4   -1    0    0  501    0  0.00000000000E+00  0.00000000000E+00  0.13364027826E+04  0.13364033861E+04  0.12699999809E+01 0. -1.
       -4   -1    0    0    0  501  0.00000000000E+00  0.00000000000E+00 -0.74890213880E+03  0.74890321564E+03  0.12699999809E+01 0.  1.
    10030    2    1    2    0    0  0.00000000000E+00  0.00000000000E+00  0.58750064381E+03  0.20853066017E+04  0.20008364792E+04 0.  0.
        4    1    3    3  502    0  0.65056212331E+03 -0.71967108288E+03  0.39147259767E+02  0.97092309926E+03  0.12699999809E+01 0.  1.
       -4    1    3    3    0  502 -0.65056212331E+03  0.71967108288E+03  0.54835338404E+03  0.11143835024E+04  0.12699999809E+01 0. -1.
</event>
<event>
 5   0  0.2313821E-06  0.1999605E+04  0.7818609E-02  0.8606805E-01
        1   -1    0    0  501    0  0.00000000000E+00  0.00000000000E+00  0.96712524431E+03  0.96712524432E+03  0.50400001928E-02 0.  1.
       -1   -1    0    0    0  501  0.00000000000E+00  0.00000000000E+00 -0.10335841773E+04  0.10335841773E+04  0.50400001928E-02 0. -1.
    10030    2    1    2    0    0  0.00000000000E+00  0.00000000000E+00 -0.66458933016E+02  0.20007094217E+04  0.19996053111E+04 0.  0.
        1    1    3    3  502    0  0.21690540652E+03  0.36311274026E+03 -0.93965823499E+03  0.10304641751E+04  0.50400001928E-02 0. -1.
       -1    1    3    3    0  502 -0.21690540652E+03 -0.36311274026E+03  0.87319930197E+03  0.97024524658E+03  0.50400001928E-02 0.  1.
</event>
<event>
 5   0  0.5129100E-06  0.1998581E+04  0.7818609E-02  0.8607285E-01
        2   -1    0    0  501    0  0.00000000000E+00  0.00000000000E+00  0.52652780050E+03  0.52652780050E+03  0.25500000920E-02 0. -1.
       -2   -1    0    0    0  501  0.00000000000E+00  0.00000000000E+00 -0.18965402602E+04  0.18965402602E+04  0.25500000920E-02 0.  1.
    10030    2    1    2    0    0  0.00000000000E+00  0.00000000000E+00 -0.13700124597E+04  0.24230680607E+04  0.19985806681E+04 0.  0.
        2    1    3    3  502    0 -0.39364570282E+03  0.45269797318E+02  0.42721277609E+03  0.58268091608E+03  0.25500000920E-02 0. -1.
       -2    1    3    3    0  502  0.39364570282E+03 -0.45269797318E+02 -0.17972252357E+04  0.18403871446E+04  0.25500000920E-02 0.  1.
</event>
<event>
 5   0  0.2386776E-06  0.2000874E+04  0.7818609E-02  0.8606212E-01
       -1   -1    0    0    0  501  0.00000000000E+00  0.00000000000E+00  0.13649815851E+04  0.13649815851E+04  0.50400001928E-02 0. -1.
        1   -1    0    0  501    0  0.00000000000E+00  0.00000000000E+00 -0.73325095196E+03  0.73325095198E+03  0.50400001928E-02 0.  1.
    10030    2    1    2    0    0  0.00000000000E+00  0.00000000000E+00  0.63173063310E+03  0.20982325371E+04  0.20008738558E+04 0.  0.
        2    1    3    3  502    0 -0.36589057833E+03 -0.54418901516E+03  0.11081793767E+04  0.12876642149E+04  0.25500000920E-02 0. -1.
       -2    1    3    3    0  502  0.36589057833E+03  0.54418901516E+03 -0.47644874359E+03  0.81056832211E+03  0.25500000920E-02 0.  1.
</event>
<event>
 5   0  0.4956214E-06  0.1999976E+04  0.7818609E-02  0.8606632E-01
        2   -1    0    0  501    0  0.00000000000E+00  0.00000000000E+00  0.13541553780E+04  0.13541553780E+04  0.25500000920E-02 0. -1.
       -2   -1    0    0    0  501  0.00000000000E+00  0.00000000000E+00 -0.73844984982E+03  0.73844984982E+03  0.25500000920E-02 0.  1.
    10030    2    1    2    0    0  0.00000000000E+00  0.00000000000E+00  0.61570552820E+03  0.20926052278E+04  0.19999758354E+04 0.  0.
        1    1    3    3  502    0 -0.26032376017E+03  0.52282840829E+03 -0.54144193547E+03  0.79641532766E+03  0.50400001928E-02 0. -1.
       -1    1    3    3    0  502  0.26032376017E+03 -0.52282840829E+03  0.11571474637E+04  0.12961899002E+04  0.50400001928E-02 0.  1.
</event>
<event>
 5   0  0.2311520E-06  0.2000104E+04  0.7818609E-02  0.8606572E-01
        1   -1    0    0  501    0  0.00000000000E+00  0.00000000000E+00  0.91408051684E+03  0.91408051686E+03  0.50400001928E-02 0. -1.
       -1   -1    0    0    0  501  0.00000000000E+00  0.00000000000E+00 -0.10941096070E+04  0.10941096070E+04  0.50400001928E-02 0.  1.
    10030    2    1    2    0    0  0.00000000000E+00  0.00000000000E+00 -0.18002909018E+03  0.20081901239E+04  0.20001042724E+04 0.  0.
        3    1    3    3  502    0 -0.10335853190E+03  0.46197109524E+03 -0.97448670094E+03  0.10833857205E+04  0.10100000352E+00 0.  1.
       -3    1    3    3    0  502  0.10335853190E+03 -0.46197109524E+03  0.79445761076E+03  0.92480440335E+03  0.10100000352E+00 0. -1.
</event>
<event>
 5   0  0.2311520E-06  0.2000306E+04  0.7818609E-02  0.8606478E-01
        1   -1    0    0  501    0  0.00000000000E+00  0.00000000000E+00  0.60450654539E+03  0.60450654541E+03  0.50400001928E-02 0. -1.
       -1   -1    0    0    0  501  0.00000000000E+00  0.00000000000E+00 -0.16547479404E+04  0.16547479404E+04  0.50400001928E-02 0.  1.
    10030    2    1    2    0    0  0.00000000000E+00  0.00000000000E+00 -0.10502413950E+04  0.22592544858E+04  0.20003059376E+04 0.  0.
        3    1    3    3  502    0  0.22407107106E+03 -0.13809280626E+03  0.56468785777E+03  0.62301673728E+03  0.10100000352E+00 0. -1.
       -3    1    3    3    0  502 -0.22407107106E+03  0.13809280626E+03 -0.16149292528E+04  0.16362377485E+04  0.10100000352E+00 0.  1.
</event>
<event>
 5   0  0.5118981E-06  0.1998662E+04  0.7818609E-02  0.8607246E-01
        2   -1    0    0  501    0  0.00000000000E+00  0.00000000000E+00  0.49346318235E+03  0.49346318236E+03  0.25500000920E-02 0. -1.
       -2   -1    0    0    0  501  0.00000000000E+00  0.00000000000E+00 -0.20237829978E+04  0.20237829978E+04  0.25500000920E-02 0.  1.
    10030    2    1    2    0    0  0.00000000000E+00  0.00000000000E+00 -0.15303198155E+04  0.25172461802E+04  0.19986619509E+04 0.  0.
        4    1    3    3  502    0 -0.35152488398E+03 -0.34509468427E+03  0.32992412012E+03  0.59288415656E+03  0.12699999809E+01 0. -1.
       -4    1    3    3    0  502  0.35152488398E+03  0.34509468427E+03 -0.18602439356E+04  0.19243620236E+04  0.12699999809E+01 0.  1.
</event>
<event>
 5   0  0.4956214E-06  0.2000842E+04  0.7818609E-02  0.8606227E-01
        2   -1    0    0  501    0  0.00000000000E+00  0.00000000000E+00  0.63044663031E+03  0.63044663031E+03  0.25500000920E-02 0.  1.
       -2   -1    0    0    0  501  0.00000000000E+00  0.00000000000E+00 -0.15875135719E+04  0.15875135719E+04  0.25500000920E-02 0. -1.
    10030    2    1    2    0    0  0.00000000000E+00  0.00000000000E+00 -0.95706694162E+03  0.22179602022E+04  0.20008424046E+04 0.  0.
        1    1    3    3  502    0  0.41714333194E+03  0.14670016145E+03 -0.14733047641E+04  0.15382315901E+04  0.50400001928E-02 0. -1.
       -1    1    3    3    0  502 -0.41714333194E+03 -0.14670016145E+03  0.51623782251E+03  0.67972861214E+03  0.50400001928E-02 0.  1.
</event>
<event>
 5   0  0.2386776E-06  0.1999492E+04  0.7818609E-02  0.8606858E-01
       -1   -1    0    0    0  501  0.00000000000E+00  0.00000000000E+00  0.10775745128E+04  0.10775745128E+04  0.50400001928E-02 0.  1.
        1   -1    0    0  501    0  0.00000000000E+00  0.00000000000E+00 -0.92753904399E+03  0.92753904401E+03  0.50400001928E-02 0. -1.
    10030    2    1    2    0    0  0.00000000000E+00  0.00000000000E+00  0.15003546884E+03  0.20051135568E+04  0.19994923691E+04 0.  0.
        2    1    3    3  502    0  0.67663989886E+03  0.36348828283E+03  0.71675989379E+03  0.10505760467E+04  0.25500000920E-02 0.  1.
       -2    1    3    3    0  502 -0.67663989886E+03 -0.36348828283E+03 -0.56672442495E+03  0.95453751018E+03  0.25500000920E-02 0. -1.
</event>
<event>
 5   0  0.2356996E-06  0.1998039E+04  0.7818609E-02  0.8607538E-01
       -1   -1    0    0    0  501  0.00000000000E+00  0.00000000000E+00  0.46113920191E+03  0.46113920194E+03  0.50400001928E-02 0. -1.
        1   -1    0    0  501    0  0.00000000000E+00  0.00000000000E+00 -0.21642912618E+04  0.21642912618E+04  0.50400001928E-02 0.  1.
    10030    2    1    2    0    0  0.00000000000E+00  0.00000000000E+00 -0.17031520599E+04  0.26254304638E+04  0.19980385834E+04 0.  0.
        4    1    3    3  502    0 -0.17224142568E+03 -0.32072205722E+03 -0.20740292238E+04  0.21057370635E+04  0.12699999809E+01 0.  1.
       -4    1    3    3    0  502  0.17224142568E+03  0.32072205722E+03  0.37087716385E+03  0.51969340026E+03  0.12699999809E+01 0. -1.
</event>
<event>
 5   0  0.2379743E-06  0.1999329E+04  0.7818609E-02  0.8606935E-01
        1   -1    0    0  501    0  0.00000000000E+00  0.00000000000E+00  0.82584644293E+03  0.82584644294E+03  0.50400001928E-02 0. -1.
       -1   -1    0    0    0  501  0.00000000000E+00  0.00000000000E+00 -0.12100663209E+04  0.12100663209E+04  0.50400001928E-02 0.  1.
    10030    2    1    2    0    0  0.00000000000E+00  0.00000000000E+00 -0.38421987797E+03  0.20359127638E+04  0.19993288542E+04 0.  0.
        5    1    3    3  502    0 -0.40979680455E+03 -0.40342985190E+03  0.64054277485E+03  0.86081717155E+03  0.46999998093E+01 0. -1.
       -5    1    3    3    0  502  0.40979680455E+03  0.40342985190E+03 -0.10247626528E+04  0.11750955923E+04  0.46999998093E+01 0.  1.
</event>
<event>
 5   0  0.5129100E-06  0.2000275E+04  0.7818609E-02  0.8606492E-01
       -2   -1    0    0    0  501  0.00000000000E+00  0.00000000000E+00  0.82209113190E+03  0.82209113191E+03  0.25500000920E-02 0. -1.
        2   -1    0    0  501    0  0.00000000000E+00  0.00000000000E+00 -0.12167446486E+04  0.12167446486E+04  0.25500000920E-02 0.  1.
    10030    2    1    2    0    0  0.00000000000E+00  0.00000000000E+00 -0.39465351671E+03  0.20388357805E+04  0.20002749665E+04 0.  0.
        2    1    3    3  502    0 -0.48330158101E+03  0.65903500616E+03 -0.78495380247E+03  0.11331637258E+04  0.25500000920E-02 0.  1.
       -2    1    3    3    0  502  0.48330158101E+03 -0.65903500616E+03  0.39030028576E+03  0.90567205468E+03  0.25500000920E-02 0. -1.
</event>
<event>
 5   0  0.2356996E-06  0.1999836E+04  0.7818609E-02  0.8606697E-01
        1   -1    0    0  501    0  0.00000000000E+00  0.00000000000E+00  0.13707355693E+04  0.13707355693E+04  0.50400001928E-02 0.  1.
       -1   -1    0    0    0  501  0.00000000000E+00  0.00000000000E+00 -0.72941572409E+03  0.72941572411E+03  0.50400001928E-02 0. -1.
    10030    2    1    2    0    0  0.00000000000E+00  0.00000000000E+00  0.64131984517E+03  0.21001512934E+04  0.19998360711E+04 0.  0.
        4    1    3    3  502    0 -0.99223739297E+03 -0.59701536252E+02  0.20689707341E+03  0.10153360672E+04  0.12699999809E+01 0. -1.
       -4    1    3    3    0  502  0.99223739297E+03  0.59701536252E+02  0.43442277177E+03  0.10848152262E+04  0.12699999809E+01 0.  1.
</event>
<event>
 5   0  0.5251252E-06  0.2000207E+04  0.7818609E-02  0.8606524E-01
       -2   -1    0    0    0  501  0.00000000000E+00  0.00000000000E+00  0.91731038903E+03  0.91731038903E+03  0.25500000920E-02 0. -1.
        2   -1    0    0  501    0  0.00000000000E+00  0.00000000000E+00 -0.10903694006E+04  0.10903694006E+04  0.25500000920E-02 0.  1.
    10030    2    1    2    0    0  0.00000000000E+00  0.00000000000E+00 -0.17305901156E+03  0.20076797896E+04  0.20002071683E+04 0.  0.
        5    1    3    3  502    0  0.44732028636E+03 -0.88043849105E+03 -0.24497269141E+03  0.10174974617E+04  0.46999998093E+01 0. -1.
       -5    1    3    3    0  502 -0.44732028636E+03  0.88043849105E+03  0.71913679847E+02  0.99018232789E+03  0.46999998093E+01 0.  1.
</event>
<event>
 5   0  0.2379743E-06  0.2000619E+04  0.7818609E-02  0.8606332E-01
        1   -1    0    0  501    0  0.00000000000E+00  0.00000000000E+00  0.16885072148E+04  0.16885072148E+04  0.50400001928E-02 0. -1.
       -1   -1    0    0    0  501  0.00000000000E+00  0.00000000000E+00 -0.59260549644E+03  0.59260549646E+03  0.50400001928E-02 0.  1.
    10030    2    1    2    0    0  0.00000000000E+00  0.00000000000E+00  0.10959017183E+04  0.22811127112E+04  0.20006185606E+04 0.  0.
        5    1    3    3  502    0 -0.57922468639E+03 -0.79670789957E+03  0.74659467394E+03  0.12359896487E+04  0.46999998093E+01 0. -1.
       -5    1    3    3    0  502  0.57922468639E+03  0.79670789957E+03  0.34930704439E+03  0.10451230625E+04  0.46999998093E+01 0.  1.
</event>
<event>
 5   0  0.2313821E-06  0.2000237E+04  0.7818609E-02  0.8606510E-01
        1   -1    0    0  501    0  0.00000000000E+00  0.00000000000E+00  0.18851661759E+04  0.18851661759E+04  0.50400001928E-02 0. -1.
       -1   -1    0    0    0  501  0.00000000000E+00  0.00000000000E+00 -0.53058307272E+03  0.53058307274E+03  0.50400001928E-02 0.  1.
    10030    2    1    2    0    0  0.00000000000E+00  0.00000000000E+00  0.13545831032E+04  0.24157492487E+04  0.20002372482E+04 0.  0.
        1    1    3    3  502    0  0.57761120925E+03  0.39820085866E+03  0.15381241616E+04  0.16905693034E+04  0.50400001928E-02 0. -1.
       -1    1    3    3    0  502 -0.57761120925E+03 -0.39820085866E+03 -0.18354105844E+03  0.72517994529E+03  0.50400001928E-02 0.  1.
</event>
<event>
 5   0  0.5129100E-06  0.2001296E+04  0.7818609E-02  0.8606015E-01
        2   -1    0    0  501    0  0.00000000000E+00  0.00000000000E+00  0.90252538332E+03  0.90252538332E+03  0.25500000920E-02 0. -1.
       -2   -1    0    0    0  501  0.00000000000E+00  0.00000000000E+00 -0.11094380495E+04  0.11094380495E+04  0.25500000920E-02 0.  1.
    10030    2    1    2    0    0  0.00000000000E+00  0.00000000000E+00 -0.20691266623E+03  0.20119634329E+04  0.20012955813E+04 0.  0.
        2    1    3    3  502    0 -0.30554525658E+03 -0.53191313277E+03 -0.89824400011E+03  0.10877186072E+04  0.25500000920E-02 0.  1.
       -2    1    3    3    0  502  0.30554525658E+03  0.53191313277E+03  0.69133133388E+03  0.92424482570E+03  0.25500000920E-02 0. -1.
</event>
<event>
 5   0  0.2379743E-06  0.2002616E+04  0.7818609E-02  0.8605398E-01
       -1   -1    0    0    0  501  0.00000000000E+00  0.00000000000E+00  0.78380386721E+03  0.78380386723E+03  0.50400001928E-02 0.  1.
        1   -1    0    0  501    0  0.00000000000E+00  0.00000000000E+00 -0.12791697025E+04  0.12791697025E+04  0.50400001928E-02 0. -1.
    10030    2    1    2    0    0  0.00000000000E+00  0.00000000000E+00 -0.49536583529E+03  0.20629735697E+04  0.20026164482E+04 0.  0.
        5    1    3    3  502    0 -0.15805990358E+03  0.36398689834E+03  0.69933193369E+03  0.80408745715E+03  0.46999998093E+01 0.  1.
       -5    1    3    3    0  502  0.15805990358E+03 -0.36398689834E+03 -0.11946977690E+04  0.12588861126E+04  0.46999998093E+01 0. -1.
</event>
<event>
 5   0  0.4956214E-06  0.1999994E+04  0.7818609E-02  0.8606624E-01
        2   -1    0    0  501    0  0.00000000000E+00  0.00000000000E+00  0.90102137880E+03  0.90102137880E+03  0.25500000920E-02 0.  1.
       -2   -1    0    0    0  501  0.00000000000E+00  0.00000000000E+00 -0.11098443948E+04  0.11098443948E+04  0.25500000920E-02 0. -1.
    10030    2    1    2    0    0  0.00000000000E+00  0.00000000000E+00 -0.20882301604E+03  0.20108657736E+04  0.19999935269E+04 0.  0.
        1    1    3    3  502    0 -0.16607125344E+03 -0.43209295250E+03  0.78680968829E+03  0.91288195646E+03  0.50400001928E-02 0.  1.
       -1    1    3    3    0  502  0.16607125344E+03  0.43209295250E+03 -0.99563270433E+03  0.10979838172E+04  0.50400001928E-02 0. -1.
</event>
<event>
 5   0  0.2313821E-06  0.2006127E+04  0.7818609E-02  0.8603762E-01
       -1   -1    0    0    0  501  0.00000000000E+00  0.00000000000E+00  0.50510839858E+03  0.50510839860E+03  0.50400001928E-02 0. -1.
        1   -1    0    0  501    0  0.00000000000E+00  0.00000000000E+00 -0.19919211939E+04  0.19919211939E+04  0.50400001928E-02 0.  1.
    10030    2    1    2    0    0  0.00000000000E+00  0.00000000000E+00 -0.14868127953E+04  0.24970295925E+04  0.20061267401E+04 0.  0.
        1    1    3    3  502    0  0.92044358970E+03 -0.28504436353E+03 -0.39651750756E+03  0.10419658463E+04  0.50400001928E-02 0. -1.
       -1    1    3    3    0  502 -0.92044358970E+03  0.28504436353E+03 -0.10902952877E+04  0.14550637462E+04  0.50400001928E-02 0.  1.
</event>
<event>
 5   0  0.2386776E-06  0.1999660E+04  0.7818609E-02  0.8606780E-01
       -1   -1    0    0    0  501  0.00000000000E+00  0.00000000000E+00  0.11579605836E+04  0.11579605836E+04  0.50400001928E-02 0. -1.
        1   -1    0    0  501    0  0.00000000000E+00  0.00000000000E+00 -0.86329380535E+03  0.86329380536E+03  0.50400001928E-02 0.  1.
    10030    2    1    2    0    0  0.00000000000E+00  0.00000000000E+00  0.29466677825E+03  0.20212543890E+04  0.19996601698E+04 0.  0.
        2    1    3    3  502    0 -0.91334833386E+03  0.19306693191E+03 -0.21455547339E+03  0.95786954766E+03  0.25500000920E-02 0.  1.
       -2    1    3    3    0  502  0.91334833386E+03 -0.19306693191E+03  0.50922225164E+03  0.10633848413E+04  0.25500000920E-02 0. -1.
</event>
<event>
 5   0  0.5118981E-06  0.2000268E+04  0.7818609E-02  0.8606496E-01
        2   -1    0    0  501    0  0.00000000000E+00  0.00000000000E+00  0.11204232051E+04  0.11204232051E+04  0.25500000920E-02 0. -1.
       -2   -1    0    0    0  501  0.00000000000E+00  0.00000000000E+00 -0.89275877769E+03  0.89275877770E+03  0.25500000920E-02 0.  1.
    10030    2    1    2    0    0  0.00000000000E+00  0.00000000000E+00  0.22766442737E+03  0.20131819828E+04  0.20002676331E+04 0.  0.
        4    1    3    3  502    0  0.62208118149E+03  0.40167740925E+03  0.79043462401E+03  0.10831058329E+04  0.12699999809E+01 0. -1.
       -4    1    3    3    0  502 -0.62208118149E+03 -0.40167740925E+03 -0.56277019664E+03  0.93007614989E+03  0.12699999809E+01 0.  1.
</event>
<event>
 5   0  0.5129100E-06  0.2000026E+04  0.7818609E-02  0.8606608E-01
        2   -1    0    0  501    0  0.00000000000E+00  0.00000000000E+00  0.97840108012E+03  0.97840108012E+03  0.25500000920E-02 0.  1.
       -2   -1    0    0    0  501  0.00000000000E+00  0.00000000000E+00 -0.10221023997E+04  0.10221023997E+04  0.25500000920E-02 0. -1.
    10030    2    1    2    0    0  0.00000000000E+00  0.00000000000E+00 -0.43701319555E+02  0.20005034798E+04  0.20000260917E+04 0.  0.
        2    1    3    3  502    0 -0.97221816142E+03 -0.18198068184E+03 -0.16919831250E+03  0.10034705730E+04  0.25500000920E-02 0.  1.
       -2    1    3    3    0  502  0.97221816142E+03  0.18198068184E+03  0.12549699294E+03  0.99703290678E+03  0.25500000920E-02 0. -1.
</event>
<event>
 5   0  0.5118981E-06  0.2000287E+04  0.7818609E-02  0.8606486E-01
        2   -1    0    0  501    0  0.00000000000E+00  0.00000000000E+00  0.18345851794E+04  0.18345851794E+04  0.25500000920E-02 0.  1.
       -2   -1    0    0    0  501  0.00000000000E+00  0.00000000000E+00 -0.54523897376E+03  0.54523897377E+03  0.25500000920E-02 0. -1.
    10030    2    1    2    0    0  0.00000000000E+00  0.00000000000E+00  0.12893462057E+04  0.23798241532E+04  0.20002873199E+04 0.  0.
        4    1    3    3  502    0 -0.26006403801E+03  0.18871793210E+03  0.17715017986E+04  0.18004077308E+04  0.12699999809E+01 0.  1.
       -4    1    3    3    0  502  0.26006403801E+03 -0.18871793210E+03 -0.48215559298E+03  0.57941642236E+03  0.12699999809E+01 0. -1.
</event>
<event>
 5   0  0.2386776E-06  0.1999916E+04  0.7818609E-02  0.8606660E-01
        1   -1    0    0  501    0  0.00000000000E+00  0.00000000000E+00  0.14898150672E+04  0.14898150672E+04  0.50400001928E-02 0. -1.
       -1   -1    0    0    0  501  0.00000000000E+00  0.00000000000E+00 -0.67116754961E+03  0.67116754963E+03  0.50400001928E-02 0.  1.
    10030    2    1    2    0    0  0.00000000000E+00  0.00000000000E+00  0.81864751754E+03  0.21609826168E+04  0.19999155262E+04 0.  0.
        2    1    3    3  502    0 -0.14052446430E+03 -0.88774446300E+03  0.88288770138E+03  0.12598920787E+04  0.25500000920E-02 0. -1.
       -2    1    3    3    0  502  0.14052446430E+03  0.88774446300E+03 -0.64240183836E+02  0.90109053812E+03  0.25500000920E-02 0.  1.
</event>
<event>
 5   0  0.4956214E-06  0.1997848E+04  0.7818609E-02  0.8607628E-01
       -2   -1    0    0    0  501  0.00000000000E+00  0.00000000000E+00  0.10686690283E+04  0.10686690283E+04  0.25500000920E-02 0.  1.
        2   -1    0    0  501    0  0.00000000000E+00  0.00000000000E+00 -0.93373060999E+03  0.93373061000E+03  0.25500000920E-02 0. -1.
    10030    2    1    2    0    0  0.00000000000E+00  0.00000000000E+00  0.13493841835E+03  0.20023996383E+04  0.19978478258E+04 0.  0.
        1    1    3    3  502    0 -0.89675962710E+03 -0.42985347249E+03 -0.27070385951E+02  0.99482895134E+03  0.50400001928E-02 0.  1.
       -1    1    3    3    0  502  0.89675962710E+03  0.42985347249E+03  0.16200880430E+03  0.10075706870E+04  0.50400001928E-02 0. -1.
</event>
<event>
 5   0  0.2356996E-06  0.1999180E+04  0.7818609E-02  0.8607004E-01
        1   -1    0    0  501    0  0.00000000000E+00  0.00000000000E+00  0.11936166006E+04  0.11936166006E+04  0.50400001928E-02 0. -1.
       -1   -1    0    0    0  501  0.00000000000E+00  0.00000000000E+00 -0.83710320312E+03  0.83710320314E+03  0.50400001928E-02 0.  1.
    10030    2    1    2    0    0  0.00000000000E+00  0.00000000000E+00  0.35651339745E+03  0.20307198037E+04  0.19991801116E+04 0.  0.
        4    1    3    3  502    0 -0.64367116778E+03 -0.19365683303E+03 -0.57325518035E+03  0.88342439173E+03  0.12699999809E+01 0.  1.
       -4    1    3    3    0  502  0.64367116778E+03  0.19365683303E+03  0.92976857780E+03  0.11472954120E+04  0.12699999809E+01 0. -1.
</event>
<event>
 5   0  0.2386776E-06  0.1999899E+04  0.7818609E-02  0.8606668E-01
       -1   -1    0    0    0  501  0.00000000000E+00  0.00000000000E+00  0.12241829570E+04  0.12241829570E+04  0.50400001928E-02 0. -1.
        1   -1    0    0  501    0  0.00000000000E+00  0.00000000000E+00 -0.81678854198E+03  0.81678854200E+03  0.50400001928E-02 0.  1.
    10030    2    1    2    0    0  0.00000000000E+00  0.00000000000E+00  0.40739441503E+03  0.20409714990E+04  0.19998986100E+04 0.  0.
        2    1    3    3  502    0 -0.79538038930E+03  0.46607800137E+03  0.59900230120E+03  0.10993918427E+04  0.25500000920E-02 0.  1.
       -2    1    3    3    0  502  0.79538038930E+03 -0.46607800137E+03 -0.19160788617E+03  0.94157965627E+03  0.25500000920E-02 0. -1.
</event>
<event>
 5   0  0.2313821E-06  0.2000631E+04  0.7818609E-02  0.8606326E-01
       -1   -1    0    0    0  501  0.00000000000E+00  0.00000000000E+00  0.15037318323E+04  0.15037318323E+04  0.50400001928E-02 0. -1.
        1   -1    0    0  501    0  0.00000000000E+00  0.00000000000E+00 -0.66543178384E+03  0.66543178386E+03  0.50400001928E-02 0.  1.
    10030    2    1    2    0    0  0.00000000000E+00  0.00000000000E+00  0.83830004850E+03  0.21691636162E+04  0.20006308561E+04 0.  0.
        1    1    3    3  502    0  0.84428127661E+03  0.15509438595E+03  0.97599537930E+03  0.12997815674E+04  0.50400001928E-02 0.  1.
       -1    1    3    3    0  502 -0.84428127661E+03 -0.15509438595E+03 -0.13769533079E+03  0.86938204878E+03  0.50400001928E-02 0. -1.
</event>
<event>
 5   0  0.4956214E-06  0.2001335E+04  0.7818609E-02  0.8605997E-01
        2   -1    0    0  501    0  0.00000000000E+00  0.00000000000E+00  0.15905058066E+04  0.15905058066E+04  0.25500000920E-02 0.  1.
       -2   -1    0    0    0  501  0.00000000000E+00  0.00000000000E+00 -0.62957065012E+03  0.62957065012E+03  0.25500000920E-02 0. -1.
    10030    2    1    2    0    0  0.00000000000E+00  0.00000000000E+00  0.96093515646E+03  0.22200764567E+04  0.20013353289E+04 0.  0.
        1    1    3    3  502    0  0.58952113655E+03 -0.63477316081E+03 -0.75138422836E+02  0.86955041184E+03  0.50400001928E-02 0. -1.
       -1    1    3    3    0  502 -0.58952113655E+03  0.63477316081E+03  0.10360735793E+04  0.13505260449E+04  0.50400001928E-02 0.  1.
</event>
<event>
 5   0  0.2311520E-06  0.2000497E+04  0.7818609E-02  0.8606389E-01
       -1   -1    0    0    0  501  0.00000000000E+00  0.00000000000E+00  0.90646978083E+03  0.90646978084E+03  0.50400001928E-02 0.  1.
        1   -1    0    0  501    0  0.00000000000E+00  0.00000000000E+00 -0.11037286256E+04  0.11037286256E+04  0.50400001928E-02 0. -1.
    10030    2    1    2    0    0  0.00000000000E+00  0.00000000000E+00 -0.19725884479E+03  0.20101984065E+04  0.20004965837E+04 0.  0.
        3    1    3    3  502    0 -0.63391339680E+03 -0.44798839366E+03 -0.73252700704E+03  0.10673029662E+04  0.10100000352E+00 0. -1.
       -3    1    3    3    0  502  0.63391339680E+03  0.44798839366E+03  0.53526816225E+03  0.94289544023E+03  0.10100000352E+00 0.  1.
</event>
<event>
 5   0  0.2379743E-06  0.2000027E+04  0.7818609E-02  0.8606608E-01
        1   -1    0    0  501    0  0.00000000000E+00  0.00000000000E+00  0.13424422336E+04  0.13424422336E+04  0.50400001928E-02 0. -1.
       -1   -1    0    0    0  501  0.00000000000E+00  0.00000000000E+00 -0.74493102436E+03  0.74493102438E+03  0.50400001928E-02 0.  1.
    10030    2    1    2    0    0  0.00000000000E+00  0.00000000000E+00  0.59751120928E+03  0.20873732580E+04  0.20000268681E+04 0.  0.
        5    1    3    3  502    0 -0.28736728215E+03 -0.90746954761E+03  0.61860991944E+03  0.11352450207E+04  0.46999998093E+01 0. -1.
       -5    1    3    3    0  502  0.28736728215E+03  0.90746954761E+03 -0.21098710159E+02  0.95212823729E+03  0.46999998093E+01 0.  1.
</event>
<event>
 5   0  0.2311520E-06  0.1999359E+04  0.7818609E-02  0.8606920E-01
        1   -1    0    0  501    0  0.00000000000E+00  0.00000000000E+00  0.11156943904E+04  0.11156943904E+04  0.50400001928E-02 0. -1.
       -1   -1    0    0    0  501  0.00000000000E+00  0.00000000000E+00 -0.89572864370E+03  0.89572864371E+03  0.50400001928E-02 0.  1.
    10030    2    1    2    0    0  0.00000000000E+00  0.00000000000E+00  0.21996574667E+03  0.20114230341E+04  0.19993593205E+04 0.  0.
        3    1    3    3  502    0 -0.75913728978E+03 -0.64935986236E+03  0.72316918363E+02  0.10015924333E+04  0.10100000352E+00 0. -1.
       -3    1    3    3    0  502  0.75913728978E+03  0.64935986236E+03  0.14764882831E+03  0.10098306008E+04  0.10100000352E+00 0.  1.
</event>
<event>
 5   0  0.5129100E-06  0.1999717E+04  0.7818609E-02  0.8606753E-01
        2   -1    0    0  501    0  0.00000000000E+00  0.00000000000E+00  0.13245431949E+04  0.13245431949E+04  0.25500000920E-02 0. -1.
       -2   -1    0    0    0  501  0.00000000000E+00  0.00000000000E+00 -0.75476337013E+03  0.75476337013E+03  0.25500000920E-02 0.  1.
    10030    2    1    2    0    0  0.00000000000E+00  0.00000000000E+00  0.56977982479E+03  0.20793065650E+04  0.19997166656E+04 0.  0.
        2    1    3    3  502    0 -0.46361096580E+03 -0.84886599979E+03  0.21411598812E+02  0.96745391093E+03  0.25500000920E-02 0.  1.
       -2    1    3    3    0  502  0.46361096580E+03  0.84886599979E+03  0.54836822597E+03  0.11118526541E+04  0.25500000920E-02 0. -1.
</event>
<event>
 5   0  0.5118981E-06  0.2002471E+04  0.7818609E-02  0.8605466E-01
       -2   -1    0    0    0  501  0.00000000000E+00  0.00000000000E+00  0.46881873916E+03  0.46881873916E+03  0.25500000920E-02 0.  1.
        2   -1    0    0  501    0  0.00000000000E+00  0.00000000000E+00 -0.21382945662E+04  0.21382945662E+04  0.25500000920E-02 0. -1.
    10030    2    1    2    0    0  0.00000000000E+00  0.00000000000E+00 -0.16694758270E+04  0.26071133053E+04  0.20024710360E+04 0.  0.
        4    1    3    3  502    0  0.28052217246E+03  0.93199155478E+03 -0.11405433229E+04  0.14993804159E+04  0.12699999809E+01 0.  1.
       -4    1    3    3    0  502 -0.28052217246E+03 -0.93199155478E+03 -0.52893250414E+03  0.11077328894E+04  0.12699999809E+01 0. -1.
</event>
<event>
 5   0  0.5118981E-06  0.1999474E+04  0.7818609E-02  0.8606867E-01
       -2   -1    0    0    0  501  0.00000000000E+00  0.00000000000E+00  0.40671199735E+03  0.40671199736E+03  0.25500000920E-02 0. -1.
        2   -1    0    0  501    0  0.00000000000E+00  0.00000000000E+00 -0.24574495166E+04  0.24574495166E+04  0.25500000920E-02 0.  1.
    10030    2    1    2    0    0  0.00000000000E+00  0.00000000000E+00 -0.20507375192E+04  0.28641615139E+04  0.19994741321E+04 0.  0.
        4    1    3    3  502    0 -0.53921163944E+03 -0.74065457629E+03 -0.15986277496E+04  0.18425337685E+04  0.12699999809E+01 0.  1.
       -4    1    3    3    0  502  0.53921163944E+03  0.74065457629E+03 -0.45210976963E+03  0.10216277454E+04  0.12699999809E+01 0. -1.
</event>
<event>
 5   0  0.1777750E-06  0.2000523E+04  0.7818609E-02  0.8606376E-01
       -3   -1    0    0    0  501  0.00000000000E+00  0.00000000000E+00  0.75589296095E+03  0.75589296770E+03  0.10100000352E+00 0.  1.
        3   -1    0    0  501    0  0.00000000000E+00  0.00000000000E+00 -0.13236300642E+04  0.13236300680E+04  0.10100000352E+00 0. -1.
    10030    2    1    2    0    0  0.00000000000E+00  0.00000000000E+00 -0.56773710322E+03  0.20795230357E+04  0.20005225912E+04 0.  0.
        3    1    3    3  502    0 -0.80684756504E+03  0.57555864564E+03 -0.14343388325E+03  0.10014210088E+04  0.10100000352E+00 0. -1.
       -3    1    3    3    0  502  0.80684756504E+03 -0.57555864564E+03 -0.42430321997E+03  0.10781020269E+04  0.10100000352E+00 0.  1.
</event>
<event>
 5   0  0.2311520E-06  0.1999817E+04  0.7818609E-02  0.8606706E-01
       -1   -1    0    0    0  501  0.00000000000E+00  0.00000000000E+00  0.13240507120E+04  0.13240507120E+04  0.50400001928E-02 0. -1.
        1   -1    0    0  501    0  0.00000000000E+00  0.00000000000E+00 -0.75511951498E+03  0.75511951499E+03  0.50400001928E-02 0.  1.
    10030    2    1    2    0    0  0.00000000000E+00  0.00000000000E+00  0.56893119703E+03  0.20791702270E+04  0.19998165231E+04 0.  0.
        3    1    3    3  502    0  0.32374669592E+03 -0.10510231340E+03  0.12619632792E+04  0.13070614934E+04  0.10100000352E+00 0. -1.
       -3    1    3    3    0  502 -0.32374669592E+03  0.10510231340E+03 -0.69303208214E+03  0.77210873359E+03  0.10100000352E+00 0.  1.
</event>
<event>
 5   0  0.2356996E-06  0.2000055E+04  0.7818609E-02  0.8606595E-01
        1   -1    0    0  501    0  0.00000000000E+00  0.00000000000E+00  0.93312241845E+03  0.93312241847E+03  0.50400001928E-02 0. -1.
       -1   -1    0    0    0  501  0.00000000000E+00  0.00000000000E+00 -0.10717299078E+04  0.10717299078E+04  0.50400001928E-02 0.  1.
    10030    2    1    2    0    0  0.00000000000E+00  0.00000000000E+00 -0.13860748937E+03  0.20048523263E+04  0.20000552028E+04 0.  0.
        4    1    3    3  502    0 -0.14822229072E+03 -0.30143931376E+03  0.87487799870E+03  0.93714920522E+03  0.12699999809E+01 0. -1.
       -4    1    3    3    0  502  0.14822229072E+03  0.30143931376E+03 -0.10134854881E+04  0.10677031211E+04  0.12699999809E+01 0.  1.
</event>
<event>
 5   0  0.5251252E-06  0.2005375E+04  0.7818609E-02  0.8604112E-01
       -2   -1    0    0    0  501  0.00000000000E+00  0.00000000000E+00  0.89218431745E+03  0.89218431746E+03  0.25500000920E-02 0. -1.
        2   -1    0    0  501    0  0.00000000000E+00  0.00000000000E+00 -0.11268777532E+04  0.11268777532E+04  0.25500000920E-02 0.  1.
    10030    2    1    2    0    0  0.00000000000E+00  0.00000000000E+00 -0.23469343575E+03  0.20190620707E+04  0.20053754353E+04 0.  0.
        5    1    3    3  502    0  0.79712193842E+03  0.44959438342E+03 -0.52980356969E+03  0.10574745419E+04  0.46999998093E+01 0.  1.
       -5    1    3    3    0  502 -0.79712193842E+03 -0.44959438342E+03  0.29511013394E+03  0.96158752876E+03  0.46999998093E+01 0. -1.
</event>
<event>
 5   0  0.2379743E-06  0.2000072E+04  0.7818609E-02  0.8606587E-01
        1   -1    0    0  501    0  0.00000000000E+00  0.00000000000E+00  0.16872225737E+04  0.16872225737E+04  0.50400001928E-02 0. -1.
       -1   -1    0    0    0  501  0.00000000000E+00  0.00000000000E+00 -0.59273267621E+03  0.59273267623E+03  0.50400001928E-02 0.  1.
    10030    2    1    2    0    0  0.00000000000E+00  0.00000000000E+00  0.10944898975E+04  0.22799552499E+04  0.20000719502E+04 0.  0.
        5    1    3    3  502    0  0.84347274769E+03  0.53399029942E+03  0.48021177569E+03  0.11077984273E+04  0.46999998093E+01 0.  1.
       -5    1    3    3    0  502 -0.84347274769E+03 -0.53399029942E+03  0.61427812178E+03  0.11721568226E+04  0.46999998093E+01 0. -1.
</event>
<event>
 5   0  0.2386776E-06  0.2000372E+04  0.7818609E-02  0.8606447E-01
       -1   -1    0    0    0  501  0.00000000000E+00  0.00000000000E+00  0.64334911587E+03  0.64334911589E+03  0.50400001928E-02 0. -1.
        1   -1    0    0  501    0  0.00000000000E+00  0.00000000000E+00 -0.15549440794E+04  0.15549440794E+04  0.50400001928E-02 0.  1.
    10030    2    1    2    0    0  0.00000000000E+00  0.00000000000E+00 -0.91159496351E+03  0.21982931953E+04  0.20003718642E+04 0.  0.
        2    1    3    3  502    0  0.18544163916E+03 -0.53822990633E+03  0.44793930334E+03  0.72438225619E+03  0.25500000920E-02 0. -1.
       -2    1    3    3    0  502 -0.18544163916E+03  0.53822990633E+03 -0.13595342669E+04  0.14739109391E+04  0.25500000920E-02 0.  1.
</event>
<event>
 5   0  0.5251252E-06  0.1999320E+04  0.7818609E-02  0.8606939E-01
       -2   -1    0    0    0  501  0.00000000000E+00  0.00000000000E+00  0.70671447484E+03  0.70671447485E+03  0.25500000920E-02 0.  1.
        2   -1    0    0  501    0  0.00000000000E+00  0.00000000000E+00 -0.14140362254E+04  0.14140362254E+04  0.25500000920E-02 0. -1.
    10030    2    1    2    0    0  0.00000000000E+00  0.00000000000E+00 -0.70732175051E+03  0.21207507002E+04  0.19993197527E+04 0.  0.
        5    1    3    3  502    0 -0.36711392737E+03  0.92469612133E+03 -0.45684289374E+03  0.10947890537E+04  0.46999998093E+01 0. -1.
       -5    1    3    3    0  502  0.36711392737E+03 -0.92469612133E+03 -0.25047885677E+03  0.10259616465E+04  0.46999998093E+01 0.  1.
</event>
<event>
 5   0  0.2311520E-06  0.1999445E+04  0.7818609E-02  0.8606880E-01
        1   -1    0    0  501    0  0.00000000000E+00  0.00000000000E+00  0.70254240411E+03  0.70254240413E+03  0.50400001928E-02 0. -1.
       -1   -1    0    0    0  501  0.00000000000E+00  0.00000000000E+00 -0.14226115228E+04  0.14226115228E+04  0.50400001928E-02 0.  1.
    10030    2    1    2    0    0  0.00000000000E+00  0.00000000000E+00 -0.72006911868E+03  0.21251539269E+04  0.19994448423E+04 0.  0.
        3    1    3    3  502    0 -0.62190691964E+03 -0.83616465319E+02  0.46715370757E+03  0.78229951213E+03  0.10100000352E+00 0. -1.
       -3    1    3    3    0  502  0.62190691964E+03  0.83616465319E+02 -0.11872228263E+04  0.13428544148E+04  0.10100000352E+00 0.  1.
</event>
<event>
 5   0  0.2311520E-06  0.1999854E+04  0.7818609E-02  0.8606689E-01
        1   -1    0    0  501    0  0.00000000000E+00  0.00000000000E+00  0.10512293562E+04  0.10512293563E+04  0.50400001928E-02 0. -1.
       -1   -1    0    0    0  501  0.00000000000E+00  0.00000000000E+00 -0.95112805957E+03  0.95112805958E+03  0.50400001928E-02 0.  1.
    10030    2    1    2    0    0  0.00000000000E+00  0.00000000000E+00  0.10010129668E+03  0.20023574158E+04  0.19998537324E+04 0.  0.
        3    1    3    3  502    0  0.97687091802E+03 -0.93561937492E+02 -0.14208305201E+03  0.99157361325E+03  0.10100000352E+00 0. -1.
       -3    1    3    3    0  502 -0.97687091802E+03  0.93561937492E+02  0.24218434869E+03  0.10107838026E+04  0.10100000352E+00 0.  1.
</event>
<event>
 5   0  0.2311520E-06  0.1998536E+04  0.7818609E-02  0.8607306E-01
        1   -1    0    0  501    0  0.00000000000E+00  0.00000000000E+00  0.21611879745E+04  0.21611879745E+04  0.50400001928E-02 0. -1.
       -1   -1    0    0    0  501  0.00000000000E+00  0.00000000000E+00 -0.46203118255E+03  0.46203118257E+03  0.50400001928E-02 0.  1.
    10030    2    1    2    0    0  0.00000000000E+00  0.00000000000E+00  0.16991567919E+04  0.26232191571E+04  0.19985356996E+04 0.  0.
        3    1    3    3  502    0 -0.76375705592E+03 -0.62936092163E+03  0.10310562441E+04  0.14291595428E+04  0.10100000352E+00 0. -1.
       -3    1    3    3    0  502  0.76375705592E+03  0.62936092163E+03  0.66810054784E+03  0.11940596142E+04  0.10100000352E+00 0.  1.
</event>
<event>
 5   0  0.2386776E-06  0.2000472E+04  0.7818609E-02  0.8606400E-01
        1   -1    0    0  501    0  0.00000000000E+00  0.00000000000E+00  0.14237131023E+04  0.14237131023E+04  0.50400001928E-02 0.  1.
       -1   -1    0    0    0  501  0.00000000000E+00  0.00000000000E+00 -0.70272012131E+03  0.70272012133E+03  0.50400001928E-02 0. -1.
    10030    2    1    2    0    0  0.00000000000E+00  0.00000000000E+00  0.72099298098E+03  0.21264332236E+04  0.20004717883E+04 0.  0.
        2    1    3    3  502    0 -0.14325233355E+03  0.28151935879E+03  0.13693051183E+04  0.14052654153E+04  0.25500000920E-02 0.  1.
       -2    1    3    3    0  502  0.14325233355E+03 -0.28151935879E+03 -0.64831213729E+03  0.72116780836E+03  0.25500000920E-02 0. -1.
</event>
<event>
 5   0  0.2356996E-06  0.2000297E+04  0.7818609E-02  0.8606482E-01
        1   -1    0    0  501    0  0.00000000000E+00  0.00000000000E+00  0.56143752957E+03  0.56143752959E+03  0.50400001928E-02 0. -1.
       -1   -1    0    0    0  501  0.00000000000E+00  0.00000000000E+00 -0.17816718365E+04  0.17816718365E+04  0.50400001928E-02 0.  1.
    10030    2    1    2    0    0  0.00000000000E+00  0.00000000000E+00 -0.12202343069E+04  0.23431093661E+04  0.20002974123E+04 0.  0.
        4    1    3    3  502    0 -0.32909821867E+03  0.77493570763E+03 -0.12425159982E+04  0.15008926035E+04  0.12699999809E+01 0.  1.
       -4    1    3    3    0  502  0.32909821867E+03 -0.77493570763E+03  0.22281691331E+02  0.84221676257E+03  0.12699999809E+01 0. -1.
</event>
<event>
 5   0  0.2356996E-06  0.2000974E+04  0.7818609E-02  0.8606165E-01
        1   -1    0    0  501    0  0.00000000000E+00  0.00000000000E+00  0.12012822652E+04  0.12012822653E+04  0.50400001928E-02 0.  1.
       -1   -1    0    0    0  501  0.00000000000E+00  0.00000000000E+00 -0.83325481798E+03  0.83325481800E+03  0.50400001928E-02 0. -1.
    10030    2    1    2    0    0  0.00000000000E+00  0.00000000000E+00  0.36802744727E+03  0.20345370833E+04  0.20009739981E+04 0.  0.
        4    1    3    3  502    0  0.49966611303E+02  0.40061127620E+02  0.11991951430E+04  0.12009047257E+04  0.12699999809E+01 0.  1.
       -4    1    3    3    0  502 -0.49966611303E+02 -0.40061127620E+02 -0.83116769577E+03  0.83363235757E+03  0.12699999809E+01 0. -1.
</event>
<event>
 5   0  0.5030137E-06  0.1999045E+04  0.7818609E-02  0.8607067E-01
       -2   -1    0    0    0  501  0.00000000000E+00  0.00000000000E+00  0.13928500301E+04  0.13928500301E+04  0.25500000920E-02 0.  1.
        2   -1    0    0  501    0  0.00000000000E+00  0.00000000000E+00 -0.71726685713E+03  0.71726685713E+03  0.25500000920E-02 0. -1.
    10030    2    1    2    0    0  0.00000000000E+00  0.00000000000E+00  0.67558317298E+03  0.21101168872E+04  0.19990449355E+04 0.  0.
        3    1    3    3  502    0 -0.55002226855E+03 -0.47471019466E+03 -0.38676645602E+03  0.82308114212E+03  0.10100000352E+00 0. -1.
       -3    1    3    3    0  502  0.55002226855E+03  0.47471019466E+03  0.10623496290E+04  0.12870357451E+04  0.10100000352E+00 0.  1.
</event>
<event>
 5   0  0.5118981E-06  0.1999949E+04  0.7818609E-02  0.8606644E-01
       -2   -1    0    0    0  501  0.00000000000E+00  0.00000000000E+00  0.49310603138E+03  0.49310603139E+03  0.25500000920E-02 0.  1.
        2   -1    0    0  501    0  0.00000000000E+00  0.00000000000E+00 -0.20278584175E+04  0.20278584175E+04  0.25500000920E-02 0. -1.
    10030    2    1    2    0    0  0.00000000000E+00  0.00000000000E+00 -0.15347523861E+04  0.25209644489E+04  0.19999492158E+04 0.  0.
        4    1    3    3  502    0  0.68863054975E+03  0.71180079046E+03 -0.94146961089E+03  0.13664695534E+04  0.12699999809E+01 0. -1.
       -4    1    3    3    0  502 -0.68863054975E+03 -0.71180079046E+03 -0.59328277524E+03  0.11544948955E+04  0.12699999809E+01 0.  1.
</event>
<event>
 5   0  0.5118981E-06  0.1999984E+04  0.7818609E-02  0.8606628E-01
       -2   -1    0    0    0  501  0.00000000000E+00  0.00000000000E+00  0.80348448239E+03  0.80348448240E+03  0.25500000920E-02 0. -1.
        2   -1    0    0  501    0  0.00000000000E+00  0.00000000000E+00 -0.12445596261E+04  0.12445596261E+04  0.25500000920E-02 0.  1.
    10030    2    1    2    0    0  0.00000000000E+00  0.00000000000E+00 -0.44107514370E+03  0.20480441085E+04  0.19999843469E+04 0.  0.
        4    1    3    3  502    0 -0.35491595615E+03 -0.29713863048E+03 -0.11282499970E+04  0.12195107093E+04  0.12699999809E+01 0.  1.
       -4    1    3    3    0  502  0.35491595615E+03  0.29713863048E+03  0.68717485326E+03  0.82853339915E+03  0.12699999809E+01 0. -1.
</event>
<event>
 5   0  0.2379743E-06  0.2000145E+04  0.7818609E-02  0.8606553E-01
        1   -1    0    0  501    0  0.00000000000E+00  0.00000000000E+00  0.67909435867E+03  0.67909435869E+03  0.50400001928E-02 0. -1.
       -1   -1    0    0    0  501  0.00000000000E+00  0.00000000000E+00 -0.14727627427E+04  0.14727627428E+04  0.50400001928E-02 0.  1.
    10030    2    1    2    0    0  0.00000000000E+00  0.00000000000E+00 -0.79366838408E+03  0.21518571014E+04  0.20001448650E+04 0.  0.
        5    1    3    3  502    0  0.40397936434E+03 -0.62723687970E+03 -0.11133033350E+04  0.13401835082E+04  0.46999998093E+01 0.  1.
       -5    1    3    3    0  502 -0.40397936434E+03  0.62723687970E+03  0.31963495090E+03  0.81167359321E+03  0.46999998093E+01 0. -1.
</event>
<event>
 5   0  0.2311520E-06  0.1999843E+04  0.7818609E-02  0.8606694E-01
       -1   -1    0    0    0  501  0.00000000000E+00  0.00000000000E+00  0.15063102044E+04  0.15063102044E+04  0.50400001928E-02 0. -1.
        1   -1    0    0  501    0  0.00000000000E+00  0.00000000000E+00 -0.66376936785E+03  0.66376936787E+03  0.50400001928E-02 0.  1.
    10030    2    1    2    0    0  0.00000000000E+00  0.00000000000E+00  0.84254083657E+03  0.21700795723E+04  0.19998425660E+04 0.  0.
        3    1    3    3  502    0 -0.33781323193E+03 -0.75048725988E+03  0.10374970140E+04  0.13242918754E+04  0.10100000352E+00 0. -1.
       -3    1    3    3    0  502  0.33781323193E+03  0.75048725988E+03 -0.19495617747E+03  0.84578769691E+03  0.10100000352E+00 0.  1.
</event>
<event>
 5   0  0.5118981E-06  0.1998582E+04  0.7818609E-02  0.8607284E-01
        2   -1    0    0  501    0  0.00000000000E+00  0.00000000000E+00  0.63224340495E+03  0.63224340495E+03  0.25500000920E-02 0. -1.
       -2   -1    0    0    0  501  0.00000000000E+00  0.00000000000E+00 -0.15794275083E+04  0.15794275083E+04  0.25500000920E-02 0.  1.
    10030    2    1    2    0    0  0.00000000000E+00  0.00000000000E+00 -0.94718410337E+03  0.22116709133E+04  0.19985821231E+04 0.  0.
        4    1    3    3  502    0  0.20738512976E+03 -0.34373522425E+03 -0.14862663499E+04  0.15395297243E+04  0.12699999809E+01 0.  1.
       -4    1    3    3    0  502 -0.20738512976E+03  0.34373522425E+03  0.53908224652E+03  0.67214118892E+03  0.12699999809E+01 0. -1.
</event>
<event>
 5   0  0.5251252E-06  0.2000578E+04  0.7818609E-02  0.8606351E-01
        2   -1    0    0  501    0  0.00000000000E+00  0.00000000000E+00  0.13756430849E+04  0.13756430849E+04  0.25500000920E-02 0. -1.
       -2   -1    0    0    0  501  0.00000000000E+00  0.00000000000E+00 -0.72735264376E+03  0.72735264377E+03  0.25500000920E-02 0.  1.
    10030    2    1    2    0    0  0.00000000000E+00  0.00000000000E+00  0.64829044109E+03  0.21029957286E+04  0.20005775513E+04 0.  0.
        5    1    3    3  502    0  0.35547215390E+03  0.53906496910E+03 -0.47890396965E+03  0.80394191037E+03  0.46999998093E+01 0.  1.
       -5    1    3    3    0  502 -0.35547215390E+03 -0.53906496910E+03  0.11271944107E+04  0.12990538183E+04  0.46999998093E+01 0. -1.
</event>
<event>
 5   0  0.2379743E-06  0.2000119E+04  0.7818609E-02  0.8606565E-01
       -1   -1    0    0    0  501  0.00000000000E+00  0.00000000000E+00  0.78318020116E+03  0.78318020118E+03  0.50400001928E-02 0. -1.
        1   -1    0    0  501    0  0.00000000000E+00  0.00000000000E+00 -0.12769976698E+04  0.12769976698E+04  0.50400001928E-02 0.  1.
    10030    2    1    2    0    0  0.00000000000E+00  0.00000000000E+00 -0.49381746860E+03  0.20601778709E+04  0.20001192884E+04 0.  0.
        5    1    3    3  502    0 -0.18244121586E+03 -0.96753014426E+03 -0.42737773776E+03  0.10733467278E+04  0.46999998093E+01 0. -1.
       -5    1    3    3    0  502  0.18244121586E+03  0.96753014426E+03 -0.66439730837E+02  0.98683114317E+03  0.46999998093E+01 0.  1.
</event>
<event>
 5   0  0.2311520E-06  0.2000200E+04  0.7818609E-02  0.8606527E-01
       -1   -1    0    0    0  501  0.00000000000E+00  0.00000000000E+00  0.21001009288E+04  0.21001009288E+04  0.50400001928E-02 0.  1.
        1   -1    0    0  501    0  0.00000000000E+00  0.00000000000E+00 -0.47626262426E+03  0.47626262428E+03  0.50400001928E-02 0. -1.
    10030    2    1    2    0    0  0.00000000000E+00  0.00000000000E+00  0.16238383045E+04  0.25763635530E+04  0.20001995696E+04 0.  0.
        3    1    3    3  502    0 -0.48185996308E+03  0.82410363527E+03  0.42795019008E+03  0.10461726440E+04  0.10100000352E+00 0. -1.
       -3    1    3    3    0  502  0.48185996308E+03 -0.82410363527E+03  0.11958881144E+04  0.15301909090E+04  0.10100000352E+00 0.  1.
</event>
<event>
 5   0  0.5129100E-06  0.2003522E+04  0.7818609E-02  0.8604976E-01
        2   -1    0    0  501    0  0.00000000000E+00  0.00000000000E+00  0.73444880761E+03  0.73444880762E+03  0.25500000920E-02 0. -1.
       -2   -1    0    0    0  501  0.00000000000E+00  0.00000000000E+00 -0.13663645296E+04  0.13663645296E+04  0.25500000920E-02 0.  1.
    10030    2    1    2    0    0  0.00000000000E+00  0.00000000000E+00 -0.63191572203E+03  0.21008133373E+04  0.20035216990E+04 0.  0.
        2    1    3    3  502    0 -0.47835913615E+03  0.98945586772E+02 -0.12330178879E+04  0.13262544266E+04  0.25500000920E-02 0.  1.
       -2    1    3    3    0  502  0.47835913615E+03 -0.98945586772E+02  0.60110216585E+03  0.77455891065E+03  0.25500000920E-02 0. -1.
</event>
<event>
 5   0  0.5251252E-06  0.1999057E+04  0.7818609E-02  0.8607062E-01
        2   -1    0    0  501    0  0.00000000000E+00  0.00000000000E+00  0.14831485756E+04  0.14831485756E+04  0.25500000920E-02 0. -1.
       -2   -1    0    0    0  501  0.00000000000E+00  0.00000000000E+00 -0.67360549816E+03  0.67360549816E+03  0.25500000920E-02 0.  1.
    10030    2    1    2    0    0  0.00000000000E+00  0.00000000000E+00  0.80954307742E+03  0.21567540737E+04  0.19990568127E+04 0.  0.
        5    1    3    3  502    0  0.23511169791E+03  0.83405007923E+03  0.94218004772E+03  0.12800946752E+04  0.46999998093E+01 0. -1.
       -5    1    3    3    0  502 -0.23511169791E+03 -0.83405007923E+03 -0.13263697030E+03  0.87665939854E+03  0.46999998093E+01 0.  1.
</event>
<event>
 5   0  0.4956214E-06  0.1999068E+04  0.7818609E-02  0.8607057E-01
        2   -1    0    0  501    0  0.00000000000E+00  0.00000000000E+00  0.13694110532E+04  0.13694110532E+04  0.25500000920E-02 0.  1.
       -2   -1    0    0    0  501  0.00000000000E+00  0.00000000000E+00 -0.72956043971E+03  0.72956043971E+03  0.25500000920E-02 0. -1.
    10030    2    1    2    0    0  0.00000000000E+00  0.00000000000E+00  0.63985061350E+03  0.20989714929E+04  0.19990679129E+04 0.  0.
        1    1    3    3  502    0 -0.36349112758E+03  0.70120657815E+03 -0.32326620726E+03  0.85341520132E+03  0.50400001928E-02 0. -1.
       -1    1    3    3    0  502  0.36349112758E+03 -0.70120657815E+03  0.96311682076E+03  0.12455562916E+04  0.50400001928E-02 0.  1.
</event>
<event>
 5   0  0.5118981E-06  0.2000045E+04  0.7818609E-02  0.8606600E-01
       -2   -1    0    0    0  501  0.00000000000E+00  0.00000000000E+00  0.42147066665E+03  0.42147066665E+03  0.25500000920E-02 0.  1.
        2   -1    0    0  501    0  0.00000000000E+00  0.00000000000E+00 -0.23727515820E+04  0.23727515820E+04  0.25500000920E-02 0. -1.
    10030    2    1    2    0    0  0.00000000000E+00  0.00000000000E+00 -0.19512809153E+04  0.27942222486E+04  0.20000451905E+04 0.  0.
        4    1    3    3  502    0  0.26804437354E+02  0.72266550256E+03 -0.10664276475E+02  0.72324217669E+03  0.12699999809E+01 0.  1.
       -4    1    3    3    0  502 -0.26804437354E+02 -0.72266550256E+03 -0.19406166388E+04  0.20709800719E+04  0.12699999809E+01 0. -1.
</event>
<event>
 5   0  0.5251252E-06  0.1998968E+04  0.7818609E-02  0.8607103E-01
        2   -1    0    0  501    0  0.00000000000E+00  0.00000000000E+00  0.25295349562E+04  0.25295349562E+04  0.25500000920E-02 0. -1.
       -2   -1    0    0    0  501  0.00000000000E+00  0.00000000000E+00 -0.39492179331E+03  0.39492179332E+03  0.25500000920E-02 0.  1.
    10030    2    1    2    0    0  0.00000000000E+00  0.00000000000E+00  0.21346131629E+04  0.29244567495E+04  0.19989682150E+04 0.  0.
        5    1    3    3  502    0  0.52721990176E+03 -0.43775976298E+03  0.21317230259E+04  0.22391649300E+04  0.46999998093E+01 0.  1.
       -5    1    3    3    0  502 -0.52721990176E+03  0.43775976298E+03  0.28901369741E+01  0.68529181944E+03  0.46999998093E+01 0. -1.
</event>
<event>
 5   0  0.5030137E-06  0.2000048E+04  0.7818609E-02  0.8606598E-01
        2   -1    0    0  501    0  0.00000000000E+00  0.00000000000E+00  0.95340024952E+03  0.95340024952E+03  0.25500000920E-02 0.  1.
       -2   -1    0    0    0  501  0.00000000000E+00  0.00000000000E+00 -0.10489275929E+04  0.10489275929E+04  0.25500000920E-02 0. -1.
    10030    2    1    2    0    0  0.00000000000E+00  0.00000000000E+00 -0.95527343418E+02  0.20023278425E+04  0.20000478283E+04 0.  0.
        3    1    3    3  502    0  0.46007910045E+03  0.88721983217E+03 -0.82674750319E+02  0.10028294640E+04  0.10100000352E+00 0.  1.
       -3    1    3    3    0  502 -0.46007910045E+03 -0.88721983217E+03 -0.12852593099E+02  0.99949837850E+03  0.10100000352E+00 0. -1.
</event>
<event>
 5   0  0.2356996E-06  0.2000136E+04  0.7818609E-02  0.8606557E-01
        1   -1    0    0  501    0  0.00000000000E+00  0.00000000000E+00  0.10652904177E+04  0.10652904178E+04  0.50400001928E-02 0.  1.
       -1   -1    0    0    0  501  0.00000000000E+00  0.00000000000E+00 -0.93883857840E+03  0.93883857842E+03  0.50400001928E-02 0. -1.
    10030    2    1    2    0    0  0.00000000000E+00  0.00000000000E+00  0.12645183934E+03  0.20041289962E+04  0.20001357368E+04 0.  0.
        4    1    3    3  502    0  0.18228398953E+03  0.98316419790E+03  0.80430979715E+02  0.10031500627E+04  0.12699999809E+01 0. -1.
       -4    1    3    3    0  502 -0.18228398953E+03 -0.98316419790E+03  0.46020859625E+02  0.10009789335E+04  0.12699999809E+01 0.  1.
</event>
<event>
 5   0  0.5251252E-06  0.1999668E+04  0.7818609E-02  0.8606776E-01
        2   -1    0    0  501    0  0.00000000000E+00  0.00000000000E+00  0.18455613852E+04  0.18455613852E+04  0.25500000920E-02 0. -1.
       -2   -1    0    0    0  501  0.00000000000E+00  0.00000000000E+00 -0.54166053427E+03  0.54166053428E+03  0.25500000920E-02 0.  1.
    10030    2    1    2    0    0  0.00000000000E+00  0.00000000000E+00  0.13039008510E+04  0.23872219195E+04  0.19996677384E+04 0.  0.
        5    1    3    3  502    0 -0.73136127671E+03 -0.39314147971E+03  0.13168455452E+04  0.15567767406E+04  0.46999998093E+01 0. -1.
       -5    1    3    3    0  502  0.73136127671E+03  0.39314147971E+03 -0.12944694208E+02  0.83044517895E+03  0.46999998093E+01 0.  1.
</event>
<event>
 5   0  0.2379743E-06  0.2000681E+04  0.7818609E-02  0.8606302E-01
       -1   -1    0    0    0  501  0.00000000000E+00  0.00000000000E+00  0.55109819622E+03  0.55109819624E+03  0.50400001928E-02 0. -1.
        1   -1    0    0  501    0  0.00000000000E+00  0.00000000000E+00 -0.18157951414E+04  0.18157951414E+04  0.50400001928E-02 0.  1.
    10030    2    1    2    0    0  0.00000000000E+00  0.00000000000E+00 -0.12646969452E+04  0.23668933376E+04  0.20006813111E+04 0.  0.
        5    1    3    3  502    0 -0.20252182648E+02  0.88727254531E+03 -0.86355410346E+02  0.89170738892E+03  0.46999998093E+01 0. -1.
       -5    1    3    3    0  502  0.20252182648E+02 -0.88727254531E+03 -0.11783415348E+04  0.14751859487E+04  0.46999998093E+01 0.  1.
</event>
<event>
 5   0  0.2379743E-06  0.1999719E+04  0.7818609E-02  0.8606752E-01
       -1   -1    0    0    0  501  0.00000000000E+00  0.00000000000E+00  0.63078928798E+03  0.63078928800E+03  0.50400001928E-02 0.  1.
        1   -1    0    0  501    0  0.00000000000E+00  0.00000000000E+00 -0.15848698080E+04  0.15848698080E+04  0.50400001928E-02 0. -1.
    10030    2    1    2    0    0  0.00000000000E+00  0.00000000000E+00 -0.95408052000E+03  0.22156590960E+04  0.19997188780E+04 0.  0.
        5    1    3    3  502    0  0.92121439089E+03 -0.36508173639E+03 -0.62476499079E+03  0.11714409981E+04  0.46999998093E+01 0. -1.
       -5    1    3    3    0  502 -0.92121439089E+03  0.36508173639E+03 -0.32931552921E+03  0.10442180979E+04  0.46999998093E+01 0.  1.
</event>
<event>
 5   0  0.2379743E-06  0.1999848E+04  0.7818609E-02  0.8606692E-01
        1   -1    0    0  501    0  0.00000000000E+00  0.00000000000E+00  0.94002950683E+03  0.94002950684E+03  0.50400001928E-02 0.  1.
       -1   -1    0    0    0  501  0.00000000000E+00  0.00000000000E+00 -0.10636343052E+04  0.10636343052E+04  0.50400001928E-02 0. -1.
    10030    2    1    2    0    0  0.00000000000E+00  0.00000000000E+00 -0.12360479835E+03  0.20036638120E+04  0.19998476256E+04 0.  0.
        5    1    3    3  502    0 -0.25346905175E+03  0.94430278032E+03 -0.27165671437E+03  0.10147776907E+04  0.46999998093E+01 0. -1.
       -5    1    3    3    0  502  0.25346905175E+03 -0.94430278032E+03  0.14805191601E+03  0.98888612132E+03  0.46999998093E+01 0.  1.
</event>
<event>
 5   0  0.2313821E-06  0.2000110E+04  0.7818609E-02  0.8606569E-01
       -1   -1    0    0    0  501  0.00000000000E+00  0.00000000000E+00  0.77254658435E+03  0.77254658437E+03  0.50400001928E-02 0.  1.
        1   -1    0    0  501    0  0.00000000000E+00  0.00000000000E+00 -0.12945621798E+04  0.12945621798E+04  0.50400001928E-02 0. -1.
    10030    2    1    2    0    0  0.00000000000E+00  0.00000000000E+00 -0.52201559545E+03  0.20671087642E+04  0.20001095873E+04 0.  0.
        1    1    3    3  502    0 -0.91881074761E+03 -0.31376333869E+03 -0.50872185410E+03  0.10961106456E+04  0.50400001928E-02 0. -1.
       -1    1    3    3    0  502  0.91881074761E+03  0.31376333869E+03 -0.13293741347E+02  0.97099811854E+03  0.50400001928E-02 0.  1.
</event>
<event>
 5   0  0.5030137E-06  0.2001495E+04  0.7818609E-02  0.8605922E-01
        2   -1    0    0  501    0  0.00000000000E+00  0.00000000000E+00  0.18314794413E+04  0.18314794413E+04  0.25500000920E-02 0.  1.
       -2   -1    0    0    0  501  0.00000000000E+00  0.00000000000E+00 -0.54682341344E+03  0.54682341344E+03  0.25500000920E-02 0. -1.
    10030    2    1    2    0    0  0.00000000000E+00  0.00000000000E+00  0.12846560278E+04  0.23783028547E+04  0.20014952808E+04 0.  0.
        3    1    3    3  502    0 -0.93549631042E+03  0.70169461710E+02  0.22827549737E+03  0.96549822013E+03  0.10100000352E+00 0. -1.
       -3    1    3    3    0  502  0.93549631042E+03 -0.70169461710E+02  0.10563805305E+04  0.14128046346E+04  0.10100000352E+00 0.  1.
</event>
<event>
 5   0  0.2386776E-06  0.2000934E+04  0.7818609E-02  0.8606184E-01
        1   -1    0    0  501    0  0.00000000000E+00  0.00000000000E+00  0.10975813565E+04  0.10975813566E+04  0.50400001928E-02 0. -1.
       -1   -1    0    0    0  501  0.00000000000E+00  0.00000000000E+00 -0.91194507157E+03  0.91194507158E+03  0.50400001928E-02 0.  1.
    10030    2    1    2    0    0  0.00000000000E+00  0.00000000000E+00  0.18563628497E+03  0.20095264281E+04  0.20009336908E+04 0.  0.
        2    1    3    3  502    0 -0.91031200541E+02  0.31831769607E+03 -0.85533417914E+03  0.91717467972E+03  0.25500000920E-02 0.  1.
       -2    1    3    3    0  502  0.91031200541E+02 -0.31831769607E+03  0.10409704641E+04  0.10923517484E+04  0.25500000920E-02 0. -1.
</event>
<event>
 5   0  0.2356996E-06  0.1990518E+04  0.7818609E-02  0.8611066E-01
       -1   -1    0    0    0  501  0.00000000000E+00  0.00000000000E+00  0.10061053053E+04  0.10061053053E+04  0.50400001928E-02 0. -1.
        1   -1    0    0  501    0  0.00000000000E+00  0.00000000000E+00 -0.98453004322E+03  0.98453004324E+03  0.50400001928E-02 0.  1.
    10030    2    1    2    0    0  0.00000000000E+00  0.00000000000E+00  0.21575262090E+02  0.19906353486E+04  0.19905184247E+04 0.  0.
        4    1    3    3  502    0  0.24148472887E+03  0.37871573513E+03 -0.87740799831E+03  0.98569107265E+03  0.12699999809E+01 0.  1.
       -4    1    3    3    0  502 -0.24148472887E+03 -0.37871573513E+03  0.89898326040E+03  0.10049442759E+04  0.12699999809E+01 0. -1.
</event>
<event>
 5   0  0.5118981E-06  0.1999545E+04  0.7818609E-02  0.8606834E-01
        2   -1    0    0  501    0  0.00000000000E+00  0.00000000000E+00  0.12812998063E+04  0.12812998063E+04  0.25500000920E-02 0. -1.
       -2   -1    0    0    0  501  0.00000000000E+00  0.00000000000E+00 -0.78010201479E+03  0.78010201480E+03  0.25500000920E-02 0.  1.
    10030    2    1    2    0    0  0.00000000000E+00  0.00000000000E+00  0.50119779151E+03  0.20614018211E+04  0.19995445086E+04 0.  0.
        4    1    3    3  502    0 -0.74259578938E+03  0.41350953723E+03 -0.29209284885E+03  0.89875385342E+03  0.12699999809E+01 0.  1.
       -4    1    3    3    0  502  0.74259578938E+03 -0.41350953723E+03  0.79329064036E+03  0.11626479677E+04  0.12699999809E+01 0. -1.
</event>
<event>
 5   0  0.5129100E-06  0.2003088E+04  0.7818609E-02  0.8605178E-01
        2   -1    0    0  501    0  0.00000000000E+00  0.00000000000E+00  0.88284748143E+03  0.88284748143E+03  0.25500000920E-02 0. -1.
       -2   -1    0    0    0  501  0.00000000000E+00  0.00000000000E+00 -0.11361994696E+04  0.11361994696E+04  0.25500000920E-02 0.  1.
    10030    2    1    2    0    0  0.00000000000E+00  0.00000000000E+00 -0.25335198818E+03  0.20190469510E+04  0.20030884555E+04 0.  0.
        2    1    3    3  502    0  0.34039091700E+03 -0.94181486067E+03 -0.14127001825E+03  0.10113547480E+04  0.25500000920E-02 0.  1.
       -2    1    3    3    0  502 -0.34039091700E+03  0.94181486067E+03 -0.11208196992E+03  0.10076922031E+04  0.25500000920E-02 0. -1.
</event>
<event>
 5   0  0.2313821E-06  0.2000168E+04  0.7818609E-02  0.8606542E-01
       -1   -1    0    0    0  501  0.00000000000E+00  0.00000000000E+00  0.10031756698E+04  0.10031756698E+04  0.50400001928E-02 0. -1.
        1   -1    0    0  501    0  0.00000000000E+00  0.00000000000E+00 -0.99700156844E+03  0.99700156845E+03  0.50400001928E-02 0.  1.
    10030    2    1    2    0    0  0.00000000000E+00  0.00000000000E+00  0.61741013683E+01  0.20001772383E+04  0.20001677092E+04 0.  0.
        1    1    3    3  502    0  0.31985977652E+02  0.20244645720E+03 -0.97577411161E+03  0.99706709288E+03  0.50400001928E-02 0.  1.
       -1    1    3    3    0  502 -0.31985977652E+02 -0.20244645720E+03  0.98194821298E+03  0.10031101454E+04  0.50400001928E-02 0. -1.
</event>
<event>
 5   0  0.5251252E-06  0.1997654E+04  0.7818609E-02  0.8607718E-01
        2   -1    0    0  501    0  0.00000000000E+00  0.00000000000E+00  0.14452217895E+04  0.14452217895E+04  0.25500000920E-02 0.  1.
       -2   -1    0    0    0  501  0.00000000000E+00  0.00000000000E+00 -0.69031296315E+03  0.69031296315E+03  0.25500000920E-02 0. -1.
    10030    2    1    2    0    0  0.00000000000E+00  0.00000000000E+00  0.75490882639E+03  0.21355347527E+04  0.19976539600E+04 0.  0.
        5    1    3    3  502    0  0.12604657761E+03 -0.22355032080E+02 -0.68149515867E+03  0.69343004585E+03  0.46999998093E+01 0. -1.
       -5    1    3    3    0  502 -0.12604657761E+03  0.22355032080E+02  0.14364039851E+04  0.14421047068E+04  0.46999998093E+01 0.  1.
</event>
<event>
 5   0  0.2311520E-06  0.1999134E+04  0.7818609E-02  0.8607025E-01
       -1   -1    0    0    0  501  0.00000000000E+00  0.00000000000E+00  0.54899413191E+03  0.54899413193E+03  0.50400001928E-02 0.  1.
        1   -1    0    0  501    0  0.00000000000E+00  0.00000000000E+00 -0.18199366151E+04  0.18199366152E+04  0.50400001928E-02 0. -1.
    10030    2    1    2    0    0  0.00000000000E+00  0.00000000000E+00 -0.12709424832E+04  0.23689307471E+04  0.19991343348E+04 0.  0.
        3    1    3    3  502    0 -0.85457200473E+03  0.45820000594E+03 -0.92304267874E+03  0.13387488016E+04  0.10100000352E+00 0.  1.
       -3    1    3    3    0  502  0.85457200473E+03 -0.45820000594E+03 -0.34789980451E+03  0.10301819455E+04  0.10100000352E+00 0. -1.
</event>
<event>
 5   0  0.5118981E-06  0.1999988E+04  0.7818609E-02  0.8606626E-01
       -2   -1    0    0    0  501  0.00000000000E+00  0.00000000000E+00  0.61844491362E+03  0.61844491362E+03  0.25500000920E-02 0. -1.
        2   -1    0    0  501    0  0.00000000000E+00  0.00000000000E+00 -0.16169392169E+04  0.16169392169E+04  0.25500000920E-02 0.  1.
    10030    2    1    2    0    0  0.00000000000E+00  0.00000000000E+00 -0.99849430324E+03  0.22353841305E+04  0.19999878343E+04 0.  0.
        4    1    3    3  502    0 -0.16135930518E+03  0.87740194655E+02 -0.15979235621E+04  0.16084453644E+04  0.12699999809E+01 0.  1.
       -4    1    3    3    0  502  0.16135930518E+03 -0.87740194655E+02  0.59942925885E+03  0.62693876607E+03  0.12699999809E+01 0. -1.
</event>
<event>
 5   0  0.2386776E-06  0.1997368E+04  0.7818609E-02  0.8607852E-01
        1   -1    0    0  501    0  0.00000000000E+00  0.00000000000E+00  0.62803906356E+03  0.62803906358E+03  0.50400001928E-02 0. -1.
       -1   -1    0    0    0  501  0.00000000000E+00  0.00000000000E+00 -0.15880691058E+04  0.15880691058E+04  0.50400001928E-02 0.  1.
    10030    2    1    2    0    0  0.00000000000E+00  0.00000000000E+00 -0.96003004228E+03  0.22161081694E+04  0.19973677019E+04 0.  0.
        2    1    3    3  502    0  0.87095638128E+03 -0.46927940649E+03 -0.32877370441E+03  0.10425355285E+04  0.25500000920E-02 0. -1.
       -2    1    3    3    0  502 -0.87095638128E+03  0.46927940649E+03 -0.63125633787E+03  0.11735726409E+04  0.25500000920E-02 0.  1.
</event>
<event>
 5   0  0.2311520E-06  0.2000000E+04  0.7818609E-02  0.8606621E-01
        1   -1    0    0  501    0  0.00000000000E+00  0.00000000000E+00  0.10379117829E+04  0.10379117829E+04  0.50400001928E-02 0.  1.
       -1   -1    0    0    0  501  0.00000000000E+00  0.00000000000E+00 -0.96347287089E+03  0.96347287090E+03  0.50400001928E-02 0. -1.
    10030    2    1    2    0    0  0.00000000000E+00  0.00000000000E+00  0.74438912037E+02  0.20013846538E+04  0.19999998453E+04 0.  0.
        3    1    3    3  502    0 -0.32194517707E+03  0.81263822454E+03  0.52332349922E+03  0.10187723377E+04  0.10100000352E+00 0.  1.
       -3    1    3    3    0  502  0.32194517707E+03 -0.81263822454E+03 -0.44888458719E+03  0.98261231614E+03  0.10100000352E+00 0. -1.
</event>
<event>
 5   0  0.2313821E-06  0.1999518E+04  0.7818609E-02  0.8606846E-01
        1   -1    0    0  501    0  0.00000000000E+00  0.00000000000E+00  0.14462591535E+04  0.14462591535E+04  0.50400001928E-02 0. -1.
       -1   -1    0    0    0  501  0.00000000000E+00  0.00000000000E+00 -0.69110607911E+03  0.69110607913E+03  0.50400001928E-02 0.  1.
    10030    2    1    2    0    0  0.00000000000E+00  0.00000000000E+00  0.75515307437E+03  0.21373652326E+04  0.19995184350E+04 0.  0.
        1    1    3    3  502    0 -0.86096320210E+03 -0.10871932828E+03  0.90822850452E+03  0.12561674029E+04  0.50400001928E-02 0. -1.
       -1    1    3    3    0  502  0.86096320210E+03  0.10871932828E+03 -0.15307543015E+03  0.88119782969E+03  0.50400001928E-02 0.  1.
</event>
<event>
 5   0  0.2311520E-06  0.2001014E+04  0.7818609E-02  0.8606147E-01
       -1   -1    0    0    0  501  0.00000000000E+00  0.00000000000E+00  0.72848810661E+03  0.72848810662E+03  0.50400001928E-02 0.  1.
        1   -1    0    0  501    0  0.00000000000E+00  0.00000000000E+00 -0.13740985438E+04  0.13740985438E+04  0.50400001928E-02 0. -1.
    10030    2    1    2    0    0  0.00000000000E+00  0.00000000000E+00 -0.64561043720E+03  0.21025866504E+04  0.20010141894E+04 0.  0.
        3    1    3    3  502    0 -0.54755680884E+03 -0.28417895446E+03  0.50485681502E+03  0.79715528659E+03  0.10100000352E+00 0.  1.
       -3    1    3    3    0  502  0.54755680884E+03  0.28417895446E+03 -0.11504672522E+04  0.13054313638E+04  0.10100000352E+00 0. -1.
</event>
<event>
 5   0  0.5118981E-06  0.2003707E+04  0.7818609E-02  0.8604890E-01
       -2   -1    0    0    0  501  0.00000000000E+00  0.00000000000E+00  0.84726927406E+03  0.84726927407E+03  0.25500000920E-02 0. -1.
        2   -1    0    0  501    0  0.00000000000E+00  0.00000000000E+00 -0.11846412500E+04  0.11846412500E+04  0.25500000920E-02 0.  1.
    10030    2    1    2    0    0  0.00000000000E+00  0.00000000000E+00 -0.33737197595E+03  0.20319105241E+04  0.20037066970E+04 0.  0.
        4    1    3    3  502    0  0.41175200687E+01 -0.99777708099E+03 -0.77236465146E+02  0.10007712735E+04  0.12699999809E+01 0. -1.
       -4    1    3    3    0  502 -0.41175200687E+01  0.99777708099E+03 -0.26013551081E+03  0.10311392506E+04  0.12699999809E+01 0.  1.
</event>
<event>
 5   0  0.4956214E-06  0.1998809E+04  0.7818609E-02  0.8607178E-01
        2   -1    0    0  501    0  0.00000000000E+00  0.00000000000E+00  0.68956909610E+03  0.68956909610E+03  0.25500000920E-02 0.  1.
       -2   -1    0    0    0  501  0.00000000000E+00  0.00000000000E+00 -0.14484540872E+04  0.14484540872E+04  0.25500000920E-02 0. -1.
    10030    2    1    2    0    0  0.00000000000E+00  0.00000000000E+00 -0.75888499110E+03  0.21380231833E+04  0.19988088209E+04 0.  0.
        1    1    3    3  502    0 -0.59688584041E+03 -0.27736846777E+03 -0.11838888401E+04  0.13545474370E+04  0.50400001928E-02 0. -1.
       -1    1    3    3    0  502  0.59688584041E+03  0.27736846777E+03  0.42500384897E+03  0.78347574631E+03  0.50400001928E-02 0.  1.
</event>
<event>
 5   0  0.2386776E-06  0.2000377E+04  0.7818609E-02  0.8606444E-01
       -1   -1    0    0    0  501  0.00000000000E+00  0.00000000000E+00  0.64480771904E+03  0.64480771906E+03  0.50400001928E-02 0. -1.
        1   -1    0    0  501    0  0.00000000000E+00  0.00000000000E+00 -0.15514351287E+04  0.15514351287E+04  0.50400001928E-02 0.  1.
    10030    2    1    2    0    0  0.00000000000E+00  0.00000000000E+00 -0.90662740964E+03  0.21962428477E+04  0.20003773110E+04 0.  0.
        2    1    3    3  502    0 -0.89788213863E+03 -0.41030263732E+03 -0.27683697607E+03  0.10252703548E+04  0.25500000920E-02 0. -1.
       -2    1    3    3    0  502  0.89788213863E+03  0.41030263732E+03 -0.62979043356E+03  0.11709724930E+04  0.25500000920E-02 0.  1.
</event>
<event>
 5   0  0.2386776E-06  0.1998942E+04  0.7818609E-02  0.8607115E-01
       -1   -1    0    0    0  501  0.00000000000E+00  0.00000000000E+00  0.62843326230E+03  0.62843326232E+03  0.50400001928E-02 0.  1.
        1   -1    0    0  501    0  0.00000000000E+00  0.00000000000E+00 -0.15895764175E+04  0.15895764175E+04  0.50400001928E-02 0. -1.
    10030    2    1    2    0    0  0.00000000000E+00  0.00000000000E+00 -0.96114315518E+03  0.22180096798E+04  0.19989424141E+04 0.  0.
        2    1    3    3  502    0 -0.68935884876E+03  0.39878748216E+03 -0.11506543077E+04  0.13993757230E+04  0.25500000920E-02 0.  1.
       -2    1    3    3    0  502  0.68935884876E+03 -0.39878748216E+03  0.18951115252E+03  0.81863395680E+03  0.25500000920E-02 0. -1.
</event>
<event>
 5   0  0.1777750E-06  0.2000142E+04  0.7818609E-02  0.8606554E-01
       -3   -1    0    0    0  501  0.00000000000E+00  0.00000000000E+00  0.80476318210E+03  0.80476318843E+03  0.10100000352E+00 0.  1.
        3   -1    0    0  501    0  0.00000000000E+00  0.00000000000E+00 -0.12427777475E+04  0.12427777516E+04  0.10100000352E+00 0. -1.
    10030    2    1    2    0    0  0.00000000000E+00  0.00000000000E+00 -0.43801456544E+03  0.20475409401E+04  0.20001417804E+04 0.  0.
        4    1    3    3  502    0 -0.95273206588E+03  0.27149339546E+03 -0.78894788910E+02  0.99379729007E+03  0.12699999809E+01 0.  1.
       -4    1    3    3    0  502  0.95273206588E+03 -0.27149339546E+03 -0.35911977653E+03  0.10537436500E+04  0.12699999809E+01 0. -1.
</event>
<event>
 5   0  0.5118981E-06  0.2000127E+04  0.7818609E-02  0.8606561E-01
       -2   -1    0    0    0  501  0.00000000000E+00  0.00000000000E+00  0.61213826303E+03  0.61213826304E+03  0.25500000920E-02 0. -1.
        2   -1    0    0  501    0  0.00000000000E+00  0.00000000000E+00 -0.16338259134E+04  0.16338259134E+04  0.25500000920E-02 0.  1.
    10030    2    1    2    0    0  0.00000000000E+00  0.00000000000E+00 -0.10216876504E+04  0.22459641764E+04  0.20001273527E+04 0.  0.
        4    1    3    3  502    0  0.29221011859E+03  0.80044516541E+03 -0.10986599286E+04  0.13903792533E+04  0.12699999809E+01 0.  1.
       -4    1    3    3    0  502 -0.29221011859E+03 -0.80044516541E+03  0.76972278271E+02  0.85558492317E+03  0.12699999809E+01 0. -1.
</event>
<event>
 5   0  0.2311520E-06  0.2000672E+04  0.7818609E-02  0.8606306E-01
        1   -1    0    0  501    0  0.00000000000E+00  0.00000000000E+00  0.11055000027E+04  0.11055000027E+04  0.50400001928E-02 0.  1.
       -1   -1    0    0    0  501  0.00000000000E+00  0.00000000000E+00 -0.90517630803E+03  0.90517630804E+03  0.50400001928E-02 0. -1.
    10030    2    1    2    0    0  0.00000000000E+00  0.00000000000E+00  0.20032369466E+03  0.20106763108E+04  0.20006722980E+04 0.  0.
        3    1    3    3  502    0 -0.99677073662E+03  0.29680233628E+02  0.20775834477E+02  0.99742892637E+03  0.10100000352E+00 0.  1.
       -3    1    3    3    0  502  0.99677073662E+03 -0.29680233628E+02  0.17954786019E+03  0.10132473844E+04  0.10100000352E+00 0. -1.
</event>
<event>
 5   0  0.5118981E-06  0.1999033E+04  0.7818609E-02  0.8607073E-01
        2   -1    0    0  501    0  0.00000000000E+00  0.00000000000E+00  0.10683530338E+04  0.10683530338E+04  0.25500000920E-02 0. -1.
       -2   -1    0    0    0  501  0.00000000000E+00  0.00000000000E+00 -0.93511548206E+03  0.93511548206E+03  0.25500000920E-02 0.  1.
    10030    2    1    2    0    0  0.00000000000E+00  0.00000000000E+00  0.13323755178E+03  0.20034685159E+04  0.19990332286E+04 0.  0.
        4    1    3    3  502    0  0.58005462380E+02  0.13016306966E+02  0.10665788481E+04  0.10682350444E+04  0.12699999809E+01 0. -1.
       -4    1    3    3    0  502 -0.58005462380E+02 -0.13016306966E+02 -0.93334129633E+03  0.93523347152E+03  0.12699999809E+01 0.  1.
</event>
<event>
 5   0  0.2311520E-06  0.1999905E+04  0.7818609E-02  0.8606665E-01
       -1   -1    0    0    0  501  0.00000000000E+00  0.00000000000E+00  0.16447026793E+04  0.16447026793E+04  0.50400001928E-02 0.  1.
        1   -1    0    0  501    0  0.00000000000E+00  0.00000000000E+00 -0.60795474152E+03  0.60795474154E+03  0.50400001928E-02 0. -1.
    10030    2    1    2    0    0  0.00000000000E+00  0.00000000000E+00  0.10367479377E+04  0.22526574208E+04  0.19999047900E+04 0.  0.
        3    1    3    3  502    0  0.74696026716E+03 -0.58660616336E+03  0.16603345454E+03  0.96416987602E+03  0.10100000352E+00 0. -1.
       -3    1    3    3    0  502 -0.74696026716E+03  0.58660616336E+03  0.87071448320E+03  0.12884875448E+04  0.10100000352E+00 0.  1.
</event>
<event>
 5   0  0.2311520E-06  0.2000314E+04  0.7818609E-02  0.8606474E-01
       -1   -1    0    0    0  501  0.00000000000E+00  0.00000000000E+00  0.14561793891E+04  0.14561793891E+04  0.50400001928E-02 0.  1.
        1   -1    0    0  501    0  0.00000000000E+00  0.00000000000E+00 -0.68694429932E+03  0.68694429933E+03  0.50400001928E-02 0. -1.
    10030    2    1    2    0    0  0.00000000000E+00  0.00000000000E+00  0.76923508975E+03  0.21431236884E+04  0.20003141055E+04 0.  0.
        3    1    3    3  502    0  0.65475671174E+03  0.61218536468E+03  0.85995522228E+03  0.12421756184E+04  0.10100000352E+00 0. -1.
       -3    1    3    3    0  502 -0.65475671174E+03 -0.61218536468E+03 -0.90720132529E+02  0.90094807006E+03  0.10100000352E+00 0.  1.
</event>
<event>
 5   0  0.4956214E-06  0.1997238E+04  0.7818609E-02  0.8607913E-01
        2   -1    0    0  501    0  0.00000000000E+00  0.00000000000E+00  0.11069079058E+04  0.11069079058E+04  0.25500000920E-02 0.  1.
       -2   -1    0    0    0  501  0.00000000000E+00  0.00000000000E+00 -0.90092440297E+03  0.90092440297E+03  0.25500000920E-02 0. -1.
    10030    2    1    2    0    0  0.00000000000E+00  0.00000000000E+00  0.20598350280E+03  0.20078323087E+04  0.19972384376E+04 0.  0.
        1    1    3    3  502    0  0.44575001524E+03  0.68216722842E+03  0.68328411051E+03  0.10634483435E+04  0.50400001928E-02 0.  1.
       -1    1    3    3    0  502 -0.44575001524E+03 -0.68216722842E+03 -0.47730060771E+03  0.94438396522E+03  0.50400001928E-02 0. -1.
</event>
<event>
 5   0  0.4956214E-06  0.1999888E+04  0.7818609E-02  0.8606673E-01
        2   -1    0    0  501    0  0.00000000000E+00  0.00000000000E+00  0.10990669305E+04  0.10990669305E+04  0.25500000920E-02 0. -1.
       -2   -1    0    0    0  501  0.00000000000E+00  0.00000000000E+00 -0.90976069561E+03  0.90976069561E+03  0.25500000920E-02 0.  1.
    10030    2    1    2    0    0  0.00000000000E+00  0.00000000000E+00  0.18930623491E+03  0.20088276261E+04  0.19998878921E+04 0.  0.
        1    1    3    3  502    0  0.78286939676E+03  0.28806291923E+03 -0.45919457902E+03  0.95222077232E+03  0.50400001928E-02 0.  1.
       -1    1    3    3    0  502 -0.78286939676E+03 -0.28806291923E+03  0.64850081392E+03  0.10566068538E+04  0.50400001928E-02 0. -1.
</event>
<event>
 5   0  0.5118981E-06  0.1998826E+04  0.7818609E-02  0.8607170E-01
       -2   -1    0    0    0  501  0.00000000000E+00  0.00000000000E+00  0.76393294884E+03  0.76393294884E+03  0.25500000920E-02 0. -1.
        2   -1    0    0  501    0  0.00000000000E+00  0.00000000000E+00 -0.13074785304E+04  0.13074785304E+04  0.25500000920E-02 0.  1.
    10030    2    1    2    0    0  0.00000000000E+00  0.00000000000E+00 -0.54354558152E+03  0.20714114792E+04  0.19988255844E+04 0.  0.
        4    1    3    3  502    0 -0.52987425724E+03 -0.17596286673E+03 -0.11307858471E+04  0.12611137553E+04  0.12699999809E+01 0.  1.
       -4    1    3    3    0  502  0.52987425724E+03  0.17596286673E+03  0.58724026556E+03  0.81029772389E+03  0.12699999809E+01 0. -1.
</event>
<event>
 5   0  0.5118981E-06  0.1997832E+04  0.7818609E-02  0.8607635E-01
        2   -1    0    0  501    0  0.00000000000E+00  0.00000000000E+00  0.10443128416E+04  0.10443128416E+04  0.25500000920E-02 0. -1.
       -2   -1    0    0    0  501  0.00000000000E+00  0.00000000000E+00 -0.95549266989E+03  0.95549266989E+03  0.25500000920E-02 0.  1.
    10030    2    1    2    0    0  0.00000000000E+00  0.00000000000E+00  0.88820171687E+02  0.19998055115E+04  0.19978320902E+04 0.  0.
        4    1    3    3  502    0  0.53288655358E+02 -0.32061726665E+03 -0.90108449400E+03  0.95790917665E+03  0.12699999809E+01 0.  1.
       -4    1    3    3    0  502 -0.53288655358E+02  0.32061726665E+03  0.98990466569E+03  0.10418963348E+04  0.12699999809E+01 0. -1.
</event>
<event>
 5   0  0.2313821E-06  0.1998983E+04  0.7818609E-02  0.8607096E-01
        1   -1    0    0  501    0  0.00000000000E+00  0.00000000000E+00  0.81500136510E+03  0.81500136512E+03  0.50400001928E-02 0. -1.
       -1   -1    0    0    0  501  0.00000000000E+00  0.00000000000E+00 -0.12257440481E+04  0.12257440481E+04  0.50400001928E-02 0.  1.
    10030    2    1    2    0    0  0.00000000000E+00  0.00000000000E+00 -0.41074268299E+03  0.20407454132E+04  0.19989828138E+04 0.  0.
        1    1    3    3  502    0 -0.24898377862E+03 -0.47979531243E+03  0.65289864368E+03  0.84762792710E+03  0.50400001928E-02 0. -1.
       -1    1    3    3    0  502  0.24898377862E+03  0.47979531243E+03 -0.10636413267E+04  0.11931174861E+04  0.50400001928E-02 0.  1.
</event>
<event>
 5   0  0.2311520E-06  0.1999690E+04  0.7818609E-02  0.8606765E-01
        1   -1    0    0  501    0  0.00000000000E+00  0.00000000000E+00  0.99148817953E+03  0.99148817954E+03  0.50400001928E-02 0.  1.
       -1   -1    0    0    0  501  0.00000000000E+00  0.00000000000E+00 -0.10082726803E+04  0.10082726803E+04  0.50400001928E-02 0. -1.
    10030    2    1    2    0    0  0.00000000000E+00  0.00000000000E+00 -0.16784500798E+02  0.19997608599E+04  0.19996904203E+04 0.  0.
        3    1    3    3  502    0  0.55447207534E+03  0.15002914768E+03 -0.82679898980E+03  0.10067495256E+04  0.10100000352E+00 0. -1.
       -3    1    3    3    0  502 -0.55447207534E+03 -0.15002914768E+03  0.81001448900E+03  0.99301133432E+03  0.10100000352E+00 0.  1.
</event>
<event>
 5   0  0.5129100E-06  0.1998955E+04  0.7818609E-02  0.8607109E-01
       -2   -1    0    0    0  501  0.00000000000E+00  0.00000000000E+00  0.91266086532E+03  0.91266086533E+03  0.25500000920E-02 0. -1.
        2   -1    0    0  501    0  0.00000000000E+00  0.00000000000E+00 -0.10945528065E+04  0.10945528065E+04  0.25500000920E-02 0.  1.
    10030    2    1    2    0    0  0.00000000000E+00  0.00000000000E+00 -0.18189194116E+03  0.20072136718E+04  0.19989552386E+04 0.  0.
        2    1    3    3  502    0  0.83175209065E+03 -0.42201199842E+02 -0.64582557930E+03  0.10538895390E+04  0.25500000920E-02 0.  1.
       -2    1    3    3    0  502 -0.83175209065E+03  0.42201199842E+02  0.46393363814E+03  0.95332413280E+03  0.25500000920E-02 0. -1.
</event>
<event>
 5   0  0.2386776E-06  0.2000184E+04  0.7818609E-02  0.8606534E-01
        1   -1    0    0  501    0  0.00000000000E+00  0.00000000000E+00  0.14667854444E+04  0.14667854444E+04  0.50400001928E-02 0. -1.
       -1   -1    0    0    0  501  0.00000000000E+00  0.00000000000E+00 -0.68188866172E+03  0.68188866174E+03  0.50400001928E-02 0.  1.
    10030    2    1    2    0    0  0.00000000000E+00  0.00000000000E+00  0.78489678267E+03  0.21486741061E+04  0.20001843552E+04 0.  0.
        2    1    3    3  502    0 -0.25024463996E+03  0.54167199919E+03 -0.46972613210E+03  0.75939026444E+03  0.25500000920E-02 0.  1.
       -2    1    3    3    0  502  0.25024463996E+03 -0.54167199919E+03  0.12546229148E+04  0.13892838417E+04  0.25500000920E-02 0. -1.
</event>
<event>
 5   0  0.2356996E-06  0.2000189E+04  0.7818609E-02  0.8606532E-01
        1   -1    0    0  501    0  0.00000000000E+00  0.00000000000E+00  0.15590315944E+04  0.15590315944E+04  0.50400001928E-02 0. -1.
       -1   -1    0    0    0  501  0.00000000000E+00  0.00000000000E+00 -0.64154489350E+03  0.64154489352E+03  0.50400001928E-02 0.  1.
    10030    2    1    2    0    0  0.00000000000E+00  0.00000000000E+00  0.91748670085E+03  0.22005764879E+04  0.20001887493E+04 0.  0.
        4    1    3    3  502    0  0.29207188527E+03  0.58216044975E+03  0.12937031369E+04  0.14484081589E+04  0.12699999809E+01 0. -1.
       -4    1    3    3    0  502 -0.29207188527E+03 -0.58216044975E+03 -0.37621643608E+03  0.75216832896E+03  0.12699999809E+01 0.  1.
</event>
<event>
 5   0  0.2356996E-06  0.1999397E+04  0.7818609E-02  0.8606903E-01
       -1   -1    0    0    0  501  0.00000000000E+00  0.00000000000E+00  0.11170127801E+04  0.11170127801E+04  0.50400001928E-02 0. -1.
        1   -1    0    0  501    0  0.00000000000E+00  0.00000000000E+00 -0.89470512332E+03  0.89470512334E+03  0.50400001928E-02 0.  1.
    10030    2    1    2    0    0  0.00000000000E+00  0.00000000000E+00  0.22230765675E+03  0.20117179034E+04  0.19993969663E+04 0.  0.
        4    1    3    3  502    0 -0.71156536117E+03 -0.70627791313E+02 -0.59177993155E+03  0.92818028874E+03  0.12699999809E+01 0. -1.
       -4    1    3    3    0  502  0.71156536117E+03  0.70627791313E+02  0.81408758829E+03  0.10835376147E+04  0.12699999809E+01 0.  1.
</event>
<event>
 5   0  0.5129100E-06  0.1999363E+04  0.7818609E-02  0.8606919E-01
       -2   -1    0    0    0  501  0.00000000000E+00  0.00000000000E+00  0.19322058636E+04  0.19322058636E+04  0.25500000920E-02 0. -1.
        2   -1    0    0  501    0  0.00000000000E+00  0.00000000000E+00 -0.51721333978E+03  0.51721333979E+03  0.25500000920E-02 0.  1.
    10030    2    1    2    0    0  0.00000000000E+00  0.00000000000E+00  0.14149925238E+04  0.24494192034E+04  0.19993625463E+04 0.  0.
        2    1    3    3  502    0 -0.99583480048E+03 -0.87072638482E+02  0.69561508798E+03  0.12178460267E+04  0.25500000920E-02 0. -1.
       -2    1    3    3    0  502  0.99583480048E+03  0.87072638482E+02  0.71937743582E+03  0.12315731766E+04  0.25500000920E-02 0.  1.
</event>
<event>
 5   0  0.2313821E-06  0.1999385E+04  0.7818609E-02  0.8606908E-01
        1   -1    0    0  501    0  0.00000000000E+00  0.00000000000E+00  0.23376099538E+04  0.23376099538E+04  0.50400001928E-02 0.  1.
       -1   -1    0    0    0  501  0.00000000000E+00  0.00000000000E+00 -0.42752450588E+03  0.42752450591E+03  0.50400001928E-02 0. -1.
    10030    2    1    2    0    0  0.00000000000E+00  0.00000000000E+00  0.19100854479E+04  0.27651344597E+04  0.19993854461E+04 0.  0.
        1    1    3    3  502    0  0.33768261747E+03 -0.33809623614E+03 -0.25935273037E+03  0.54369334538E+03  0.50400001928E-02 0. -1.
       -1    1    3    3    0  502 -0.33768261747E+03  0.33809623614E+03  0.21694381783E+04  0.22214411143E+04  0.50400001928E-02 0.  1.
</event>
<event>
 5   0  0.5129100E-06  0.1999500E+04  0.7818609E-02  0.8606855E-01
        2   -1    0    0  501    0  0.00000000000E+00  0.00000000000E+00  0.16872600074E+04  0.16872600074E+04  0.25500000920E-02 0. -1.
       -2   -1    0    0    0  501  0.00000000000E+00  0.00000000000E+00 -0.59238039972E+03  0.59238039973E+03  0.25500000920E-02 0.  1.
    10030    2    1    2    0    0  0.00000000000E+00  0.00000000000E+00  0.10948796077E+04  0.22796404072E+04  0.19994996951E+04 0.  0.
        2    1    3    3  502    0 -0.25099606013E+03 -0.92256106172E+03  0.88058052024E+03  0.12998230600E+04  0.25500000920E-02 0. -1.
       -2    1    3    3    0  502  0.25099606013E+03  0.92256106172E+03  0.21429908746E+03  0.97981734711E+03  0.25500000920E-02 0.  1.
</event>
<event>
 5   0  0.5129100E-06  0.2000253E+04  0.7818609E-02  0.8606502E-01
        2   -1    0    0  501    0  0.00000000000E+00  0.00000000000E+00  0.81714881479E+03  0.81714881479E+03  0.25500000920E-02 0.  1.
       -2   -1    0    0    0  501  0.00000000000E+00  0.00000000000E+00 -0.12240775182E+04  0.12240775182E+04  0.25500000920E-02 0. -1.
    10030    2    1    2    0    0  0.00000000000E+00  0.00000000000E+00 -0.40692870345E+03  0.20412263330E+04  0.20002534772E+04 0.  0.
        2    1    3    3  502    0 -0.61941848217E+03  0.71990224040E+02  0.59446764056E+03  0.86154142332E+03  0.25500000920E-02 0.  1.
       -2    1    3    3    0  502  0.61941848217E+03 -0.71990224040E+02 -0.10013963440E+04  0.11796849097E+04  0.25500000920E-02 0. -1.
</event>
<event>
 5   0  0.5129100E-06  0.1999464E+04  0.7818609E-02  0.8606871E-01
        2   -1    0    0  501    0  0.00000000000E+00  0.00000000000E+00  0.12984819538E+04  0.12984819538E+04  0.25500000920E-02 0. -1.
       -2   -1    0    0    0  501  0.00000000000E+00  0.00000000000E+00 -0.76971709015E+03  0.76971709016E+03  0.25500000920E-02 0.  1.
    10030    2    1    2    0    0  0.00000000000E+00  0.00000000000E+00  0.52876486369E+03  0.20681990440E+04  0.19994636792E+04 0.  0.
        2    1    3    3  502    0 -0.96322147830E+03 -0.66297345584E+02  0.53266876852E+03  0.11026907868E+04  0.25500000920E-02 0. -1.
       -2    1    3    3    0  502  0.96322147830E+03  0.66297345584E+02 -0.39039048226E+01  0.96550825723E+03  0.25500000920E-02 0.  1.
</event>
<event>
 5   0  0.4956214E-06  0.2004435E+04  0.7818609E-02  0.8604550E-01
        2   -1    0    0  501    0  0.00000000000E+00  0.00000000000E+00  0.14919279951E+04  0.14919279951E+04  0.25500000920E-02 0. -1.
       -2   -1    0    0    0  501  0.00000000000E+00  0.00000000000E+00 -0.67324974819E+03  0.67324974820E+03  0.25500000920E-02 0.  1.
    10030    2    1    2    0    0  0.00000000000E+00  0.00000000000E+00  0.81867824690E+03  0.21651777433E+04  0.20044352292E+04 0.  0.
        1    1    3    3  502    0  0.93771810181E+03  0.31403124384E+03  0.58521267994E+03  0.11490886569E+04  0.50400001928E-02 0. -1.
       -1    1    3    3    0  502 -0.93771810181E+03 -0.31403124384E+03  0.23346556696E+03  0.10160890864E+04  0.50400001928E-02 0.  1.
</event>
<event>
 5   0  0.2386776E-06  0.1999112E+04  0.7818609E-02  0.8607036E-01
       -1   -1    0    0    0  501  0.00000000000E+00  0.00000000000E+00  0.56867315128E+03  0.56867315131E+03  0.50400001928E-02 0. -1.
        1   -1    0    0  501    0  0.00000000000E+00  0.00000000000E+00 -0.17569179228E+04  0.17569179228E+04  0.50400001928E-02 0.  1.
    10030    2    1    2    0    0  0.00000000000E+00  0.00000000000E+00 -0.11882447715E+04  0.23255910741E+04  0.19991118545E+04 0.  0.
        2    1    3    3  502    0 -0.16252751299E+03 -0.90673099441E+03 -0.10454751448E+04  0.13934111263E+04  0.25500000920E-02 0.  1.
       -2    1    3    3    0  502  0.16252751299E+03  0.90673099441E+03 -0.14276962677E+03  0.93217994778E+03  0.25500000920E-02 0. -1.
</event>
<event>
 5   0  0.5118981E-06  0.1999140E+04  0.7818609E-02  0.8607023E-01
       -2   -1    0    0    0  501  0.00000000000E+00  0.00000000000E+00  0.88584848427E+03  0.88584848428E+03  0.25500000920E-02 0.  1.
        2   -1    0    0  501    0  0.00000000000E+00  0.00000000000E+00 -0.11278901798E+04  0.11278901798E+04  0.25500000920E-02 0. -1.
    10030    2    1    2    0    0  0.00000000000E+00  0.00000000000E+00 -0.24204169548E+03  0.20137386640E+04  0.19991396211E+04 0.  0.
        4    1    3    3  502    0  0.90398408420E+03 -0.32999609908E+02 -0.54940524064E+03  0.10583590743E+04  0.12699999809E+01 0. -1.
       -4    1    3    3    0  502 -0.90398408420E+03  0.32999609908E+02  0.30736354516E+03  0.95537958976E+03  0.12699999809E+01 0.  1.
</event>
<event>
 5   0  0.5251252E-06  0.1999547E+04  0.7818609E-02  0.8606833E-01
       -2   -1    0    0    0  501  0.00000000000E+00  0.00000000000E+00  0.50374958489E+03  0.50374958490E+03  0.25500000920E-02 0.  1.
        2   -1    0    0  501    0  0.00000000000E+00  0.00000000000E+00 -0.19842133224E+04  0.19842133224E+04  0.25500000920E-02 0. -1.
    10030    2    1    2    0    0  0.00000000000E+00  0.00000000000E+00 -0.14804637375E+04  0.24879629073E+04  0.19995465861E+04 0.  0.
        5    1    3    3  502    0  0.49119926875E+03  0.61837810821E+03  0.22590316452E+02  0.79006368018E+03  0.46999998093E+01 0.  1.
       -5    1    3    3    0  502 -0.49119926875E+03 -0.61837810821E+03 -0.15030540540E+04  0.16978992271E+04  0.46999998093E+01 0. -1.
</event>
<event>
 5   0  0.2311520E-06  0.1999870E+04  0.7818609E-02  0.8606682E-01
        1   -1    0    0  501    0  0.00000000000E+00  0.00000000000E+00  0.79027046210E+03  0.79027046212E+03  0.50400001928E-02 0.  1.
       -1   -1    0    0    0  501  0.00000000000E+00  0.00000000000E+00 -0.12652246505E+04  0.12652246505E+04  0.50400001928E-02 0. -1.
    10030    2    1    2    0    0  0.00000000000E+00  0.00000000000E+00 -0.47495418842E+03  0.20554951127E+04  0.19998696650E+04 0.  0.
        3    1    3    3  502    0 -0.40713138015E+03 -0.72618190613E+02 -0.11732062992E+04  0.12439623760E+04  0.10100000352E+00 0. -1.
       -3    1    3    3    0  502  0.40713138015E+03  0.72618190613E+02  0.69825211073E+03  0.81153273665E+03  0.10100000352E+00 0.  1.
</event>
<event>
 5   0  0.5251252E-06  0.1999734E+04  0.7818609E-02  0.8606745E-01
        2   -1    0    0  501    0  0.00000000000E+00  0.00000000000E+00  0.96979857906E+03  0.96979857906E+03  0.25500000920E-02 0. -1.
       -2   -1    0    0    0  501  0.00000000000E+00  0.00000000000E+00 -0.10308672968E+04  0.10308672968E+04  0.25500000920E-02 0.  1.
    10030    2    1    2    0    0  0.00000000000E+00  0.00000000000E+00 -0.61068717728E+02  0.20006658759E+04  0.19997336219E+04 0.  0.
        5    1    3    3  502    0  0.93883406482E+02 -0.23304367442E+03  0.93769162677E+03  0.97077861797E+03  0.46999998093E+01 0. -1.
       -5    1    3    3    0  502 -0.93883406482E+02  0.23304367442E+03 -0.99876034450E+03  0.10298872579E+04  0.46999998093E+01 0.  1.
</event>
<event>
 5   0  0.2379743E-06  0.1999457E+04  0.7818609E-02  0.8606874E-01
       -1   -1    0    0    0  501  0.00000000000E+00  0.00000000000E+00  0.41750429689E+03  0.41750429692E+03  0.50400001928E-02 0. -1.
        1   -1    0    0  501    0  0.00000000000E+00  0.00000000000E+00 -0.23938856475E+04  0.23938856475E+04  0.50400001928E-02 0.  1.
    10030    2    1    2    0    0  0.00000000000E+00  0.00000000000E+00 -0.19763813506E+04  0.28113899444E+04  0.19994574706E+04 0.  0.
        5    1    3    3  502    0 -0.42183785263E+03 -0.89905253385E+03 -0.11496926218E+04  0.15192293597E+04  0.46999998093E+01 0.  1.
       -5    1    3    3    0  502  0.42183785263E+03  0.89905253385E+03 -0.82668872877E+03  0.12921605848E+04  0.46999998093E+01 0. -1.
</event>
<event>
 5   0  0.5251252E-06  0.2000002E+04  0.7818609E-02  0.8606620E-01
       -2   -1    0    0    0  501  0.00000000000E+00  0.00000000000E+00  0.70954029390E+03  0.70954029390E+03  0.25500000920E-02 0. -1.
        2   -1    0    0  501    0  0.00000000000E+00  0.00000000000E+00 -0.14093658633E+04  0.14093658633E+04  0.25500000920E-02 0.  1.
    10030    2    1    2    0    0  0.00000000000E+00  0.00000000000E+00 -0.69982556943E+03  0.21189061572E+04  0.20000018689E+04 0.  0.
        5    1    3    3  502    0  0.59697639638E+03 -0.79182419289E+03 -0.48646875575E+03  0.11045543493E+04  0.46999998093E+01 0.  1.
       -5    1    3    3    0  502 -0.59697639638E+03  0.79182419289E+03 -0.21335681368E+03  0.10143518079E+04  0.46999998093E+01 0. -1.
</event>
<event>
 5   0  0.5129100E-06  0.1999966E+04  0.7818609E-02  0.8606636E-01
        2   -1    0    0  501    0  0.00000000000E+00  0.00000000000E+00  0.10152686619E+04  0.10152686619E+04  0.25500000920E-02 0.  1.
       -2   -1    0    0    0  501  0.00000000000E+00  0.00000000000E+00 -0.98492795867E+03  0.98492795867E+03  0.25500000920E-02 0. -1.
    10030    2    1    2    0    0  0.00000000000E+00  0.00000000000E+00  0.30340703208E+02  0.20001966206E+04  0.19999664904E+04 0.  0.
        2    1    3    3  502    0  0.30433323679E+03 -0.36293032685E+03 -0.86562920475E+03  0.98673758481E+03  0.25500000920E-02 0. -1.
       -2    1    3    3    0  502 -0.30433323679E+03  0.36293032685E+03  0.89596990796E+03  0.10134590357E+04  0.25500000920E-02 0.  1.
</event>
<event>
 5   0  0.2313821E-06  0.1999593E+04  0.7818609E-02  0.8606811E-01
        1   -1    0    0  501    0  0.00000000000E+00  0.00000000000E+00  0.14160847889E+04  0.14160847889E+04  0.50400001928E-02 0. -1.
       -1   -1    0    0    0  501  0.00000000000E+00  0.00000000000E+00 -0.70588505517E+03  0.70588505519E+03  0.50400001928E-02 0.  1.
    10030    2    1    2    0    0  0.00000000000E+00  0.00000000000E+00  0.71019973373E+03  0.21219698441E+04  0.19995930480E+04 0.  0.
        1    1    3    3  502    0 -0.17830750127E+03 -0.56192644074E+03  0.12120076932E+04  0.13477824521E+04  0.50400001928E-02 0. -1.
       -1    1    3    3    0  502  0.17830750127E+03  0.56192644074E+03 -0.50180795943E+03  0.77418739203E+03  0.50400001928E-02 0.  1.
</event>
<event>
 5   0  0.2311520E-06  0.2000821E+04  0.7818609E-02  0.8606237E-01
       -1   -1    0    0    0  501  0.00000000000E+00  0.00000000000E+00  0.12567227543E+04  0.12567227543E+04  0.50400001928E-02 0. -1.
        1   -1    0    0  501    0  0.00000000000E+00  0.00000000000E+00 -0.79637393350E+03  0.79637393352E+03  0.50400001928E-02 0.  1.
    10030    2    1    2    0    0  0.00000000000E+00  0.00000000000E+00  0.46034882082E+03  0.20530966878E+04  0.20008210747E+04 0.  0.
        3    1    3    3  502    0 -0.71063723002E+03  0.67473762460E+03  0.43679344492E+03  0.10728768142E+04  0.10100000352E+00 0. -1.
       -3    1    3    3    0  502  0.71063723002E+03 -0.67473762460E+03  0.23555375903E+02  0.98021987364E+03  0.10100000352E+00 0.  1.
</event>
<event>
 5   0  0.5118981E-06  0.1999220E+04  0.7818609E-02  0.8606986E-01
        2   -1    0    0  501    0  0.00000000000E+00  0.00000000000E+00  0.80639969905E+03  0.80639969905E+03  0.25500000920E-02 0.  1.
       -2   -1    0    0    0  501  0.00000000000E+00  0.00000000000E+00 -0.12391124414E+04  0.12391124414E+04  0.25500000920E-02 0. -1.
    10030    2    1    2    0    0  0.00000000000E+00  0.00000000000E+00 -0.43271274238E+03  0.20455121405E+04  0.19992197477E+04 0.  0.
        4    1    3    3  502    0 -0.23089885667E+03 -0.27249630608E+03  0.73888371247E+03  0.82068219933E+03  0.12699999809E+01 0.  1.
       -4    1    3    3    0  502  0.23089885667E+03  0.27249630608E+03 -0.11715964549E+04  0.12248299412E+04  0.12699999809E+01 0. -1.
</event>
<event>
 5   0  0.5118981E-06  0.1997406E+04  0.7818609E-02  0.8607835E-01
        2   -1    0    0  501    0  0.00000000000E+00  0.00000000000E+00  0.13308637160E+04  0.13308637161E+04  0.25500000920E-02 0. -1.
       -2   -1    0    0    0  501  0.00000000000E+00  0.00000000000E+00 -0.74944362325E+03  0.74944362326E+03  0.25500000920E-02 0.  1.
    10030    2    1    2    0    0  0.00000000000E+00  0.00000000000E+00  0.58142009279E+03  0.20803073393E+04  0.19974056427E+04 0.  0.
        4    1    3    3  502    0  0.93707857012E+03 -0.22102502108E+02  0.64969081003E+03  0.11404843395E+04  0.12699999809E+01 0. -1.
       -4    1    3    3    0  502 -0.93707857012E+03  0.22102502108E+02 -0.68270717232E+02  0.93982299978E+03  0.12699999809E+01 0.  1.
</event>
<event>
 5   0  0.4956214E-06  0.1999638E+04  0.7818609E-02  0.8606790E-01
        2   -1    0    0  501    0  0.00000000000E+00  0.00000000000E+00  0.15522462734E+04  0.15522462734E+04  0.25500000920E-02 0.  1.
       -2   -1    0    0    0  501  0.00000000000E+00  0.00000000000E+00 -0.64399429492E+03  0.64399429493E+03  0.25500000920E-02 0. -1.
    10030    2    1    2    0    0  0.00000000000E+00  0.00000000000E+00  0.90825197844E+03  0.21962405683E+04  0.19996377116E+04 0.  0.
        1    1    3    3  502    0  0.96340876101E+03  0.22445659868E+03  0.29458386725E+03  0.10321418799E+04  0.50400001928E-02 0. -1.
       -1    1    3    3    0  502 -0.96340876101E+03 -0.22445659868E+03  0.61366811120E+03  0.11640986883E+04  0.50400001928E-02 0.  1.
</event>
<event>
 5   0  0.1777750E-06  0.2000128E+04  0.7818609E-02  0.8606561E-01
       -4   -1    0    0    0  501  0.00000000000E+00  0.00000000000E+00  0.12208216065E+04  0.12208222671E+04  0.12699999809E+01 0. -1.
        4   -1    0    0  501    0  0.00000000000E+00  0.00000000000E+00 -0.81922417011E+03  0.81922515452E+03  0.12699999809E+01 0.  1.
    10030    2    1    2    0    0  0.00000000000E+00  0.00000000000E+00  0.40159743639E+03  0.20400474216E+04  0.20001282412E+04 0.  0.
        5    1    3    3  502    0  0.60581945430E+03  0.23412032883E+03  0.97642092748E+03  0.11727103040E+04  0.46999998093E+01 0. -1.
       -5    1    3    3    0  502 -0.60581945430E+03 -0.23412032883E+03 -0.57482349109E+03  0.86733711755E+03  0.46999998093E+01 0.  1.
</event>
<event>
 5   0  0.2311520E-06  0.2001294E+04  0.7818609E-02  0.8606016E-01
        1   -1    0    0  501    0  0.00000000000E+00  0.00000000000E+00  0.15146507296E+04  0.15146507296E+04  0.50400001928E-02 0.  1.
       -1   -1    0    0    0  501  0.00000000000E+00  0.00000000000E+00 -0.66107276967E+03  0.66107276969E+03  0.50400001928E-02 0. -1.
    10030    2    1    2    0    0  0.00000000000E+00  0.00000000000E+00  0.85357795992E+03  0.21757234993E+04  0.20012939344E+04 0.  0.
        3    1    3    3  502    0  0.51760390882E+03 -0.81451795318E+03  0.71430289406E+03  0.12006589595E+04  0.10100000352E+00 0.  1.
       -3    1    3    3    0  502 -0.51760390882E+03  0.81451795318E+03  0.13927506587E+03  0.97506453974E+03  0.10100000352E+00 0. -1.
</event>
<event>
 5   0  0.2313821E-06  0.2000049E+04  0.7818609E-02  0.8606598E-01
        1   -1    0    0  501    0  0.00000000000E+00  0.00000000000E+00  0.12806841163E+04  0.12806841163E+04  0.50400001928E-02 0.  1.
       -1   -1    0    0    0  501  0.00000000000E+00  0.00000000000E+00 -0.78087131757E+03  0.78087131759E+03  0.50400001928E-02 0. -1.
    10030    2    1    2    0    0  0.00000000000E+00  0.00000000000E+00  0.49981279875E+03  0.20615554339E+04  0.20000494927E+04 0.  0.
        1    1    3    3  502    0 -0.29095272990E+03 -0.46786204183E+03 -0.61032478376E+03  0.82221938855E+03  0.50400001928E-02 0. -1.
       -1    1    3    3    0  502  0.29095272990E+03  0.46786204183E+03  0.11101375825E+04  0.12393360454E+04  0.50400001928E-02 0.  1.
</event>
<event>
 5   0  0.5129100E-06  0.2001460E+04  0.7818609E-02  0.8605939E-01
       -2   -1    0    0    0  501  0.00000000000E+00  0.00000000000E+00  0.86440410874E+03  0.86440410874E+03  0.25500000920E-02 0. -1.
        2   -1    0    0  501    0  0.00000000000E+00  0.00000000000E+00 -0.11585555150E+04  0.11585555150E+04  0.25500000920E-02 0.  1.
    10030    2    1    2    0    0  0.00000000000E+00  0.00000000000E+00 -0.29415140623E+03  0.20229596237E+04  0.20014596147E+04 0.  0.
        2    1    3    3  502    0  0.98544874764E+03 -0.81350255430E+02  0.86345289278E+01  0.98883853757E+03  0.25500000920E-02 0. -1.
       -2    1    3    3    0  502 -0.98544874764E+03  0.81350255430E+02 -0.30278593515E+03  0.10341210861E+04  0.25500000920E-02 0.  1.
</event>
<event>
 5   0  0.2379743E-06  0.1999698E+04  0.7818609E-02  0.8606762E-01
       -1   -1    0    0    0  501  0.00000000000E+00  0.00000000000E+00  0.43359297209E+03  0.43359297212E+03  0.50400001928E-02 0. -1.
        1   -1    0    0  501    0  0.00000000000E+00  0.00000000000E+00 -0.23056144361E+04  0.23056144361E+04  0.50400001928E-02 0.  1.
    10030    2    1    2    0    0  0.00000000000E+00  0.00000000000E+00 -0.18720214640E+04  0.27392074082E+04  0.19996981931E+04 0.  0.
        5    1    3    3  502    0 -0.14788686720E+03 -0.76218962113E+03 -0.17989614841E+04  0.19593590930E+04  0.46999998093E+01 0.  1.
       -5    1    3    3    0  502  0.14788686720E+03  0.76218962113E+03 -0.73059979875E+02  0.77984831519E+03  0.46999998093E+01 0. -1.
</event>
<event>
 5   0  0.2311520E-06  0.1999786E+04  0.7818609E-02  0.8606720E-01
        1   -1    0    0  501    0  0.00000000000E+00  0.00000000000E+00  0.94152514774E+03  0.94152514775E+03  0.50400001928E-02 0.  1.
       -1   -1    0    0    0  501  0.00000000000E+00  0.00000000000E+00 -0.10618797673E+04  0.10618797673E+04  0.50400001928E-02 0. -1.
    10030    2    1    2    0    0  0.00000000000E+00  0.00000000000E+00 -0.12035461957E+03  0.20034049151E+04  0.19997864934E+04 0.  0.
        3    1    3    3  502    0 -0.98702859686E+03  0.46053520577E+02  0.93201368230E+02  0.99248822815E+03  0.10100000352E+00 0. -1.
       -3    1    3    3    0  502  0.98702859686E+03 -0.46053520577E+02 -0.21355598779E+03  0.10109166869E+04  0.10100000352E+00 0.  1.
</event>
<event>
 5   0  0.2386776E-06  0.1998999E+04  0.7818609E-02  0.8607089E-01
        1   -1    0    0  501    0  0.00000000000E+00  0.00000000000E+00  0.66417333037E+03  0.66417333039E+03  0.50400001928E-02 0.  1.
       -1   -1    0    0    0  501  0.00000000000E+00  0.00000000000E+00 -0.15041236494E+04  0.15041236494E+04  0.50400001928E-02 0. -1.
    10030    2    1    2    0    0  0.00000000000E+00  0.00000000000E+00 -0.83995031898E+03  0.21682969798E+04  0.19989985628E+04 0.  0.
        2    1    3    3  502    0  0.26829604624E+03 -0.92050827218E+03 -0.11379116260E+03  0.96553957779E+03  0.25500000920E-02 0. -1.
       -2    1    3    3    0  502 -0.26829604624E+03  0.92050827218E+03 -0.72615915638E+03  0.12027574020E+04  0.25500000920E-02 0.  1.
</event>
<event>
 5   0  0.5129100E-06  0.2000931E+04  0.7818609E-02  0.8606186E-01
       -2   -1    0    0    0  501  0.00000000000E+00  0.00000000000E+00  0.10996806905E+04  0.10996806905E+04  0.25500000920E-02 0. -1.
        2   -1    0    0  501    0  0.00000000000E+00  0.00000000000E+00 -0.91020144610E+03  0.91020144611E+03  0.25500000920E-02 0.  1.
    10030    2    1    2    0    0  0.00000000000E+00  0.00000000000E+00  0.18947924438E+03  0.20098821366E+04  0.20009307382E+04 0.  0.
        2    1    3    3  502    0 -0.45991359566E+03 -0.35055988788E+03 -0.72531832591E+03  0.92763108204E+03  0.25500000920E-02 0.  1.
       -2    1    3    3    0  502  0.45991359566E+03  0.35055988788E+03  0.91479757028E+03  0.10822510545E+04  0.25500000920E-02 0. -1.
</event>
<event>
 5   0  0.5030137E-06  0.1996209E+04  0.7818609E-02  0.8608395E-01
       -2   -1    0    0    0  501  0.00000000000E+00  0.00000000000E+00  0.38547360582E+03  0.38547360583E+03  0.25500000920E-02 0.  1.
        2   -1    0    0  501    0  0.00000000000E+00  0.00000000000E+00 -0.25843858052E+04  0.25843858052E+04  0.25500000920E-02 0. -1.
    10030    2    1    2    0    0  0.00000000000E+00  0.00000000000E+00 -0.21989121994E+04  0.29698594110E+04  0.19962089221E+04 0.  0.
        3    1    3    3  502    0  0.56640952009E+03  0.72648651157E+03 -0.16710504783E+04  0.19081436286E+04  0.10100000352E+00 0. -1.
       -3    1    3    3    0  502 -0.56640952009E+03 -0.72648651157E+03 -0.52786172105E+03  0.10617157824E+04  0.10100000352E+00 0.  1.
</event>
<event>
 5   0  0.2379743E-06  0.2000701E+04  0.7818609E-02  0.8606293E-01
        1   -1    0    0  501    0  0.00000000000E+00  0.00000000000E+00  0.15786005659E+04  0.15786005659E+04  0.50400001928E-02 0. -1.
       -1   -1    0    0    0  501  0.00000000000E+00  0.00000000000E+00 -0.63391670627E+03  0.63391670629E+03  0.50400001928E-02 0.  1.
    10030    2    1    2    0    0  0.00000000000E+00  0.00000000000E+00  0.94468385961E+03  0.22125172722E+04  0.20007011484E+04 0.  0.
        5    1    3    3  502    0  0.62672275772E+03  0.74230722431E+03  0.73608171976E+03  0.12188682531E+04  0.46999998093E+01 0. -1.
       -5    1    3    3    0  502 -0.62672275772E+03 -0.74230722431E+03  0.20860213985E+03  0.99364901905E+03  0.46999998093E+01 0.  1.
</event>
<event>
 5   0  0.2313821E-06  0.1999709E+04  0.7818609E-02  0.8606757E-01
       -1   -1    0    0    0  501  0.00000000000E+00  0.00000000000E+00  0.12169919269E+04  0.12169919269E+04  0.50400001928E-02 0. -1.
        1   -1    0    0  501    0  0.00000000000E+00  0.00000000000E+00 -0.82145913202E+03  0.82145913204E+03  0.50400001928E-02 0.  1.
    10030    2    1    2    0    0  0.00000000000E+00  0.00000000000E+00  0.39553279490E+03  0.20384510590E+04  0.19997091108E+04 0.  0.
        1    1    3    3  502    0  0.52064399507E+03  0.66434591869E+03  0.74413882792E+03  0.11252414250E+04  0.50400001928E-02 0. -1.
       -1    1    3    3    0  502 -0.52064399507E+03 -0.66434591869E+03 -0.34860603302E+03  0.91320963397E+03  0.50400001928E-02 0.  1.
</event>
<event>
 5   0  0.2379743E-06  0.2000329E+04  0.7818609E-02  0.8606467E-01
        1   -1    0    0  501    0  0.00000000000E+00  0.00000000000E+00  0.86037592063E+03  0.86037592064E+03  0.50400001928E-02 0.  1.
       -1   -1    0    0    0  501  0.00000000000E+00  0.00000000000E+00 -0.11626652945E+04  0.11626652946E+04  0.50400001928E-02 0. -1.
    10030    2    1    2    0    0  0.00000000000E+00  0.00000000000E+00 -0.30228937392E+03  0.20230412152E+04  0.20003291961E+04 0.  0.
        5    1    3    3  502    0  0.39962641704E+03 -0.49619827676E+03  0.62857795839E+03  0.89501192329E+03  0.46999998093E+01 0.  1.
       -5    1    3    3    0  502 -0.39962641704E+03  0.49619827676E+03 -0.93086733231E+03  0.11280292919E+04  0.46999998093E+01 0. -1.
</event>
<event>
 5   0  0.5251252E-06  0.2005742E+04  0.7818609E-02  0.8603941E-01
       -2   -1    0    0    0  501  0.00000000000E+00  0.00000000000E+00  0.61129303804E+03  0.61129303805E+03  0.25500000920E-02 0.  1.
        2   -1    0    0  501    0  0.00000000000E+00  0.00000000000E+00 -0.16452832108E+04  0.16452832108E+04  0.25500000920E-02 0. -1.
    10030    2    1    2    0    0  0.00000000000E+00  0.00000000000E+00 -0.10339901728E+04  0.22565762489E+04  0.20057419300E+04 0.  0.
        5    1    3    3  502    0 -0.56573280278E+03  0.24508670957E+03 -0.14068634213E+04  0.15360364174E+04  0.46999998093E+01 0. -1.
       -5    1    3    3    0  502  0.56573280278E+03 -0.24508670957E+03  0.37287324850E+03  0.72053983151E+03  0.46999998093E+01 0.  1.
</event>
<event>
 5   0  0.1777750E-06  0.1999806E+04  0.7818609E-02  0.8606711E-01
       -3   -1    0    0    0  501  0.00000000000E+00  0.00000000000E+00  0.52916364345E+03  0.52916365309E+03  0.10100000352E+00 0. -1.
        3   -1    0    0  501    0  0.00000000000E+00  0.00000000000E+00 -0.18894082680E+04  0.18894082707E+04  0.10100000352E+00 0.  1.
    10030    2    1    2    0    0  0.00000000000E+00  0.00000000000E+00 -0.13602446246E+04  0.24185719238E+04  0.19998061686E+04 0.  0.
        3    1    3    3  502    0 -0.25883240632E+03 -0.77883672154E+02 -0.18443863522E+04  0.18640872048E+04  0.10100000352E+00 0.  1.
       -3    1    3    3    0  502  0.25883240632E+03  0.77883672154E+02  0.48414172761E+03  0.55448471897E+03  0.10100000352E+00 0. -1.
</event>
<event>
 5   0  0.5129100E-06  0.1999525E+04  0.7818609E-02  0.8606843E-01
        2   -1    0    0  501    0  0.00000000000E+00  0.00000000000E+00  0.15338527945E+04  0.15338527945E+04  0.25500000920E-02 0.  1.
       -2   -1    0    0    0  501  0.00000000000E+00  0.00000000000E+00 -0.65164315615E+03  0.65164315616E+03  0.25500000920E-02 0. -1.
    10030    2    1    2    0    0  0.00000000000E+00  0.00000000000E+00  0.88220963831E+03  0.21854959506E+04  0.19995246196E+04 0.  0.
        2    1    3    3  502    0 -0.98901280334E+03 -0.12073600930E+03  0.53124428249E+03  0.11291341802E+04  0.25500000920E-02 0. -1.
       -2    1    3    3    0  502  0.98901280334E+03  0.12073600930E+03  0.35096535582E+03  0.10563617705E+04  0.25500000920E-02 0.  1.
</event>
<event>
 5   0  0.5129100E-06  0.2001827E+04  0.7818609E-02  0.8605767E-01
       -2   -1    0    0    0  501  0.00000000000E+00  0.00000000000E+00  0.39518373935E+03  0.39518373935E+03  0.25500000920E-02 0. -1.
        2   -1    0    0  501    0  0.00000000000E+00  0.00000000000E+00 -0.25350938392E+04  0.25350938392E+04  0.25500000920E-02 0.  1.
    10030    2    1    2    0    0  0.00000000000E+00  0.00000000000E+00 -0.21399100999E+04  0.29302775786E+04  0.20018270285E+04 0.  0.
        2    1    3    3  502    0  0.72638748944E+03 -0.29185365124E+03 -0.15697163395E+03  0.79840931384E+03  0.25500000920E-02 0. -1.
       -2    1    3    3    0  502 -0.72638748944E+03  0.29185365124E+03 -0.19829384659E+04  0.21318682647E+04  0.25500000920E-02 0.  1.
</event>
<event>
 5   0  0.5251252E-06  0.1999800E+04  0.7818609E-02  0.8606714E-01
       -2   -1    0    0    0  501  0.00000000000E+00  0.00000000000E+00  0.10257058088E+04  0.10257058088E+04  0.25500000920E-02 0.  1.
        2   -1    0    0  501    0  0.00000000000E+00  0.00000000000E+00 -0.97474322570E+03  0.97474322570E+03  0.25500000920E-02 0. -1.
    10030    2    1    2    0    0  0.00000000000E+00  0.00000000000E+00  0.50962583063E+02  0.20004490345E+04  0.19997997786E+04 0.  0.
        5    1    3    3  502    0  0.15154337147E+03  0.93879084888E+03 -0.28362396100E+03  0.99234988417E+03  0.46999998093E+01 0. -1.
       -5    1    3    3    0  502 -0.15154337147E+03 -0.93879084888E+03  0.33458654406E+03  0.10080991503E+04  0.46999998093E+01 0.  1.
</event>
<event>
 5   0  0.4956214E-06  0.2001348E+04  0.7818609E-02  0.8605991E-01
       -2   -1    0    0    0  501  0.00000000000E+00  0.00000000000E+00  0.63407415121E+03  0.63407415122E+03  0.25500000920E-02 0. -1.
        2   -1    0    0  501    0  0.00000000000E+00  0.00000000000E+00 -0.15792288380E+04  0.15792288380E+04  0.25500000920E-02 0.  1.
    10030    2    1    2    0    0  0.00000000000E+00  0.00000000000E+00 -0.94515468679E+03  0.22133029892E+04  0.20013477309E+04 0.  0.
        1    1    3    3  502    0 -0.18315402075E+03 -0.83620748049E+02 -0.15565969967E+04  0.15695642819E+04  0.50400001928E-02 0.  1.
       -1    1    3    3    0  502  0.18315402075E+03  0.83620748049E+02  0.61144230996E+03  0.64373870728E+03  0.50400001928E-02 0. -1.
</event>
<event>
 5   0  0.5129100E-06  0.1999906E+04  0.7818609E-02  0.8606664E-01
        2   -1    0    0  501    0  0.00000000000E+00  0.00000000000E+00  0.62118216639E+03  0.62118216640E+03  0.25500000920E-02 0.  1.
       -2   -1    0    0    0  501  0.00000000000E+00  0.00000000000E+00 -0.16096828215E+04  0.16096828215E+04  0.25500000920E-02 0. -1.
    10030    2    1    2    0    0  0.00000000000E+00  0.00000000000E+00 -0.98850065514E+03  0.22308649879E+04  0.19999062601E+04 0.  0.
        2    1    3    3  502    0 -0.75065010001E+03 -0.26255050275E+03 -0.11704751247E+04  0.14150690289E+04  0.25500000920E-02 0. -1.
       -2    1    3    3    0  502  0.75065010001E+03  0.26255050275E+03  0.18197446955E+03  0.81579595899E+03  0.25500000920E-02 0.  1.
</event>
<event>
 5   0  0.4956214E-06  0.2000580E+04  0.7818609E-02  0.8606350E-01
       -2   -1    0    0    0  501  0.00000000000E+00  0.00000000000E+00  0.51905768420E+03  0.51905768420E+03  0.25500000920E-02 0.  1.
        2   -1    0    0  501    0  0.00000000000E+00  0.00000000000E+00 -0.19276849132E+04  0.19276849132E+04  0.25500000920E-02 0. -1.
    10030    2    1    2    0    0  0.00000000000E+00  0.00000000000E+00 -0.14086272290E+04  0.24467425974E+04  0.20005795829E+04 0.  0.
        1    1    3    3  502    0 -0.80484346827E+03 -0.55670501876E+03 -0.95758792147E+03  0.13691852007E+04  0.50400001928E-02 0. -1.
       -1    1    3    3    0  502  0.80484346827E+03  0.55670501876E+03 -0.45103930752E+03  0.10775573967E+04  0.50400001928E-02 0.  1.
</event>
<event>
 5   0  0.2356996E-06  0.1999884E+04  0.7818609E-02  0.8606675E-01
        1   -1    0    0  501    0  0.00000000000E+00  0.00000000000E+00  0.19416533533E+04  0.19416533533E+04  0.50400001928E-02 0.  1.
       -1   -1    0    0    0  501  0.00000000000E+00  0.00000000000E+00 -0.51496522382E+03  0.51496522384E+03  0.50400001928E-02 0. -1.
    10030    2    1    2    0    0  0.00000000000E+00  0.00000000000E+00  0.14266881294E+04  0.24566185771E+04  0.19998839503E+04 0.  0.
        4    1    3    3  502    0  0.68453096712E+03 -0.72729480574E+03  0.65389804221E+03  0.11937858442E+04  0.12699999809E+01 0.  1.
       -4    1    3    3    0  502 -0.68453096712E+03  0.72729480574E+03  0.77279008724E+03  0.12628327329E+04  0.12699999809E+01 0. -1.
</event>
<event>
 5   0  0.2313821E-06  0.1998591E+04  0.7818609E-02  0.8607280E-01
       -1   -1    0    0    0  501  0.00000000000E+00  0.00000000000E+00  0.67704274640E+03  0.67704274642E+03  0.50400001928E-02 0. -1.
        1   -1    0    0  501    0  0.00000000000E+00  0.00000000000E+00 -0.14749308558E+04  0.14749308558E+04  0.50400001928E-02 0.  1.
    10030    2    1    2    0    0  0.00000000000E+00  0.00000000000E+00 -0.79788810942E+03  0.21519736022E+04  0.19985907409E+04 0.  0.
        1    1    3    3  502    0 -0.24908333360E+03  0.88759915900E+03 -0.81417775433E+03  0.12299431653E+04  0.50400001928E-02 0.  1.
       -1    1    3    3    0  502  0.24908333360E+03 -0.88759915900E+03  0.16289644911E+02  0.92203043697E+03  0.50400001928E-02 0. -1.
</event>
<event>
 5   0  0.2356996E-06  0.1999549E+04  0.7818609E-02  0.8606831E-01
       -1   -1    0    0    0  501  0.00000000000E+00  0.00000000000E+00  0.55490169961E+03  0.55490169963E+03  0.50400001928E-02 0. -1.
        1   -1    0    0  501    0  0.00000000000E+00  0.00000000000E+00 -0.18013091852E+04  0.18013091852E+04  0.50400001928E-02 0.  1.
    10030    2    1    2    0    0  0.00000000000E+00  0.00000000000E+00 -0.12464074856E+04  0.23562108848E+04  0.19995494777E+04 0.  0.
        4    1    3    3  502    0 -0.92166520557E+03 -0.38183046475E+03 -0.70035474113E+03  0.12189174013E+04  0.12699999809E+01 0.  1.
       -4    1    3    3    0  502  0.92166520557E+03  0.38183046475E+03 -0.54605274445E+03  0.11372934835E+04  0.12699999809E+01 0. -1.
</event>
<event>
 5   0  0.5118981E-06  0.1999683E+04  0.7818609E-02  0.8606769E-01
        2   -1    0    0  501    0  0.00000000000E+00  0.00000000000E+00  0.10046184888E+04  0.10046184888E+04  0.25500000920E-02 0. -1.
       -2   -1    0    0    0  501  0.00000000000E+00  0.00000000000E+00 -0.99508738837E+03  0.99508738838E+03  0.25500000920E-02 0.  1.
    10030    2    1    2    0    0  0.00000000000E+00  0.00000000000E+00  0.95311004650E+01  0.19997058772E+04  0.19996831633E+04 0.  0.
        4    1    3    3  502    0 -0.51717278381E+03  0.28092009251E+03  0.81304312025E+03  0.10037053925E+04  0.12699999809E+01 0. -1.
       -4    1    3    3    0  502  0.51717278381E+03 -0.28092009251E+03 -0.80351201978E+03  0.99600048470E+03  0.12699999809E+01 0.  1.
</event>
<event>
 5   0  0.2379743E-06  0.2000247E+04  0.7818609E-02  0.8606505E-01
       -1   -1    0    0    0  501  0.00000000000E+00  0.00000000000E+00  0.73591876094E+03  0.73591876095E+03  0.50400001928E-02 0.  1.
        1   -1    0    0  501    0  0.00000000000E+00  0.00000000000E+00 -0.13591819571E+04  0.13591819572E+04  0.50400001928E-02 0. -1.
    10030    2    1    2    0    0  0.00000000000E+00  0.00000000000E+00 -0.62326319621E+03  0.20951007181E+04  0.20002474865E+04 0.  0.
        5    1    3    3  502    0  0.61470897412E+03  0.16793853536E+03 -0.11189986600E+04  0.12877307815E+04  0.46999998093E+01 0. -1.
       -5    1    3    3    0  502 -0.61470897412E+03 -0.16793853536E+03  0.49573546378E+03  0.80736993663E+03  0.46999998093E+01 0.  1.
</event>
<event>
 5   0  0.2386776E-06  0.1999397E+04  0.7818609E-02  0.8606903E-01
       -1   -1    0    0    0  501  0.00000000000E+00  0.00000000000E+00  0.97909238205E+03  0.97909238206E+03  0.50400001928E-02 0.  1.
        1   -1    0    0  501    0  0.00000000000E+00  0.00000000000E+00 -0.10207385534E+04  0.10207385534E+04  0.50400001928E-02 0. -1.
    10030    2    1    2    0    0  0.00000000000E+00  0.00000000000E+00 -0.41646171310E+02  0.19998309354E+04  0.19993972509E+04 0.  0.
        2    1    3    3  502    0  0.61843568702E+03 -0.45271139814E+03 -0.66282447068E+03  0.10132850477E+04  0.25500000920E-02 0. -1.
       -2    1    3    3    0  502 -0.61843568702E+03  0.45271139814E+03  0.62117829937E+03  0.98654588773E+03  0.25500000920E-02 0.  1.
</event>
<event>
 5   0  0.2356996E-06  0.1999773E+04  0.7818609E-02  0.8606727E-01
       -1   -1    0    0    0  501  0.00000000000E+00  0.00000000000E+00  0.53882740850E+03  0.53882740852E+03  0.50400001928E-02 0.  1.
        1   -1    0    0  501    0  0.00000000000E+00  0.00000000000E+00 -0.18554601549E+04  0.18554601549E+04  0.50400001928E-02 0. -1.
    10030    2    1    2    0    0  0.00000000000E+00  0.00000000000E+00 -0.13166327464E+04  0.23942875634E+04  0.19997727740E+04 0.  0.
        4    1    3    3  502    0 -0.91936292934E+03  0.10708631350E+03 -0.20544142865E+03  0.94810519875E+03  0.12699999809E+01 0. -1.
       -4    1    3    3    0  502  0.91936292934E+03 -0.10708631350E+03 -0.11111913178E+04  0.14461823647E+04  0.12699999809E+01 0.  1.
</event>
<event>
 5   0  0.2313821E-06  0.1999951E+04  0.7818609E-02  0.8606644E-01
        1   -1    0    0  501    0  0.00000000000E+00  0.00000000000E+00  0.14551920820E+04  0.14551920820E+04  0.50400001928E-02 0. -1.
       -1   -1    0    0    0  501  0.00000000000E+00  0.00000000000E+00 -0.68716075394E+03  0.68716075396E+03  0.50400001928E-02 0.  1.
    10030    2    1    2    0    0  0.00000000000E+00  0.00000000000E+00  0.76803132809E+03  0.21423528360E+04  0.19999508876E+04 0.  0.
        1    1    3    3  502    0  0.71786804412E+03 -0.65017870192E+03  0.65049338737E+03  0.11667084127E+04  0.50400001928E-02 0. -1.
       -1    1    3    3    0  502 -0.71786804412E+03  0.65017870192E+03  0.11753794073E+03  0.97564442331E+03  0.50400001928E-02 0.  1.
</event>
<event>
 5   0  0.5030137E-06  0.1999843E+04  0.7818609E-02  0.8606694E-01
        2   -1    0    0  501    0  0.00000000000E+00  0.00000000000E+00  0.10645079065E+04  0.10645079065E+04  0.25500000920E-02 0.  1.
       -2   -1    0    0    0  501  0.00000000000E+00  0.00000000000E+00 -0.93925399301E+03  0.93925399301E+03  0.25500000920E-02 0. -1.
    10030    2    1    2    0    0  0.00000000000E+00  0.00000000000E+00  0.12525391347E+03  0.20037618995E+04  0.19998432956E+04 0.  0.
        3    1    3    3  502    0  0.71794861895E+03  0.59282637702E+03 -0.30271054245E+03  0.97904392928E+03  0.10100000352E+00 0. -1.
       -3    1    3    3    0  502 -0.71794861895E+03 -0.59282637702E+03  0.42796445591E+03  0.10247179702E+04  0.10100000352E+00 0.  1.
</event>
<event>
 5   0  0.2386776E-06  0.2000100E+04  0.7818609E-02  0.8606574E-01
       -1   -1    0    0    0  501  0.00000000000E+00  0.00000000000E+00  0.85013942204E+03  0.85013942205E+03  0.50400001928E-02 0. -1.
        1   -1    0    0  501    0  0.00000000000E+00  0.00000000000E+00 -0.11763951340E+04  0.11763951340E+04  0.50400001928E-02 0.  1.
    10030    2    1    2    0    0  0.00000000000E+00  0.00000000000E+00 -0.32625571195E+03  0.20265345561E+04  0.20000998768E+04 0.  0.
        2    1    3    3  502    0  0.85182253393E+03  0.46057188668E+03 -0.41617207783E+03  0.10540053560E+04  0.25500000920E-02 0.  1.
       -2    1    3    3    0  502 -0.85182253393E+03 -0.46057188668E+03  0.89916365877E+02  0.97252920006E+03  0.25500000920E-02 0. -1.
</event>
<event>
 5   0  0.5030137E-06  0.1999507E+04  0.7818609E-02  0.8606851E-01
        2   -1    0    0  501    0  0.00000000000E+00  0.00000000000E+00  0.10403673070E+04  0.10403673070E+04  0.25500000920E-02 0.  1.
       -2   -1    0    0    0  501  0.00000000000E+00  0.00000000000E+00 -0.96072556578E+03  0.96072556578E+03  0.25500000920E-02 0. -1.
    10030    2    1    2    0    0  0.00000000000E+00  0.00000000000E+00  0.79641741235E+02  0.20010928728E+04  0.19995074090E+04 0.  0.
        3    1    3    3  502    0  0.27289084240E+03 -0.10597767620E+03 -0.91686952798E+03  0.96247099762E+03  0.10100000352E+00 0. -1.
       -3    1    3    3    0  502 -0.27289084240E+03  0.10597767620E+03  0.99651126922E+03  0.10386218752E+04  0.10100000352E+00 0.  1.
</event>
<event>
 5   0  0.2379743E-06  0.1998178E+04  0.7818609E-02  0.8607473E-01
        1   -1    0    0  501    0  0.00000000000E+00  0.00000000000E+00  0.10782179469E+04  0.10782179469E+04  0.50400001928E-02 0.  1.
       -1   -1    0    0    0  501  0.00000000000E+00  0.00000000000E+00 -0.92576675742E+03  0.92576675744E+03  0.50400001928E-02 0. -1.
    10030    2    1    2    0    0  0.00000000000E+00  0.00000000000E+00  0.15245118945E+03  0.20039847043E+04  0.19981775021E+04 0.  0.
        5    1    3    3  502    0  0.98091045463E+02  0.99299372496E+03  0.26101834439E+02  0.99817923579E+03  0.46999998093E+01 0. -1.
       -5    1    3    3    0  502 -0.98091045463E+02 -0.99299372496E+03  0.12634935501E+03  0.10058054685E+04  0.46999998093E+01 0.  1.
</event>
<event>
 5   0  0.5030137E-06  0.1999748E+04  0.7818609E-02  0.8606738E-01
       -2   -1    0    0    0  501  0.00000000000E+00  0.00000000000E+00  0.86708635146E+03  0.86708635147E+03  0.25500000920E-02 0.  1.
        2   -1    0    0  501    0  0.00000000000E+00  0.00000000000E+00 -0.11529974098E+04  0.11529974098E+04  0.25500000920E-02 0. -1.
    10030    2    1    2    0    0  0.00000000000E+00  0.00000000000E+00 -0.28591105833E+03  0.20200837613E+04  0.19997483015E+04 0.  0.
        3    1    3    3  502    0  0.48962017713E+03  0.76674833975E+03 -0.56204465770E+03  0.10693573499E+04  0.10100000352E+00 0. -1.
       -3    1    3    3    0  502 -0.48962017713E+03 -0.76674833975E+03  0.27613359937E+03  0.95072641136E+03  0.10100000352E+00 0.  1.
</event>
<event>
 5   0  0.2311520E-06  0.1999949E+04  0.7818609E-02  0.8606644E-01
        1   -1    0    0  501    0  0.00000000000E+00  0.00000000000E+00  0.14898290420E+04  0.14898290420E+04  0.50400001928E-02 0. -1.
       -1   -1    0    0    0  501  0.00000000000E+00  0.00000000000E+00 -0.67118396192E+03  0.67118396194E+03  0.50400001928E-02 0.  1.
    10030    2    1    2    0    0  0.00000000000E+00  0.00000000000E+00  0.81864508012E+03  0.21610130040E+04  0.19999493584E+04 0.  0.
        3    1    3    3  502    0 -0.31255136679E+03 -0.33233537837E+02 -0.61642030668E+03  0.69192978662E+03  0.10100000352E+00 0.  1.
       -3    1    3    3    0  502  0.31255136679E+03  0.33233537837E+02  0.14350653868E+04  0.14690832174E+04  0.10100000352E+00 0. -1.
</event>
<event>
 5   0  0.2379743E-06  0.2000206E+04  0.7818609E-02  0.8606524E-01
        1   -1    0    0  501    0  0.00000000000E+00  0.00000000000E+00  0.22009453813E+04  0.22009453813E+04  0.50400001928E-02 0.  1.
       -1   -1    0    0    0  501  0.00000000000E+00  0.00000000000E+00 -0.45444382091E+03  0.45444382093E+03  0.50400001928E-02 0. -1.
    10030    2    1    2    0    0  0.00000000000E+00  0.00000000000E+00  0.17465015604E+04  0.26553892023E+04  0.20002060181E+04 0.  0.
        5    1    3    3  502    0 -0.55014130443E+03  0.43743526612E+03 -0.71256831189E+02  0.70647341980E+03  0.46999998093E+01 0. -1.
       -5    1    3    3    0  502  0.55014130443E+03 -0.43743526612E+03  0.18177583916E+04  0.19489157825E+04  0.46999998093E+01 0.  1.
</event>
<event>
 5   0  0.5251252E-06  0.2000175E+04  0.7818609E-02  0.8606539E-01
        2   -1    0    0  501    0  0.00000000000E+00  0.00000000000E+00  0.10552555037E+04  0.10552555037E+04  0.25500000920E-02 0. -1.
       -2   -1    0    0    0  501  0.00000000000E+00  0.00000000000E+00 -0.94780380197E+03  0.94780380197E+03  0.25500000920E-02 0.  1.
    10030    2    1    2    0    0  0.00000000000E+00  0.00000000000E+00  0.10745170174E+03  0.20030593057E+04  0.20001751708E+04 0.  0.
        5    1    3    3  502    0  0.14888020780E+03 -0.84428521643E+03  0.56941521147E+03  0.10291931869E+04  0.46999998093E+01 0.  1.
       -5    1    3    3    0  502 -0.14888020780E+03  0.84428521643E+03 -0.46196350973E+03  0.97386611876E+03  0.46999998093E+01 0. -1.
</event>
<event>
 5   0  0.2311520E-06  0.1999536E+04  0.7818609E-02  0.8606838E-01
       -1   -1    0    0    0  501  0.00000000000E+00  0.00000000000E+00  0.44759262167E+03  0.44759262170E+03  0.50400001928E-02 0.  1.
        1   -1    0    0  501    0  0.00000000000E+00  0.00000000000E+00 -0.22331378853E+04  0.22331378853E+04  0.50400001928E-02 0. -1.
    10030    2    1    2    0    0  0.00000000000E+00  0.00000000000E+00 -0.17855452636E+04  0.26807305070E+04  0.19995359868E+04 0.  0.
        3    1    3    3  502    0  0.37074203205E+03  0.91626472696E+03 -0.10940765343E+04  0.14744470751E+04  0.10100000352E+00 0. -1.
       -3    1    3    3    0  502 -0.37074203205E+03 -0.91626472696E+03 -0.69146872932E+03  0.12062834319E+04  0.10100000352E+00 0.  1.
</event>
<event>
 5   0  0.2386776E-06  0.1998858E+04  0.7818609E-02  0.8607155E-01
        1   -1    0    0  501    0  0.00000000000E+00  0.00000000000E+00  0.15479324175E+04  0.15479324175E+04  0.50400001928E-02 0.  1.
       -1   -1    0    0    0  501  0.00000000000E+00  0.00000000000E+00 -0.64528579495E+03  0.64528579497E+03  0.50400001928E-02 0. -1.
    10030    2    1    2    0    0  0.00000000000E+00  0.00000000000E+00  0.90264662253E+03  0.21932182125E+04  0.19988584748E+04 0.  0.
        2    1    3    3  502    0  0.52008533420E+03  0.35526327965E+02  0.13869427517E+04  0.14816750897E+04  0.25500000920E-02 0.  1.
       -2    1    3    3    0  502 -0.52008533420E+03 -0.35526327965E+02 -0.48429612918E+03  0.71154312278E+03  0.25500000920E-02 0. -1.
</event>
<event>
 5   0  0.5129100E-06  0.1999328E+04  0.7818609E-02  0.8606935E-01
        2   -1    0    0  501    0  0.00000000000E+00  0.00000000000E+00  0.15486205123E+04  0.15486205123E+04  0.25500000920E-02 0.  1.
       -2   -1    0    0    0  501  0.00000000000E+00  0.00000000000E+00 -0.64530216460E+03  0.64530216461E+03  0.25500000920E-02 0. -1.
    10030    2    1    2    0    0  0.00000000000E+00  0.00000000000E+00  0.90331834769E+03  0.21939226769E+04  0.19993280559E+04 0.  0.
        2    1    3    3  502    0 -0.18964404223E+03 -0.74631070268E+03 -0.24786924927E+03  0.80893985712E+03  0.25500000920E-02 0. -1.
       -2    1    3    3    0  502  0.18964404223E+03  0.74631070268E+03  0.11511875970E+04  0.13849828198E+04  0.25500000920E-02 0.  1.
</event>
<event>
 5   0  0.5129100E-06  0.2000211E+04  0.7818609E-02  0.8606522E-01
       -2   -1    0    0    0  501  0.00000000000E+00  0.00000000000E+00  0.92489278432E+03  0.92489278433E+03  0.25500000920E-02 0.  1.
        2   -1    0    0  501    0  0.00000000000E+00  0.00000000000E+00 -0.10814342145E+04  0.10814342145E+04  0.25500000920E-02 0. -1.
    10030    2    1    2    0    0  0.00000000000E+00  0.00000000000E+00 -0.15654143020E+03  0.20063269988E+04  0.20002106906E+04 0.  0.
        2    1    3    3  502    0 -0.12322998302E+03  0.94454560147E+03 -0.38392974162E+03  0.10270122046E+04  0.25500000920E-02 0. -1.
       -2    1    3    3    0  502  0.12322998302E+03 -0.94454560147E+03  0.22738831142E+03  0.97931479421E+03  0.25500000920E-02 0.  1.
</event>
<event>
 5   0  0.5118981E-06  0.1999577E+04  0.7818609E-02  0.8606819E-01
       -2   -1    0    0    0  501  0.00000000000E+00  0.00000000000E+00  0.49009658397E+03  0.49009658398E+03  0.25500000920E-02 0. -1.
        2   -1    0    0  501    0  0.00000000000E+00  0.00000000000E+00 -0.20395506962E+04  0.20395506962E+04  0.25500000920E-02 0.  1.
    10030    2    1    2    0    0  0.00000000000E+00  0.00000000000E+00 -0.15494541122E+04  0.25296472801E+04  0.19995767843E+04 0.  0.
        4    1    3    3  502    0 -0.50680943926E+03 -0.70197127631E+03 -0.14223738534E+03  0.87741242707E+03  0.12699999809E+01 0.  1.
       -4    1    3    3    0  502  0.50680943926E+03  0.70197127631E+03 -0.14072167268E+04  0.16522348531E+04  0.12699999809E+01 0. -1.
</event>
<event>
 5   0  0.4956214E-06  0.2000855E+04  0.7818609E-02  0.8606221E-01
       -2   -1    0    0    0  501  0.00000000000E+00  0.00000000000E+00  0.14147208098E+04  0.14147208098E+04  0.25500000920E-02 0.  1.
        2   -1    0    0  501    0  0.00000000000E+00  0.00000000000E+00 -0.70745738735E+03  0.70745738735E+03  0.25500000920E-02 0. -1.
    10030    2    1    2    0    0  0.00000000000E+00  0.00000000000E+00  0.70726342244E+03  0.21221781971E+04  0.20008545054E+04 0.  0.
        1    1    3    3  502    0  0.38179045378E+03 -0.92239638417E+03  0.42298503814E+03  0.10842026483E+04  0.50400001928E-02 0. -1.
       -1    1    3    3    0  502 -0.38179045378E+03  0.92239638417E+03  0.28427838430E+03  0.10379755488E+04  0.50400001928E-02 0.  1.
</event>
<event>
 5   0  0.2386776E-06  0.1999777E+04  0.7818609E-02  0.8606725E-01
        1   -1    0    0  501    0  0.00000000000E+00  0.00000000000E+00  0.23521217556E+04  0.23521217556E+04  0.50400001928E-02 0.  1.
       -1   -1    0    0    0  501  0.00000000000E+00  0.00000000000E+00 -0.42505307084E+03  0.42505307087E+03  0.50400001928E-02 0. -1.
    10030    2    1    2    0    0  0.00000000000E+00  0.00000000000E+00  0.19270686847E+04  0.27771748265E+04  0.19997765628E+04 0.  0.
        2    1    3    3  502    0  0.24813962779E+03  0.96219882767E+03  0.80903577195E+03  0.12813815744E+04  0.25500000920E-02 0.  1.
       -2    1    3    3    0  502 -0.24813962779E+03 -0.96219882767E+03  0.11180329128E+04  0.14957932521E+04  0.25500000920E-02 0. -1.
</event>
<event>
 5   0  0.5118981E-06  0.2000313E+04  0.7818609E-02  0.8606474E-01
        2   -1    0    0  501    0  0.00000000000E+00  0.00000000000E+00  0.88390851929E+03  0.88390851930E+03  0.25500000920E-02 0.  1.
       -2   -1    0    0    0  501  0.00000000000E+00  0.00000000000E+00 -0.11316930273E+04  0.11316930273E+04  0.25500000920E-02 0. -1.
    10030    2    1    2    0    0  0.00000000000E+00  0.00000000000E+00 -0.24778450796E+03  0.20156015466E+04  0.20003130835E+04 0.  0.
        4    1    3    3  502    0 -0.62087377964E+03  0.56288121318E+03  0.42616639616E+03  0.94018025959E+03  0.12699999809E+01 0.  1.
       -4    1    3    3    0  502  0.62087377964E+03 -0.56288121318E+03 -0.67395090412E+03  0.10754212870E+04  0.12699999809E+01 0. -1.
</event>
<event>
 5   0  0.5030137E-06  0.1999807E+04  0.7818609E-02  0.8606711E-01
       -2   -1    0    0    0  501  0.00000000000E+00  0.00000000000E+00  0.10324841021E+04  0.10324841021E+04  0.25500000920E-02 0.  1.
        2   -1    0    0  501    0  0.00000000000E+00  0.00000000000E+00 -0.96835117918E+03  0.96835117918E+03  0.25500000920E-02 0. -1.
    10030    2    1    2    0    0  0.00000000000E+00  0.00000000000E+00  0.64132922945E+02  0.20008352813E+04  0.19998071885E+04 0.  0.
        3    1    3    3  502    0 -0.57619072851E+00 -0.10590167671E+03  0.10268570996E+04  0.10323037394E+04  0.10100000352E+00 0.  1.
       -3    1    3    3    0  502  0.57619072851E+00  0.10590167671E+03 -0.96272417667E+03  0.96853154191E+03  0.10100000352E+00 0. -1.
</event>
<event>
 5   0  0.1777750E-06  0.2000819E+04  0.7818609E-02  0.8606238E-01
       -3   -1    0    0    0  501  0.00000000000E+00  0.00000000000E+00  0.17068359273E+04  0.17068359302E+04  0.10100000352E+00 0. -1.
        3   -1    0    0  501    0  0.00000000000E+00  0.00000000000E+00 -0.58635917875E+03  0.58635918745E+03  0.10100000352E+00 0.  1.
    10030    2    1    2    0    0  0.00000000000E+00  0.00000000000E+00  0.11204767485E+04  0.22931951177E+04  0.20008187584E+04 0.  0.
        5    1    3    3  502    0 -0.30919140548E+03  0.46446833959E+03 -0.39143933476E+03  0.68159886040E+03  0.46999998093E+01 0.  1.
       -5    1    3    3    0  502  0.30919140548E+03 -0.46446833959E+03  0.15119160833E+04  0.16115962573E+04  0.46999998093E+01 0. -1.
</event>
<event>
 5   0  0.2311520E-06  0.1999673E+04  0.7818609E-02  0.8606774E-01
        1   -1    0    0  501    0  0.00000000000E+00  0.00000000000E+00  0.11559244012E+04  0.11559244012E+04  0.50400001928E-02 0.  1.
       -1   -1    0    0    0  501  0.00000000000E+00  0.00000000000E+00 -0.86482549886E+03  0.86482549888E+03  0.50400001928E-02 0. -1.
    10030    2    1    2    0    0  0.00000000000E+00  0.00000000000E+00  0.29109890236E+03  0.20207499001E+04  0.19996728702E+04 0.  0.
        3    1    3    3  502    0 -0.61843254519E+03 -0.49978229484E+03  0.75810001115E+03  0.10986158529E+04  0.10100000352E+00 0.  1.
       -3    1    3    3    0  502  0.61843254519E+03  0.49978229484E+03 -0.46700110879E+03  0.92213404719E+03  0.10100000352E+00 0. -1.
</event>
<event>
 5   0  0.5251252E-06  0.2000113E+04  0.7818609E-02  0.8606568E-01
        2   -1    0    0  501    0  0.00000000000E+00  0.00000000000E+00  0.13195106299E+04  0.13195106299E+04  0.25500000920E-02 0. -1.
       -2   -1    0    0    0  501  0.00000000000E+00  0.00000000000E+00 -0.75794214673E+03  0.75794214673E+03  0.25500000920E-02 0.  1.
    10030    2    1    2    0    0  0.00000000000E+00  0.00000000000E+00  0.56156848317E+03  0.20774527766E+04  0.20001127163E+04 0.  0.
        5    1    3    3  502    0 -0.37258834919E+03 -0.37857645230E+03 -0.59929810953E+03  0.80082614984E+03  0.46999998093E+01 0.  1.
       -5    1    3    3    0  502  0.37258834919E+03  0.37857645230E+03  0.11608665927E+04  0.12766266268E+04  0.46999998093E+01 0. -1.
</event>
<event>
 5   0  0.2356996E-06  0.2002676E+04  0.7818609E-02  0.8605370E-01
        1   -1    0    0  501    0  0.00000000000E+00  0.00000000000E+00  0.18239209620E+04  0.18239209620E+04  0.50400001928E-02 0. -1.
       -1   -1    0    0    0  501  0.00000000000E+00  0.00000000000E+00 -0.54973771328E+03  0.54973771331E+03  0.50400001928E-02 0.  1.
    10030    2    1    2    0    0  0.00000000000E+00  0.00000000000E+00  0.12741832487E+04  0.23736586753E+04  0.20026763482E+04 0.  0.
        4    1    3    3  502    0 -0.34238869036E+03  0.23142278704E+01  0.17523804531E+04  0.17855179182E+04  0.12699999809E+01 0. -1.
       -4    1    3    3    0  502  0.34238869036E+03 -0.23142278704E+01 -0.47819720441E+03  0.58814075708E+03  0.12699999809E+01 0.  1.
</event>
<event>
 5   0  0.4956214E-06  0.2000555E+04  0.7818609E-02  0.8606361E-01
       -2   -1    0    0    0  501  0.00000000000E+00  0.00000000000E+00  0.51465462795E+03  0.51465462796E+03  0.25500000920E-02 0.  1.
        2   -1    0    0  501    0  0.00000000000E+00  0.00000000000E+00 -0.19441297322E+04  0.19441297322E+04  0.25500000920E-02 0. -1.
    10030    2    1    2    0    0  0.00000000000E+00  0.00000000000E+00 -0.14294751042E+04  0.24587843602E+04  0.20005552869E+04 0.  0.
        1    1    3    3  502    0  0.84960285560E+03  0.41347072456E+03 -0.31125618539E+03  0.99481830767E+03  0.50400001928E-02 0. -1.
       -1    1    3    3    0  502 -0.84960285560E+03 -0.41347072456E+03 -0.11182189189E+04  0.14639660525E+04  0.50400001928E-02 0.  1.
</event>
<event>
 5   0  0.5129100E-06  0.1999174E+04  0.7818609E-02  0.8607007E-01
        2   -1    0    0  501    0  0.00000000000E+00  0.00000000000E+00  0.13970972890E+04  0.13970972890E+04  0.25500000920E-02 0.  1.
       -2   -1    0    0    0  501  0.00000000000E+00  0.00000000000E+00 -0.71517891001E+03  0.71517891002E+03  0.25500000920E-02 0. -1.
    10030    2    1    2    0    0  0.00000000000E+00  0.00000000000E+00  0.68191837898E+03  0.21122761990E+04  0.19991743459E+04 0.  0.
        2    1    3    3  502    0 -0.18728730573E+03 -0.17748113366E+03  0.13613049750E+04  0.13855422486E+04  0.25500000920E-02 0.  1.
       -2    1    3    3    0  502  0.18728730573E+03  0.17748113366E+03 -0.67938659607E+03  0.72673395036E+03  0.25500000920E-02 0. -1.
</event>
<event>
 5   0  0.2379743E-06  0.1999575E+04  0.7818609E-02  0.8606819E-01
        1   -1    0    0  501    0  0.00000000000E+00  0.00000000000E+00  0.17736768049E+04  0.17736768049E+04  0.50400001928E-02 0. -1.
       -1   -1    0    0    0  501  0.00000000000E+00  0.00000000000E+00 -0.56356114132E+03  0.56356114134E+03  0.50400001928E-02 0.  1.
    10030    2    1    2    0    0  0.00000000000E+00  0.00000000000E+00  0.12101156635E+04  0.23372379462E+04  0.19995752794E+04 0.  0.
        5    1    3    3  502    0 -0.96316644639E+03  0.25911511030E+03  0.68538708206E+03  0.12102098108E+04  0.46999998093E+01 0. -1.
       -5    1    3    3    0  502  0.96316644639E+03 -0.25911511030E+03  0.52472858147E+03  0.11270281354E+04  0.46999998093E+01 0.  1.
</event>
<event>
 5   0  0.5118981E-06  0.1998681E+04  0.7818609E-02  0.8607238E-01
        2   -1    0    0  501    0  0.00000000000E+00  0.00000000000E+00  0.19533881754E+04  0.19533881754E+04  0.25500000920E-02 0. -1.
       -2   -1    0    0    0  501  0.00000000000E+00  0.00000000000E+00 -0.51125609228E+03  0.51125609229E+03  0.25500000920E-02 0.  1.
    10030    2    1    2    0    0  0.00000000000E+00  0.00000000000E+00  0.14421320831E+04  0.24646442677E+04  0.19986811704E+04 0.  0.
        4    1    3    3  502    0  0.58517718028E+03  0.72171981317E+03  0.26736580610E+03  0.96684947547E+03  0.12699999809E+01 0.  1.
       -4    1    3    3    0  502 -0.58517718028E+03 -0.72171981317E+03  0.11747662770E+04  0.14977947922E+04  0.12699999809E+01 0. -1.
</event>
<event>
 5   0  0.5251252E-06  0.2001679E+04  0.7818609E-02  0.8605836E-01
       -2   -1    0    0    0  501  0.00000000000E+00  0.00000000000E+00  0.64659581553E+03  0.64659581554E+03  0.25500000920E-02 0.  1.
        2   -1    0    0  501    0  0.00000000000E+00  0.00000000000E+00 -0.15491585364E+04  0.15491585365E+04  0.25500000920E-02 0. -1.
    10030    2    1    2    0    0  0.00000000000E+00  0.00000000000E+00 -0.90256272092E+03  0.21957543520E+04  0.20016787227E+04 0.  0.
        5    1    3    3  502    0  0.63978255676E+02 -0.97397919368E+03 -0.69392616549E+03  0.11976160904E+04  0.46999998093E+01 0. -1.
       -5    1    3    3    0  502 -0.63978255676E+02  0.97397919368E+03 -0.20863655542E+03  0.99813826155E+03  0.46999998093E+01 0.  1.
</event>
<event>
 5   0  0.2356996E-06  0.1999805E+04  0.7818609E-02  0.8606712E-01
       -1   -1    0    0    0  501  0.00000000000E+00  0.00000000000E+00  0.53023893448E+03  0.53023893450E+03  0.50400001928E-02 0. -1.
        1   -1    0    0  501    0  0.00000000000E+00  0.00000000000E+00 -0.18855749759E+04  0.18855749759E+04  0.50400001928E-02 0.  1.
    10030    2    1    2    0    0  0.00000000000E+00  0.00000000000E+00 -0.13553360414E+04  0.24158139104E+04  0.19998052566E+04 0.  0.
        4    1    3    3  502    0  0.58553030852E+03 -0.61698711612E+03 -0.13126395834E+04  0.15641429387E+04  0.12699999809E+01 0.  1.
       -4    1    3    3    0  502 -0.58553030852E+03  0.61698711612E+03 -0.42696457965E+02  0.85167097173E+03  0.12699999809E+01 0. -1.
</event>
<event>
 5   0  0.5030137E-06  0.1999870E+04  0.7818609E-02  0.8606682E-01
        2   -1    0    0  501    0  0.00000000000E+00  0.00000000000E+00  0.15351460084E+04  0.15351460084E+04  0.25500000920E-02 0. -1.
       -2   -1    0    0    0  501  0.00000000000E+00  0.00000000000E+00 -0.65131907374E+03  0.65131907375E+03  0.25500000920E-02 0.  1.
    10030    2    1    2    0    0  0.00000000000E+00  0.00000000000E+00  0.88382693463E+03  0.21864650821E+04  0.19998698720E+04 0.  0.
        3    1    3    3  502    0 -0.14795116163E+03 -0.49979851696E+03  0.13748684898E+04  0.14703576022E+04  0.10100000352E+00 0. -1.
       -3    1    3    3    0  502  0.14795116163E+03  0.49979851696E+03 -0.49104155516E+03  0.71610747998E+03  0.10100000352E+00 0.  1.
</event>
<event>
 5   0  0.1777750E-06  0.2000174E+04  0.7818609E-02  0.8606539E-01
        3   -1    0    0  501    0  0.00000000000E+00  0.00000000000E+00  0.63155292147E+03  0.63155292955E+03  0.10100000352E+00 0. -1.
       -3   -1    0    0    0  501  0.00000000000E+00  0.00000000000E+00 -0.15836741891E+04  0.15836741924E+04  0.10100000352E+00 0.  1.
    10030    2    1    2    0    0  0.00000000000E+00  0.00000000000E+00 -0.95212126767E+03  0.22152271219E+04  0.20001740657E+04 0.  0.
        2    1    3    3  502    0 -0.25303257809E+03 -0.77098330337E+03  0.17137133434E+03  0.82934243463E+03  0.25500000920E-02 0. -1.
       -2    1    3    3    0  502  0.25303257809E+03  0.77098330337E+03 -0.11234926020E+04  0.13858846873E+04  0.25500000920E-02 0.  1.
</event>
<event>
 5   0  0.2311520E-06  0.2000636E+04  0.7818609E-02  0.8606323E-01
       -1   -1    0    0    0  501  0.00000000000E+00  0.00000000000E+00  0.13164978946E+04  0.13164978947E+04  0.50400001928E-02 0.  1.
        1   -1    0    0  501    0  0.00000000000E+00  0.00000000000E+00 -0.76007456079E+03  0.76007456081E+03  0.50400001928E-02 0. -1.
    10030    2    1    2    0    0  0.00000000000E+00  0.00000000000E+00  0.55642333385E+03  0.20765724555E+04  0.20006364578E+04 0.  0.
        3    1    3    3  502    0  0.61983702721E+03  0.61759787542E+02  0.10906231122E+04  0.12559741219E+04  0.10100000352E+00 0.  1.
       -3    1    3    3    0  502 -0.61983702721E+03 -0.61759787542E+02 -0.53419977840E+03  0.82059833359E+03  0.10100000352E+00 0. -1.
</event>
<event>
 5   0  0.2311520E-06  0.1999136E+04  0.7818609E-02  0.8607025E-01
       -1   -1    0    0    0  501  0.00000000000E+00  0.00000000000E+00  0.85418149918E+03  0.85418149919E+03  0.50400001928E-02 0.  1.
        1   -1    0    0  501    0  0.00000000000E+00  0.00000000000E+00 -0.11696999050E+04  0.11696999050E+04  0.50400001928E-02 0. -1.
    10030    2    1    2    0    0  0.00000000000E+00  0.00000000000E+00 -0.31551840584E+03  0.20238814042E+04  0.19991358318E+04 0.  0.
        3    1    3    3  502    0 -0.69208332132E+03 -0.70785007785E+03 -0.17827625051E+02  0.99012569443E+03  0.10100000352E+00 0.  1.
       -3    1    3    3    0  502  0.69208332132E+03  0.70785007785E+03 -0.29769078079E+03  0.10337557098E+04  0.10100000352E+00 0. -1.
</event>
<event>
 5   0  0.2313821E-06  0.2000519E+04  0.7818609E-02  0.8606378E-01
        1   -1    0    0  501    0  0.00000000000E+00  0.00000000000E+00  0.19660369560E+04  0.19660369560E+04  0.50400001928E-02 0.  1.
       -1   -1    0    0    0  501  0.00000000000E+00  0.00000000000E+00 -0.50890140328E+03  0.50890140330E+03  0.50400001928E-02 0. -1.
    10030    2    1    2    0    0  0.00000000000E+00  0.00000000000E+00  0.14571355527E+04  0.24749383593E+04  0.20005188985E+04 0.  0.
        1    1    3    3  502    0 -0.67627849829E+03  0.20107868352E+03  0.16057518482E+04  0.17539168288E+04  0.50400001928E-02 0.  1.
       -1    1    3    3    0  502  0.67627849829E+03 -0.20107868352E+03 -0.14861629546E+03  0.72102153055E+03  0.50400001928E-02 0. -1.
</event>
<event>
 5   0  0.5030137E-06  0.1998666E+04  0.7818609E-02  0.8607245E-01
       -2   -1    0    0    0  501  0.00000000000E+00  0.00000000000E+00  0.10422651693E+04  0.10422651693E+04  0.25500000920E-02 0. -1.
        2   -1    0    0  501    0  0.00000000000E+00  0.00000000000E+00 -0.95816925464E+03  0.95816925465E+03  0.25500000920E-02 0.  1.
    10030    2    1    2    0    0  0.00000000000E+00  0.00000000000E+00  0.84095914691E+02  0.20004344240E+04  0.19986659956E+04 0.  0.
        3    1    3    3  502    0 -0.72750337609E+03  0.48237152564E+03  0.52902030940E+03  0.10206889580E+04  0.10100000352E+00 0. -1.
       -3    1    3    3    0  502  0.72750337609E+03 -0.48237152564E+03 -0.44492439471E+03  0.97974546601E+03  0.10100000352E+00 0.  1.
</event>
<event>
 5   0  0.1777750E-06  0.1997447E+04  0.7818609E-02  0.8607815E-01
        3   -1    0    0  501    0  0.00000000000E+00  0.00000000000E+00  0.10259656039E+04  0.10259656089E+04  0.10100000352E+00 0.  1.
       -3   -1    0    0    0  501  0.00000000000E+00  0.00000000000E+00 -0.97220516447E+03  0.97220516972E+03  0.10100000352E+00 0. -1.
    10030    2    1    2    0    0  0.00000000000E+00  0.00000000000E+00  0.53760439432E+02  0.19981707786E+04  0.19974474400E+04 0.  0.
        3    1    3    3  502    0  0.54481306192E+03  0.76363567370E+03 -0.31600963428E+03  0.98985999704E+03  0.10100000352E+00 0. -1.
       -3    1    3    3    0  502 -0.54481306192E+03 -0.76363567370E+03  0.36977007371E+03  0.10083107816E+04  0.10100000352E+00 0.  1.
</event>
<event>
 5   0  0.5030137E-06  0.2000275E+04  0.7818609E-02  0.8606492E-01
        2   -1    0    0  501    0  0.00000000000E+00  0.00000000000E+00  0.84248098485E+03  0.84248098485E+03  0.25500000920E-02 0.  1.
       -2   -1    0    0    0  501  0.00000000000E+00  0.00000000000E+00 -0.11872967246E+04  0.11872967246E+04  0.25500000920E-02 0. -1.
    10030    2    1    2    0    0  0.00000000000E+00  0.00000000000E+00 -0.34481573978E+03  0.20297777095E+04  0.20002748950E+04 0.  0.
        3    1    3    3  502    0  0.66501453384E+03 -0.61596520131E+03  0.25645725406E+03  0.94203385969E+03  0.10100000352E+00 0.  1.
       -3    1    3    3    0  502 -0.66501453384E+03  0.61596520131E+03 -0.60127299384E+03  0.10877438498E+04  0.10100000352E+00 0. -1.
</event>
<event>
 5   0  0.5251252E-06  0.1999862E+04  0.7818609E-02  0.8606685E-01
       -2   -1    0    0    0  501  0.00000000000E+00  0.00000000000E+00  0.37690359735E+03  0.37690359736E+03  0.25500000920E-02 0.  1.
        2   -1    0    0  501    0  0.00000000000E+00  0.00000000000E+00 -0.26528310064E+04  0.26528310064E+04  0.25500000920E-02 0. -1.
    10030    2    1    2    0    0  0.00000000000E+00  0.00000000000E+00 -0.22759274091E+04  0.30297346038E+04  0.19998615447E+04 0.  0.
        5    1    3    3  502    0  0.32082543882E+03  0.62436153529E+03 -0.22167719479E+04  0.23252647694E+04  0.46999998093E+01 0. -1.
       -5    1    3    3    0  502 -0.32082543882E+03 -0.62436153529E+03 -0.59155461185E+02  0.70446983437E+03  0.46999998093E+01 0.  1.
</event>
<event>
 5   0  0.2356996E-06  0.1999945E+04  0.7818609E-02  0.8606646E-01
       -1   -1    0    0    0  501  0.00000000000E+00  0.00000000000E+00  0.10328244550E+04  0.10328244550E+04  0.50400001928E-02 0. -1.
        1   -1    0    0  501    0  0.00000000000E+00  0.00000000000E+00 -0.96816543487E+03  0.96816543488E+03  0.50400001928E-02 0.  1.
    10030    2    1    2    0    0  0.00000000000E+00  0.00000000000E+00  0.64659020122E+02  0.20009898899E+04  0.19999449369E+04 0.  0.
        4    1    3    3  502    0 -0.56988480670E+02 -0.10308662862E+02 -0.96648531716E+03  0.96821972539E+03  0.12699999809E+01 0.  1.
       -4    1    3    3    0  502  0.56988480670E+02  0.10308662862E+02  0.10311443373E+04  0.10327701645E+04  0.12699999809E+01 0. -1.
</event>
<event>
 5   0  0.2313821E-06  0.2000349E+04  0.7818609E-02  0.8606458E-01
        1   -1    0    0  501    0  0.00000000000E+00  0.00000000000E+00  0.17156976281E+04  0.17156976281E+04  0.50400001928E-02 0.  1.
       -1   -1    0    0    0  501  0.00000000000E+00  0.00000000000E+00 -0.58305662735E+03  0.58305662737E+03  0.50400001928E-02 0. -1.
    10030    2    1    2    0    0  0.00000000000E+00  0.00000000000E+00  0.11326410008E+04  0.22987542555E+04  0.20003488422E+04 0.  0.
        1    1    3    3  502    0 -0.35863236660E+03 -0.38787407688E+03 -0.40965828446E+03  0.66849336866E+03  0.50400001928E-02 0. -1.
       -1    1    3    3    0  502  0.35863236660E+03  0.38787407688E+03  0.15422992852E+04  0.16302608868E+04  0.50400001928E-02 0.  1.
</event>
<event>
 5   0  0.5129100E-06  0.2000484E+04  0.7818609E-02  0.8606394E-01
       -2   -1    0    0    0  501  0.00000000000E+00  0.00000000000E+00  0.21843681926E+04  0.21843681926E+04  0.25500000920E-02 0. -1.
        2   -1    0    0  501    0  0.00000000000E+00  0.00000000000E+00 -0.45801980529E+03  0.45801980529E+03  0.25500000920E-02 0.  1.
    10030    2    1    2    0    0  0.00000000000E+00  0.00000000000E+00  0.17263483874E+04  0.26423879979E+04  0.20004838358E+04 0.  0.
        2    1    3    3  502    0  0.89882631284E+02  0.53567067598E+03 -0.24625179143E+03  0.59637396430E+03  0.25500000920E-02 0.  1.
       -2    1    3    3    0  502 -0.89882631284E+02 -0.53567067598E+03  0.19726001788E+04  0.20460140336E+04  0.25500000920E-02 0. -1.
</event>
<event>
 5   0  0.5030137E-06  0.1999927E+04  0.7818609E-02  0.8606655E-01
       -2   -1    0    0    0  501  0.00000000000E+00  0.00000000000E+00  0.89049025530E+03  0.89049025530E+03  0.25500000920E-02 0.  1.
        2   -1    0    0  501    0  0.00000000000E+00  0.00000000000E+00 -0.11228949475E+04  0.11228949475E+04  0.25500000920E-02 0. -1.
    10030    2    1    2    0    0  0.00000000000E+00  0.00000000000E+00 -0.23240469218E+03  0.20133852028E+04  0.19999270071E+04 0.  0.
        3    1    3    3  502    0 -0.63239317238E+03  0.61593653141E+03 -0.58907380642E+03  0.10612760691E+04  0.10100000352E+00 0. -1.
       -3    1    3    3    0  502  0.63239317238E+03 -0.61593653141E+03  0.35666911425E+03  0.95210913369E+03  0.10100000352E+00 0.  1.
</event>
<event>
 5   0  0.2313821E-06  0.1999458E+04  0.7818609E-02  0.8606874E-01
       -1   -1    0    0    0  501  0.00000000000E+00  0.00000000000E+00  0.73930095911E+03  0.73930095913E+03  0.50400001928E-02 0. -1.
        1   -1    0    0  501    0  0.00000000000E+00  0.00000000000E+00 -0.13518965416E+04  0.13518965416E+04  0.50400001928E-02 0.  1.
    10030    2    1    2    0    0  0.00000000000E+00  0.00000000000E+00 -0.61259558250E+03  0.20911975008E+04  0.19994583365E+04 0.  0.
        1    1    3    3  502    0 -0.56183040547E+03  0.22620147134E+02 -0.11708401651E+04  0.12988578705E+04  0.50400001928E-02 0.  1.
       -1    1    3    3    0  502  0.56183040547E+03 -0.22620147134E+02  0.55824458262E+03  0.79233963022E+03  0.50400001928E-02 0. -1.
</event>
<event>
 5   0  0.5251252E-06  0.1999556E+04  0.7818609E-02  0.8606828E-01
        2   -1    0    0  501    0  0.00000000000E+00  0.00000000000E+00  0.77152032090E+03  0.77152032090E+03  0.25500000920E-02 0.  1.
       -2   -1    0    0    0  501  0.00000000000E+00  0.00000000000E+00 -0.12955663701E+04  0.12955663701E+04  0.25500000920E-02 0. -1.
    10030    2    1    2    0    0  0.00000000000E+00  0.00000000000E+00 -0.52404604923E+03  0.20670866910E+04  0.19995557323E+04 0.  0.
        5    1    3    3  502    0  0.83256232578E+03 -0.42018081001E+03  0.11045350355E+03  0.93911341480E+03  0.46999998093E+01 0.  1.
       -5    1    3    3    0  502 -0.83256232578E+03  0.42018081001E+03 -0.63449955278E+03  0.11279732762E+04  0.46999998093E+01 0. -1.
</event>
<event>
 5   0  0.2313821E-06  0.2001028E+04  0.7818609E-02  0.8606140E-01
       -1   -1    0    0    0  501  0.00000000000E+00  0.00000000000E+00  0.73942919083E+03  0.73942919085E+03  0.50400001928E-02 0. -1.
        1   -1    0    0  501    0  0.00000000000E+00  0.00000000000E+00 -0.13537857202E+04  0.13537857202E+04  0.50400001928E-02 0.  1.
    10030    2    1    2    0    0  0.00000000000E+00  0.00000000000E+00 -0.61435652938E+03  0.20932149111E+04  0.20010284153E+04 0.  0.
        1    1    3    3  502    0 -0.10380723276E+03 -0.20141051983E+03 -0.13265925273E+04  0.13458045447E+04  0.50400001928E-02 0.  1.
       -1    1    3    3    0  502  0.10380723276E+03  0.20141051983E+03  0.71223599788E+03  0.74741036638E+03  0.50400001928E-02 0. -1.
</event>
<event>
 5   0  0.2379743E-06  0.2000050E+04  0.7818609E-02  0.8606597E-01
        1   -1    0    0  501    0  0.00000000000E+00  0.00000000000E+00  0.26660948053E+04  0.26660948053E+04  0.50400001928E-02 0. -1.
       -1   -1    0    0    0  501  0.00000000000E+00  0.00000000000E+00 -0.37509927431E+03  0.37509927435E+03  0.50400001928E-02 0.  1.
    10030    2    1    2    0    0  0.00000000000E+00  0.00000000000E+00  0.22909955310E+04  0.30411940797E+04  0.20000502261E+04 0.  0.
        5    1    3    3  502    0 -0.66965849313E+03 -0.22743179185E+03  0.22205451551E+04  0.23304528730E+04  0.46999998093E+01 0. -1.
       -5    1    3    3    0  502  0.66965849313E+03  0.22743179185E+03  0.70450375860E+02  0.71074120664E+03  0.46999998093E+01 0.  1.
</event>
<event>
 5   0  0.5129100E-06  0.2000189E+04  0.7818609E-02  0.8606532E-01
        2   -1    0    0  501    0  0.00000000000E+00  0.00000000000E+00  0.94133789598E+03  0.94133789598E+03  0.25500000920E-02 0.  1.
       -2   -1    0    0    0  501  0.00000000000E+00  0.00000000000E+00 -0.10625188902E+04  0.10625188902E+04  0.25500000920E-02 0. -1.
    10030    2    1    2    0    0  0.00000000000E+00  0.00000000000E+00 -0.12118099425E+03  0.20038567862E+04  0.20001892876E+04 0.  0.
        2    1    3    3  502    0 -0.55983532702E+03 -0.63558043629E+02 -0.88838277961E+03  0.10519882040E+04  0.25500000920E-02 0. -1.
       -2    1    3    3    0  502  0.55983532702E+03  0.63558043629E+02  0.76720178536E+03  0.95186858219E+03  0.25500000920E-02 0.  1.
</event>
<event>
 5   0  0.2313821E-06  0.2001324E+04  0.7818609E-02  0.8606002E-01
        1   -1    0    0  501    0  0.00000000000E+00  0.00000000000E+00  0.97058254701E+03  0.97058254702E+03  0.50400001928E-02 0. -1.
       -1   -1    0    0    0  501  0.00000000000E+00  0.00000000000E+00 -0.10316739777E+04  0.10316739777E+04  0.50400001928E-02 0.  1.
    10030    2    1    2    0    0  0.00000000000E+00  0.00000000000E+00 -0.61091430699E+02  0.20022565247E+04  0.20013243185E+04 0.  0.
        1    1    3    3  502    0 -0.32841988864E+03 -0.11012660992E+03  0.90868721589E+03  0.97247105345E+03  0.50400001928E-02 0. -1.
       -1    1    3    3    0  502  0.32841988864E+03  0.11012660992E+03 -0.96977864659E+03  0.10297854713E+04  0.50400001928E-02 0.  1.
</event>
<event>
 5   0  0.2386776E-06  0.1999828E+04  0.7818609E-02  0.8606701E-01
       -1   -1    0    0    0  501  0.00000000000E+00  0.00000000000E+00  0.83387309811E+03  0.83387309813E+03  0.50400001928E-02 0.  1.
        1   -1    0    0  501    0  0.00000000000E+00  0.00000000000E+00 -0.11990166929E+04  0.11990166929E+04  0.50400001928E-02 0. -1.
    10030    2    1    2    0    0  0.00000000000E+00  0.00000000000E+00 -0.36514359478E+03  0.20328897910E+04  0.19998277570E+04 0.  0.
        2    1    3    3  502    0  0.88695770332E+03  0.38143770504E+03 -0.44694660576E+03  0.10639313694E+04  0.25500000920E-02 0. -1.
       -2    1    3    3    0  502 -0.88695770332E+03 -0.38143770504E+03  0.81803010982E+02  0.96895842167E+03  0.25500000920E-02 0.  1.
</event>
<event>
 5   0  0.5251252E-06  0.2000611E+04  0.7818609E-02  0.8606335E-01
        2   -1    0    0  501    0  0.00000000000E+00  0.00000000000E+00  0.11174266931E+04  0.11174266931E+04  0.25500000920E-02 0.  1.
       -2   -1    0    0    0  501  0.00000000000E+00  0.00000000000E+00 -0.89546037328E+03  0.89546037328E+03  0.25500000920E-02 0. -1.
    10030    2    1    2    0    0  0.00000000000E+00  0.00000000000E+00  0.22196631987E+03  0.20128870664E+04  0.20006112304E+04 0.  0.
        5    1    3    3  502    0 -0.94369464099E+02 -0.25469850358E+03  0.10796013126E+04  0.11132555895E+04  0.46999998093E+01 0.  1.
       -5    1    3    3    0  502  0.94369464099E+02  0.25469850358E+03 -0.85763499272E+03  0.89963147689E+03  0.46999998093E+01 0. -1.
</event>
<event>
 5   0  0.5118981E-06  0.2000173E+04  0.7818609E-02  0.8606540E-01
        2   -1    0    0  501    0  0.00000000000E+00  0.00000000000E+00  0.27401128750E+04  0.27401128750E+04  0.25500000920E-02 0.  1.
       -2   -1    0    0    0  501  0.00000000000E+00  0.00000000000E+00 -0.36501155083E+03  0.36501155084E+03  0.25500000920E-02 0. -1.
    10030    2    1    2    0    0  0.00000000000E+00  0.00000000000E+00  0.23751013242E+04  0.31051244259E+04  0.20001728425E+04 0.  0.
        4    1    3    3  502    0  0.81025244517E+02 -0.19502592689E+03 -0.32999920032E+03  0.39179240360E+03  0.12699999809E+01 0. -1.
       -4    1    3    3    0  502 -0.81025244517E+02  0.19502592689E+03  0.27051005245E+04  0.27133320223E+04  0.12699999809E+01 0.  1.
</event>
<event>
 5   0  0.2386776E-06  0.2000139E+04  0.7818609E-02  0.8606555E-01
       -1   -1    0    0    0  501  0.00000000000E+00  0.00000000000E+00  0.13020212192E+04  0.13020212192E+04  0.50400001928E-02 0.  1.
        1   -1    0    0  501    0  0.00000000000E+00  0.00000000000E+00 -0.76814377866E+03  0.76814377868E+03  0.50400001928E-02 0. -1.
    10030    2    1    2    0    0  0.00000000000E+00  0.00000000000E+00  0.53387744054E+03  0.20701649979E+04  0.20001394944E+04 0.  0.
        2    1    3    3  502    0  0.12008610247E+03 -0.99012436146E+03  0.19107468085E+03  0.10155178269E+04  0.25500000920E-02 0. -1.
       -2    1    3    3    0  502 -0.12008610247E+03  0.99012436146E+03  0.34280275969E+03  0.10546471710E+04  0.25500000920E-02 0.  1.
</event>
<event>
 5   0  0.2311520E-06  0.2000806E+04  0.7818609E-02  0.8606244E-01
       -1   -1    0    0    0  501  0.00000000000E+00  0.00000000000E+00  0.57070370345E+03  0.57070370347E+03  0.50400001928E-02 0.  1.
        1   -1    0    0  501    0  0.00000000000E+00  0.00000000000E+00 -0.17536357991E+04  0.17536357991E+04  0.50400001928E-02 0. -1.
    10030    2    1    2    0    0  0.00000000000E+00  0.00000000000E+00 -0.11829320956E+04  0.23243395026E+04  0.20008062825E+04 0.  0.
        3    1    3    3  502    0 -0.45361851536E+03  0.25421830982E+03 -0.15843026857E+04  0.16674566611E+04  0.10100000352E+00 0. -1.
       -3    1    3    3    0  502  0.45361851536E+03 -0.25421830982E+03  0.40137059012E+03  0.65688284141E+03  0.10100000352E+00 0.  1.
</event>
<event>
 5   0  0.2386776E-06  0.2002632E+04  0.7818609E-02  0.8605391E-01
        1   -1    0    0  501    0  0.00000000000E+00  0.00000000000E+00  0.11331940012E+04  0.11331940012E+04  0.50400001928E-02 0.  1.
       -1   -1    0    0    0  501  0.00000000000E+00  0.00000000000E+00 -0.88478602071E+03  0.88478602073E+03  0.50400001928E-02 0. -1.
    10030    2    1    2    0    0  0.00000000000E+00  0.00000000000E+00  0.24840798046E+03  0.20179800219E+04  0.20026324785E+04 0.  0.
        2    1    3    3  502    0  0.47899605858E+03 -0.72565844262E+03  0.62461510391E+03  0.10705892898E+04  0.25500000920E-02 0.  1.
       -2    1    3    3    0  502 -0.47899605858E+03  0.72565844262E+03 -0.37620712345E+03  0.94739073207E+03  0.25500000920E-02 0. -1.
</event>
<event>
 5   0  0.5030137E-06  0.2000138E+04  0.7818609E-02  0.8606556E-01
        2   -1    0    0  501    0  0.00000000000E+00  0.00000000000E+00  0.68950556097E+03  0.68950556098E+03  0.25500000920E-02 0.  1.
       -2   -1    0    0    0  501  0.00000000000E+00  0.00000000000E+00 -0.14505149386E+04  0.14505149386E+04  0.25500000920E-02 0. -1.
    10030    2    1    2    0    0  0.00000000000E+00  0.00000000000E+00 -0.76100937766E+03  0.21400204996E+04  0.20001381117E+04 0.  0.
        3    1    3    3  502    0 -0.42043489959E+03 -0.56142130394E+03 -0.11432265358E+04  0.13412405853E+04  0.10100000352E+00 0. -1.
       -3    1    3    3    0  502  0.42043489959E+03  0.56142130394E+03  0.38221715814E+03  0.79877991430E+03  0.10100000352E+00 0.  1.
</event>
<event>
 5   0  0.1777750E-06  0.2001490E+04  0.7818609E-02  0.8605925E-01
       -3   -1    0    0    0  501  0.00000000000E+00  0.00000000000E+00  0.58616587672E+03  0.58616588542E+03  0.10100000352E+00 0.  1.
        3   -1    0    0  501    0  0.00000000000E+00  0.00000000000E+00 -0.17085437912E+04  0.17085437941E+04  0.10100000352E+00 0. -1.
    10030    2    1    2    0    0  0.00000000000E+00  0.00000000000E+00 -0.11223779144E+04  0.22947096796E+04  0.20014895280E+04 0.  0.
        4    1    3    3  502    0  0.14899969432E+03  0.85966924550E+03 -0.11231573141E+04  0.14222222350E+04  0.12699999809E+01 0. -1.
       -4    1    3    3    0  502 -0.14899969432E+03 -0.85966924550E+03  0.77939968682E+00  0.87248744457E+03  0.12699999809E+01 0.  1.
</event>
<event>
 5   0  0.2356996E-06  0.2000465E+04  0.7818609E-02  0.8606403E-01
        1   -1    0    0  501    0  0.00000000000E+00  0.00000000000E+00  0.87974772215E+03  0.87974772217E+03  0.50400001928E-02 0.  1.
       -1   -1    0    0    0  501  0.00000000000E+00  0.00000000000E+00 -0.11372186373E+04  0.11372186373E+04  0.50400001928E-02 0. -1.
    10030    2    1    2    0    0  0.00000000000E+00  0.00000000000E+00 -0.25747091517E+03  0.20169663595E+04  0.20004654516E+04 0.  0.
        4    1    3    3  502    0  0.19692335758E+01 -0.94227457152E+03  0.20955956779E+03  0.96529895440E+03  0.12699999809E+01 0.  1.
       -4    1    3    3    0  502 -0.19692335758E+01  0.94227457152E+03 -0.46703048296E+03  0.10516674051E+04  0.12699999809E+01 0. -1.
</event>
<event>
 5   0  0.2311520E-06  0.2000547E+04  0.7818609E-02  0.8606365E-01
       -1   -1    0    0    0  501  0.00000000000E+00  0.00000000000E+00  0.69142259748E+03  0.69142259750E+03  0.50400001928E-02 0.  1.
        1   -1    0    0  501    0  0.00000000000E+00  0.00000000000E+00 -0.14470847173E+04  0.14470847173E+04  0.50400001928E-02 0. -1.
    10030    2    1    2    0    0  0.00000000000E+00  0.00000000000E+00 -0.75566211978E+03  0.21385073148E+04  0.20005469992E+04 0.  0.
        3    1    3    3  502    0  0.52723004388E+03  0.47085053497E+03 -0.11343621791E+04  0.13365812018E+04  0.10100000352E+00 0. -1.
       -3    1    3    3    0  502 -0.52723004388E+03 -0.47085053497E+03  0.37870005935E+03  0.80192611293E+03  0.10100000352E+00 0.  1.
</event>
<event>
 5   0  0.4956214E-06  0.2000069E+04  0.7818609E-02  0.8606589E-01
       -2   -1    0    0    0  501  0.00000000000E+00  0.00000000000E+00  0.54700871955E+03  0.54700871956E+03  0.25500000920E-02 0.  1.
        2   -1    0    0  501    0  0.00000000000E+00  0.00000000000E+00 -0.18282496889E+04  0.18282496889E+04  0.25500000920E-02 0. -1.
    10030    2    1    2    0    0  0.00000000000E+00  0.00000000000E+00 -0.12812409694E+04  0.23752584085E+04  0.20000685202E+04 0.  0.
        1    1    3    3  502    0  0.24672908011E+03 -0.95323706787E+03 -0.43310701962E+03  0.10756941187E+04  0.50400001928E-02 0. -1.
       -1    1    3    3    0  502 -0.24672908011E+03  0.95323706787E+03 -0.84813394976E+03  0.12995642898E+04  0.50400001928E-02 0.  1.
</event>
<event>
 5   0  0.2313821E-06  0.2000642E+04  0.7818609E-02  0.8606321E-01
       -1   -1    0    0    0  501  0.00000000000E+00  0.00000000000E+00  0.82062060815E+03  0.82062060816E+03  0.50400001928E-02 0.  1.
        1   -1    0    0  501    0  0.00000000000E+00  0.00000000000E+00 -0.12193720726E+04  0.12193720726E+04  0.50400001928E-02 0. -1.
    10030    2    1    2    0    0  0.00000000000E+00  0.00000000000E+00 -0.39875146444E+03  0.20399926808E+04  0.20006417488E+04 0.  0.
        1    1    3    3  502    0  0.29863845965E+03  0.28894508533E+03  0.72844905094E+03  0.83863711566E+03  0.50400001928E-02 0.  1.
       -1    1    3    3    0  502 -0.29863845965E+03 -0.28894508533E+03 -0.11272005154E+04  0.12013555651E+04  0.50400001928E-02 0. -1.
</event>
<event>
 5   0  0.5030137E-06  0.2000141E+04  0.7818609E-02  0.8606555E-01
        2   -1    0    0  501    0  0.00000000000E+00  0.00000000000E+00  0.13135466387E+04  0.13135466387E+04  0.25500000920E-02 0.  1.
       -2   -1    0    0    0  501  0.00000000000E+00  0.00000000000E+00 -0.76140478794E+03  0.76140478794E+03  0.25500000920E-02 0. -1.
    10030    2    1    2    0    0  0.00000000000E+00  0.00000000000E+00  0.55214185072E+03  0.20749514266E+04  0.20001406949E+04 0.  0.
        3    1    3    3  502    0 -0.14267878441E+03  0.72240486756E+03 -0.42593319785E+03  0.85067333767E+03  0.10100000352E+00 0. -1.
       -3    1    3    3    0  502  0.14267878441E+03 -0.72240486756E+03  0.97807504856E+03  0.12242780889E+04  0.10100000352E+00 0.  1.
</event>
<event>
 5   0  0.5030137E-06  0.2000421E+04  0.7818609E-02  0.8606424E-01
       -2   -1    0    0    0  501  0.00000000000E+00  0.00000000000E+00  0.94590901734E+03  0.94590901734E+03  0.25500000920E-02 0. -1.
        2   -1    0    0  501    0  0.00000000000E+00  0.00000000000E+00 -0.10576295887E+04  0.10576295887E+04  0.25500000920E-02 0.  1.
    10030    2    1    2    0    0  0.00000000000E+00  0.00000000000E+00 -0.11172057135E+03  0.20035386060E+04  0.20004213206E+04 0.  0.
        3    1    3    3  502    0 -0.73371912591E+03  0.17026897013E+03 -0.71497855815E+03  0.10385228099E+04  0.10100000352E+00 0.  1.
       -3    1    3    3    0  502  0.73371912591E+03 -0.17026897013E+03  0.60325798680E+03  0.96501579612E+03  0.10100000352E+00 0. -1.
</event>
<event>
 5   0  0.5118981E-06  0.2002426E+04  0.7818609E-02  0.8605487E-01
       -2   -1    0    0    0  501  0.00000000000E+00  0.00000000000E+00  0.50778340815E+03  0.50778340816E+03  0.25500000920E-02 0. -1.
        2   -1    0    0  501    0  0.00000000000E+00  0.00000000000E+00 -0.19741232741E+04  0.19741232741E+04  0.25500000920E-02 0.  1.
    10030    2    1    2    0    0  0.00000000000E+00  0.00000000000E+00 -0.14663398659E+04  0.24819066823E+04  0.20024255734E+04 0.  0.
        4    1    3    3  502    0  0.10009254222E+04  0.23826625089E+02 -0.73621163878E+03  0.12427504169E+04  0.12699999809E+01 0.  1.
       -4    1    3    3    0  502 -0.10009254222E+04 -0.23826625089E+02 -0.73012822717E+03  0.12391562653E+04  0.12699999809E+01 0. -1.
</event>
<event>
 5   0  0.2311520E-06  0.1999774E+04  0.7818609E-02  0.8606726E-01
       -1   -1    0    0    0  501  0.00000000000E+00  0.00000000000E+00  0.95614453901E+03  0.95614453902E+03  0.50400001928E-02 0.  1.
        1   -1    0    0  501    0  0.00000000000E+00  0.00000000000E+00 -0.10456310819E+04  0.10456310819E+04  0.50400001928E-02 0. -1.
    10030    2    1    2    0    0  0.00000000000E+00  0.00000000000E+00 -0.89486542892E+02  0.20017756209E+04  0.19997744361E+04 0.  0.
        3    1    3    3  502    0  0.22991967831E+03 -0.60475569547E+02  0.92744131438E+03  0.95742767601E+03  0.10100000352E+00 0.  1.
       -3    1    3    3    0  502 -0.22991967831E+03  0.60475569547E+02 -0.10169278573E+04  0.10443479449E+04  0.10100000352E+00 0. -1.
</event>
<event>
 5   0  0.5118981E-06  0.2000207E+04  0.7818609E-02  0.8606524E-01
        2   -1    0    0  501    0  0.00000000000E+00  0.00000000000E+00  0.16711559410E+04  0.16711559410E+04  0.25500000920E-02 0.  1.
       -2   -1    0    0    0  501  0.00000000000E+00  0.00000000000E+00 -0.59851198772E+03  0.59851198772E+03  0.25500000920E-02 0. -1.
    10030    2    1    2    0    0  0.00000000000E+00  0.00000000000E+00  0.10726439533E+04  0.22696679287E+04  0.20002068534E+04 0.  0.
        4    1    3    3  502    0  0.54802348003E+03 -0.60120779619E+03 -0.12379125452E+03  0.82286477410E+03  0.12699999809E+01 0. -1.
       -4    1    3    3    0  502 -0.54802348003E+03  0.60120779619E+03  0.11964352078E+04  0.14468031546E+04  0.12699999809E+01 0.  1.
</event>
<event>
 5   0  0.2379743E-06  0.2001253E+04  0.7818609E-02  0.8606035E-01
       -1   -1    0    0    0  501  0.00000000000E+00  0.00000000000E+00  0.11608096483E+04  0.11608096483E+04  0.50400001928E-02 0.  1.
        1   -1    0    0  501    0  0.00000000000E+00  0.00000000000E+00 -0.86254709879E+03  0.86254709880E+03  0.50400001928E-02 0. -1.
    10030    2    1    2    0    0  0.00000000000E+00  0.00000000000E+00  0.29826254953E+03  0.20233567471E+04  0.20012526022E+04 0.  0.
        5    1    3    3  502    0  0.16952971417E+03 -0.64527592018E+03  0.90309549323E+03  0.11228200644E+04  0.46999998093E+01 0.  1.
       -5    1    3    3    0  502 -0.16952971417E+03  0.64527592018E+03 -0.60483294369E+03  0.90053668273E+03  0.46999998093E+01 0. -1.
</event>
<event>
 5   0  0.4956214E-06  0.2000184E+04  0.7818609E-02  0.8606535E-01
       -2   -1    0    0    0  501  0.00000000000E+00  0.00000000000E+00  0.88762212967E+03  0.88762212967E+03  0.25500000920E-02 0.  1.
        2   -1    0    0  501    0  0.00000000000E+00  0.00000000000E+00 -0.11268126264E+04  0.11268126264E+04  0.25500000920E-02 0. -1.
    10030    2    1    2    0    0  0.00000000000E+00  0.00000000000E+00 -0.23919049677E+03  0.20144347561E+04  0.20001838148E+04 0.  0.
        1    1    3    3  502    0 -0.14229449685E+02 -0.42247287024E+03  0.79322771682E+03  0.89883035890E+03  0.50400001928E-02 0.  1.
       -1    1    3    3    0  502  0.14229449685E+02  0.42247287024E+03 -0.10324182136E+04  0.11156043972E+04  0.50400001928E-02 0. -1.
</event>
<event>
 5   0  0.2386776E-06  0.2000817E+04  0.7818609E-02  0.8606239E-01
        1   -1    0    0  501    0  0.00000000000E+00  0.00000000000E+00  0.98709156092E+03  0.98709156093E+03  0.50400001928E-02 0.  1.
       -1   -1    0    0    0  501  0.00000000000E+00  0.00000000000E+00 -0.10139047965E+04  0.10139047965E+04  0.50400001928E-02 0. -1.
    10030    2    1    2    0    0  0.00000000000E+00  0.00000000000E+00 -0.26813235603E+02  0.20009963575E+04  0.20008167015E+04 0.  0.
        2    1    3    3  502    0  0.44313501047E+03 -0.70453929500E+03 -0.56849934835E+03  0.10079363893E+04  0.25500000920E-02 0.  1.
       -2    1    3    3    0  502 -0.44313501047E+03  0.70453929500E+03  0.54168611275E+03  0.99305996821E+03  0.25500000920E-02 0. -1.
</event>
<event>
 5   0  0.5251252E-06  0.1999216E+04  0.7818609E-02  0.8606987E-01
        2   -1    0    0  501    0  0.00000000000E+00  0.00000000000E+00  0.11890312777E+04  0.11890312777E+04  0.25500000920E-02 0. -1.
       -2   -1    0    0    0  501  0.00000000000E+00  0.00000000000E+00 -0.84036148661E+03  0.84036148661E+03  0.25500000920E-02 0.  1.
    10030    2    1    2    0    0  0.00000000000E+00  0.00000000000E+00  0.34866979111E+03  0.20293927643E+04  0.19992159385E+04 0.  0.
        5    1    3    3  502    0 -0.59172475473E+03 -0.67593890963E+03  0.61931502437E+03  0.10911483787E+04  0.46999998093E+01 0. -1.
       -5    1    3    3    0  502  0.59172475473E+03  0.67593890963E+03 -0.27064523326E+03  0.93824438565E+03  0.46999998093E+01 0.  1.
</event>
<event>
 5   0  0.2311520E-06  0.1996041E+04  0.7818609E-02  0.8608474E-01
       -1   -1    0    0    0  501  0.00000000000E+00  0.00000000000E+00  0.94151691127E+03  0.94151691128E+03  0.50400001928E-02 0.  1.
        1   -1    0    0  501    0  0.00000000000E+00  0.00000000000E+00 -0.10579145476E+04  0.10579145476E+04  0.50400001928E-02 0. -1.
    10030    2    1    2    0    0  0.00000000000E+00  0.00000000000E+00 -0.11639763630E+03  0.19994314589E+04  0.19960405179E+04 0.  0.
        3    1    3    3  502    0  0.81262591606E+03 -0.20105424061E+03 -0.60250093082E+03  0.10314024767E+04  0.10100000352E+00 0. -1.
       -3    1    3    3    0  502 -0.81262591606E+03  0.20105424061E+03  0.48610329452E+03  0.96802898214E+03  0.10100000352E+00 0.  1.
</event>
<event>
 5   0  0.2311520E-06  0.1999674E+04  0.7818609E-02  0.8606773E-01
        1   -1    0    0  501    0  0.00000000000E+00  0.00000000000E+00  0.20910848366E+04  0.20910848366E+04  0.50400001928E-02 0.  1.
       -1   -1    0    0    0  501  0.00000000000E+00  0.00000000000E+00 -0.47806501027E+03  0.47806501030E+03  0.50400001928E-02 0. -1.
    10030    2    1    2    0    0  0.00000000000E+00  0.00000000000E+00  0.16130198263E+04  0.25691498469E+04  0.19996744674E+04 0.  0.
        3    1    3    3  502    0  0.86870574498E+03 -0.39543912284E+03  0.42397053455E+03  0.10444006873E+04  0.10100000352E+00 0. -1.
       -3    1    3    3    0  502 -0.86870574498E+03  0.39543912284E+03  0.11890492917E+04  0.15247491596E+04  0.10100000352E+00 0.  1.
</event>
<event>
 5   0  0.1777750E-06  0.2000443E+04  0.7818609E-02  0.8606413E-01
        3   -1    0    0  501    0  0.00000000000E+00  0.00000000000E+00  0.11398640669E+04  0.11398640714E+04  0.10100000352E+00 0.  1.
       -3   -1    0    0    0  501  0.00000000000E+00  0.00000000000E+00 -0.87768669230E+03  0.87768669811E+03  0.10100000352E+00 0. -1.
    10030    2    1    2    0    0  0.00000000000E+00  0.00000000000E+00  0.26217737460E+03  0.20175507695E+04  0.20004434838E+04 0.  0.
        5    1    3    3  502    0  0.52977739315E+02  0.20448623573E+02  0.11382257829E+04  0.11396511791E+04  0.46999998093E+01 0.  1.
       -5    1    3    3    0  502 -0.52977739315E+02 -0.20448623573E+02 -0.87604840834E+03  0.87789959040E+03  0.46999998093E+01 0. -1.
</event>
<event>
 5   0  0.2311520E-06  0.1999343E+04  0.7818609E-02  0.8606928E-01
       -1   -1    0    0    0  501  0.00000000000E+00  0.00000000000E+00  0.11636738620E+04  0.11636738620E+04  0.50400001928E-02 0. -1.
        1   -1    0    0  501    0  0.00000000000E+00  0.00000000000E+00 -0.85878264095E+03  0.85878264097E+03  0.50400001928E-02 0.  1.
    10030    2    1    2    0    0  0.00000000000E+00  0.00000000000E+00  0.30489122103E+03  0.20224565030E+04  0.19993428045E+04 0.  0.
        3    1    3    3  502    0  0.76598442067E+03  0.63512771108E+03  0.55295965549E+02  0.99658265894E+03  0.10100000352E+00 0.  1.
       -3    1    3    3    0  502 -0.76598442067E+03 -0.63512771108E+03  0.24959525548E+03  0.10258738440E+04  0.10100000352E+00 0. -1.
</event>
<event>
 5   0  0.2356996E-06  0.2000450E+04  0.7818609E-02  0.8606410E-01
        1   -1    0    0  501    0  0.00000000000E+00  0.00000000000E+00  0.13553911373E+04  0.13553911373E+04  0.50400001928E-02 0.  1.
       -1   -1    0    0    0  501  0.00000000000E+00  0.00000000000E+00 -0.73812619500E+03  0.73812619502E+03  0.50400001928E-02 0. -1.
    10030    2    1    2    0    0  0.00000000000E+00  0.00000000000E+00  0.61726494232E+03  0.20935173323E+04  0.20004496524E+04 0.  0.
        4    1    3    3  502    0 -0.30116335953E+03  0.95331538226E+03  0.27657223340E+03  0.10373058374E+04  0.12699999809E+01 0.  1.
       -4    1    3    3    0  502  0.30116335953E+03 -0.95331538226E+03  0.34069270892E+03  0.10562114949E+04  0.12699999809E+01 0. -1.
</event>
<event>
 5   0  0.2379743E-06  0.1999766E+04  0.7818609E-02  0.8606730E-01
       -1   -1    0    0    0  501  0.00000000000E+00  0.00000000000E+00  0.48867330059E+03  0.48867330062E+03  0.50400001928E-02 0.  1.
        1   -1    0    0  501    0  0.00000000000E+00  0.00000000000E+00 -0.20458775013E+04  0.20458775013E+04  0.50400001928E-02 0. -1.
    10030    2    1    2    0    0  0.00000000000E+00  0.00000000000E+00 -0.15572042007E+04  0.25345508019E+04  0.19997656975E+04 0.  0.
        5    1    3    3  502    0 -0.60539514532E+03  0.16547628320E+03  0.20792106458E+03  0.66116483677E+03  0.46999998093E+01 0.  1.
       -5    1    3    3    0  502  0.60539514532E+03 -0.16547628320E+03 -0.17651252653E+04  0.18733859652E+04  0.46999998093E+01 0. -1.
</event>
<event>
 5   0  0.5251252E-06  0.2003988E+04  0.7818609E-02  0.8604758E-01
       -2   -1    0    0    0  501  0.00000000000E+00  0.00000000000E+00  0.10086833758E+04  0.10086833758E+04  0.25500000920E-02 0. -1.
        2   -1    0    0  501    0  0.00000000000E+00  0.00000000000E+00 -0.99534915463E+03  0.99534915464E+03  0.25500000920E-02 0.  1.
    10030    2    1    2    0    0  0.00000000000E+00  0.00000000000E+00  0.13334221131E+02  0.20040325304E+04  0.20039881690E+04 0.  0.
        5    1    3    3  502    0  0.18281102373E+03  0.33362669754E+03 -0.92030724371E+03  0.99584846062E+03  0.46999998093E+01 0.  1.
       -5    1    3    3    0  502 -0.18281102373E+03 -0.33362669754E+03  0.93364146484E+03  0.10081840698E+04  0.46999998093E+01 0. -1.
</event>
<event>
 5   0  0.1777750E-06  0.2000962E+04  0.7818609E-02  0.8606171E-01
        3   -1    0    0  501    0  0.00000000000E+00  0.00000000000E+00  0.11733842513E+04  0.11733842557E+04  0.10100000352E+00 0.  1.
       -3   -1    0    0    0  501  0.00000000000E+00  0.00000000000E+00 -0.85305605893E+03  0.85305606491E+03  0.10100000352E+00 0. -1.
    10030    2    1    2    0    0  0.00000000000E+00  0.00000000000E+00  0.32032819237E+03  0.20264403206E+04  0.20009623240E+04 0.  0.
        2    1    3    3  502    0  0.61981188930E+03  0.51737751713E+02 -0.63347155292E+03  0.88776673819E+03  0.25500000920E-02 0. -1.
       -2    1    3    3    0  502 -0.61981188930E+03 -0.51737751713E+02  0.95379974529E+03  0.11386735824E+04  0.25500000920E-02 0.  1.
</event>
<event>
 5   0  0.4956214E-06  0.2000326E+04  0.7818609E-02  0.8606468E-01
        2   -1    0    0  501    0  0.00000000000E+00  0.00000000000E+00  0.12129968799E+04  0.12129968799E+04  0.25500000920E-02 0.  1.
       -2   -1    0    0    0  501  0.00000000000E+00  0.00000000000E+00 -0.82467281382E+03  0.82467281383E+03  0.25500000920E-02 0. -1.
    10030    2    1    2    0    0  0.00000000000E+00  0.00000000000E+00  0.38832406608E+03  0.20376696937E+04  0.20003255236E+04 0.  0.
        1    1    3    3  502    0  0.72810311661E+03  0.68554830258E+03  0.17922796587E+03  0.10159888225E+04  0.50400001928E-02 0.  1.
       -1    1    3    3    0  502 -0.72810311661E+03 -0.68554830258E+03  0.20909610021E+03  0.10216808713E+04  0.50400001928E-02 0. -1.
</event>
<event>
 5   0  0.2313821E-06  0.1999885E+04  0.7818609E-02  0.8606674E-01
       -1   -1    0    0    0  501  0.00000000000E+00  0.00000000000E+00  0.66935719241E+03  0.66935719243E+03  0.50400001928E-02 0.  1.
        1   -1    0    0  501    0  0.00000000000E+00  0.00000000000E+00 -0.14937987385E+04  0.14937987385E+04  0.50400001928E-02 0. -1.
    10030    2    1    2    0    0  0.00000000000E+00  0.00000000000E+00 -0.82444154605E+03  0.21631559309E+04  0.19998849263E+04 0.  0.
        1    1    3    3  502    0  0.95211730677E+03 -0.24544494185E+03 -0.60905059490E+03  0.11565955268E+04  0.50400001928E-02 0. -1.
       -1    1    3    3    0  502 -0.95211730677E+03  0.24544494185E+03 -0.21539095115E+03  0.10065604041E+04  0.50400001928E-02 0.  1.
</event>
<event>
 5   0  0.5118981E-06  0.1999733E+04  0.7818609E-02  0.8606745E-01
        2   -1    0    0  501    0  0.00000000000E+00  0.00000000000E+00  0.24773632427E+04  0.24773632427E+04  0.25500000920E-02 0.  1.
       -2   -1    0    0    0  501  0.00000000000E+00  0.00000000000E+00 -0.40354730339E+03  0.40354730340E+03  0.25500000920E-02 0. -1.
    10030    2    1    2    0    0  0.00000000000E+00  0.00000000000E+00  0.20738159393E+04  0.28809105461E+04  0.19997332383E+04 0.  0.
        4    1    3    3  502    0 -0.27925155273E+03 -0.20774550805E+03  0.23872734725E+04  0.24125123567E+04  0.12699999809E+01 0.  1.
       -4    1    3    3    0  502  0.27925155273E+03  0.20774550805E+03 -0.31345753319E+03  0.46839818940E+03  0.12699999809E+01 0. -1.
</event>
<event>
 5   0  0.5030137E-06  0.2004045E+04  0.7818609E-02  0.8604732E-01
       -2   -1    0    0    0  501  0.00000000000E+00  0.00000000000E+00  0.97881260950E+03  0.97881260951E+03  0.25500000920E-02 0.  1.
        2   -1    0    0  501    0  0.00000000000E+00  0.00000000000E+00 -0.10257828822E+04  0.10257828822E+04  0.25500000920E-02 0. -1.
    10030    2    1    2    0    0  0.00000000000E+00  0.00000000000E+00 -0.46970272671E+02  0.20045954917E+04  0.20040451289E+04 0.  0.
        3    1    3    3  502    0 -0.47357385680E+03 -0.43644189676E+03  0.74438151777E+03  0.98430563408E+03  0.10100000352E+00 0.  1.
       -3    1    3    3    0  502  0.47357385680E+03  0.43644189676E+03 -0.79135179044E+03  0.10202898576E+04  0.10100000352E+00 0. -1.
</event>
<event>
 5   0  0.2311520E-06  0.2000143E+04  0.7818609E-02  0.8606554E-01
       -1   -1    0    0    0  501  0.00000000000E+00  0.00000000000E+00  0.75706999512E+03  0.75706999513E+03  0.50400001928E-02 0.  1.
        1   -1    0    0  501    0  0.00000000000E+00  0.00000000000E+00 -0.13210706256E+04  0.13210706256E+04  0.50400001928E-02 0. -1.
    10030    2    1    2    0    0  0.00000000000E+00  0.00000000000E+00 -0.56400063046E+03  0.20781406207E+04  0.20001429270E+04 0.  0.
        3    1    3    3  502    0 -0.10750771158E+03 -0.29939454063E+03  0.70310160886E+03  0.77171684029E+03  0.10100000352E+00 0.  1.
       -3    1    3    3    0  502  0.10750771158E+03  0.29939454063E+03 -0.12671022393E+04  0.13064237804E+04  0.10100000352E+00 0. -1.
</event>
<event>
 5   0  0.2379743E-06  0.1999623E+04  0.7818609E-02  0.8606797E-01
       -1   -1    0    0    0  501  0.00000000000E+00  0.00000000000E+00  0.91568001383E+03  0.91568001384E+03  0.50400001928E-02 0.  1.
        1   -1    0    0  501    0  0.00000000000E+00  0.00000000000E+00 -0.10916725024E+04  0.10916725024E+04  0.50400001928E-02 0. -1.
    10030    2    1    2    0    0  0.00000000000E+00  0.00000000000E+00 -0.17599248861E+03  0.20073525163E+04  0.19996226566E+04 0.  0.
        5    1    3    3  502    0 -0.56475197638E+02 -0.84858090700E+03 -0.61569128683E+03  0.10499413576E+04  0.46999998093E+01 0. -1.
       -5    1    3    3    0  502  0.56475197638E+02  0.84858090700E+03  0.43969879822E+03  0.95741115871E+03  0.46999998093E+01 0.  1.
</event>
<event>
 5   0  0.2356996E-06  0.2000196E+04  0.7818609E-02  0.8606529E-01
       -1   -1    0    0    0  501  0.00000000000E+00  0.00000000000E+00  0.70041392907E+03  0.70041392909E+03  0.50400001928E-02 0.  1.
        1   -1    0    0  501    0  0.00000000000E+00  0.00000000000E+00 -0.14280075271E+04  0.14280075271E+04  0.50400001928E-02 0. -1.
    10030    2    1    2    0    0  0.00000000000E+00  0.00000000000E+00 -0.72759359803E+03  0.21284214562E+04  0.20001963532E+04 0.  0.
        4    1    3    3  502    0 -0.92836694880E+03 -0.74785005554E+02 -0.75148323409E+03  0.11967400105E+04  0.12699999809E+01 0. -1.
       -4    1    3    3    0  502  0.92836694880E+03  0.74785005554E+02  0.23889636057E+02  0.93168144572E+03  0.12699999809E+01 0.  1.
</event>
<event>
 5   0  0.5251252E-06  0.1998963E+04  0.7818609E-02  0.8607105E-01
       -2   -1    0    0    0  501  0.00000000000E+00  0.00000000000E+00  0.51449363007E+03  0.51449363008E+03  0.25500000920E-02 0. -1.
        2   -1    0    0  501    0  0.00000000000E+00  0.00000000000E+00 -0.19416443156E+04  0.19416443156E+04  0.25500000920E-02 0.  1.
    10030    2    1    2    0    0  0.00000000000E+00  0.00000000000E+00 -0.14271506856E+04  0.24561379457E+04  0.19989633636E+04 0.  0.
        5    1    3    3  502    0  0.46760171519E+03 -0.73763410953E+03 -0.13107138614E+04  0.15750391615E+04  0.46999998093E+01 0.  1.
       -5    1    3    3    0  502 -0.46760171519E+03  0.73763410953E+03 -0.11643682413E+03  0.88109878425E+03  0.46999998093E+01 0. -1.
</event>
<event>
 5   0  0.5129100E-06  0.1999520E+04  0.7818609E-02  0.8606845E-01
       -2   -1    0    0    0  501  0.00000000000E+00  0.00000000000E+00  0.38137335766E+03  0.38137335767E+03  0.25500000920E-02 0. -1.
        2   -1    0    0  501    0  0.00000000000E+00  0.00000000000E+00 -0.26208450056E+04  0.26208450056E+04  0.25500000920E-02 0.  1.
    10030    2    1    2    0    0  0.00000000000E+00  0.00000000000E+00 -0.22394716479E+04  0.30022183632E+04  0.19995204022E+04 0.  0.
        2    1    3    3  502    0  0.63494660903E+03  0.72755779706E+03 -0.15084479550E+04  0.17910647049E+04  0.25500000920E-02 0. -1.
       -2    1    3    3    0  502 -0.63494660903E+03 -0.72755779706E+03 -0.73102369291E+03  0.12111536583E+04  0.25500000920E-02 0.  1.
</event>
<event>
 5   0  0.5030137E-06  0.1999676E+04  0.7818609E-02  0.8606772E-01
        2   -1    0    0  501    0  0.00000000000E+00  0.00000000000E+00  0.82991865660E+03  0.82991865660E+03  0.25500000920E-02 0. -1.
       -2   -1    0    0    0  501  0.00000000000E+00  0.00000000000E+00 -0.12045468187E+04  0.12045468187E+04  0.25500000920E-02 0.  1.
    10030    2    1    2    0    0  0.00000000000E+00  0.00000000000E+00 -0.37462816212E+03  0.20344654753E+04  0.19996758513E+04 0.  0.
        3    1    3    3  502    0  0.37146052612E+03  0.60928996779E+03 -0.89982567388E+03  0.11484352141E+04  0.10100000352E+00 0.  1.
       -3    1    3    3    0  502 -0.37146052612E+03 -0.60928996779E+03  0.52519751176E+03  0.88603026127E+03  0.10100000352E+00 0. -1.
</event>
<event>
 5   0  0.5129100E-06  0.1999030E+04  0.7818609E-02  0.8607074E-01
       -2   -1    0    0    0  501  0.00000000000E+00  0.00000000000E+00  0.17096461420E+04  0.17096461420E+04  0.25500000920E-02 0.  1.
        2   -1    0    0  501    0  0.00000000000E+00  0.00000000000E+00 -0.58434924036E+03  0.58434924037E+03  0.25500000920E-02 0. -1.
    10030    2    1    2    0    0  0.00000000000E+00  0.00000000000E+00  0.11252969016E+04  0.22939953823E+04  0.19990301892E+04 0.  0.
        2    1    3    3  502    0  0.34544423919E+03  0.47663094093E+03 -0.36433215660E+03  0.69227645965E+03  0.25500000920E-02 0. -1.
       -2    1    3    3    0  502 -0.34544423919E+03 -0.47663094093E+03  0.14896290582E+04  0.16017189227E+04  0.25500000920E-02 0.  1.
</event>
<event>
 5   0  0.5030137E-06  0.2000232E+04  0.7818609E-02  0.8606512E-01
        2   -1    0    0  501    0  0.00000000000E+00  0.00000000000E+00  0.20990993772E+04  0.20990993772E+04  0.25500000920E-02 0.  1.
       -2   -1    0    0    0  501  0.00000000000E+00  0.00000000000E+00 -0.47650518810E+03  0.47650518810E+03  0.25500000920E-02 0. -1.
    10030    2    1    2    0    0  0.00000000000E+00  0.00000000000E+00  0.16225941891E+04  0.25756045653E+04  0.20002317301E+04 0.  0.
        3    1    3    3  502    0  0.70616269787E+03 -0.94503367958E+02 -0.92480448536E+02  0.71843530396E+03  0.10100000352E+00 0. -1.
       -3    1    3    3    0  502 -0.70616269787E+03  0.94503367958E+02  0.17150746376E+04  0.18571692613E+04  0.10100000352E+00 0.  1.
</event>
<event>
 5   0  0.5251252E-06  0.2001858E+04  0.7818609E-02  0.8605752E-01
        2   -1    0    0  501    0  0.00000000000E+00  0.00000000000E+00  0.16521086308E+04  0.16521086308E+04  0.25500000920E-02 0. -1.
       -2   -1    0    0    0  501  0.00000000000E+00  0.00000000000E+00 -0.60641249448E+03  0.60641249448E+03  0.25500000920E-02 0.  1.
    10030    2    1    2    0    0  0.00000000000E+00  0.00000000000E+00  0.10456961364E+04  0.22585211253E+04  0.20018584525E+04 0.  0.
        5    1    3    3  502    0  0.11156772745E+03 -0.93321822118E+03  0.13448468615E+03  0.94944816970E+03  0.46999998093E+01 0.  1.
       -5    1    3    3    0  502 -0.11156772745E+03  0.93321822118E+03  0.91121145022E+03  0.13090729556E+04  0.46999998093E+01 0. -1.
</event>
<event>
 5   0  0.5118981E-06  0.2000041E+04  0.7818609E-02  0.8606601E-01
        2   -1    0    0  501    0  0.00000000000E+00  0.00000000000E+00  0.13165280268E+04  0.13165280268E+04  0.25500000920E-02 0.  1.
       -2   -1    0    0    0  501  0.00000000000E+00  0.00000000000E+00 -0.75960512681E+03  0.75960512682E+03  0.25500000920E-02 0. -1.
    10030    2    1    2    0    0  0.00000000000E+00  0.00000000000E+00  0.55692289996E+03  0.20761331536E+04  0.20000414383E+04 0.  0.
        4    1    3    3  502    0 -0.14820240379E+03  0.33191521370E+03  0.12455207299E+04  0.12974803132E+04  0.12699999809E+01 0.  1.
       -4    1    3    3    0  502  0.14820240379E+03 -0.33191521370E+03 -0.68859782994E+03  0.77865284041E+03  0.12699999809E+01 0. -1.
</event>
<event>
 5   0  0.5118981E-06  0.2000144E+04  0.7818609E-02  0.8606553E-01
       -2   -1    0    0    0  501  0.00000000000E+00  0.00000000000E+00  0.50860633152E+03  0.50860633152E+03  0.25500000920E-02 0. -1.
        2   -1    0    0  501    0  0.00000000000E+00  0.00000000000E+00 -0.19664401427E+04  0.19664401427E+04  0.25500000920E-02 0.  1.
    10030    2    1    2    0    0  0.00000000000E+00  0.00000000000E+00 -0.14578338111E+04  0.24750464742E+04  0.20001439019E+04 0.  0.
        4    1    3    3  502    0  0.84916685494E+03  0.37194158563E+03 -0.11931071642E+04  0.15109371956E+04  0.12699999809E+01 0.  1.
       -4    1    3    3    0  502 -0.84916685494E+03 -0.37194158563E+03 -0.26472664690E+03  0.96410927862E+03  0.12699999809E+01 0. -1.
</event>
<event>
 5   0  0.2313821E-06  0.1999351E+04  0.7818609E-02  0.8606924E-01
       -1   -1    0    0    0  501  0.00000000000E+00  0.00000000000E+00  0.50680581271E+03  0.50680581273E+03  0.50400001928E-02 0.  1.
        1   -1    0    0  501    0  0.00000000000E+00  0.00000000000E+00 -0.19718618786E+04  0.19718618786E+04  0.50400001928E-02 0. -1.
    10030    2    1    2    0    0  0.00000000000E+00  0.00000000000E+00 -0.14650560659E+04  0.24786676913E+04  0.19993509567E+04 0.  0.
        1    1    3    3  502    0  0.86195395609E+03  0.38953291105E+03 -0.11335794269E+04  0.14763816676E+04  0.50400001928E-02 0.  1.
       -1    1    3    3    0  502 -0.86195395609E+03 -0.38953291105E+03 -0.33147663897E+03  0.10022860238E+04  0.50400001928E-02 0. -1.
</event>
<event>
 5   0  0.5129100E-06  0.1999310E+04  0.7818609E-02  0.8606943E-01
       -2   -1    0    0    0  501  0.00000000000E+00  0.00000000000E+00  0.75251809006E+03  0.75251809006E+03  0.25500000920E-02 0. -1.
        2   -1    0    0  501    0  0.00000000000E+00  0.00000000000E+00 -0.13279549932E+04  0.13279549932E+04  0.25500000920E-02 0.  1.
    10030    2    1    2    0    0  0.00000000000E+00  0.00000000000E+00 -0.57543690318E+03  0.20804730833E+04  0.19993100362E+04 0.  0.
        2    1    3    3  502    0 -0.25559040594E+03  0.17525080631E+03  0.70126939317E+03  0.76669293888E+03  0.25500000920E-02 0. -1.
       -2    1    3    3    0  502  0.25559040594E+03 -0.17525080631E+03 -0.12767062964E+04  0.13137801444E+04  0.25500000920E-02 0.  1.
</event>
<event>
 5   0  0.2379743E-06  0.1999186E+04  0.7818609E-02  0.8607001E-01
       -1   -1    0    0    0  501  0.00000000000E+00  0.00000000000E+00  0.86232347484E+03  0.86232347486E+03  0.50400001928E-02 0. -1.
        1   -1    0    0  501    0  0.00000000000E+00  0.00000000000E+00 -0.11587134494E+04  0.11587134494E+04  0.50400001928E-02 0.  1.
    10030    2    1    2    0    0  0.00000000000E+00  0.00000000000E+00 -0.29638997456E+03  0.20210369243E+04  0.19991856423E+04 0.  0.
        5    1    3    3  502    0 -0.90150835872E+02 -0.30705511601E+03  0.80912629264E+03  0.87012497086E+03  0.46999998093E+01 0. -1.
       -5    1    3    3    0  502  0.90150835872E+02  0.30705511601E+03 -0.11055162672E+04  0.11509119534E+04  0.46999998093E+01 0.  1.
</event>
<event>
 5   0  0.2313821E-06  0.2000368E+04  0.7818609E-02  0.8606449E-01
       -1   -1    0    0    0  501  0.00000000000E+00  0.00000000000E+00  0.84156684808E+03  0.84156684810E+03  0.50400001928E-02 0. -1.
        1   -1    0    0  501    0  0.00000000000E+00  0.00000000000E+00 -0.11886965139E+04  0.11886965139E+04  0.50400001928E-02 0.  1.
    10030    2    1    2    0    0  0.00000000000E+00  0.00000000000E+00 -0.34712966585E+03  0.20302633620E+04  0.20003675448E+04 0.  0.
        1    1    3    3  502    0 -0.42865423585E+03 -0.38761211174E+03  0.65495621702E+03  0.87347309594E+03  0.50400001928E-02 0. -1.
       -1    1    3    3    0  502  0.42865423585E+03  0.38761211174E+03 -0.10020858829E+04  0.11567902661E+04  0.50400001928E-02 0.  1.
</event>
<event>
 5   0  0.2379743E-06  0.1999253E+04  0.7818609E-02  0.8606970E-01
       -1   -1    0    0    0  501  0.00000000000E+00  0.00000000000E+00  0.91869913462E+03  0.91869913463E+03  0.50400001928E-02 0.  1.
        1   -1    0    0  501    0  0.00000000000E+00  0.00000000000E+00 -0.10876826309E+04  0.10876826309E+04  0.50400001928E-02 0. -1.
    10030    2    1    2    0    0  0.00000000000E+00  0.00000000000E+00 -0.16898349624E+03  0.20063817655E+04  0.19992529522E+04 0.  0.
        5    1    3    3  502    0 -0.37556589101E+03  0.49420441065E+03  0.70184748658E+03  0.93696303151E+03  0.46999998093E+01 0.  1.
       -5    1    3    3    0  502  0.37556589101E+03 -0.49420441065E+03 -0.87083098282E+03  0.10694187340E+04  0.46999998093E+01 0. -1.
</event>
<event>
 5   0  0.4956214E-06  0.2000013E+04  0.7818609E-02  0.8606615E-01
        2   -1    0    0  501    0  0.00000000000E+00  0.00000000000E+00  0.81187939349E+03  0.81187939350E+03  0.25500000920E-02 0. -1.
       -2   -1    0    0    0  501  0.00000000000E+00  0.00000000000E+00 -0.12317260315E+04  0.12317260315E+04  0.25500000920E-02 0.  1.
    10030    2    1    2    0    0  0.00000000000E+00  0.00000000000E+00 -0.41984663799E+03  0.20436054250E+04  0.20000129834E+04 0.  0.
        1    1    3    3  502    0 -0.82390635337E+03  0.50226863460E+03  0.58320091228E+02  0.96669369166E+03  0.50400001928E-02 0. -1.
       -1    1    3    3    0  502  0.82390635337E+03 -0.50226863460E+03 -0.47816672922E+03  0.10769117333E+04  0.50400001928E-02 0.  1.
</event>
<event>
 5   0  0.5030137E-06  0.1999381E+04  0.7818609E-02  0.8606910E-01
        2   -1    0    0  501    0  0.00000000000E+00  0.00000000000E+00  0.19640443062E+04  0.19640443062E+04  0.25500000920E-02 0.  1.
       -2   -1    0    0    0  501  0.00000000000E+00  0.00000000000E+00 -0.50883827080E+03  0.50883827080E+03  0.25500000920E-02 0. -1.
    10030    2    1    2    0    0  0.00000000000E+00  0.00000000000E+00  0.14552060354E+04  0.24728825770E+04  0.19993808127E+04 0.  0.
        3    1    3    3  502    0  0.31015120506E+03  0.16177733446E+03 -0.43067160280E+03  0.55483665669E+03  0.10100000352E+00 0. -1.
       -3    1    3    3    0  502 -0.31015120506E+03 -0.16177733446E+03  0.18858776382E+04  0.19180459203E+04  0.10100000352E+00 0.  1.
</event>
<event>
 5   0  0.5251252E-06  0.2000125E+04  0.7818609E-02  0.8606562E-01
       -2   -1    0    0    0  501  0.00000000000E+00  0.00000000000E+00  0.63780146202E+03  0.63780146203E+03  0.25500000920E-02 0. -1.
        2   -1    0    0  501    0  0.00000000000E+00  0.00000000000E+00 -0.15680826047E+04  0.15680826047E+04  0.25500000920E-02 0.  1.
    10030    2    1    2    0    0  0.00000000000E+00  0.00000000000E+00 -0.93028114266E+03  0.22058840667E+04  0.20001253739E+04 0.  0.
        5    1    3    3  502    0 -0.53719632716E+03 -0.38393498630E+03  0.36320238078E+03  0.75360734273E+03  0.46999998093E+01 0. -1.
       -5    1    3    3    0  502  0.53719632716E+03  0.38393498630E+03 -0.12934835234E+04  0.14522767240E+04  0.46999998093E+01 0.  1.
</event>
<event>
 5   0  0.2379743E-06  0.1999832E+04  0.7818609E-02  0.8606699E-01
       -1   -1    0    0    0  501  0.00000000000E+00  0.00000000000E+00  0.72870492305E+03  0.72870492307E+03  0.50400001928E-02 0. -1.
        1   -1    0    0  501    0  0.00000000000E+00  0.00000000000E+00 -0.13720675165E+04  0.13720675165E+04  0.50400001928E-02 0.  1.
    10030    2    1    2    0    0  0.00000000000E+00  0.00000000000E+00 -0.64336259340E+03  0.21007724395E+04  0.19998323470E+04 0.  0.
        5    1    3    3  502    0 -0.66826873810E+03 -0.87656302271E+02 -0.10975712481E+04  0.12880028992E+04  0.46999998093E+01 0.  1.
       -5    1    3    3    0  502  0.66826873810E+03  0.87656302271E+02  0.45420865473E+03  0.81276954033E+03  0.46999998093E+01 0. -1.
</event>
<event>
 5   0  0.5030137E-06  0.1998076E+04  0.7818609E-02  0.8607521E-01
       -2   -1    0    0    0  501  0.00000000000E+00  0.00000000000E+00  0.89186941046E+03  0.89186941046E+03  0.25500000920E-02 0.  1.
        2   -1    0    0  501    0  0.00000000000E+00  0.00000000000E+00 -0.11190836634E+04  0.11190836634E+04  0.25500000920E-02 0. -1.
    10030    2    1    2    0    0  0.00000000000E+00  0.00000000000E+00 -0.22721425292E+03  0.20109530738E+04  0.19980755612E+04 0.  0.
        3    1    3    3  502    0  0.17815169881E+03 -0.82012652299E+03 -0.65906959372E+03  0.10671074365E+04  0.10100000352E+00 0. -1.
       -3    1    3    3    0  502 -0.17815169881E+03  0.82012652299E+03  0.43185534081E+03  0.94384563732E+03  0.10100000352E+00 0.  1.
</event>
<event>
 5   0  0.5118981E-06  0.2001193E+04  0.7818609E-02  0.8606063E-01
       -2   -1    0    0    0  501  0.00000000000E+00  0.00000000000E+00  0.92142670173E+03  0.92142670173E+03  0.25500000920E-02 0.  1.
        2   -1    0    0  501    0  0.00000000000E+00  0.00000000000E+00 -0.10865684682E+04  0.10865684682E+04  0.25500000920E-02 0. -1.
    10030    2    1    2    0    0  0.00000000000E+00  0.00000000000E+00 -0.16514176644E+03  0.20079951699E+04  0.20011928441E+04 0.  0.
        4    1    3    3  502    0  0.72935433628E+03 -0.63044096771E+03  0.18625400613E+03  0.98188885792E+03  0.12699999809E+01 0.  1.
       -4    1    3    3    0  502 -0.72935433628E+03  0.63044096771E+03 -0.35139577257E+03  0.10261063120E+04  0.12699999809E+01 0. -1.
</event>
<event>
 5   0  0.5251252E-06  0.2000416E+04  0.7818609E-02  0.8606426E-01
       -2   -1    0    0    0  501  0.00000000000E+00  0.00000000000E+00  0.94417876915E+03  0.94417876916E+03  0.25500000920E-02 0. -1.
        2   -1    0    0  501    0  0.00000000000E+00  0.00000000000E+00 -0.10595617658E+04  0.10595617659E+04  0.25500000920E-02 0.  1.
    10030    2    1    2    0    0  0.00000000000E+00  0.00000000000E+00 -0.11538299670E+03  0.20037405350E+04  0.20004156807E+04 0.  0.
        5    1    3    3  502    0 -0.25119245530E+03  0.94813782642E+03 -0.25379904450E+03  0.10131628855E+04  0.46999998093E+01 0.  1.
       -5    1    3    3    0  502  0.25119245530E+03 -0.94813782642E+03  0.13841604780E+03  0.99057764954E+03  0.46999998093E+01 0. -1.
</event>
<event>
 5   0  0.2379743E-06  0.1999561E+04  0.7818609E-02  0.8606826E-01
        1   -1    0    0  501    0  0.00000000000E+00  0.00000000000E+00  0.17877374740E+04  0.17877374741E+04  0.50400001928E-02 0. -1.
       -1   -1    0    0    0  501  0.00000000000E+00  0.00000000000E+00 -0.55912052779E+03  0.55912052781E+03  0.50400001928E-02 0.  1.
    10030    2    1    2    0    0  0.00000000000E+00  0.00000000000E+00  0.12286169463E+04  0.23468580019E+04  0.19995606718E+04 0.  0.
        5    1    3    3  502    0 -0.25575476305E+03 -0.86249784475E+03  0.11262103325E+04  0.14414176474E+04  0.46999998093E+01 0. -1.
       -5    1    3    3    0  502  0.25575476305E+03  0.86249784475E+03  0.10240661373E+03  0.90544035450E+03  0.46999998093E+01 0.  1.
</event>
<event>
 5   0  0.5030137E-06  0.2000158E+04  0.7818609E-02  0.8606547E-01
        2   -1    0    0  501    0  0.00000000000E+00  0.00000000000E+00  0.81304020940E+03  0.81304020941E+03  0.25500000920E-02 0.  1.
       -2   -1    0    0    0  501  0.00000000000E+00  0.00000000000E+00 -0.12301453913E+04  0.12301453913E+04  0.25500000920E-02 0. -1.
    10030    2    1    2    0    0  0.00000000000E+00  0.00000000000E+00 -0.41710518192E+03  0.20431856007E+04  0.20001576603E+04 0.  0.
        3    1    3    3  502    0 -0.41879863291E+03  0.41902205317E+03 -0.10316061973E+04  0.11896146991E+04  0.10100000352E+00 0. -1.
       -3    1    3    3    0  502  0.41879863291E+03 -0.41902205317E+03  0.61450101535E+03  0.85357090159E+03  0.10100000352E+00 0.  1.
</event>
<event>
 5   0  0.4956214E-06  0.2004731E+04  0.7818609E-02  0.8604412E-01
       -2   -1    0    0    0  501  0.00000000000E+00  0.00000000000E+00  0.68223993663E+03  0.68223993664E+03  0.25500000920E-02 0.  1.
        2   -1    0    0  501    0  0.00000000000E+00  0.00000000000E+00 -0.14727024348E+04  0.14727024348E+04  0.25500000920E-02 0. -1.
    10030    2    1    2    0    0  0.00000000000E+00  0.00000000000E+00 -0.79046249821E+03  0.21549423715E+04  0.20047308207E+04 0.  0.
        1    1    3    3  502    0  0.17013470386E+03  0.56708181507E+03  0.47420509096E+03  0.75854997908E+03  0.50400001928E-02 0.  1.
       -1    1    3    3    0  502 -0.17013470386E+03 -0.56708181507E+03 -0.12646675892E+04  0.13963923924E+04  0.50400001928E-02 0. -1.
</event>
<event>
 5   0  0.5118981E-06  0.1996390E+04  0.7818609E-02  0.8608310E-01
        2   -1    0    0  501    0  0.00000000000E+00  0.00000000000E+00  0.73020223369E+03  0.73020223370E+03  0.25500000920E-02 0. -1.
       -2   -1    0    0    0  501  0.00000000000E+00  0.00000000000E+00 -0.13645443621E+04  0.13645443621E+04  0.25500000920E-02 0.  1.
    10030    2    1    2    0    0  0.00000000000E+00  0.00000000000E+00 -0.63434212837E+03  0.20947465958E+04  0.19963900833E+04 0.  0.
        4    1    3    3  502    0 -0.71050152843E+03 -0.68419955396E+03 -0.47785041756E+03  0.10960310607E+04  0.12699999809E+01 0. -1.
       -4    1    3    3    0  502  0.71050152843E+03  0.68419955396E+03 -0.15649171081E+03  0.99871553507E+03  0.12699999809E+01 0.  1.
</event>
<event>
 5   0  0.4956214E-06  0.1999599E+04  0.7818609E-02  0.8606808E-01
       -2   -1    0    0    0  501  0.00000000000E+00  0.00000000000E+00  0.83832734812E+03  0.83832734813E+03  0.25500000920E-02 0.  1.
        2   -1    0    0  501    0  0.00000000000E+00  0.00000000000E+00 -0.11923732923E+04  0.11923732923E+04  0.25500000920E-02 0. -1.
    10030    2    1    2    0    0  0.00000000000E+00  0.00000000000E+00 -0.35404594415E+03  0.20307006404E+04  0.19995990999E+04 0.  0.
        1    1    3    3  502    0 -0.80317540307E+03 -0.55482900337E+03 -0.39642301639E+03  0.10536019927E+04  0.50400001928E-02 0. -1.
       -1    1    3    3    0  502  0.80317540307E+03  0.55482900337E+03  0.42377072235E+02  0.97709864771E+03  0.50400001928E-02 0.  1.
</event>
<event>
 5   0  0.5030137E-06  0.1999421E+04  0.7818609E-02  0.8606892E-01
        2   -1    0    0  501    0  0.00000000000E+00  0.00000000000E+00  0.11651090491E+04  0.11651090491E+04  0.25500000920E-02 0.  1.
       -2   -1    0    0    0  501  0.00000000000E+00  0.00000000000E+00 -0.85779152702E+03  0.85779152703E+03  0.25500000920E-02 0. -1.
    10030    2    1    2    0    0  0.00000000000E+00  0.00000000000E+00  0.30731752204E+03  0.20229005761E+04  0.19994205864E+04 0.  0.
        3    1    3    3  502    0 -0.34351446735E+03 -0.90768770958E+03  0.39631164239E+03  0.10483139298E+04  0.10100000352E+00 0.  1.
       -3    1    3    3    0  502  0.34351446735E+03  0.90768770958E+03 -0.88994120352E+02  0.97458664625E+03  0.10100000352E+00 0. -1.
</event>
<event>
 5   0  0.5129100E-06  0.2000420E+04  0.7818609E-02  0.8606424E-01
       -2   -1    0    0    0  501  0.00000000000E+00  0.00000000000E+00  0.66657249644E+03  0.66657249644E+03  0.25500000920E-02 0.  1.
        2   -1    0    0  501    0  0.00000000000E+00  0.00000000000E+00 -0.15008415998E+04  0.15008415998E+04  0.25500000920E-02 0. -1.
    10030    2    1    2    0    0  0.00000000000E+00  0.00000000000E+00 -0.83426910340E+03  0.21674140963E+04  0.20004196879E+04 0.  0.
        2    1    3    3  502    0  0.30657763206E+03  0.47660960586E+03 -0.13101171675E+04  0.14274290012E+04  0.25500000920E-02 0. -1.
       -2    1    3    3    0  502 -0.30657763206E+03 -0.47660960586E+03  0.47584806408E+03  0.73998509510E+03  0.25500000920E-02 0.  1.
</event>
<event>
 5   0  0.4956214E-06  0.2002381E+04  0.7818609E-02  0.8605508E-01
       -2   -1    0    0    0  501  0.00000000000E+00  0.00000000000E+00  0.15153302392E+04  0.15153302392E+04  0.25500000920E-02 0.  1.
        2   -1    0    0  501    0  0.00000000000E+00  0.00000000000E+00 -0.66149417334E+03  0.66149417334E+03  0.25500000920E-02 0. -1.
    10030    2    1    2    0    0  0.00000000000E+00  0.00000000000E+00  0.85383606586E+03  0.21768244125E+04  0.20023807070E+04 0.  0.
        1    1    3    3  502    0 -0.48603733995E+03  0.77157796481E+03 -0.22388401812E+02  0.91217656853E+03  0.50400001928E-02 0.  1.
       -1    1    3    3    0  502  0.48603733995E+03 -0.77157796481E+03  0.87622446767E+03  0.12646478440E+04  0.50400001928E-02 0. -1.
</event>
<event>
 5   0  0.5129100E-06  0.2000011E+04  0.7818609E-02  0.8606616E-01
       -2   -1    0    0    0  501  0.00000000000E+00  0.00000000000E+00  0.38049518989E+03  0.38049518989E+03  0.25500000920E-02 0.  1.
        2   -1    0    0  501    0  0.00000000000E+00  0.00000000000E+00 -0.26281821909E+04  0.26281821909E+04  0.25500000920E-02 0. -1.
    10030    2    1    2    0    0  0.00000000000E+00  0.00000000000E+00 -0.22476870010E+04  0.30086773808E+04  0.20000106818E+04 0.  0.
        2    1    3    3  502    0  0.91348315005E+02  0.31363123179E+03  0.29796912390E+03  0.44214778413E+03  0.25500000920E-02 0.  1.
       -2    1    3    3    0  502 -0.91348315005E+02 -0.31363123179E+03 -0.25456561249E+04  0.25665295967E+04  0.25500000920E-02 0. -1.
</event>
<event>
 5   0  0.2313821E-06  0.1998349E+04  0.7818609E-02  0.8607393E-01
       -1   -1    0    0    0  501  0.00000000000E+00  0.00000000000E+00  0.21458592424E+04  0.21458592424E+04  0.50400001928E-02 0. -1.
        1   -1    0    0  501    0  0.00000000000E+00  0.00000000000E+00 -0.46524471797E+03  0.46524471800E+03  0.50400001928E-02 0.  1.
    10030    2    1    2    0    0  0.00000000000E+00  0.00000000000E+00  0.16806145244E+04  0.26111039604E+04  0.19983489966E+04 0.  0.
        1    1    3    3  502    0 -0.29182188251E+03  0.82075829248E+03  0.14798165085E+04  0.17171665862E+04  0.50400001928E-02 0. -1.
       -1    1    3    3    0  502  0.29182188251E+03 -0.82075829248E+03  0.20079801588E+03  0.89393737420E+03  0.50400001928E-02 0.  1.
</event>
<event>
 5   0  0.2386776E-06  0.1998000E+04  0.7818609E-02  0.8607557E-01
       -1   -1    0    0    0  501  0.00000000000E+00  0.00000000000E+00  0.12273680491E+04  0.12273680491E+04  0.50400001928E-02 0.  1.
        1   -1    0    0  501    0  0.00000000000E+00  0.00000000000E+00 -0.81312248019E+03  0.81312248020E+03  0.50400001928E-02 0. -1.
    10030    2    1    2    0    0  0.00000000000E+00  0.00000000000E+00  0.41424556893E+03  0.20404905293E+04  0.19979995518E+04 0.  0.
        2    1    3    3  502    0 -0.31399582068E+03 -0.86904561690E+03 -0.18064521466E+03  0.94152342151E+03  0.25500000920E-02 0. -1.
       -2    1    3    3    0  502  0.31399582068E+03  0.86904561690E+03  0.59489078359E+03  0.10989671078E+04  0.25500000920E-02 0.  1.
</event>
<event>
 5   0  0.2356996E-06  0.2000254E+04  0.7818609E-02  0.8606502E-01
        1   -1    0    0  501    0  0.00000000000E+00  0.00000000000E+00  0.11402034182E+04  0.11402034182E+04  0.50400001928E-02 0. -1.
       -1   -1    0    0    0  501  0.00000000000E+00  0.00000000000E+00 -0.87725931957E+03  0.87725931959E+03  0.50400001928E-02 0.  1.
    10030    2    1    2    0    0  0.00000000000E+00  0.00000000000E+00  0.26294409859E+03  0.20174627378E+04  0.20002540587E+04 0.  0.
        4    1    3    3  502    0  0.27870982144E+03 -0.67540610699E+03  0.82028226667E+03  0.10985067974E+04  0.12699999809E+01 0. -1.
       -4    1    3    3    0  502 -0.27870982144E+03  0.67540610699E+03 -0.55733816807E+03  0.91895594041E+03  0.12699999809E+01 0.  1.
</event>
<event>
 5   0  0.2379743E-06  0.2000134E+04  0.7818609E-02  0.8606558E-01
       -1   -1    0    0    0  501  0.00000000000E+00  0.00000000000E+00  0.13322135685E+04  0.13322135685E+04  0.50400001928E-02 0. -1.
        1   -1    0    0  501    0  0.00000000000E+00  0.00000000000E+00 -0.75073131311E+03  0.75073131312E+03  0.50400001928E-02 0.  1.
    10030    2    1    2    0    0  0.00000000000E+00  0.00000000000E+00  0.58148225542E+03  0.20829448817E+04  0.20001344371E+04 0.  0.
        5    1    3    3  502    0 -0.29489996344E+03 -0.12188565411E+03  0.12777633567E+04  0.13170130550E+04  0.46999998093E+01 0. -1.
       -5    1    3    3    0  502  0.29489996344E+03  0.12188565411E+03 -0.69628110131E+03  0.76593182670E+03  0.46999998093E+01 0.  1.
</event>
<event>
 5   0  0.5030137E-06  0.2000322E+04  0.7818609E-02  0.8606470E-01
        2   -1    0    0  501    0  0.00000000000E+00  0.00000000000E+00  0.72147724267E+03  0.72147724268E+03  0.25500000920E-02 0.  1.
       -2   -1    0    0    0  501  0.00000000000E+00  0.00000000000E+00 -0.13864913711E+04  0.13864913711E+04  0.25500000920E-02 0. -1.
    10030    2    1    2    0    0  0.00000000000E+00  0.00000000000E+00 -0.66501412839E+03  0.21079686137E+04  0.20003219455E+04 0.  0.
        3    1    3    3  502    0 -0.63527515022E+03 -0.54390464108E+03  0.24557073845E+03  0.87161446343E+03  0.10100000352E+00 0.  1.
       -3    1    3    3    0  502  0.63527515022E+03  0.54390464108E+03 -0.91058486684E+03  0.12363541503E+04  0.10100000352E+00 0. -1.
</event>
<event>
 5   0  0.5030137E-06  0.1999738E+04  0.7818609E-02  0.8606743E-01
        2   -1    0    0  501    0  0.00000000000E+00  0.00000000000E+00  0.16635153937E+04  0.16635153937E+04  0.25500000920E-02 0.  1.
       -2   -1    0    0    0  501  0.00000000000E+00  0.00000000000E+00 -0.60097939761E+03  0.60097939762E+03  0.25500000920E-02 0. -1.
    10030    2    1    2    0    0  0.00000000000E+00  0.00000000000E+00  0.10625359961E+04  0.22644947913E+04  0.19997384621E+04 0.  0.
        3    1    3    3  502    0 -0.79853866759E+03  0.20330071097E+03 -0.11005514699E+03  0.83132865240E+03  0.10100000352E+00 0. -1.
       -3    1    3    3    0  502  0.79853866759E+03 -0.20330071097E+03  0.11725911431E+04  0.14331661389E+04  0.10100000352E+00 0.  1.
</event>
<event>
 5   0  0.2311520E-06  0.2001450E+04  0.7818609E-02  0.8605943E-01
       -1   -1    0    0    0  501  0.00000000000E+00  0.00000000000E+00  0.89914999327E+03  0.89914999328E+03  0.50400001928E-02 0. -1.
        1   -1    0    0  501    0  0.00000000000E+00  0.00000000000E+00 -0.11137748856E+04  0.11137748856E+04  0.50400001928E-02 0.  1.
    10030    2    1    2    0    0  0.00000000000E+00  0.00000000000E+00 -0.21462489235E+03  0.20129248789E+04  0.20014501552E+04 0.  0.
        3    1    3    3  502    0  0.29024761669E+02  0.80407410082E+03 -0.70576433188E+03  0.10702714136E+04  0.10100000352E+00 0.  1.
       -3    1    3    3    0  502 -0.29024761669E+02 -0.80407410082E+03  0.49113943953E+03  0.94265346531E+03  0.10100000352E+00 0. -1.
</event>
<event>
 5   0  0.2356996E-06  0.2000152E+04  0.7818609E-02  0.8606550E-01
       -1   -1    0    0    0  501  0.00000000000E+00  0.00000000000E+00  0.87067856709E+03  0.87067856711E+03  0.50400001928E-02 0. -1.
        1   -1    0    0  501    0  0.00000000000E+00  0.00000000000E+00 -0.11487038277E+04  0.11487038277E+04  0.50400001928E-02 0.  1.
    10030    2    1    2    0    0  0.00000000000E+00  0.00000000000E+00 -0.27802526058E+03  0.20193823948E+04  0.20001517970E+04 0.  0.
        4    1    3    3  502    0 -0.72233071287E+03  0.29999133829E+03 -0.76821697535E+03  0.10963190211E+04  0.12699999809E+01 0.  1.
       -4    1    3    3    0  502  0.72233071287E+03 -0.29999133829E+03  0.49019171477E+03  0.92306337374E+03  0.12699999809E+01 0. -1.
</event>
<event>
 5   0  0.2379743E-06  0.1999865E+04  0.7818609E-02  0.8606684E-01
        1   -1    0    0  501    0  0.00000000000E+00  0.00000000000E+00  0.20903193024E+04  0.20903193024E+04  0.50400001928E-02 0.  1.
       -1   -1    0    0    0  501  0.00000000000E+00  0.00000000000E+00 -0.47833112634E+03  0.47833112637E+03  0.50400001928E-02 0. -1.
    10030    2    1    2    0    0  0.00000000000E+00  0.00000000000E+00  0.16119881760E+04  0.25686504288E+04  0.19998647818E+04 0.  0.
        5    1    3    3  502    0 -0.81523863303E+03 -0.22322711186E+03  0.14921614891E+04  0.17149380081E+04  0.46999998093E+01 0.  1.
       -5    1    3    3    0  502  0.81523863303E+03  0.22322711186E+03  0.11982668698E+03  0.85371242065E+03  0.46999998093E+01 0. -1.
</event>
<event>
 5   0  0.5118981E-06  0.1999401E+04  0.7818609E-02  0.8606901E-01
        2   -1    0    0  501    0  0.00000000000E+00  0.00000000000E+00  0.15057446016E+04  0.15057446016E+04  0.25500000920E-02 0.  1.
       -2   -1    0    0    0  501  0.00000000000E+00  0.00000000000E+00 -0.66372525115E+03  0.66372525116E+03  0.25500000920E-02 0. -1.
    10030    2    1    2    0    0  0.00000000000E+00  0.00000000000E+00  0.84201935046E+03  0.21694698528E+04  0.19994006241E+04 0.  0.
        4    1    3    3  502    0 -0.85816428855E+03  0.51132148802E+03  0.46308274236E+03  0.11010644166E+04  0.12699999809E+01 0. -1.
       -4    1    3    3    0  502  0.85816428855E+03 -0.51132148802E+03  0.37893660809E+03  0.10684054362E+04  0.12699999809E+01 0.  1.
</event>
<event>
 5   0  0.5118981E-06  0.1999815E+04  0.7818609E-02  0.8606707E-01
        2   -1    0    0  501    0  0.00000000000E+00  0.00000000000E+00  0.93314054256E+03  0.93314054256E+03  0.25500000920E-02 0. -1.
       -2   -1    0    0    0  501  0.00000000000E+00  0.00000000000E+00 -0.10714518523E+04  0.10714518523E+04  0.25500000920E-02 0.  1.
    10030    2    1    2    0    0  0.00000000000E+00  0.00000000000E+00 -0.13831130973E+03  0.20045923949E+04  0.19998151542E+04 0.  0.
        4    1    3    3  502    0  0.99348441660E+03 -0.22522483658E+02 -0.18030336445E+03  0.10099650808E+04  0.12699999809E+01 0. -1.
       -4    1    3    3    0  502 -0.99348441660E+03  0.22522483658E+02  0.41992054721E+02  0.99462731405E+03  0.12699999809E+01 0.  1.
</event>
<event>
 5   0  0.5030137E-06  0.1999994E+04  0.7818609E-02  0.8606623E-01
        2   -1    0    0  501    0  0.00000000000E+00  0.00000000000E+00  0.12718381425E+04  0.12718381425E+04  0.25500000920E-02 0.  1.
       -2   -1    0    0    0  501  0.00000000000E+00  0.00000000000E+00 -0.78625883029E+03  0.78625883029E+03  0.25500000920E-02 0. -1.
    10030    2    1    2    0    0  0.00000000000E+00  0.00000000000E+00  0.48557931218E+03  0.20580969728E+04  0.19999939702E+04 0.  0.
        3    1    3    3  502    0  0.79326205674E+03 -0.94910471933E+02  0.86169491369E+03  0.11750705608E+04  0.10100000352E+00 0.  1.
       -3    1    3    3    0  502 -0.79326205674E+03  0.94910471933E+02 -0.37611560152E+03  0.88302641198E+03  0.10100000352E+00 0. -1.
</event>
<event>
 5   0  0.2313821E-06  0.1999674E+04  0.7818609E-02  0.8606773E-01
       -1   -1    0    0    0  501  0.00000000000E+00  0.00000000000E+00  0.76951827350E+03  0.76951827352E+03  0.50400001928E-02 0.  1.
        1   -1    0    0  501    0  0.00000000000E+00  0.00000000000E+00 -0.12990905267E+04  0.12990905267E+04  0.50400001928E-02 0. -1.
    10030    2    1    2    0    0  0.00000000000E+00  0.00000000000E+00 -0.52957225321E+03  0.20686088002E+04  0.19996738727E+04 0.  0.
        1    1    3    3  502    0 -0.25879514733E+03  0.95058109675E+03 -0.88334765071E+02  0.98913213502E+03  0.50400001928E-02 0. -1.
       -1    1    3    3    0  502  0.25879514733E+03 -0.95058109675E+03 -0.44123748814E+03  0.10794766652E+04  0.50400001928E-02 0.  1.
</event>
<event>
 5   0  0.5118981E-06  0.1999490E+04  0.7818609E-02  0.8606859E-01
       -2   -1    0    0    0  501  0.00000000000E+00  0.00000000000E+00  0.59848190402E+03  0.59848190402E+03  0.25500000920E-02 0. -1.
        2   -1    0    0  501    0  0.00000000000E+00  0.00000000000E+00 -0.16700427246E+04  0.16700427246E+04  0.25500000920E-02 0.  1.
    10030    2    1    2    0    0  0.00000000000E+00  0.00000000000E+00 -0.10715608206E+04  0.22685246286E+04  0.19994902847E+04 0.  0.
        4    1    3    3  502    0  0.64446762937E+02 -0.30045217132E+03 -0.16151341691E+04  0.16441061066E+04  0.12699999809E+01 0.  1.
       -4    1    3    3    0  502 -0.64446762937E+02  0.30045217132E+03  0.54357334856E+03  0.62441852204E+03  0.12699999809E+01 0. -1.
</event>
<event>
 5   0  0.2356996E-06  0.1997199E+04  0.7818609E-02  0.8607931E-01
       -1   -1    0    0    0  501  0.00000000000E+00  0.00000000000E+00  0.91756966328E+03  0.91756966329E+03  0.50400001928E-02 0. -1.
        1   -1    0    0  501    0  0.00000000000E+00  0.00000000000E+00 -0.10867846752E+04  0.10867846752E+04  0.50400001928E-02 0.  1.
    10030    2    1    2    0    0  0.00000000000E+00  0.00000000000E+00 -0.16921501193E+03  0.20043543385E+04  0.19971986867E+04 0.  0.
        4    1    3    3  502    0  0.46066151958E+03  0.79364616895E+03  0.31065096758E+03  0.96880798596E+03  0.12699999809E+01 0. -1.
       -4    1    3    3    0  502 -0.46066151958E+03 -0.79364616895E+03 -0.47986597951E+03  0.10355463526E+04  0.12699999809E+01 0.  1.
</event>
<event>
 5   0  0.4956214E-06  0.1999616E+04  0.7818609E-02  0.8606800E-01
        2   -1    0    0  501    0  0.00000000000E+00  0.00000000000E+00  0.28782860269E+04  0.28782860269E+04  0.25500000920E-02 0. -1.
       -2   -1    0    0    0  501  0.00000000000E+00  0.00000000000E+00 -0.34729553345E+03  0.34729553346E+03  0.25500000920E-02 0.  1.
    10030    2    1    2    0    0  0.00000000000E+00  0.00000000000E+00  0.25309904935E+04  0.32255815604E+04  0.19996158443E+04 0.  0.
        1    1    3    3  502    0  0.31828703018E+03  0.12331657458E+03 -0.25039220856E+03  0.42333186660E+03  0.50400001928E-02 0.  1.
       -1    1    3    3    0  502 -0.31828703018E+03 -0.12331657458E+03  0.27813827020E+04  0.28022496938E+04  0.50400001928E-02 0. -1.
</event>
<event>
 5   0  0.5251252E-06  0.1999556E+04  0.7818609E-02  0.8606828E-01
        2   -1    0    0  501    0  0.00000000000E+00  0.00000000000E+00  0.26832515348E+04  0.26832515348E+04  0.25500000920E-02 0.  1.
       -2   -1    0    0    0  501  0.00000000000E+00  0.00000000000E+00 -0.37251654225E+03  0.37251654226E+03  0.25500000920E-02 0. -1.
    10030    2    1    2    0    0  0.00000000000E+00  0.00000000000E+00  0.23107349926E+04  0.30557680771E+04  0.19995555344E+04 0.  0.
        5    1    3    3  502    0 -0.88448201737E+03  0.42531577307E+03  0.86407528682E+03  0.13076123803E+04  0.46999998093E+01 0. -1.
       -5    1    3    3    0  502  0.88448201737E+03 -0.42531577307E+03  0.14466597058E+04  0.17481556968E+04  0.46999998093E+01 0.  1.
</event>
<event>
 5   0  0.2313821E-06  0.2000017E+04  0.7818609E-02  0.8606613E-01
        1   -1    0    0  501    0  0.00000000000E+00  0.00000000000E+00  0.87720022563E+03  0.87720022564E+03  0.50400001928E-02 0. -1.
       -1   -1    0    0    0  501  0.00000000000E+00  0.00000000000E+00 -0.11400099020E+04  0.11400099020E+04  0.50400001928E-02 0.  1.
    10030    2    1    2    0    0  0.00000000000E+00  0.00000000000E+00 -0.26280967638E+03  0.20172101277E+04  0.20000169432E+04 0.  0.
        1    1    3    3  502    0 -0.48000218229E+03 -0.38424039033E+03 -0.92683790308E+03  0.11122370571E+04  0.50400001928E-02 0.  1.
       -1    1    3    3    0  502  0.48000218229E+03  0.38424039033E+03  0.66402822670E+03  0.90497307056E+03  0.50400001928E-02 0. -1.
</event>
<event>
 5   0  0.2313821E-06  0.1995468E+04  0.7818609E-02  0.8608742E-01
        1   -1    0    0  501    0  0.00000000000E+00  0.00000000000E+00  0.11851428430E+04  0.11851428430E+04  0.50400001928E-02 0. -1.
       -1   -1    0    0    0  501  0.00000000000E+00  0.00000000000E+00 -0.83996076904E+03  0.83996076905E+03  0.50400001928E-02 0.  1.
    10030    2    1    2    0    0  0.00000000000E+00  0.00000000000E+00  0.34518207394E+03  0.20251036120E+04  0.19954683599E+04 0.  0.
        1    1    3    3  502    0 -0.26423553462E+03  0.35975945578E+03 -0.73297606548E+03  0.85819647889E+03  0.50400001928E-02 0.  1.
       -1    1    3    3    0  502  0.26423553462E+03 -0.35975945578E+03  0.10781581394E+04  0.11669071332E+04  0.50400001928E-02 0. -1.
</event>
<event>
 5   0  0.2356996E-06  0.2000421E+04  0.7818609E-02  0.8606424E-01
        1   -1    0    0  501    0  0.00000000000E+00  0.00000000000E+00  0.93084355945E+03  0.93084355946E+03  0.50400001928E-02 0. -1.
       -1   -1    0    0    0  501  0.00000000000E+00  0.00000000000E+00 -0.10747470905E+04  0.10747470905E+04  0.50400001928E-02 0.  1.
    10030    2    1    2    0    0  0.00000000000E+00  0.00000000000E+00 -0.14390353105E+03  0.20055906500E+04  0.20004213629E+04 0.  0.
        4    1    3    3  502    0  0.46821275977E+03  0.86722097751E+03 -0.24305143584E+03  0.10150719312E+04  0.12699999809E+01 0.  1.
       -4    1    3    3    0  502 -0.46821275977E+03 -0.86722097751E+03  0.99147904787E+02  0.99051871873E+03  0.12699999809E+01 0. -1.
</event>
<event>
 5   0  0.5118981E-06  0.1999108E+04  0.7818609E-02  0.8607038E-01
        2   -1    0    0  501    0  0.00000000000E+00  0.00000000000E+00  0.14726766129E+04  0.14726766129E+04  0.25500000920E-02 0. -1.
       -2   -1    0    0    0  501  0.00000000000E+00  0.00000000000E+00 -0.67842989543E+03  0.67842989543E+03  0.25500000920E-02 0.  1.
    10030    2    1    2    0    0  0.00000000000E+00  0.00000000000E+00  0.79424671748E+03  0.21511065083E+04  0.19991076414E+04 0.  0.
        4    1    3    3  502    0  0.40263531478E+03 -0.65346834674E+03  0.10860958051E+04  0.13299405204E+04  0.12699999809E+01 0. -1.
       -4    1    3    3    0  502 -0.40263531478E+03  0.65346834674E+03 -0.29184908767E+03  0.82116598795E+03  0.12699999809E+01 0.  1.
</event>
<event>
 5   0  0.2313821E-06  0.1999772E+04  0.7818609E-02  0.8606727E-01
        1   -1    0    0  501    0  0.00000000000E+00  0.00000000000E+00  0.75407439857E+03  0.75407439859E+03  0.50400001928E-02 0.  1.
       -1   -1    0    0    0  501  0.00000000000E+00  0.00000000000E+00 -0.13258263734E+04  0.13258263734E+04  0.50400001928E-02 0. -1.
    10030    2    1    2    0    0  0.00000000000E+00  0.00000000000E+00 -0.57175197481E+03  0.20799007720E+04  0.19997717121E+04 0.  0.
        1    1    3    3  502    0 -0.38474878189E+03  0.13334725227E+03  0.66392899587E+03  0.77885481730E+03  0.50400001928E-02 0.  1.
       -1    1    3    3    0  502  0.38474878189E+03 -0.13334725227E+03 -0.12356809707E+04  0.13010459547E+04  0.50400001928E-02 0. -1.
</event>
<event>
 5   0  0.4956214E-06  0.2000326E+04  0.7818609E-02  0.8606468E-01
       -2   -1    0    0    0  501  0.00000000000E+00  0.00000000000E+00  0.11242740964E+04  0.11242740964E+04  0.25500000920E-02 0.  1.
        2   -1    0    0  501    0  0.00000000000E+00  0.00000000000E+00 -0.88975312828E+03  0.88975312829E+03  0.25500000920E-02 0. -1.
    10030    2    1    2    0    0  0.00000000000E+00  0.00000000000E+00  0.23452096813E+03  0.20140272247E+04  0.20003263677E+04 0.  0.
        1    1    3    3  502    0 -0.77210621679E+03  0.35455251990E+03 -0.41405733634E+03  0.94514495035E+03  0.50400001928E-02 0. -1.
       -1    1    3    3    0  502  0.77210621679E+03 -0.35455251990E+03  0.64857830447E+03  0.10688822744E+04  0.50400001928E-02 0.  1.
</event>
<event>
 5   0  0.1777750E-06  0.2000225E+04  0.7818609E-02  0.8606515E-01
        3   -1    0    0  501    0  0.00000000000E+00  0.00000000000E+00  0.72282034668E+03  0.72282035374E+03  0.10100000352E+00 0.  1.
       -3   -1    0    0    0  501  0.00000000000E+00  0.00000000000E+00 -0.13837811279E+04  0.13837811316E+04  0.10100000352E+00 0. -1.
    10030    2    1    2    0    0  0.00000000000E+00  0.00000000000E+00 -0.66096078123E+03  0.21066014853E+04  0.20002251533E+04 0.  0.
        2    1    3    3  502    0 -0.97273336921E+03 -0.23199197163E+03 -0.31578544416E+03  0.10486901016E+04  0.25500000920E-02 0. -1.
       -2    1    3    3    0  502  0.97273336921E+03  0.23199197163E+03 -0.34517533707E+03  0.10579113837E+04  0.25500000920E-02 0.  1.
</event>
<event>
 5   0  0.5030137E-06  0.2000697E+04  0.7818609E-02  0.8606295E-01
       -2   -1    0    0    0  501  0.00000000000E+00  0.00000000000E+00  0.50393066151E+03  0.50393066151E+03  0.25500000920E-02 0.  1.
        2   -1    0    0  501    0  0.00000000000E+00  0.00000000000E+00 -0.19857827741E+04  0.19857827741E+04  0.25500000920E-02 0. -1.
    10030    2    1    2    0    0  0.00000000000E+00  0.00000000000E+00 -0.14818521126E+04  0.24897134357E+04  0.20006967056E+04 0.  0.
        3    1    3    3  502    0  0.38211145006E+02  0.80685467790E+03 -0.14752646730E+04  0.16819275931E+04  0.10100000352E+00 0. -1.
       -3    1    3    3    0  502 -0.38211145006E+02 -0.80685467790E+03 -0.65874396220E+01  0.80778584254E+03  0.10100000352E+00 0.  1.
</event>
<event>
 5   0  0.2313821E-06  0.2000052E+04  0.7818609E-02  0.8606596E-01
       -1   -1    0    0    0  501  0.00000000000E+00  0.00000000000E+00  0.76329120164E+03  0.76329120166E+03  0.50400001928E-02 0. -1.
        1   -1    0    0  501    0  0.00000000000E+00  0.00000000000E+00 -0.13101843179E+04  0.13101843179E+04  0.50400001928E-02 0.  1.
    10030    2    1    2    0    0  0.00000000000E+00  0.00000000000E+00 -0.54689311626E+03  0.20734755196E+04  0.20000521617E+04 0.  0.
        1    1    3    3  502    0 -0.28401017542E+03 -0.31025056984E+03  0.66712775773E+03  0.78865495687E+03  0.50400001928E-02 0. -1.
       -1    1    3    3    0  502  0.28401017542E+03  0.31025056984E+03 -0.12140208740E+04  0.12848205627E+04  0.50400001928E-02 0.  1.
</event>
<event>
 5   0  0.1777750E-06  0.2000335E+04  0.7818609E-02  0.8606464E-01
       -3   -1    0    0    0  501  0.00000000000E+00  0.00000000000E+00  0.68222136657E+03  0.68222137405E+03  0.10100000352E+00 0.  1.
        3   -1    0    0  501    0  0.00000000000E+00  0.00000000000E+00 -0.14662915800E+04  0.14662915835E+04  0.10100000352E+00 0. -1.
    10030    2    1    2    0    0  0.00000000000E+00  0.00000000000E+00 -0.78407021341E+03  0.21485129575E+04  0.20003354291E+04 0.  0.
        2    1    3    3  502    0  0.49260036070E+03  0.64720130208E+03 -0.10172276413E+04  0.13024118838E+04  0.25500000920E-02 0. -1.
       -2    1    3    3    0  502 -0.49260036070E+03 -0.64720130208E+03  0.23315742789E+03  0.84610107373E+03  0.25500000920E-02 0.  1.
</event>
<event>
 5   0  0.5251252E-06  0.1996388E+04  0.7818609E-02  0.8608311E-01
       -2   -1    0    0    0  501  0.00000000000E+00  0.00000000000E+00  0.11522244798E+04  0.11522244798E+04  0.25500000920E-02 0. -1.
        2   -1    0    0  501    0  0.00000000000E+00  0.00000000000E+00 -0.86475424319E+03  0.86475424319E+03  0.25500000920E-02 0.  1.
    10030    2    1    2    0    0  0.00000000000E+00  0.00000000000E+00  0.28747023662E+03  0.20169787230E+04  0.19963877459E+04 0.  0.
        5    1    3    3  502    0 -0.31743763932E+02 -0.57866859736E+03  0.96483145876E+03  0.11255162575E+04  0.46999998093E+01 0. -1.
       -5    1    3    3    0  502  0.31743763932E+02  0.57866859736E+03 -0.67736122214E+03  0.89146246549E+03  0.46999998093E+01 0.  1.
</event>
<event>
 5   0  0.2313821E-06  0.1996471E+04  0.7818609E-02  0.8608272E-01
        1   -1    0    0  501    0  0.00000000000E+00  0.00000000000E+00  0.80757100416E+03  0.80757100418E+03  0.50400001928E-02 0. -1.
       -1   -1    0    0    0  501  0.00000000000E+00  0.00000000000E+00 -0.12339157821E+04  0.12339157821E+04  0.50400001928E-02 0.  1.
    10030    2    1    2    0    0  0.00000000000E+00  0.00000000000E+00 -0.42634477790E+03  0.20414867862E+04  0.19964714946E+04 0.  0.
        1    1    3    3  502    0 -0.90292520132E+03  0.14527991642E+03  0.19596726722E+03  0.93529853156E+03  0.50400001928E-02 0. -1.
       -1    1    3    3    0  502  0.90292520132E+03 -0.14527991642E+03 -0.62231204512E+03  0.11061882547E+04  0.50400001928E-02 0.  1.
</event>
<event>
 5   0  0.2379743E-06  0.1999454E+04  0.7818609E-02  0.8606876E-01
        1   -1    0    0  501    0  0.00000000000E+00  0.00000000000E+00  0.15868775336E+04  0.15868775336E+04  0.50400001928E-02 0. -1.
       -1   -1    0    0    0  501  0.00000000000E+00  0.00000000000E+00 -0.62982439383E+03  0.62982439385E+03  0.50400001928E-02 0.  1.
    10030    2    1    2    0    0  0.00000000000E+00  0.00000000000E+00  0.95705313975E+03  0.22167019274E+04  0.19994541062E+04 0.  0.
        5    1    3    3  502    0  0.13090195548E+03 -0.15560358122E+02 -0.62013437268E+03  0.63400802587E+03  0.46999998093E+01 0.  1.
       -5    1    3    3    0  502 -0.13090195548E+03  0.15560358122E+02  0.15771875124E+04  0.15826939016E+04  0.46999998093E+01 0. -1.
</event>
<event>
 5   0  0.2311520E-06  0.2000904E+04  0.7818609E-02  0.8606198E-01
        1   -1    0    0  501    0  0.00000000000E+00  0.00000000000E+00  0.27515973153E+04  0.27515973153E+04  0.50400001928E-02 0.  1.
       -1   -1    0    0    0  501  0.00000000000E+00  0.00000000000E+00 -0.36375386545E+03  0.36375386549E+03  0.50400001928E-02 0. -1.
    10030    2    1    2    0    0  0.00000000000E+00  0.00000000000E+00  0.23878434498E+04  0.31153511808E+04  0.20009039554E+04 0.  0.
        3    1    3    3  502    0  0.96203487645E+03  0.27301052317E+03  0.12395359574E+04  0.15926378273E+04  0.10100000352E+00 0. -1.
       -3    1    3    3    0  502 -0.96203487645E+03 -0.27301052317E+03  0.11483074925E+04  0.15227133534E+04  0.10100000352E+00 0.  1.
</event>
<event>
 5   0  0.5118981E-06  0.1999679E+04  0.7818609E-02  0.8606771E-01
        2   -1    0    0  501    0  0.00000000000E+00  0.00000000000E+00  0.10922810107E+04  0.10922810107E+04  0.25500000920E-02 0. -1.
       -2   -1    0    0    0  501  0.00000000000E+00  0.00000000000E+00 -0.91522163574E+03  0.91522163575E+03  0.25500000920E-02 0.  1.
    10030    2    1    2    0    0  0.00000000000E+00  0.00000000000E+00  0.17705937496E+03  0.20075026465E+04  0.19996791876E+04 0.  0.
        4    1    3    3  502    0 -0.62230339186E+03  0.60353210305E+03 -0.41158100914E+03  0.95964214733E+03  0.12699999809E+01 0.  1.
       -4    1    3    3    0  502  0.62230339186E+03 -0.60353210305E+03  0.58864038410E+03  0.10478604991E+04  0.12699999809E+01 0. -1.
</event>
<event>
 5   0  0.2386776E-06  0.1999294E+04  0.7818609E-02  0.8606951E-01
        1   -1    0    0  501    0  0.00000000000E+00  0.00000000000E+00  0.57308412139E+03  0.57308412141E+03  0.50400001928E-02 0. -1.
       -1   -1    0    0    0  501  0.00000000000E+00  0.00000000000E+00 -0.17437128126E+04  0.17437128126E+04  0.50400001928E-02 0.  1.
    10030    2    1    2    0    0  0.00000000000E+00  0.00000000000E+00 -0.11706286912E+04  0.23167969340E+04  0.19992940006E+04 0.  0.
        2    1    3    3  502    0 -0.80507513277E+02  0.82081200677E+03 -0.12398922073E+04  0.14891428729E+04  0.25500000920E-02 0.  1.
       -2    1    3    3    0  502  0.80507513277E+02 -0.82081200677E+03  0.69263516140E+02  0.82765406108E+03  0.25500000920E-02 0. -1.
</event>
<event>
 5   0  0.1777750E-06  0.2000192E+04  0.7818609E-02  0.8606531E-01
        3   -1    0    0  501    0  0.00000000000E+00  0.00000000000E+00  0.12417938459E+04  0.12417938500E+04  0.10100000352E+00 0.  1.
       -3   -1    0    0    0  501  0.00000000000E+00  0.00000000000E+00 -0.80544121657E+03  0.80544122290E+03  0.10100000352E+00 0. -1.
    10030    2    1    2    0    0  0.00000000000E+00  0.00000000000E+00  0.43635262930E+03  0.20472350729E+04  0.20001919474E+04 0.  0.
        3    1    3    3  502    0 -0.74609165755E+03 -0.22381112548E+03  0.86018304367E+03  0.11604564017E+04  0.10100000352E+00 0.  1.
       -3    1    3    3    0  502  0.74609165755E+03  0.22381112548E+03 -0.42383041437E+03  0.88677867120E+03  0.10100000352E+00 0. -1.
</event>
<event>
 5   0  0.4956214E-06  0.2001710E+04  0.7818609E-02  0.8605821E-01
        2   -1    0    0  501    0  0.00000000000E+00  0.00000000000E+00  0.15585832387E+04  0.15585832387E+04  0.25500000920E-02 0. -1.
       -2   -1    0    0    0  501  0.00000000000E+00  0.00000000000E+00 -0.64270619757E+03  0.64270619758E+03  0.25500000920E-02 0.  1.
    10030    2    1    2    0    0  0.00000000000E+00  0.00000000000E+00  0.91587704114E+03  0.22012894363E+04  0.20017103756E+04 0.  0.
        1    1    3    3  502    0 -0.31954803801E+03 -0.58013898025E+03 -0.36723468636E+03  0.75731994553E+03  0.50400001928E-02 0.  1.
       -1    1    3    3    0  502  0.31954803801E+03  0.58013898025E+03  0.12831117275E+04  0.14439694908E+04  0.50400001928E-02 0. -1.
</event>
<event>
 5   0  0.4956214E-06  0.2000406E+04  0.7818609E-02  0.8606431E-01
       -2   -1    0    0    0  501  0.00000000000E+00  0.00000000000E+00  0.15774094415E+04  0.15774094415E+04  0.25500000920E-02 0. -1.
        2   -1    0    0  501    0  0.00000000000E+00  0.00000000000E+00 -0.63420795401E+03  0.63420795401E+03  0.25500000920E-02 0.  1.
    10030    2    1    2    0    0  0.00000000000E+00  0.00000000000E+00  0.94320148745E+03  0.22116173955E+04  0.20004055734E+04 0.  0.
        1    1    3    3  502    0  0.99837321344E+03 -0.55790416756E+02  0.49738648607E+03  0.11168056950E+04  0.50400001928E-02 0. -1.
       -1    1    3    3    0  502 -0.99837321344E+03  0.55790416756E+02  0.44581500138E+03  0.10948117004E+04  0.50400001928E-02 0.  1.
</event>
<event>
 5   0  0.5118981E-06  0.2000018E+04  0.7818609E-02  0.8606612E-01
        2   -1    0    0  501    0  0.00000000000E+00  0.00000000000E+00  0.20974013893E+04  0.20974013893E+04  0.25500000920E-02 0.  1.
       -2   -1    0    0    0  501  0.00000000000E+00  0.00000000000E+00 -0.47678900670E+03  0.47678900670E+03  0.25500000920E-02 0. -1.
    10030    2    1    2    0    0  0.00000000000E+00  0.00000000000E+00  0.16206123826E+04  0.25741903960E+04  0.20000179250E+04 0.  0.
        4    1    3    3  502    0 -0.33436191421E+02 -0.41714262874E+03 -0.35866791677E+03  0.55115355304E+03  0.12699999809E+01 0. -1.
       -4    1    3    3    0  502  0.33436191421E+02  0.41714262874E+03  0.19792802993E+04  0.20230368429E+04  0.12699999809E+01 0.  1.
</event>
<event>
 5   0  0.5118981E-06  0.1999547E+04  0.7818609E-02  0.8606832E-01
       -2   -1    0    0    0  501  0.00000000000E+00  0.00000000000E+00  0.44123191662E+03  0.44123191663E+03  0.25500000920E-02 0.  1.
        2   -1    0    0  501    0  0.00000000000E+00  0.00000000000E+00 -0.22653560182E+04  0.22653560182E+04  0.25500000920E-02 0. -1.
    10030    2    1    2    0    0  0.00000000000E+00  0.00000000000E+00 -0.18241241016E+04  0.27065879348E+04  0.19995473265E+04 0.  0.
        4    1    3    3  502    0 -0.46364249454E+03 -0.87567000785E+03 -0.73155326946E+03  0.12316387962E+04  0.12699999809E+01 0. -1.
       -4    1    3    3    0  502  0.46364249454E+03  0.87567000785E+03 -0.10925708321E+04  0.14749491386E+04  0.12699999809E+01 0.  1.
</event>
<event>
 5   0  0.5030137E-06  0.1999699E+04  0.7818609E-02  0.8606761E-01
       -2   -1    0    0    0  501  0.00000000000E+00  0.00000000000E+00  0.91953424778E+03  0.91953424779E+03  0.25500000920E-02 0.  1.
        2   -1    0    0  501    0  0.00000000000E+00  0.00000000000E+00 -0.10871800344E+04  0.10871800345E+04  0.25500000920E-02 0. -1.
    10030    2    1    2    0    0  0.00000000000E+00  0.00000000000E+00 -0.16764578666E+03  0.20067142822E+04  0.19996992526E+04 0.  0.
        3    1    3    3  502    0 -0.26594763831E+03 -0.15382000787E+03 -0.10386387919E+04  0.10831247811E+04  0.10100000352E+00 0. -1.
       -3    1    3    3    0  502  0.26594763831E+03  0.15382000787E+03  0.87099300528E+03  0.92358950112E+03  0.10100000352E+00 0.  1.
</event>
<event>
 5   0  0.2311520E-06  0.1996610E+04  0.7818609E-02  0.8608207E-01
       -1   -1    0    0    0  501  0.00000000000E+00  0.00000000000E+00  0.58791423369E+03  0.58791423371E+03  0.50400001928E-02 0.  1.
        1   -1    0    0  501    0  0.00000000000E+00  0.00000000000E+00 -0.16951677871E+04  0.16951677871E+04  0.50400001928E-02 0. -1.
    10030    2    1    2    0    0  0.00000000000E+00  0.00000000000E+00 -0.11072535534E+04  0.22830820209E+04  0.19966103982E+04 0.  0.
        3    1    3    3  502    0  0.18152045766E+03 -0.39333705348E+03 -0.15820903242E+04  0.16403272595E+04  0.10100000352E+00 0. -1.
       -3    1    3    3    0  502 -0.18152045766E+03  0.39333705348E+03  0.47483677074E+03  0.64275476135E+03  0.10100000352E+00 0.  1.
</event>
<event>
 5   0  0.2356996E-06  0.1999801E+04  0.7818609E-02  0.8606714E-01
        1   -1    0    0  501    0  0.00000000000E+00  0.00000000000E+00  0.90414095888E+03  0.90414095890E+03  0.50400001928E-02 0.  1.
       -1   -1    0    0    0  501  0.00000000000E+00  0.00000000000E+00 -0.11058018444E+04  0.11058018444E+04  0.50400001928E-02 0. -1.
    10030    2    1    2    0    0  0.00000000000E+00  0.00000000000E+00 -0.20166088549E+03  0.20099428033E+04  0.19998007300E+04 0.  0.
        4    1    3    3  502    0  0.47206944474E+03  0.87685989641E+03 -0.10562436466E+02  0.99591466328E+03  0.12699999809E+01 0. -1.
       -4    1    3    3    0  502 -0.47206944474E+03 -0.87685989641E+03 -0.19109844902E+03  0.10140281400E+04  0.12699999809E+01 0.  1.
</event>
<event>
 5   0  0.5030137E-06  0.1999723E+04  0.7818609E-02  0.8606750E-01
        2   -1    0    0  501    0  0.00000000000E+00  0.00000000000E+00  0.60564205141E+03  0.60564205142E+03  0.25500000920E-02 0. -1.
       -2   -1    0    0    0  501  0.00000000000E+00  0.00000000000E+00 -0.16506827860E+04  0.16506827860E+04  0.25500000920E-02 0.  1.
    10030    2    1    2    0    0  0.00000000000E+00  0.00000000000E+00 -0.10450407346E+04  0.22563248374E+04  0.19997228896E+04 0.  0.
        3    1    3    3  502    0  0.27302098464E+03 -0.35037116873E+03  0.48820543130E+03  0.66003406524E+03  0.10100000352E+00 0. -1.
       -3    1    3    3    0  502 -0.27302098464E+03  0.35037116873E+03 -0.15332461659E+04  0.15962907722E+04  0.10100000352E+00 0.  1.
</event>
<event>
 5   0  0.5129100E-06  0.2001326E+04  0.7818609E-02  0.8606001E-01
        2   -1    0    0  501    0  0.00000000000E+00  0.00000000000E+00  0.38479519699E+03  0.38479519700E+03  0.25500000920E-02 0.  1.
       -2   -1    0    0    0  501  0.00000000000E+00  0.00000000000E+00 -0.26022329483E+04  0.26022329483E+04  0.25500000920E-02 0. -1.
    10030    2    1    2    0    0  0.00000000000E+00  0.00000000000E+00 -0.22174377513E+04  0.29870281453E+04  0.20013263002E+04 0.  0.
        2    1    3    3  502    0 -0.21271661731E+03 -0.95186703577E+03 -0.77488844001E+03  0.12456931033E+04  0.25500000920E-02 0. -1.
       -2    1    3    3    0  502  0.21271661731E+03  0.95186703577E+03 -0.14425493113E+04  0.17413350421E+04  0.25500000920E-02 0.  1.
</event>
<event>
 5   0  0.2313821E-06  0.1999442E+04  0.7818609E-02  0.8606882E-01
        1   -1    0    0  501    0  0.00000000000E+00  0.00000000000E+00  0.15298440719E+04  0.15298440719E+04  0.50400001928E-02 0.  1.
       -1   -1    0    0    0  501  0.00000000000E+00  0.00000000000E+00 -0.65329664555E+03  0.65329664557E+03  0.50400001928E-02 0. -1.
    10030    2    1    2    0    0  0.00000000000E+00  0.00000000000E+00  0.87654742631E+03  0.21831407174E+04  0.19994419225E+04 0.  0.
        1    1    3    3  502    0 -0.25963651941E+03  0.48981416717E+03 -0.47009345054E+03  0.72685410698E+03  0.50400001928E-02 0. -1.
       -1    1    3    3    0  502  0.25963651941E+03 -0.48981416717E+03  0.13466408769E+04  0.14562866105E+04  0.50400001928E-02 0.  1.
</event>
<event>
 5   0  0.4956214E-06  0.1999895E+04  0.7818609E-02  0.8606670E-01
        2   -1    0    0  501    0  0.00000000000E+00  0.00000000000E+00  0.19757240632E+04  0.19757240632E+04  0.25500000920E-02 0.  1.
       -2   -1    0    0    0  501  0.00000000000E+00  0.00000000000E+00 -0.50609061107E+03  0.50609061108E+03  0.25500000920E-02 0. -1.
    10030    2    1    2    0    0  0.00000000000E+00  0.00000000000E+00  0.14696334522E+04  0.24818146743E+04  0.19998953957E+04 0.  0.
        1    1    3    3  502    0 -0.50602951429E+03 -0.76406491282E+01  0.18050580892E+04  0.18746623574E+04  0.50400001928E-02 0.  1.
       -1    1    3    3    0  502  0.50602951429E+03  0.76406491282E+01 -0.33542463699E+03  0.60715231695E+03  0.50400001928E-02 0. -1.
</event>
<event>
 5   0  0.2386776E-06  0.1998861E+04  0.7818609E-02  0.8607153E-01
        1   -1    0    0  501    0  0.00000000000E+00  0.00000000000E+00  0.87956795510E+03  0.87956795512E+03  0.50400001928E-02 0.  1.
       -1   -1    0    0    0  501  0.00000000000E+00  0.00000000000E+00 -0.11356269328E+04  0.11356269328E+04  0.50400001928E-02 0. -1.
    10030    2    1    2    0    0  0.00000000000E+00  0.00000000000E+00 -0.25605897767E+03  0.20151948879E+04  0.19988607346E+04 0.  0.
        2    1    3    3  502    0 -0.54960324204E+03 -0.16815067586E+03  0.69628434916E+03  0.90285672636E+03  0.25500000920E-02 0.  1.
       -2    1    3    3    0  502  0.54960324204E+03  0.16815067586E+03 -0.95234332683E+03  0.11123381615E+04  0.25500000920E-02 0. -1.
</event>
<event>
 5   0  0.5251252E-06  0.1997991E+04  0.7818609E-02  0.8607560E-01
        2   -1    0    0  501    0  0.00000000000E+00  0.00000000000E+00  0.70606964892E+03  0.70606964893E+03  0.25500000920E-02 0.  1.
       -2   -1    0    0    0  501  0.00000000000E+00  0.00000000000E+00 -0.14134472521E+04  0.14134472521E+04  0.25500000920E-02 0. -1.
    10030    2    1    2    0    0  0.00000000000E+00  0.00000000000E+00 -0.70737760317E+03  0.21195169010E+04  0.19979911962E+04 0.  0.
        5    1    3    3  502    0 -0.81169806311E+02 -0.28677512782E+03 -0.13651729471E+04  0.13973359570E+04  0.46999998093E+01 0. -1.
       -5    1    3    3    0  502  0.81169806311E+02  0.28677512782E+03  0.65779534391E+03  0.72218094399E+03  0.46999998093E+01 0.  1.
</event>
<event>
 5   0  0.2386776E-06  0.2000013E+04  0.7818609E-02  0.8606614E-01
        1   -1    0    0  501    0  0.00000000000E+00  0.00000000000E+00  0.96482354580E+03  0.96482354581E+03  0.50400001928E-02 0.  1.
       -1   -1    0    0    0  501  0.00000000000E+00  0.00000000000E+00 -0.10364727170E+04  0.10364727170E+04  0.50400001928E-02 0. -1.
    10030    2    1    2    0    0  0.00000000000E+00  0.00000000000E+00 -0.71649171177E+02  0.20012962628E+04  0.20000132819E+04 0.  0.
        2    1    3    3  502    0  0.14553407208E+03 -0.84999438075E+03 -0.54245231335E+03  0.10187861040E+04  0.25500000920E-02 0.  1.
       -2    1    3    3    0  502 -0.14553407208E+03  0.84999438075E+03  0.47080314217E+03  0.98251015879E+03  0.25500000920E-02 0. -1.
</event>
<event>
 5   0  0.2311520E-06  0.1999435E+04  0.7818609E-02  0.8606885E-01
        1   -1    0    0  501    0  0.00000000000E+00  0.00000000000E+00  0.15381700263E+04  0.15381700263E+04  0.50400001928E-02 0.  1.
       -1   -1    0    0    0  501  0.00000000000E+00  0.00000000000E+00 -0.64975623909E+03  0.64975623911E+03  0.50400001928E-02 0. -1.
    10030    2    1    2    0    0  0.00000000000E+00  0.00000000000E+00  0.88841378723E+03  0.21879262654E+04  0.19994354917E+04 0.  0.
        3    1    3    3  502    0  0.37767110602E+02 -0.30908675351E+03  0.14837506521E+04  0.15160728821E+04  0.10100000352E+00 0.  1.
       -3    1    3    3    0  502 -0.37767110602E+02  0.30908675351E+03 -0.59533686489E+03  0.67185338337E+03  0.10100000352E+00 0. -1.
</event>
<event>
 5   0  0.2379743E-06  0.2000275E+04  0.7818609E-02  0.8606492E-01
        1   -1    0    0  501    0  0.00000000000E+00  0.00000000000E+00  0.15745446021E+04  0.15745446021E+04  0.50400001928E-02 0. -1.
       -1   -1    0    0    0  501  0.00000000000E+00  0.00000000000E+00 -0.63527899674E+03  0.63527899676E+03  0.50400001928E-02 0.  1.
    10030    2    1    2    0    0  0.00000000000E+00  0.00000000000E+00  0.93926560532E+03  0.22098235988E+04  0.20002750962E+04 0.  0.
        5    1    3    3  502    0  0.20904650749E+03 -0.72289667285E+03 -0.25814570476E+03  0.79557610371E+03  0.46999998093E+01 0.  1.
       -5    1    3    3    0  502 -0.20904650749E+03  0.72289667285E+03  0.11974113101E+04  0.14142474951E+04  0.46999998093E+01 0. -1.
</event>
<event>
 5   0  0.4956214E-06  0.2008169E+04  0.7818609E-02  0.8602811E-01
       -2   -1    0    0    0  501  0.00000000000E+00  0.00000000000E+00  0.69002870118E+03  0.69002870118E+03  0.25500000920E-02 0.  1.
        2   -1    0    0  501    0  0.00000000000E+00  0.00000000000E+00 -0.14610783841E+04  0.14610783841E+04  0.25500000920E-02 0. -1.
    10030    2    1    2    0    0  0.00000000000E+00  0.00000000000E+00 -0.77104968292E+03  0.21511070853E+04  0.20081693352E+04 0.  0.
        1    1    3    3  502    0 -0.47366420711E+02 -0.63150774511E+03 -0.12201784384E+04  0.13747294394E+04  0.50400001928E-02 0. -1.
       -1    1    3    3    0  502  0.47366420711E+02  0.63150774511E+03  0.44912875552E+03  0.77637764587E+03  0.50400001928E-02 0.  1.
</event>
<event>
 5   0  0.2311520E-06  0.2000541E+04  0.7818609E-02  0.8606368E-01
       -1   -1    0    0    0  501  0.00000000000E+00  0.00000000000E+00  0.14109316293E+04  0.14109316293E+04  0.50400001928E-02 0.  1.
        1   -1    0    0  501    0  0.00000000000E+00  0.00000000000E+00 -0.70913511240E+03  0.70913511241E+03  0.50400001928E-02 0. -1.
    10030    2    1    2    0    0  0.00000000000E+00  0.00000000000E+00  0.70179651689E+03  0.21200667417E+04  0.20005410863E+04 0.  0.
        3    1    3    3  502    0  0.12468984202E+03  0.41705344637E+03  0.13052941338E+04  0.13759629064E+04  0.10100000352E+00 0.  1.
       -3    1    3    3    0  502 -0.12468984202E+03 -0.41705344637E+03 -0.60349761694E+03  0.74410383529E+03  0.10100000352E+00 0. -1.
</event>
<event>
 5   0  0.5129100E-06  0.2000813E+04  0.7818609E-02  0.8606241E-01
       -2   -1    0    0    0  501  0.00000000000E+00  0.00000000000E+00  0.62024612932E+03  0.62024612932E+03  0.25500000920E-02 0.  1.
        2   -1    0    0  501    0  0.00000000000E+00  0.00000000000E+00 -0.16135739645E+04  0.16135739645E+04  0.25500000920E-02 0. -1.
    10030    2    1    2    0    0  0.00000000000E+00  0.00000000000E+00 -0.99332783514E+03  0.22338200938E+04  0.20008128407E+04 0.  0.
        2    1    3    3  502    0  0.49096482198E+03 -0.45084527365E+03  0.33620431455E+03  0.74655291730E+03  0.25500000920E-02 0.  1.
       -2    1    3    3    0  502 -0.49096482198E+03  0.45084527365E+03 -0.13295321497E+04  0.14872671765E+04  0.25500000920E-02 0. -1.
</event>
<event>
 5   0  0.2356996E-06  0.1999795E+04  0.7818609E-02  0.8606717E-01
        1   -1    0    0  501    0  0.00000000000E+00  0.00000000000E+00  0.19267322782E+04  0.19267322782E+04  0.50400001928E-02 0. -1.
       -1   -1    0    0    0  501  0.00000000000E+00  0.00000000000E+00 -0.51890703202E+03  0.51890703205E+03  0.50400001928E-02 0.  1.
    10030    2    1    2    0    0  0.00000000000E+00  0.00000000000E+00  0.14078252461E+04  0.24456393102E+04  0.19997949175E+04 0.  0.
        4    1    3    3  502    0 -0.57266234173E+03 -0.28697933493E+03  0.16428716633E+04  0.17633287303E+04  0.12699999809E+01 0. -1.
       -4    1    3    3    0  502  0.57266234173E+03  0.28697933493E+03 -0.23504641713E+03  0.68231057989E+03  0.12699999809E+01 0.  1.
</event>
<event>
 5   0  0.2379743E-06  0.1998810E+04  0.7818609E-02  0.8607177E-01
       -1   -1    0    0    0  501  0.00000000000E+00  0.00000000000E+00  0.53695905935E+03  0.53695905937E+03  0.50400001928E-02 0.  1.
        1   -1    0    0  501    0  0.00000000000E+00  0.00000000000E+00 -0.18601245572E+04  0.18601245572E+04  0.50400001928E-02 0. -1.
    10030    2    1    2    0    0  0.00000000000E+00  0.00000000000E+00 -0.13231654979E+04  0.23970836166E+04  0.19988103787E+04 0.  0.
        5    1    3    3  502    0  0.68289206359E+03  0.59811241055E+03 -0.11628493281E+04  0.14752358035E+04  0.46999998093E+01 0. -1.
       -5    1    3    3    0  502 -0.68289206359E+03 -0.59811241055E+03 -0.16031616978E+03  0.92184781307E+03  0.46999998093E+01 0.  1.
</event>
<event>
 5   0  0.5251252E-06  0.1998832E+04  0.7818609E-02  0.8607167E-01
       -2   -1    0    0    0  501  0.00000000000E+00  0.00000000000E+00  0.70392031062E+03  0.70392031062E+03  0.25500000920E-02 0. -1.
        2   -1    0    0  501    0  0.00000000000E+00  0.00000000000E+00 -0.14189563594E+04  0.14189563594E+04  0.25500000920E-02 0.  1.
    10030    2    1    2    0    0  0.00000000000E+00  0.00000000000E+00 -0.71503604876E+03  0.21228766700E+04  0.19988318601E+04 0.  0.
        5    1    3    3  502    0  0.83124307367E+03  0.60638273724E+02 -0.94325859702E+03  0.12587298831E+04  0.46999998093E+01 0.  1.
       -5    1    3    3    0  502 -0.83124307367E+03 -0.60638273724E+02  0.22822254827E+03  0.86414678690E+03  0.46999998093E+01 0. -1.
</event>
<event>
 5   0  0.2379743E-06  0.2000071E+04  0.7818609E-02  0.8606587E-01
       -1   -1    0    0    0  501  0.00000000000E+00  0.00000000000E+00  0.81187265350E+03  0.81187265351E+03  0.50400001928E-02 0. -1.
        1   -1    0    0  501    0  0.00000000000E+00  0.00000000000E+00 -0.12318077502E+04  0.12318077503E+04  0.50400001928E-02 0.  1.
    10030    2    1    2    0    0  0.00000000000E+00  0.00000000000E+00 -0.41993509674E+03  0.20436804038E+04  0.20000710255E+04 0.  0.
        5    1    3    3  502    0  0.62900143569E+03  0.28731310119E+03  0.52818045434E+03  0.87016567765E+03  0.46999998093E+01 0. -1.
       -5    1    3    3    0  502 -0.62900143569E+03 -0.28731310119E+03 -0.94811555108E+03  0.11735147261E+04  0.46999998093E+01 0.  1.
</event>
<event>
 5   0  0.2386776E-06  0.1997271E+04  0.7818609E-02  0.8607897E-01
       -1   -1    0    0    0  501  0.00000000000E+00  0.00000000000E+00  0.16268772496E+04  0.16268772496E+04  0.50400001928E-02 0. -1.
        1   -1    0    0  501    0  0.00000000000E+00  0.00000000000E+00 -0.61299844852E+03  0.61299844854E+03  0.50400001928E-02 0.  1.
    10030    2    1    2    0    0  0.00000000000E+00  0.00000000000E+00  0.10138788011E+04  0.22398756981E+04  0.19972713686E+04 0.  0.
        2    1    3    3  502    0 -0.58043970937E+03  0.52307606700E+03  0.12043755825E+04  0.14356320461E+04  0.25500000920E-02 0. -1.
       -2    1    3    3    0  502  0.58043970937E+03 -0.52307606700E+03 -0.19049678143E+03  0.80424365203E+03  0.25500000920E-02 0.  1.
</event>
<event>
 5   0  0.4956214E-06  0.2002244E+04  0.7818609E-02  0.8605572E-01
       -2   -1    0    0    0  501  0.00000000000E+00  0.00000000000E+00  0.53898858042E+03  0.53898858043E+03  0.25500000920E-02 0.  1.
        2   -1    0    0  501    0  0.00000000000E+00  0.00000000000E+00 -0.18594925221E+04  0.18594925221E+04  0.25500000920E-02 0. -1.
    10030    2    1    2    0    0  0.00000000000E+00  0.00000000000E+00 -0.13205039417E+04  0.23984811026E+04  0.20022439760E+04 0.  0.
        1    1    3    3  502    0  0.40907556436E+03 -0.62110707542E+03 -0.14630468123E+04  0.16412260026E+04  0.50400001928E-02 0. -1.
       -1    1    3    3    0  502 -0.40907556436E+03  0.62110707542E+03  0.14254287059E+03  0.75725510000E+03  0.50400001928E-02 0.  1.
</event>
<event>
 5   0  0.2313821E-06  0.2002094E+04  0.7818609E-02  0.8605642E-01
        1   -1    0    0  501    0  0.00000000000E+00  0.00000000000E+00  0.12480163593E+04  0.12480163593E+04  0.50400001928E-02 0.  1.
       -1   -1    0    0    0  501  0.00000000000E+00  0.00000000000E+00 -0.80295014332E+03  0.80295014333E+03  0.50400001928E-02 0. -1.
    10030    2    1    2    0    0  0.00000000000E+00  0.00000000000E+00  0.44506621601E+03  0.20509665027E+04  0.20020938186E+04 0.  0.
        1    1    3    3  502    0 -0.81519315106E+03  0.57944584311E+03  0.17910055565E+03  0.10160582501E+04  0.50400001928E-02 0.  1.
       -1    1    3    3    0  502  0.81519315106E+03 -0.57944584311E+03  0.26596566037E+03  0.10349082525E+04  0.50400001928E-02 0. -1.
</event>
<event>
 5   0  0.4956214E-06  0.2000472E+04  0.7818609E-02  0.8606400E-01
        2   -1    0    0  501    0  0.00000000000E+00  0.00000000000E+00  0.20382454656E+04  0.20382454656E+04  0.25500000920E-02 0. -1.
       -2   -1    0    0    0  501  0.00000000000E+00  0.00000000000E+00 -0.49084957611E+03  0.49084957612E+03  0.25500000920E-02 0.  1.
    10030    2    1    2    0    0  0.00000000000E+00  0.00000000000E+00  0.15473958894E+04  0.25290950417E+04  0.20004718671E+04 0.  0.
        1    1    3    3  502    0  0.86558958446E+03 -0.38260615209E+03  0.11830475714E+04  0.15150030867E+04  0.50400001928E-02 0. -1.
       -1    1    3    3    0  502 -0.86558958446E+03  0.38260615209E+03  0.36434831803E+03  0.10140919550E+04  0.50400001928E-02 0.  1.
</event>
<event>
 5   0  0.4956214E-06  0.2013023E+04  0.7818609E-02  0.8600556E-01
       -2   -1    0    0    0  501  0.00000000000E+00  0.00000000000E+00  0.48066300156E+03  0.48066300157E+03  0.25500000920E-02 0. -1.
        2   -1    0    0  501    0  0.00000000000E+00  0.00000000000E+00 -0.21076412863E+04  0.21076412863E+04  0.25500000920E-02 0.  1.
    10030    2    1    2    0    0  0.00000000000E+00  0.00000000000E+00 -0.16269782847E+04  0.25883042878E+04  0.20130227886E+04 0.  0.
        1    1    3    3  502    0 -0.55075441771E+03 -0.28850164218E+03 -0.18312077592E+04  0.19338783528E+04  0.50400001928E-02 0.  1.
       -1    1    3    3    0  502  0.55075441771E+03  0.28850164218E+03  0.20422947448E+03  0.65442593503E+03  0.50400001928E-02 0. -1.
</event>
<event>
 5   0  0.2356996E-06  0.1999734E+04  0.7818609E-02  0.8606745E-01
        1   -1    0    0  501    0  0.00000000000E+00  0.00000000000E+00  0.12140474979E+04  0.12140474979E+04  0.50400001928E-02 0. -1.
       -1   -1    0    0    0  501  0.00000000000E+00  0.00000000000E+00 -0.82347232135E+03  0.82347232136E+03  0.50400001928E-02 0.  1.
    10030    2    1    2    0    0  0.00000000000E+00  0.00000000000E+00  0.39057517657E+03  0.20375198193E+04  0.19997344937E+04 0.  0.
        4    1    3    3  502    0  0.88684702241E+03  0.17977923120E+03  0.62866514279E+03  0.11018346917E+04  0.12699999809E+01 0. -1.
       -4    1    3    3    0  502 -0.88684702241E+03 -0.17977923120E+03 -0.23808996622E+03  0.93568512762E+03  0.12699999809E+01 0.  1.
</event>
<event>
 5   0  0.2311520E-06  0.2000082E+04  0.7818609E-02  0.8606582E-01
        1   -1    0    0  501    0  0.00000000000E+00  0.00000000000E+00  0.21388888269E+04  0.21388888269E+04  0.50400001928E-02 0. -1.
       -1   -1    0    0    0  501  0.00000000000E+00  0.00000000000E+00 -0.46757086058E+03  0.46757086061E+03  0.50400001928E-02 0.  1.
    10030    2    1    2    0    0  0.00000000000E+00  0.00000000000E+00  0.16713179663E+04  0.26064596875E+04  0.20000820878E+04 0.  0.
        3    1    3    3  502    0  0.85077601613E+03  0.11322315655E+03  0.15045360887E+04  0.17321282185E+04  0.10100000352E+00 0. -1.
       -3    1    3    3    0  502 -0.85077601613E+03 -0.11322315655E+03  0.16678187757E+03  0.87433146900E+03  0.10100000352E+00 0.  1.
</event>
<event>
 5   0  0.4956214E-06  0.2000827E+04  0.7818609E-02  0.8606234E-01
        2   -1    0    0  501    0  0.00000000000E+00  0.00000000000E+00  0.79879625764E+03  0.79879625764E+03  0.25500000920E-02 0. -1.
       -2   -1    0    0    0  501  0.00000000000E+00  0.00000000000E+00 -0.12529197090E+04  0.12529197090E+04  0.25500000920E-02 0.  1.
    10030    2    1    2    0    0  0.00000000000E+00  0.00000000000E+00 -0.45412345133E+03  0.20517159666E+04  0.20008274035E+04 0.  0.
        1    1    3    3  502    0 -0.55399441931E+03 -0.28635757234E+03  0.57508516739E+03  0.84831210392E+03  0.50400001928E-02 0. -1.
       -1    1    3    3    0  502  0.55399441931E+03  0.28635757234E+03 -0.10292086187E+04  0.12034038627E+04  0.50400001928E-02 0.  1.
</event>
<event>
 5   0  0.2356996E-06  0.1999974E+04  0.7818609E-02  0.8606633E-01
        1   -1    0    0  501    0  0.00000000000E+00  0.00000000000E+00  0.86952015905E+03  0.86952015907E+03  0.50400001928E-02 0.  1.
       -1   -1    0    0    0  501  0.00000000000E+00  0.00000000000E+00 -0.11500291637E+04  0.11500291637E+04  0.50400001928E-02 0. -1.
    10030    2    1    2    0    0  0.00000000000E+00  0.00000000000E+00 -0.28050900465E+03  0.20195493228E+04  0.19999735412E+04 0.  0.
        4    1    3    3  502    0 -0.52323596906E+03 -0.74665165383E+02 -0.99745757668E+03  0.11288374535E+04  0.12699999809E+01 0. -1.
       -4    1    3    3    0  502  0.52323596906E+03  0.74665165383E+02  0.71694857203E+03  0.89071186928E+03  0.12699999809E+01 0.  1.
</event>
<event>
 5   0  0.2313821E-06  0.1998293E+04  0.7818609E-02  0.8607419E-01
        1   -1    0    0  501    0  0.00000000000E+00  0.00000000000E+00  0.12363679117E+04  0.12363679117E+04  0.50400001928E-02 0. -1.
       -1   -1    0    0    0  501  0.00000000000E+00  0.00000000000E+00 -0.80744068623E+03  0.80744068625E+03  0.50400001928E-02 0.  1.
    10030    2    1    2    0    0  0.00000000000E+00  0.00000000000E+00  0.42892722549E+03  0.20438085980E+04  0.19982930267E+04 0.  0.
        1    1    3    3  502    0  0.60682551391E+03  0.30948806502E+03  0.96205268129E+03  0.11787982984E+04  0.50400001928E-02 0. -1.
       -1    1    3    3    0  502 -0.60682551391E+03 -0.30948806502E+03 -0.53312545580E+03  0.86501029957E+03  0.50400001928E-02 0.  1.
</event>
<event>
 5   0  0.2379743E-06  0.2001149E+04  0.7818609E-02  0.8606084E-01
       -1   -1    0    0    0  501  0.00000000000E+00  0.00000000000E+00  0.92301534432E+03  0.92301534433E+03  0.50400001928E-02 0. -1.
        1   -1    0    0  501    0  0.00000000000E+00  0.00000000000E+00 -0.10846508292E+04  0.10846508292E+04  0.50400001928E-02 0.  1.
    10030    2    1    2    0    0  0.00000000000E+00  0.00000000000E+00 -0.16163548489E+03  0.20076661736E+04  0.20011490285E+04 0.  0.
        5    1    3    3  502    0  0.35700960844E+03  0.71354139622E+02  0.85419381824E+03  0.92855610648E+03  0.46999998093E+01 0. -1.
       -5    1    3    3    0  502 -0.35700960844E+03 -0.71354139622E+02 -0.10158293031E+04  0.10791100671E+04  0.46999998093E+01 0.  1.
</event>
<event>
 5   0  0.5118981E-06  0.2000351E+04  0.7818609E-02  0.8606456E-01
        2   -1    0    0  501    0  0.00000000000E+00  0.00000000000E+00  0.10012323792E+04  0.10012323792E+04  0.25500000920E-02 0.  1.
       -2   -1    0    0    0  501  0.00000000000E+00  0.00000000000E+00 -0.99912008778E+03  0.99912008778E+03  0.25500000920E-02 0. -1.
    10030    2    1    2    0    0  0.00000000000E+00  0.00000000000E+00  0.21122914185E+01  0.20003524670E+04  0.20003513517E+04 0.  0.
        4    1    3    3  502    0  0.90398323207E+03  0.24197923738E+03  0.35405794947E+03  0.10005489891E+04  0.12699999809E+01 0.  1.
       -4    1    3    3    0  502 -0.90398323207E+03 -0.24197923738E+03 -0.35194565805E+03  0.99980347784E+03  0.12699999809E+01 0. -1.
</event>
<event>
 5   0  0.5129100E-06  0.2001342E+04  0.7818609E-02  0.8605994E-01
        2   -1    0    0  501    0  0.00000000000E+00  0.00000000000E+00  0.14555837701E+04  0.14555837701E+04  0.25500000920E-02 0.  1.
       -2   -1    0    0    0  501  0.00000000000E+00  0.00000000000E+00 -0.68793161431E+03  0.68793161431E+03  0.25500000920E-02 0. -1.
    10030    2    1    2    0    0  0.00000000000E+00  0.00000000000E+00  0.76765215579E+03  0.21435153844E+04  0.20013416427E+04 0.  0.
        2    1    3    3  502    0  0.58354948298E+03  0.60196053437E+03 -0.20129432931E+03  0.86220988804E+03  0.25500000920E-02 0. -1.
       -2    1    3    3    0  502 -0.58354948298E+03 -0.60196053437E+03  0.96894648510E+03  0.12813054964E+04  0.25500000920E-02 0.  1.
</event>
<event>
 5   0  0.2379743E-06  0.2000653E+04  0.7818609E-02  0.8606315E-01
        1   -1    0    0  501    0  0.00000000000E+00  0.00000000000E+00  0.84206709257E+03  0.84206709259E+03  0.50400001928E-02 0.  1.
       -1   -1    0    0    0  501  0.00000000000E+00  0.00000000000E+00 -0.11883296433E+04  0.11883296433E+04  0.50400001928E-02 0. -1.
    10030    2    1    2    0    0  0.00000000000E+00  0.00000000000E+00 -0.34626255071E+03  0.20303967359E+04  0.20006531811E+04 0.  0.
        5    1    3    3  502    0  0.19450547428E+03 -0.64413097790E+03  0.57807189143E+03  0.88708866404E+03  0.46999998093E+01 0.  1.
       -5    1    3    3    0  502 -0.19450547428E+03  0.64413097790E+03 -0.92433444214E+03  0.11433080718E+04  0.46999998093E+01 0. -1.
</event>
<event>
 5   0  0.2313821E-06  0.2001955E+04  0.7818609E-02  0.8605707E-01
       -1   -1    0    0    0  501  0.00000000000E+00  0.00000000000E+00  0.81225101908E+03  0.81225101910E+03  0.50400001928E-02 0. -1.
        1   -1    0    0  501    0  0.00000000000E+00  0.00000000000E+00 -0.12335541168E+04  0.12335541168E+04  0.50400001928E-02 0.  1.
    10030    2    1    2    0    0  0.00000000000E+00  0.00000000000E+00 -0.42130309772E+03  0.20458051359E+04  0.20019546333E+04 0.  0.
        1    1    3    3  502    0  0.94059541609E+03 -0.14013077060E+03 -0.52990323797E+03  0.10886476984E+04  0.50400001928E-02 0.  1.
       -1    1    3    3    0  502 -0.94059541609E+03  0.14013077060E+03  0.10860014025E+03  0.95715743748E+03  0.50400001928E-02 0. -1.
</event>
<event>
 5   0  0.5030137E-06  0.1999756E+04  0.7818609E-02  0.8606735E-01
        2   -1    0    0  501    0  0.00000000000E+00  0.00000000000E+00  0.10893796025E+04  0.10893796025E+04  0.25500000920E-02 0.  1.
       -2   -1    0    0    0  501  0.00000000000E+00  0.00000000000E+00 -0.91772930113E+03  0.91772930113E+03  0.25500000920E-02 0. -1.
    10030    2    1    2    0    0  0.00000000000E+00  0.00000000000E+00  0.17165030141E+03  0.20071089037E+04  0.19997555664E+04 0.  0.
        3    1    3    3  502    0 -0.93779912303E+03 -0.33026061207E+03  0.19212163737E+03  0.10126450517E+04  0.10100000352E+00 0.  1.
       -3    1    3    3    0  502  0.93779912303E+03  0.33026061207E+03 -0.20471335962E+02  0.99446385195E+03  0.10100000352E+00 0. -1.
</event>
<event>
 5   0  0.5118981E-06  0.1999624E+04  0.7818609E-02  0.8606796E-01
        2   -1    0    0  501    0  0.00000000000E+00  0.00000000000E+00  0.14797100975E+04  0.14797100975E+04  0.25500000920E-02 0. -1.
       -2   -1    0    0    0  501  0.00000000000E+00  0.00000000000E+00 -0.67555402825E+03  0.67555402826E+03  0.25500000920E-02 0.  1.
    10030    2    1    2    0    0  0.00000000000E+00  0.00000000000E+00  0.80415606924E+03  0.21552641258E+04  0.19996240817E+04 0.  0.
        4    1    3    3  502    0 -0.58656853427E+03 -0.38112265403E+02  0.12737973005E+04  0.14028814511E+04  0.12699999809E+01 0. -1.
       -4    1    3    3    0  502  0.58656853427E+03  0.38112265403E+02 -0.46964123124E+03  0.75238267467E+03  0.12699999809E+01 0.  1.
</event>
<event>
 5   0  0.5118981E-06  0.2000281E+04  0.7818609E-02  0.8606489E-01
        2   -1    0    0  501    0  0.00000000000E+00  0.00000000000E+00  0.86975977353E+03  0.86975977353E+03  0.25500000920E-02 0.  1.
       -2   -1    0    0    0  501  0.00000000000E+00  0.00000000000E+00 -0.11500656777E+04  0.11500656777E+04  0.25500000920E-02 0. -1.
    10030    2    1    2    0    0  0.00000000000E+00  0.00000000000E+00 -0.28030590418E+03  0.20198254512E+04  0.20002808437E+04 0.  0.
        4    1    3    3  502    0 -0.41474496334E+03  0.24899320408E+03  0.74376769830E+03  0.88724461240E+03  0.12699999809E+01 0.  1.
       -4    1    3    3    0  502  0.41474496334E+03 -0.24899320408E+03 -0.10240736025E+04  0.11325808388E+04  0.12699999809E+01 0. -1.
</event>
<event>
 5   0  0.2311520E-06  0.2000989E+04  0.7818609E-02  0.8606159E-01
       -1   -1    0    0    0  501  0.00000000000E+00  0.00000000000E+00  0.40949279244E+03  0.40949279247E+03  0.50400001928E-02 0.  1.
        1   -1    0    0  501    0  0.00000000000E+00  0.00000000000E+00 -0.24444600932E+04  0.24444600932E+04  0.50400001928E-02 0. -1.
    10030    2    1    2    0    0  0.00000000000E+00  0.00000000000E+00 -0.20349673008E+04  0.28539528857E+04  0.20009885453E+04 0.  0.
        3    1    3    3  502    0 -0.10919660459E+03 -0.30320115872E+03  0.33344010899E+03  0.46372099110E+03  0.10100000352E+00 0.  1.
       -3    1    3    3    0  502  0.10919660459E+03  0.30320115872E+03 -0.23684074098E+04  0.23902318946E+04  0.10100000352E+00 0. -1.
</event>
<event>
 5   0  0.2311520E-06  0.1999977E+04  0.7818609E-02  0.8606631E-01
        1   -1    0    0  501    0  0.00000000000E+00  0.00000000000E+00  0.85976932388E+03  0.85976932389E+03  0.50400001928E-02 0. -1.
       -1   -1    0    0    0  501  0.00000000000E+00  0.00000000000E+00 -0.11630760650E+04  0.11630760650E+04  0.50400001928E-02 0.  1.
    10030    2    1    2    0    0  0.00000000000E+00  0.00000000000E+00 -0.30330674112E+03  0.20228453889E+04  0.19999771219E+04 0.  0.
        3    1    3    3  502    0 -0.38107021253E+03  0.12111141321E+03  0.77539365878E+03  0.87242066549E+03  0.10100000352E+00 0. -1.
       -3    1    3    3    0  502  0.38107021253E+03 -0.12111141321E+03 -0.10787003999E+04  0.11504247234E+04  0.10100000352E+00 0.  1.
</event>
<event>
 5   0  0.2311520E-06  0.1997076E+04  0.7818609E-02  0.8607989E-01
        1   -1    0    0  501    0  0.00000000000E+00  0.00000000000E+00  0.11889453431E+04  0.11889453431E+04  0.50400001928E-02 0.  1.
       -1   -1    0    0    0  501  0.00000000000E+00  0.00000000000E+00 -0.83862403270E+03  0.83862403272E+03  0.50400001928E-02 0. -1.
    10030    2    1    2    0    0  0.00000000000E+00  0.00000000000E+00  0.35032131036E+03  0.20275693758E+04  0.19970760008E+04 0.  0.
        3    1    3    3  502    0  0.79935960617E+03  0.39799302629E+03 -0.27854521937E+03  0.93539386271E+03  0.10100000352E+00 0. -1.
       -3    1    3    3    0  502 -0.79935960617E+03 -0.39799302629E+03  0.62886652973E+03  0.10921755131E+04  0.10100000352E+00 0.  1.
</event>
<event>
 5   0  0.2386776E-06  0.2002909E+04  0.7818609E-02  0.8605262E-01
        1   -1    0    0  501    0  0.00000000000E+00  0.00000000000E+00  0.19588910228E+04  0.19588910228E+04  0.50400001928E-02 0. -1.
       -1   -1    0    0    0  501  0.00000000000E+00  0.00000000000E+00 -0.51197912850E+03  0.51197912852E+03  0.50400001928E-02 0.  1.
    10030    2    1    2    0    0  0.00000000000E+00  0.00000000000E+00  0.14469118943E+04  0.24708701513E+04  0.20029092028E+04 0.  0.
        2    1    3    3  502    0  0.80680381569E+03 -0.10583985455E+03  0.33047265529E+01  0.81372316732E+03  0.25500000920E-02 0.  1.
       -2    1    3    3    0  502 -0.80680381569E+03  0.10583985455E+03  0.14436071677E+04  0.16571469840E+04  0.25500000920E-02 0. -1.
</event>
<event>
 5   0  0.5030137E-06  0.2000000E+04  0.7818609E-02  0.8606621E-01
        2   -1    0    0  501    0  0.00000000000E+00  0.00000000000E+00  0.62023575373E+03  0.62023575373E+03  0.25500000920E-02 0.  1.
       -2   -1    0    0    0  501  0.00000000000E+00  0.00000000000E+00 -0.16122902554E+04  0.16122902554E+04  0.25500000920E-02 0. -1.
    10030    2    1    2    0    0  0.00000000000E+00  0.00000000000E+00 -0.99205450166E+03  0.22325260091E+04  0.20000000618E+04 0.  0.
        3    1    3    3  502    0 -0.82488537401E+03 -0.15657093978E+03 -0.11023643138E+04  0.13856974525E+04  0.10100000352E+00 0. -1.
       -3    1    3    3    0  502  0.82488537401E+03  0.15657093978E+03  0.11030981209E+03  0.84682855661E+03  0.10100000352E+00 0.  1.
</event>
<event>
 5   0  0.5030137E-06  0.2000557E+04  0.7818609E-02  0.8606360E-01
        2   -1    0    0  501    0  0.00000000000E+00  0.00000000000E+00  0.11154121883E+04  0.11154121883E+04  0.25500000920E-02 0. -1.
       -2   -1    0    0    0  501  0.00000000000E+00  0.00000000000E+00 -0.89702935693E+03  0.89702935694E+03  0.25500000920E-02 0.  1.
    10030    2    1    2    0    0  0.00000000000E+00  0.00000000000E+00  0.21838283134E+03  0.20124415452E+04  0.20005574003E+04 0.  0.
        3    1    3    3  502    0  0.64601971386E+03 -0.71144630180E+02  0.87407297360E+03  0.10892229352E+04  0.10100000352E+00 0. -1.
       -3    1    3    3    0  502 -0.64601971386E+03  0.71144630180E+02 -0.65569014226E+03  0.92321861006E+03  0.10100000352E+00 0.  1.
</event>
<event>
 5   0  0.2311520E-06  0.1999812E+04  0.7818609E-02  0.8606708E-01
       -1   -1    0    0    0  501  0.00000000000E+00  0.00000000000E+00  0.83077565506E+03  0.83077565507E+03  0.50400001928E-02 0.  1.
        1   -1    0    0  501    0  0.00000000000E+00  0.00000000000E+00 -0.12034683238E+04  0.12034683238E+04  0.50400001928E-02 0. -1.
    10030    2    1    2    0    0  0.00000000000E+00  0.00000000000E+00 -0.37269266874E+03  0.20342439789E+04  0.19998121763E+04 0.  0.
        3    1    3    3  502    0 -0.42345275811E+03 -0.72424570517E+03  0.36705000179E+03  0.91573456515E+03  0.10100000352E+00 0.  1.
       -3    1    3    3    0  502  0.42345275811E+03  0.72424570517E+03 -0.73974267053E+03  0.11185094137E+04  0.10100000352E+00 0. -1.
</event>
<event>
 5   0  0.5129100E-06  0.1998802E+04  0.7818609E-02  0.8607181E-01
        2   -1    0    0  501    0  0.00000000000E+00  0.00000000000E+00  0.29267868988E+04  0.29267868988E+04  0.25500000920E-02 0.  1.
       -2   -1    0    0    0  501  0.00000000000E+00  0.00000000000E+00 -0.34126249044E+03  0.34126249045E+03  0.25500000920E-02 0. -1.
    10030    2    1    2    0    0  0.00000000000E+00  0.00000000000E+00  0.25855244083E+04  0.32680493892E+04  0.19988022274E+04 0.  0.
        2    1    3    3  502    0 -0.43741348095E+03 -0.84943629316E+03  0.81348007655E+03  0.12548395931E+04  0.25500000920E-02 0. -1.
       -2    1    3    3    0  502  0.43741348095E+03  0.84943629316E+03  0.17720443318E+04  0.20132097961E+04  0.25500000920E-02 0.  1.
</event>
<event>
 5   0  0.4956214E-06  0.2000230E+04  0.7818609E-02  0.8606513E-01
       -2   -1    0    0    0  501  0.00000000000E+00  0.00000000000E+00  0.87036027278E+03  0.87036027278E+03  0.25500000920E-02 0. -1.
        2   -1    0    0  501    0  0.00000000000E+00  0.00000000000E+00 -0.11492140088E+04  0.11492140088E+04  0.25500000920E-02 0.  1.
    10030    2    1    2    0    0  0.00000000000E+00  0.00000000000E+00 -0.27885373606E+03  0.20195742816E+04  0.20002302050E+04 0.  0.
        1    1    3    3  502    0 -0.38822429938E+02 -0.87505408653E+03 -0.62679930405E+03  0.10770813354E+04  0.50400001928E-02 0.  1.
       -1    1    3    3    0  502  0.38822429938E+02  0.87505408653E+03  0.34794556799E+03  0.94249294625E+03  0.50400001928E-02 0. -1.
</event>
<event>
 5   0  0.5118981E-06  0.2005617E+04  0.7818609E-02  0.8603999E-01
       -2   -1    0    0    0  501  0.00000000000E+00  0.00000000000E+00  0.47103953752E+03  0.47103953753E+03  0.25500000920E-02 0.  1.
        2   -1    0    0  501    0  0.00000000000E+00  0.00000000000E+00 -0.21349048839E+04  0.21349048839E+04  0.25500000920E-02 0. -1.
    10030    2    1    2    0    0  0.00000000000E+00  0.00000000000E+00 -0.16638653464E+04  0.26059444214E+04  0.20056167223E+04 0.  0.
        4    1    3    3  502    0 -0.89580039286E+03  0.23944547993E+03 -0.13281151368E+04  0.16197789699E+04  0.12699999809E+01 0.  1.
       -4    1    3    3    0  502  0.89580039286E+03 -0.23944547993E+03 -0.33575020954E+03  0.98616545154E+03  0.12699999809E+01 0. -1.
</event>
<event>
 5   0  0.2379743E-06  0.2012123E+04  0.7818609E-02  0.8600974E-01
       -1   -1    0    0    0  501  0.00000000000E+00  0.00000000000E+00  0.79156559104E+03  0.79156559106E+03  0.50400001928E-02 0. -1.
        1   -1    0    0  501    0  0.00000000000E+00  0.00000000000E+00 -0.12786807186E+04  0.12786807186E+04  0.50400001928E-02 0.  1.
    10030    2    1    2    0    0  0.00000000000E+00  0.00000000000E+00 -0.48711512758E+03  0.20702463097E+04  0.20121229175E+04 0.  0.
        5    1    3    3  502    0  0.78691275484E+02 -0.37048683232E+03 -0.12025134131E+04  0.12607590604E+04  0.46999998093E+01 0.  1.
       -5    1    3    3    0  502 -0.78691275484E+02  0.37048683232E+03  0.71539828553E+03  0.80948724925E+03  0.46999998093E+01 0. -1.
</event>
<event>
 5   0  0.4956214E-06  0.1999705E+04  0.7818609E-02  0.8606758E-01
        2   -1    0    0  501    0  0.00000000000E+00  0.00000000000E+00  0.12228192115E+04  0.12228192115E+04  0.25500000920E-02 0. -1.
       -2   -1    0    0    0  501  0.00000000000E+00  0.00000000000E+00 -0.81754151811E+03  0.81754151811E+03  0.25500000920E-02 0.  1.
    10030    2    1    2    0    0  0.00000000000E+00  0.00000000000E+00  0.40527769337E+03  0.20403607296E+04  0.19997054528E+04 0.  0.
        1    1    3    3  502    0 -0.98592301944E+03  0.13252998457E+03  0.10011172417E+03  0.99981536016E+03  0.50400001928E-02 0.  1.
       -1    1    3    3    0  502  0.98592301944E+03 -0.13252998457E+03  0.30516596921E+03  0.10405453694E+04  0.50400001928E-02 0. -1.
</event>
<event>
 5   0  0.5030137E-06  0.1999800E+04  0.7818609E-02  0.8606714E-01
       -2   -1    0    0    0  501  0.00000000000E+00  0.00000000000E+00  0.89190602249E+03  0.89190602250E+03  0.25500000920E-02 0. -1.
        2   -1    0    0  501    0  0.00000000000E+00  0.00000000000E+00 -0.11209702926E+04  0.11209702926E+04  0.25500000920E-02 0.  1.
    10030    2    1    2    0    0  0.00000000000E+00  0.00000000000E+00 -0.22906427013E+03  0.20128763151E+04  0.19998001450E+04 0.  0.
        3    1    3    3  502    0  0.21946450096E+03  0.38525482211E+03 -0.10166144796E+04  0.11090946558E+04  0.10100000352E+00 0.  1.
       -3    1    3    3    0  502 -0.21946450096E+03 -0.38525482211E+03  0.78755020947E+03  0.90378165935E+03  0.10100000352E+00 0. -1.
</event>
<event>
 5   0  0.2356996E-06  0.2000221E+04  0.7818609E-02  0.8606517E-01
        1   -1    0    0  501    0  0.00000000000E+00  0.00000000000E+00  0.25221792113E+04  0.25221792113E+04  0.50400001928E-02 0.  1.
       -1   -1    0    0    0  501  0.00000000000E+00  0.00000000000E+00 -0.39657025738E+03  0.39657025741E+03  0.50400001928E-02 0. -1.
    10030    2    1    2    0    0  0.00000000000E+00  0.00000000000E+00  0.21256089539E+04  0.29187494687E+04  0.20002212468E+04 0.  0.
        4    1    3    3  502    0  0.52284201359E+03 -0.56614034330E+03  0.19929782672E+04  0.21367832473E+04  0.12699999809E+01 0.  1.
       -4    1    3    3    0  502 -0.52284201359E+03  0.56614034330E+03  0.13263068672E+03  0.78196622142E+03  0.12699999809E+01 0. -1.
</event>
<event>
 5   0  0.5251252E-06  0.1998297E+04  0.7818609E-02  0.8607417E-01
        2   -1    0    0  501    0  0.00000000000E+00  0.00000000000E+00  0.13642385415E+04  0.13642385415E+04  0.25500000920E-02 0. -1.
       -2   -1    0    0    0  501  0.00000000000E+00  0.00000000000E+00 -0.73176157364E+03  0.73176157364E+03  0.25500000920E-02 0.  1.
    10030    2    1    2    0    0  0.00000000000E+00  0.00000000000E+00  0.63247696783E+03  0.20960001151E+04  0.19982966166E+04 0.  0.
        5    1    3    3  502    0 -0.49128734181E+02  0.39118011417E+03  0.12791887350E+04  0.13385743999E+04  0.46999998093E+01 0. -1.
       -5    1    3    3    0  502  0.49128734181E+02 -0.39118011417E+03 -0.64671176720E+03  0.75742571522E+03  0.46999998093E+01 0.  1.
</event>
<event>
 5   0  0.5129100E-06  0.2000243E+04  0.7818609E-02  0.8606507E-01
        2   -1    0    0  501    0  0.00000000000E+00  0.00000000000E+00  0.84194323842E+03  0.84194323843E+03  0.25500000920E-02 0.  1.
       -2   -1    0    0    0  501  0.00000000000E+00  0.00000000000E+00 -0.11880175383E+04  0.11880175383E+04  0.25500000920E-02 0. -1.
    10030    2    1    2    0    0  0.00000000000E+00  0.00000000000E+00 -0.34607429991E+03  0.20299607768E+04  0.20002433187E+04 0.  0.
        2    1    3    3  502    0  0.56624786946E+03 -0.32159815881E+03  0.59730631142E+03  0.88364973552E+03  0.25500000920E-02 0.  1.
       -2    1    3    3    0  502 -0.56624786946E+03  0.32159815881E+03 -0.94338061133E+03  0.11463110412E+04  0.25500000920E-02 0. -1.
</event>
<event>
 5   0  0.5129100E-06  0.2000565E+04  0.7818609E-02  0.8606357E-01
       -2   -1    0    0    0  501  0.00000000000E+00  0.00000000000E+00  0.10533294338E+04  0.10533294338E+04  0.25500000920E-02 0.  1.
        2   -1    0    0  501    0  0.00000000000E+00  0.00000000000E+00 -0.94990666337E+03  0.94990666337E+03  0.25500000920E-02 0. -1.
    10030    2    1    2    0    0  0.00000000000E+00  0.00000000000E+00  0.10342277046E+03  0.20032360972E+04  0.20005645682E+04 0.  0.
        2    1    3    3  502    0  0.10810487115E+03 -0.34596035792E+03  0.98525965656E+03  0.10498151377E+04  0.25500000920E-02 0.  1.
       -2    1    3    3    0  502 -0.10810487115E+03  0.34596035792E+03 -0.88183688610E+03  0.95342095955E+03  0.25500000920E-02 0. -1.
</event>
<event>
 5   0  0.2311520E-06  0.1999770E+04  0.7818609E-02  0.8606728E-01
        1   -1    0    0  501    0  0.00000000000E+00  0.00000000000E+00  0.14696740163E+04  0.14696740163E+04  0.50400001928E-02 0. -1.
       -1   -1    0    0    0  501  0.00000000000E+00  0.00000000000E+00 -0.68026640261E+03  0.68026640263E+03  0.50400001928E-02 0.  1.
    10030    2    1    2    0    0  0.00000000000E+00  0.00000000000E+00  0.78940761372E+03  0.21499404190E+04  0.19997698429E+04 0.  0.
        3    1    3    3  502    0  0.30740433474E+03 -0.62412772686E+03 -0.37737308660E+03  0.79148171245E+03  0.10100000352E+00 0.  1.
       -3    1    3    3    0  502 -0.30740433474E+03  0.62412772686E+03  0.11667807003E+04  0.13584587065E+04  0.10100000352E+00 0. -1.
</event>
<event>
 5   0  0.2386776E-06  0.1999405E+04  0.7818609E-02  0.8606899E-01
        1   -1    0    0  501    0  0.00000000000E+00  0.00000000000E+00  0.15617138096E+04  0.15617138096E+04  0.50400001928E-02 0. -1.
       -1   -1    0    0    0  501  0.00000000000E+00  0.00000000000E+00 -0.63994100712E+03  0.63994100714E+03  0.50400001928E-02 0.  1.
    10030    2    1    2    0    0  0.00000000000E+00  0.00000000000E+00  0.92177280251E+03  0.22016548168E+04  0.19994046196E+04 0.  0.
        2    1    3    3  502    0 -0.62717398018E+03 -0.64204342389E+03  0.94569210092E+03  0.13038023276E+04  0.25500000920E-02 0. -1.
       -2    1    3    3    0  502  0.62717398018E+03  0.64204342389E+03 -0.23919298407E+02  0.89785248923E+03  0.25500000920E-02 0.  1.
</event>
<event>
 5   0  0.4956214E-06  0.2000845E+04  0.7818609E-02  0.8606226E-01
       -2   -1    0    0    0  501  0.00000000000E+00  0.00000000000E+00  0.90553059432E+03  0.90553059432E+03  0.25500000920E-02 0. -1.
        2   -1    0    0  501    0  0.00000000000E+00  0.00000000000E+00 -0.11052577592E+04  0.11052577592E+04  0.25500000920E-02 0.  1.
    10030    2    1    2    0    0  0.00000000000E+00  0.00000000000E+00 -0.19972716489E+03  0.20107883535E+04  0.20008445373E+04 0.  0.
        1    1    3    3  502    0  0.69788253903E+03 -0.30852616176E+02 -0.81956006132E+03  0.10768800380E+04  0.50400001928E-02 0.  1.
       -1    1    3    3    0  502 -0.69788253903E+03  0.30852616176E+02  0.61983289642E+03  0.93390831548E+03  0.50400001928E-02 0. -1.
</event>
<event>
 5   0  0.2386776E-06  0.2000309E+04  0.7818609E-02  0.8606476E-01
        1   -1    0    0  501    0  0.00000000000E+00  0.00000000000E+00  0.10061782801E+04  0.10061782801E+04  0.50400001928E-02 0. -1.
       -1   -1    0    0    0  501  0.00000000000E+00  0.00000000000E+00 -0.99416669633E+03  0.99416669634E+03  0.50400001928E-02 0.  1.
    10030    2    1    2    0    0  0.00000000000E+00  0.00000000000E+00  0.12011583800E+02  0.20003449765E+04  0.20003089128E+04 0.  0.
        2    1    3    3  502    0 -0.18229948740E+03 -0.91441471077E+03 -0.35583159028E+03  0.99799974300E+03  0.25500000920E-02 0.  1.
       -2    1    3    3    0  502  0.18229948740E+03  0.91441471077E+03  0.36784317407E+03  0.10023452335E+04  0.25500000920E-02 0. -1.
</event>
<event>
 5   0  0.2379743E-06  0.1999809E+04  0.7818609E-02  0.8606710E-01
       -1   -1    0    0    0  501  0.00000000000E+00  0.00000000000E+00  0.63175827006E+03  0.63175827008E+03  0.50400001928E-02 0. -1.
        1   -1    0    0  501    0  0.00000000000E+00  0.00000000000E+00 -0.15825809371E+04  0.15825809371E+04  0.50400001928E-02 0.  1.
    10030    2    1    2    0    0  0.00000000000E+00  0.00000000000E+00 -0.95082266705E+03  0.22143392072E+04  0.19998085859E+04 0.  0.
        5    1    3    3  502    0  0.59297100557E+03  0.32773993179E+03  0.33883792144E+03  0.75753633796E+03  0.46999998093E+01 0. -1.
       -5    1    3    3    0  502 -0.59297100557E+03 -0.32773993179E+03 -0.12896605885E+04  0.14568028692E+04  0.46999998093E+01 0.  1.
</event>
<event>
 5   0  0.5251252E-06  0.1999590E+04  0.7818609E-02  0.8606812E-01
        2   -1    0    0  501    0  0.00000000000E+00  0.00000000000E+00  0.93749770111E+03  0.93749770112E+03  0.25500000920E-02 0.  1.
       -2   -1    0    0    0  501  0.00000000000E+00  0.00000000000E+00 -0.10662319671E+04  0.10662319672E+04  0.25500000920E-02 0. -1.
    10030    2    1    2    0    0  0.00000000000E+00  0.00000000000E+00 -0.12873426604E+03  0.20037296683E+04  0.19995899760E+04 0.  0.
        5    1    3    3  502    0 -0.39524816471E+01  0.89475618004E+03  0.38260977277E+03  0.97314776475E+03  0.46999998093E+01 0.  1.
       -5    1    3    3    0  502  0.39524816471E+01 -0.89475618004E+03 -0.51134403880E+03  0.10305819035E+04  0.46999998093E+01 0. -1.
</event>
<event>
 5   0  0.2386776E-06  0.1999976E+04  0.7818609E-02  0.8606632E-01
       -1   -1    0    0    0  501  0.00000000000E+00  0.00000000000E+00  0.11677414995E+04  0.11677414995E+04  0.50400001928E-02 0. -1.
        1   -1    0    0  501    0  0.00000000000E+00  0.00000000000E+00 -0.85633320281E+03  0.85633320283E+03  0.50400001928E-02 0.  1.
    10030    2    1    2    0    0  0.00000000000E+00  0.00000000000E+00  0.31140829670E+03  0.20240747023E+04  0.19999758182E+04 0.  0.
        2    1    3    3  502    0 -0.60727803994E+03  0.74692781900E+03  0.42968381151E+03  0.10541897184E+04  0.25500000920E-02 0.  1.
       -2    1    3    3    0  502  0.60727803994E+03 -0.74692781900E+03 -0.11827551480E+03  0.96988498390E+03  0.25500000920E-02 0. -1.
</event>
<event>
 5   0  0.2311520E-06  0.2000190E+04  0.7818609E-02  0.8606532E-01
        1   -1    0    0  501    0  0.00000000000E+00  0.00000000000E+00  0.12189275053E+04  0.12189275053E+04  0.50400001928E-02 0.  1.
       -1   -1    0    0    0  501  0.00000000000E+00  0.00000000000E+00 -0.82054913038E+03  0.82054913040E+03  0.50400001928E-02 0. -1.
    10030    2    1    2    0    0  0.00000000000E+00  0.00000000000E+00  0.39837837495E+03  0.20394766357E+04  0.20001898955E+04 0.  0.
        3    1    3    3  502    0  0.16925502688E+02  0.93491797035E+03  0.56088437296E+03  0.10903895515E+04  0.10100000352E+00 0.  1.
       -3    1    3    3    0  502 -0.16925502688E+02 -0.93491797035E+03 -0.16250599801E+03  0.94908708427E+03  0.10100000352E+00 0. -1.
</event>
<event>
 5   0  0.2379743E-06  0.1999598E+04  0.7818609E-02  0.8606809E-01
        1   -1    0    0  501    0  0.00000000000E+00  0.00000000000E+00  0.13659472476E+04  0.13659472476E+04  0.50400001928E-02 0. -1.
       -1   -1    0    0    0  501  0.00000000000E+00  0.00000000000E+00 -0.73179861114E+03  0.73179861115E+03  0.50400001928E-02 0.  1.
    10030    2    1    2    0    0  0.00000000000E+00  0.00000000000E+00  0.63414863642E+03  0.20977458587E+04  0.19995982583E+04 0.  0.
        5    1    3    3  502    0  0.40816810346E+02 -0.37731448016E+03 -0.65328212155E+03  0.75553414832E+03  0.46999998093E+01 0.  1.
       -5    1    3    3    0  502 -0.40816810346E+02  0.37731448016E+03  0.12874307580E+04  0.13422117104E+04  0.46999998093E+01 0. -1.
</event>
<event>
 5   0  0.5129100E-06  0.2000216E+04  0.7818609E-02  0.8606520E-01
       -2   -1    0    0    0  501  0.00000000000E+00  0.00000000000E+00  0.79090230277E+03  0.79090230277E+03  0.25500000920E-02 0.  1.
        2   -1    0    0  501    0  0.00000000000E+00  0.00000000000E+00 -0.12646519929E+04  0.12646519929E+04  0.25500000920E-02 0. -1.
    10030    2    1    2    0    0  0.00000000000E+00  0.00000000000E+00 -0.47374969010E+03  0.20555542956E+04  0.20002161617E+04 0.  0.
        2    1    3    3  502    0 -0.83706640274E+03 -0.54133783169E+03 -0.31966011059E+03  0.10468569133E+04  0.25500000920E-02 0.  1.
       -2    1    3    3    0  502  0.83706640274E+03  0.54133783169E+03 -0.15408957950E+03  0.10086973823E+04  0.25500000920E-02 0. -1.
</event>
<event>
 5   0  0.5030137E-06  0.1999711E+04  0.7818609E-02  0.8606756E-01
       -2   -1    0    0    0  501  0.00000000000E+00  0.00000000000E+00  0.12785813443E+04  0.12785813443E+04  0.25500000920E-02 0.  1.
        2   -1    0    0  501    0  0.00000000000E+00  0.00000000000E+00 -0.78189080135E+03  0.78189080135E+03  0.25500000920E-02 0. -1.
    10030    2    1    2    0    0  0.00000000000E+00  0.00000000000E+00  0.49669054291E+03  0.20604721456E+04  0.19997109710E+04 0.  0.
        3    1    3    3  502    0 -0.54614972362E+03 -0.14181250661E+03  0.10988471992E+04  0.12352552307E+04  0.10100000352E+00 0.  1.
       -3    1    3    3    0  502  0.54614972362E+03  0.14181250661E+03 -0.60215665631E+03  0.82521691487E+03  0.10100000352E+00 0. -1.
</event>
<event>
 5   0  0.2311520E-06  0.1998485E+04  0.7818609E-02  0.8607329E-01
        1   -1    0    0  501    0  0.00000000000E+00  0.00000000000E+00  0.16378633765E+04  0.16378633765E+04  0.50400001928E-02 0. -1.
       -1   -1    0    0    0  501  0.00000000000E+00  0.00000000000E+00 -0.60962685482E+03  0.60962685484E+03  0.50400001928E-02 0.  1.
    10030    2    1    2    0    0  0.00000000000E+00  0.00000000000E+00  0.10282365217E+04  0.22474902314E+04  0.19984849250E+04 0.  0.
        3    1    3    3  502    0 -0.90997833435E+03  0.11712712764E+03  0.95930268839E+03  0.13274189208E+04  0.10100000352E+00 0. -1.
       -3    1    3    3    0  502  0.90997833435E+03 -0.11712712764E+03  0.68933833301E+02  0.92007131060E+03  0.10100000352E+00 0.  1.
</event>
<event>
 5   0  0.4956214E-06  0.1998903E+04  0.7818609E-02  0.8607134E-01
        2   -1    0    0  501    0  0.00000000000E+00  0.00000000000E+00  0.83318608853E+03  0.83318608854E+03  0.25500000920E-02 0. -1.
       -2   -1    0    0    0  501  0.00000000000E+00  0.00000000000E+00 -0.11988958597E+04  0.11988958597E+04  0.25500000920E-02 0.  1.
    10030    2    1    2    0    0  0.00000000000E+00  0.00000000000E+00 -0.36570977113E+03  0.20320819482E+04  0.19989030511E+04 0.  0.
        1    1    3    3  502    0  0.99525323171E+03 -0.38845812279E+02 -0.98622106636E+02  0.10008817674E+04  0.50400001928E-02 0. -1.
       -1    1    3    3    0  502 -0.99525323171E+03  0.38845812279E+02 -0.26708766449E+03  0.10312001808E+04  0.50400001928E-02 0.  1.
</event>
<event>
 5   0  0.4956214E-06  0.1998879E+04  0.7818609E-02  0.8607145E-01
       -2   -1    0    0    0  501  0.00000000000E+00  0.00000000000E+00  0.98633096084E+03  0.98633096084E+03  0.25500000920E-02 0.  1.
        2   -1    0    0  501    0  0.00000000000E+00  0.00000000000E+00 -0.10127227560E+04  0.10127227561E+04  0.25500000920E-02 0. -1.
    10030    2    1    2    0    0  0.00000000000E+00  0.00000000000E+00 -0.26391795211E+02  0.19990537169E+04  0.19988794952E+04 0.  0.
        1    1    3    3  502    0  0.73690055291E+03  0.14744717478E+03 -0.67212866584E+03  0.10082261838E+04  0.50400001928E-02 0. -1.
       -1    1    3    3    0  502 -0.73690055291E+03 -0.14744717478E+03  0.64573687063E+03  0.99082753309E+03  0.50400001928E-02 0.  1.
</event>
<event>
 5   0  0.5251252E-06  0.1999690E+04  0.7818609E-02  0.8606766E-01
        2   -1    0    0  501    0  0.00000000000E+00  0.00000000000E+00  0.79367158754E+03  0.79367158754E+03  0.25500000920E-02 0.  1.
       -2   -1    0    0    0  501  0.00000000000E+00  0.00000000000E+00 -0.12595762230E+04  0.12595762230E+04  0.25500000920E-02 0. -1.
    10030    2    1    2    0    0  0.00000000000E+00  0.00000000000E+00 -0.46590463544E+03  0.20532478105E+04  0.19996898365E+04 0.  0.
        5    1    3    3  502    0  0.75237078432E+02 -0.52587876898E+03  0.63676311005E+03  0.82927585636E+03  0.46999998093E+01 0.  1.
       -5    1    3    3    0  502 -0.75237078432E+02  0.52587876898E+03 -0.11026677455E+04  0.12239719542E+04  0.46999998093E+01 0. -1.
</event>
<event>
 5   0  0.5030137E-06  0.1999807E+04  0.7818609E-02  0.8606711E-01
       -2   -1    0    0    0  501  0.00000000000E+00  0.00000000000E+00  0.18444893551E+04  0.18444893551E+04  0.25500000920E-02 0. -1.
        2   -1    0    0  501    0  0.00000000000E+00  0.00000000000E+00 -0.54205087416E+03  0.54205087417E+03  0.25500000920E-02 0.  1.
    10030    2    1    2    0    0  0.00000000000E+00  0.00000000000E+00  0.13024384809E+04  0.23865402293E+04  0.19998070580E+04 0.  0.
        3    1    3    3  502    0  0.87415466044E+03 -0.11764694458E+03  0.12132769366E+04  0.15000093696E+04  0.10100000352E+00 0. -1.
       -3    1    3    3    0  502 -0.87415466044E+03  0.11764694458E+03  0.89161544375E+02  0.88653085966E+03  0.10100000352E+00 0.  1.
</event>
<event>
 5   0  0.2313821E-06  0.1999854E+04  0.7818609E-02  0.8606689E-01
        1   -1    0    0  501    0  0.00000000000E+00  0.00000000000E+00  0.87313118970E+03  0.87313118971E+03  0.50400001928E-02 0. -1.
       -1   -1    0    0    0  501  0.00000000000E+00  0.00000000000E+00 -0.11451361299E+04  0.11451361299E+04  0.50400001928E-02 0.  1.
    10030    2    1    2    0    0  0.00000000000E+00  0.00000000000E+00 -0.27200494022E+03  0.20182673196E+04  0.19998540662E+04 0.  0.
        1    1    3    3  502    0 -0.22448702740E+03 -0.91378278616E+03  0.20543290606E+03  0.96311789760E+03  0.50400001928E-02 0.  1.
       -1    1    3    3    0  502  0.22448702740E+03  0.91378278616E+03 -0.47743784629E+03  0.10551494220E+04  0.50400001928E-02 0. -1.
</event>
<event>
 5   0  0.2313821E-06  0.2000911E+04  0.7818609E-02  0.8606195E-01
        1   -1    0    0  501    0  0.00000000000E+00  0.00000000000E+00  0.12233063760E+04  0.12233063760E+04  0.50400001928E-02 0. -1.
       -1   -1    0    0    0  501  0.00000000000E+00  0.00000000000E+00 -0.81820120709E+03  0.81820120711E+03  0.50400001928E-02 0.  1.
    10030    2    1    2    0    0  0.00000000000E+00  0.00000000000E+00  0.40510516886E+03  0.20415075831E+04  0.20009105462E+04 0.  0.
        1    1    3    3  502    0 -0.83365091132E+03 -0.37661193236E+03  0.61586466205E+03  0.11027690926E+04  0.50400001928E-02 0. -1.
       -1    1    3    3    0  502  0.83365091132E+03  0.37661193236E+03 -0.21075949319E+03  0.93873849050E+03  0.50400001928E-02 0.  1.
</event>
<event>
 5   0  0.2311520E-06  0.2000523E+04  0.7818609E-02  0.8606376E-01
        1   -1    0    0  501    0  0.00000000000E+00  0.00000000000E+00  0.16184554963E+04  0.16184554963E+04  0.50400001928E-02 0. -1.
       -1   -1    0    0    0  501  0.00000000000E+00  0.00000000000E+00 -0.61819621804E+03  0.61819621806E+03  0.50400001928E-02 0.  1.
    10030    2    1    2    0    0  0.00000000000E+00  0.00000000000E+00  0.10002592782E+04  0.22366517143E+04  0.20005229985E+04 0.  0.
        3    1    3    3  502    0 -0.63929209218E+03 -0.32149088555E+03 -0.28127282939E+03  0.76887267045E+03  0.10100000352E+00 0.  1.
       -3    1    3    3    0  502  0.63929209218E+03  0.32149088555E+03  0.12815321076E+04  0.14677790439E+04  0.10100000352E+00 0. -1.
</event>
<event>
 5   0  0.5251252E-06  0.2000238E+04  0.7818609E-02  0.8606510E-01
        2   -1    0    0  501    0  0.00000000000E+00  0.00000000000E+00  0.31590466669E+04  0.31590466669E+04  0.25500000920E-02 0.  1.
       -2   -1    0    0    0  501  0.00000000000E+00  0.00000000000E+00 -0.31662646409E+03  0.31662646410E+03  0.25500000920E-02 0. -1.
    10030    2    1    2    0    0  0.00000000000E+00  0.00000000000E+00  0.28424202028E+04  0.34756731310E+04  0.20002377619E+04 0.  0.
        5    1    3    3  502    0  0.79287098455E+03 -0.54731370148E+03  0.95489353101E+03  0.13564808998E+04  0.46999998093E+01 0. -1.
       -5    1    3    3    0  502 -0.79287098455E+03  0.54731370148E+03  0.18875266718E+04  0.21191922312E+04  0.46999998093E+01 0.  1.
</event>
<event>
 5   0  0.4956214E-06  0.2000094E+04  0.7818609E-02  0.8606577E-01
       -2   -1    0    0    0  501  0.00000000000E+00  0.00000000000E+00  0.82023160401E+03  0.82023160401E+03  0.25500000920E-02 0.  1.
        2   -1    0    0  501    0  0.00000000000E+00  0.00000000000E+00 -0.12192827953E+04  0.12192827953E+04  0.25500000920E-02 0. -1.
    10030    2    1    2    0    0  0.00000000000E+00  0.00000000000E+00 -0.39905119127E+03  0.20395143993E+04  0.20000942807E+04 0.  0.
        1    1    3    3  502    0  0.45058303882E+03  0.88309736078E+03 -0.33329129972E+03  0.10459297844E+04  0.50400001928E-02 0. -1.
       -1    1    3    3    0  502 -0.45058303882E+03 -0.88309736078E+03 -0.65759891551E+02  0.99358461485E+03  0.50400001928E-02 0.  1.
</event>
<event>
 5   0  0.2379743E-06  0.1999085E+04  0.7818609E-02  0.8607049E-01
       -1   -1    0    0    0  501  0.00000000000E+00  0.00000000000E+00  0.67510401506E+03  0.67510401508E+03  0.50400001928E-02 0.  1.
        1   -1    0    0  501    0  0.00000000000E+00  0.00000000000E+00 -0.14798975221E+04  0.14798975221E+04  0.50400001928E-02 0. -1.
    10030    2    1    2    0    0  0.00000000000E+00  0.00000000000E+00 -0.80479350707E+03  0.21550015372E+04  0.19990845496E+04 0.  0.
        5    1    3    3  502    0 -0.80302740008E+03  0.55825743243E+03 -0.62478333178E+03  0.11605518807E+04  0.46999998093E+01 0. -1.
       -5    1    3    3    0  502  0.80302740008E+03 -0.55825743243E+03 -0.18001017529E+03  0.99444965651E+03  0.46999998093E+01 0.  1.
</event>
<event>
 5   0  0.2379743E-06  0.2000177E+04  0.7818609E-02  0.8606538E-01
        1   -1    0    0  501    0  0.00000000000E+00  0.00000000000E+00  0.63982897572E+03  0.63982897574E+03  0.50400001928E-02 0.  1.
       -1   -1    0    0    0  501  0.00000000000E+00  0.00000000000E+00 -0.15631948173E+04  0.15631948173E+04  0.50400001928E-02 0. -1.
    10030    2    1    2    0    0  0.00000000000E+00  0.00000000000E+00 -0.92336584160E+03  0.22030237931E+04  0.20001773310E+04 0.  0.
        5    1    3    3  502    0 -0.42526236073E+03 -0.44360788348E+03 -0.13306975124E+04  0.14657469049E+04  0.46999998093E+01 0. -1.
       -5    1    3    3    0  502  0.42526236073E+03  0.44360788348E+03  0.40733167082E+03  0.73727688814E+03  0.46999998093E+01 0.  1.
</event>
<event>
 5   0  0.4956214E-06  0.2000176E+04  0.7818609E-02  0.8606538E-01
       -2   -1    0    0    0  501  0.00000000000E+00  0.00000000000E+00  0.68907315078E+03  0.68907315078E+03  0.25500000920E-02 0. -1.
        2   -1    0    0  501    0  0.00000000000E+00  0.00000000000E+00 -0.14514800950E+04  0.14514800950E+04  0.25500000920E-02 0.  1.
    10030    2    1    2    0    0  0.00000000000E+00  0.00000000000E+00 -0.76240694420E+03  0.21405532458E+04  0.20001759546E+04 0.  0.
        1    1    3    3  502    0  0.32027479292E+03  0.78391318657E+03  0.18819006118E+03  0.86747410694E+03  0.50400001928E-02 0. -1.
       -1    1    3    3    0  502 -0.32027479292E+03 -0.78391318657E+03 -0.95059700537E+03  0.12730791388E+04  0.50400001928E-02 0.  1.
</event>
<event>
 5   0  0.2311520E-06  0.2002482E+04  0.7818609E-02  0.8605461E-01
       -1   -1    0    0    0  501  0.00000000000E+00  0.00000000000E+00  0.65850918068E+03  0.65850918070E+03  0.50400001928E-02 0.  1.
        1   -1    0    0  501    0  0.00000000000E+00  0.00000000000E+00 -0.15223530231E+04  0.15223530231E+04  0.50400001928E-02 0. -1.
    10030    2    1    2    0    0  0.00000000000E+00  0.00000000000E+00 -0.86384384246E+03  0.21808622038E+04  0.20024819020E+04 0.  0.
        3    1    3    3  502    0  0.86462571967E+03  0.14377855096E+03  0.95167321908E+02  0.88165000777E+03  0.10100000352E+00 0.  1.
       -3    1    3    3    0  502 -0.86462571967E+03 -0.14377855096E+03 -0.95901116437E+03  0.12992121961E+04  0.10100000352E+00 0. -1.
</event>
<event>
 5   0  0.2386776E-06  0.2001834E+04  0.7818609E-02  0.8605764E-01
       -1   -1    0    0    0  501  0.00000000000E+00  0.00000000000E+00  0.73666293174E+03  0.73666293175E+03  0.50400001928E-02 0. -1.
        1   -1    0    0  501    0  0.00000000000E+00  0.00000000000E+00 -0.13599641196E+04  0.13599641196E+04  0.50400001928E-02 0.  1.
    10030    2    1    2    0    0  0.00000000000E+00  0.00000000000E+00 -0.62330118784E+03  0.20966270513E+04  0.20018343142E+04 0.  0.
        2    1    3    3  502    0  0.47640594807E+03  0.17533960465E+03  0.59182627801E+03  0.77972107042E+03  0.25500000920E-02 0. -1.
       -2    1    3    3    0  502 -0.47640594807E+03 -0.17533960465E+03 -0.12151274659E+04  0.13169059809E+04  0.25500000920E-02 0.  1.
</event>
<event>
 5   0  0.2356996E-06  0.1997232E+04  0.7818609E-02  0.8607916E-01
        1   -1    0    0  501    0  0.00000000000E+00  0.00000000000E+00  0.14410705099E+04  0.14410705099E+04  0.50400001928E-02 0.  1.
       -1   -1    0    0    0  501  0.00000000000E+00  0.00000000000E+00 -0.69200932142E+03  0.69200932143E+03  0.50400001928E-02 0. -1.
    10030    2    1    2    0    0  0.00000000000E+00  0.00000000000E+00  0.74906118851E+03  0.21330798314E+04  0.19972323107E+04 0.  0.
        4    1    3    3  502    0 -0.17200778893E+03  0.15345984789E+03  0.14122659341E+04  0.14309553753E+04  0.12699999809E+01 0.  1.
       -4    1    3    3    0  502  0.17200778893E+03 -0.15345984789E+03 -0.66320474562E+03  0.70212445612E+03  0.12699999809E+01 0. -1.
</event>
<event>
 5   0  0.2356996E-06  0.1996461E+04  0.7818609E-02  0.8608277E-01
        1   -1    0    0  501    0  0.00000000000E+00  0.00000000000E+00  0.12416465677E+04  0.12416465677E+04  0.50400001928E-02 0.  1.
       -1   -1    0    0    0  501  0.00000000000E+00  0.00000000000E+00 -0.80253429598E+03  0.80253429600E+03  0.50400001928E-02 0. -1.
    10030    2    1    2    0    0  0.00000000000E+00  0.00000000000E+00  0.43911227170E+03  0.20441808637E+04  0.19964608226E+04 0.  0.
        4    1    3    3  502    0  0.29924062597E+03 -0.88046450369E+03  0.59113485301E+03  0.11019095797E+04  0.12699999809E+01 0.  1.
       -4    1    3    3    0  502 -0.29924062597E+03  0.88046450369E+03 -0.15202258131E+03  0.94227128399E+03  0.12699999809E+01 0. -1.
</event>
<event>
 5   0  0.2313821E-06  0.1999653E+04  0.7818609E-02  0.8606783E-01
       -1   -1    0    0    0  501  0.00000000000E+00  0.00000000000E+00  0.57392664026E+03  0.57392664028E+03  0.50400001928E-02 0.  1.
        1   -1    0    0  501    0  0.00000000000E+00  0.00000000000E+00 -0.17417787861E+04  0.17417787861E+04  0.50400001928E-02 0. -1.
    10030    2    1    2    0    0  0.00000000000E+00  0.00000000000E+00 -0.11678521458E+04  0.23157054264E+04  0.19996532167E+04 0.  0.
        1    1    3    3  502    0 -0.93012648810E+03  0.26961520498E+03 -0.87187324099E+03  0.13030696800E+04  0.50400001928E-02 0. -1.
       -1    1    3    3    0  502  0.93012648810E+03 -0.26961520498E+03 -0.29597890482E+03  0.10126357463E+04  0.50400001928E-02 0.  1.
</event>
<event>
 5   0  0.2311520E-06  0.2000254E+04  0.7818609E-02  0.8606502E-01
       -1   -1    0    0    0  501  0.00000000000E+00  0.00000000000E+00  0.69228315074E+03  0.69228315076E+03  0.50400001928E-02 0. -1.
        1   -1    0    0  501    0  0.00000000000E+00  0.00000000000E+00 -0.14448619036E+04  0.14448619036E+04  0.50400001928E-02 0.  1.
    10030    2    1    2    0    0  0.00000000000E+00  0.00000000000E+00 -0.75257875285E+03  0.21371450544E+04  0.20002535350E+04 0.  0.
        3    1    3    3  502    0  0.43929491920E+03  0.31612087503E+03 -0.12748831445E+04  0.13850052260E+04  0.10100000352E+00 0.  1.
       -3    1    3    3    0  502 -0.43929491920E+03 -0.31612087503E+03  0.52230439166E+03  0.75213982836E+03  0.10100000352E+00 0. -1.
</event>
<event>
 5   0  0.2356996E-06  0.1999351E+04  0.7818609E-02  0.8606924E-01
        1   -1    0    0  501    0  0.00000000000E+00  0.00000000000E+00  0.61952178235E+03  0.61952178237E+03  0.50400001928E-02 0. -1.
       -1   -1    0    0    0  501  0.00000000000E+00  0.00000000000E+00 -0.16131000853E+04  0.16131000853E+04  0.50400001928E-02 0.  1.
    10030    2    1    2    0    0  0.00000000000E+00  0.00000000000E+00 -0.99357830296E+03  0.22326218677E+04  0.19993505345E+04 0.  0.
        4    1    3    3  502    0  0.49806131614E+03  0.45151824201E+03  0.32940985597E+03  0.74862959039E+03  0.12699999809E+01 0. -1.
       -4    1    3    3    0  502 -0.49806131614E+03 -0.45151824201E+03 -0.13229881589E+04  0.14839922773E+04  0.12699999809E+01 0.  1.
</event>
<event>
 5   0  0.5251252E-06  0.1999866E+04  0.7818609E-02  0.8606683E-01
        2   -1    0    0  501    0  0.00000000000E+00  0.00000000000E+00  0.93474145452E+03  0.93474145452E+03  0.25500000920E-02 0. -1.
       -2   -1    0    0    0  501  0.00000000000E+00  0.00000000000E+00 -0.10696709951E+04  0.10696709951E+04  0.25500000920E-02 0.  1.
    10030    2    1    2    0    0  0.00000000000E+00  0.00000000000E+00 -0.13492954058E+03  0.20044124496E+04  0.19998658173E+04 0.  0.
        5    1    3    3  502    0  0.17852453845E+03 -0.19071944509E+03  0.89992323399E+03  0.93708528675E+03  0.46999998093E+01 0. -1.
       -5    1    3    3    0  502 -0.17852453845E+03  0.19071944509E+03 -0.10348527746E+04  0.10673271629E+04  0.46999998093E+01 0.  1.
</event>
<event>
 5   0  0.2386776E-06  0.1998513E+04  0.7818609E-02  0.8607316E-01
        1   -1    0    0  501    0  0.00000000000E+00  0.00000000000E+00  0.97935565915E+03  0.97935565916E+03  0.50400001928E-02 0. -1.
       -1   -1    0    0    0  501  0.00000000000E+00  0.00000000000E+00 -0.10195618690E+04  0.10195618690E+04  0.50400001928E-02 0.  1.
    10030    2    1    2    0    0  0.00000000000E+00  0.00000000000E+00 -0.40206209829E+02  0.19989175282E+04  0.19985131336E+04 0.  0.
        2    1    3    3  502    0  0.43392469409E+02  0.76214908311E+03 -0.66502777338E+03  0.10124307733E+04  0.25500000920E-02 0.  1.
       -2    1    3    3    0  502 -0.43392469409E+02 -0.76214908311E+03  0.62482156355E+03  0.98648675489E+03  0.25500000920E-02 0. -1.
</event>
<event>
 5   0  0.2311520E-06  0.1999948E+04  0.7818609E-02  0.8606645E-01
        1   -1    0    0  501    0  0.00000000000E+00  0.00000000000E+00  0.19977254621E+04  0.19977254621E+04  0.50400001928E-02 0. -1.
       -1   -1    0    0    0  501  0.00000000000E+00  0.00000000000E+00 -0.50054307258E+03  0.50054307261E+03  0.50400001928E-02 0.  1.
    10030    2    1    2    0    0  0.00000000000E+00  0.00000000000E+00  0.14971823895E+04  0.24982685347E+04  0.19999476403E+04 0.  0.
        3    1    3    3  502    0 -0.20154577900E+03  0.40198692917E+03  0.18642962240E+04  0.19177629189E+04  0.10100000352E+00 0. -1.
       -3    1    3    3    0  502  0.20154577900E+03 -0.40198692917E+03 -0.36711383449E+03  0.58050561576E+03  0.10100000352E+00 0.  1.
</event>
<event>
 5   0  0.2386776E-06  0.2000015E+04  0.7818609E-02  0.8606613E-01
        1   -1    0    0  501    0  0.00000000000E+00  0.00000000000E+00  0.20859542528E+04  0.20859542528E+04  0.50400001928E-02 0.  1.
       -1   -1    0    0    0  501  0.00000000000E+00  0.00000000000E+00 -0.47940432419E+03  0.47940432422E+03  0.50400001928E-02 0. -1.
    10030    2    1    2    0    0  0.00000000000E+00  0.00000000000E+00  0.16065499286E+04  0.25653585771E+04  0.20000154889E+04 0.  0.
        2    1    3    3  502    0 -0.60849798046E+03 -0.52386150659E+03  0.15678522277E+04  0.17614940472E+04  0.25500000920E-02 0.  1.
       -2    1    3    3    0  502  0.60849798046E+03  0.52386150659E+03  0.38697700909E+02  0.80386452986E+03  0.25500000920E-02 0. -1.
</event>
<event>
 5   0  0.4956214E-06  0.2001435E+04  0.7818609E-02  0.8605950E-01
        2   -1    0    0  501    0  0.00000000000E+00  0.00000000000E+00  0.93585008988E+03  0.93585008988E+03  0.25500000920E-02 0. -1.
       -2   -1    0    0    0  501  0.00000000000E+00  0.00000000000E+00 -0.10700807777E+04  0.10700807777E+04  0.25500000920E-02 0.  1.
    10030    2    1    2    0    0  0.00000000000E+00  0.00000000000E+00 -0.13423068778E+03  0.20059308675E+04  0.20014346774E+04 0.  0.
        1    1    3    3  502    0  0.37710246932E+03  0.91809400473E+03 -0.19520039778E+03  0.10115364893E+04  0.50400001928E-02 0.  1.
       -1    1    3    3    0  502 -0.37710246932E+03 -0.91809400473E+03  0.60969709996E+02  0.99439437823E+03  0.50400001928E-02 0. -1.
</event>
<event>
 5   0  0.2313821E-06  0.1999660E+04  0.7818609E-02  0.8606780E-01
       -1   -1    0    0    0  501  0.00000000000E+00  0.00000000000E+00  0.12409623786E+04  0.12409623786E+04  0.50400001928E-02 0.  1.
        1   -1    0    0  501    0  0.00000000000E+00  0.00000000000E+00 -0.80555213306E+03  0.80555213308E+03  0.50400001928E-02 0. -1.
    10030    2    1    2    0    0  0.00000000000E+00  0.00000000000E+00  0.43541024550E+03  0.20465145117E+04  0.19996598622E+04 0.  0.
        1    1    3    3  502    0 -0.93322408468E+02 -0.69090757823E+03  0.95115453611E+03  0.11793037374E+04  0.50400001928E-02 0.  1.
       -1    1    3    3    0  502  0.93322408468E+02  0.69090757823E+03 -0.51574429061E+03  0.86721077420E+03  0.50400001928E-02 0. -1.
</event>
<event>
 5   0  0.5129100E-06  0.1999558E+04  0.7818609E-02  0.8606827E-01
       -2   -1    0    0    0  501  0.00000000000E+00  0.00000000000E+00  0.57853051789E+03  0.57853051789E+03  0.25500000920E-02 0. -1.
        2   -1    0    0  501    0  0.00000000000E+00  0.00000000000E+00 -0.17277528705E+04  0.17277528705E+04  0.25500000920E-02 0.  1.
    10030    2    1    2    0    0  0.00000000000E+00  0.00000000000E+00 -0.11492223526E+04  0.23062833884E+04  0.19995577141E+04 0.  0.
        2    1    3    3  502    0 -0.33430205376E+03 -0.11280635445E+03  0.50433870753E+03  0.61550034011E+03  0.25500000920E-02 0. -1.
       -2    1    3    3    0  502  0.33430205376E+03  0.11280635445E+03 -0.16535610602E+04  0.16907830483E+04  0.25500000920E-02 0.  1.
</event>
<event>
 5   0  0.1777750E-06  0.1998708E+04  0.7818609E-02  0.8607225E-01
        3   -1    0    0  501    0  0.00000000000E+00  0.00000000000E+00  0.85886138838E+03  0.85886139432E+03  0.10100000352E+00 0.  1.
       -3   -1    0    0    0  501  0.00000000000E+00  0.00000000000E+00 -0.11628279885E+04  0.11628279929E+04  0.10100000352E+00 0. -1.
    10030    2    1    2    0    0  0.00000000000E+00  0.00000000000E+00 -0.30396660011E+03  0.20216893872E+04  0.19987076535E+04 0.  0.
        4    1    3    3  502    0  0.84846427200E+02  0.95549690674E+03 -0.43544331887E+03  0.10534636927E+04  0.12699999809E+01 0. -1.
       -4    1    3    3    0  502 -0.84846427200E+02 -0.95549690674E+03  0.13147671876E+03  0.96822569449E+03  0.12699999809E+01 0.  1.
</event>
<event>
 5   0  0.2313821E-06  0.1999717E+04  0.7818609E-02  0.8606753E-01
       -1   -1    0    0    0  501  0.00000000000E+00  0.00000000000E+00  0.12219333334E+04  0.12219333334E+04  0.50400001928E-02 0. -1.
        1   -1    0    0  501    0  0.00000000000E+00  0.00000000000E+00 -0.81814342759E+03  0.81814342760E+03  0.50400001928E-02 0.  1.
    10030    2    1    2    0    0  0.00000000000E+00  0.00000000000E+00  0.40378990579E+03  0.20400767610E+04  0.19997167056E+04 0.  0.
        1    1    3    3  502    0 -0.30911955310E+03  0.43884672442E+03 -0.65867958181E+03  0.84970591216E+03  0.50400001928E-02 0.  1.
       -1    1    3    3    0  502  0.30911955310E+03 -0.43884672442E+03  0.10624694876E+04  0.11903708488E+04  0.50400001928E-02 0. -1.
</event>
<event>
 5   0  0.2311520E-06  0.2000085E+04  0.7818609E-02  0.8606581E-01
        1   -1    0    0  501    0  0.00000000000E+00  0.00000000000E+00  0.95398935613E+03  0.95398935615E+03  0.50400001928E-02 0. -1.
       -1   -1    0    0    0  501  0.00000000000E+00  0.00000000000E+00 -0.10483184755E+04  0.10483184756E+04  0.50400001928E-02 0.  1.
    10030    2    1    2    0    0  0.00000000000E+00  0.00000000000E+00 -0.94329119415E+02  0.20023078317E+04  0.20000846657E+04 0.  0.
        3    1    3    3  502    0  0.10362241992E+03  0.60974820455E+03 -0.83388421040E+03  0.10382164348E+04  0.10100000352E+00 0.  1.
       -3    1    3    3    0  502 -0.10362241992E+03 -0.60974820455E+03  0.73955509098E+03  0.96409139694E+03  0.10100000352E+00 0. -1.
</event>
<event>
 5   0  0.5030137E-06  0.2000563E+04  0.7818609E-02  0.8606357E-01
        2   -1    0    0  501    0  0.00000000000E+00  0.00000000000E+00  0.17761164202E+04  0.17761164202E+04  0.25500000920E-02 0. -1.
       -2   -1    0    0    0  501  0.00000000000E+00  0.00000000000E+00 -0.56334336300E+03  0.56334336300E+03  0.25500000920E-02 0.  1.
    10030    2    1    2    0    0  0.00000000000E+00  0.00000000000E+00  0.12127730572E+04  0.23394597832E+04  0.20005633179E+04 0.  0.
        3    1    3    3  502    0 -0.96362989678E+03 -0.87646328817E+02  0.90291415127E+03  0.13234494443E+04  0.10100000352E+00 0. -1.
       -3    1    3    3    0  502  0.96362989678E+03  0.87646328817E+02  0.30985890593E+03  0.10160103389E+04  0.10100000352E+00 0.  1.
</event>
<event>
 5   0  0.5118981E-06  0.2000875E+04  0.7818609E-02  0.8606212E-01
       -2   -1    0    0    0  501  0.00000000000E+00  0.00000000000E+00  0.72605683444E+03  0.72605683444E+03  0.25500000920E-02 0.  1.
        2   -1    0    0  501    0  0.00000000000E+00  0.00000000000E+00 -0.13785079009E+04  0.13785079009E+04  0.25500000920E-02 0. -1.
    10030    2    1    2    0    0  0.00000000000E+00  0.00000000000E+00 -0.65245106643E+03  0.21045647353E+04  0.20008748914E+04 0.  0.
        4    1    3    3  502    0  0.38718691949E+03 -0.44116459929E+03 -0.11783531856E+04  0.13164565155E+04  0.12699999809E+01 0. -1.
       -4    1    3    3    0  502 -0.38718691949E+03  0.44116459929E+03  0.52590211917E+03  0.78810821981E+03  0.12699999809E+01 0.  1.
</event>
<event>
 5   0  0.2313821E-06  0.1998692E+04  0.7818609E-02  0.8607233E-01
       -1   -1    0    0    0  501  0.00000000000E+00  0.00000000000E+00  0.72795455537E+03  0.72795455538E+03  0.50400001928E-02 0.  1.
        1   -1    0    0  501    0  0.00000000000E+00  0.00000000000E+00 -0.13719152533E+04  0.13719152533E+04  0.50400001928E-02 0. -1.
    10030    2    1    2    0    0  0.00000000000E+00  0.00000000000E+00 -0.64396069797E+03  0.20998698087E+04  0.19986915302E+04 0.  0.
        1    1    3    3  502    0  0.57780677215E+03 -0.74637192607E+02  0.53107095672E+03  0.78833225074E+03  0.50400001928E-02 0.  1.
       -1    1    3    3    0  502 -0.57780677215E+03  0.74637192607E+02 -0.11750316547E+04  0.13115375580E+04  0.50400001928E-02 0. -1.
</event>
<event>
 5   0  0.2379743E-06  0.1998895E+04  0.7818609E-02  0.8607138E-01
       -1   -1    0    0    0  501  0.00000000000E+00  0.00000000000E+00  0.20850477029E+04  0.20850477029E+04  0.50400001928E-02 0.  1.
        1   -1    0    0  501    0  0.00000000000E+00  0.00000000000E+00 -0.47907529101E+03  0.47907529103E+03  0.50400001928E-02 0. -1.
    10030    2    1    2    0    0  0.00000000000E+00  0.00000000000E+00  0.16059724118E+04  0.25641229939E+04  0.19988945295E+04 0.  0.
        5    1    3    3  502    0 -0.31485169291E+03 -0.19547701446E+03 -0.38766388483E+03  0.53632847148E+03  0.46999998093E+01 0. -1.
       -5    1    3    3    0  502  0.31485169291E+03  0.19547701446E+03  0.19936362967E+04  0.20277945224E+04  0.46999998093E+01 0.  1.
</event>
<event>
 5   0  0.5030137E-06  0.2000163E+04  0.7818609E-02  0.8606544E-01
        2   -1    0    0  501    0  0.00000000000E+00  0.00000000000E+00  0.12026433421E+04  0.12026433421E+04  0.25500000920E-02 0. -1.
       -2   -1    0    0    0  501  0.00000000000E+00  0.00000000000E+00 -0.83163753453E+03  0.83163753453E+03  0.25500000920E-02 0.  1.
    10030    2    1    2    0    0  0.00000000000E+00  0.00000000000E+00  0.37100580753E+03  0.20342808766E+04  0.20001633372E+04 0.  0.
        3    1    3    3  502    0  0.82933411835E+03 -0.40418465032E+03 -0.20709049489E+03  0.94554047755E+03  0.10100000352E+00 0. -1.
       -3    1    3    3    0  502 -0.82933411835E+03  0.40418465032E+03  0.57809630242E+03  0.10887403990E+04  0.10100000352E+00 0.  1.
</event>
<event>
 5   0  0.2356996E-06  0.2000054E+04  0.7818609E-02  0.8606595E-01
       -1   -1    0    0    0  501  0.00000000000E+00  0.00000000000E+00  0.71807289303E+03  0.71807289305E+03  0.50400001928E-02 0.  1.
        1   -1    0    0  501    0  0.00000000000E+00  0.00000000000E+00 -0.13926913796E+04  0.13926913796E+04  0.50400001928E-02 0. -1.
    10030    2    1    2    0    0  0.00000000000E+00  0.00000000000E+00 -0.67461848657E+03  0.21107642727E+04  0.20000539273E+04 0.  0.
        4    1    3    3  502    0 -0.56388830946E+03 -0.82525595979E+03 -0.30335881801E+03  0.10445312873E+04  0.12699999809E+01 0. -1.
       -4    1    3    3    0  502  0.56388830946E+03  0.82525595979E+03 -0.37125966856E+03  0.10662329854E+04  0.12699999809E+01 0.  1.
</event>
<event>
 5   0  0.5030137E-06  0.1993339E+04  0.7818609E-02  0.8609741E-01
        2   -1    0    0  501    0  0.00000000000E+00  0.00000000000E+00  0.78324808695E+03  0.78324808695E+03  0.25500000920E-02 0. -1.
       -2   -1    0    0    0  501  0.00000000000E+00  0.00000000000E+00 -0.12682450527E+04  0.12682450527E+04  0.25500000920E-02 0.  1.
    10030    2    1    2    0    0  0.00000000000E+00  0.00000000000E+00 -0.48499696576E+03  0.20514931397E+04  0.19933394205E+04 0.  0.
        3    1    3    3  502    0  0.57616989509E+03 -0.32107956256E+03 -0.10114827275E+04  0.12075434368E+04  0.10100000352E+00 0.  1.
       -3    1    3    3    0  502 -0.57616989509E+03  0.32107956256E+03  0.52648576172E+03  0.84394970289E+03  0.10100000352E+00 0. -1.
</event>
<event>
 5   0  0.1777750E-06  0.1999467E+04  0.7818609E-02  0.8606870E-01
        3   -1    0    0  501    0  0.00000000000E+00  0.00000000000E+00  0.71083410627E+03  0.71083411344E+03  0.10100000352E+00 0.  1.
       -3   -1    0    0    0  501  0.00000000000E+00  0.00000000000E+00 -0.14060475746E+04  0.14060475782E+04  0.10100000352E+00 0. -1.
    10030    2    1    2    0    0  0.00000000000E+00  0.00000000000E+00 -0.69521346830E+03  0.21168816916E+04  0.19994665113E+04 0.  0.
        2    1    3    3  502    0  0.27066882154E+03 -0.73425080527E+02 -0.13635474015E+04  0.13920899287E+04  0.25500000920E-02 0. -1.
       -2    1    3    3    0  502 -0.27066882154E+03  0.73425080527E+02  0.66833393319E+03  0.72479176297E+03  0.25500000920E-02 0.  1.
</event>
<event>
 5   0  0.2386776E-06  0.1998135E+04  0.7818609E-02  0.8607493E-01
        1   -1    0    0  501    0  0.00000000000E+00  0.00000000000E+00  0.30962619053E+04  0.30962619053E+04  0.50400001928E-02 0. -1.
       -1   -1    0    0    0  501  0.00000000000E+00  0.00000000000E+00 -0.32236811182E+03  0.32236811186E+03  0.50400001928E-02 0.  1.
    10030    2    1    2    0    0  0.00000000000E+00  0.00000000000E+00  0.27738937935E+04  0.34186300172E+04  0.19981352349E+04 0.  0.
        2    1    3    3  502    0  0.70124855060E+02  0.99578881257E+03  0.13180150549E+04  0.16533833613E+04  0.25500000920E-02 0.  1.
       -2    1    3    3    0  502 -0.70124855060E+02 -0.99578881257E+03  0.14558787386E+04  0.17652466559E+04  0.25500000920E-02 0. -1.
</event>
<event>
 5   0  0.5251252E-06  0.1997764E+04  0.7818609E-02  0.8607667E-01
       -2   -1    0    0    0  501  0.00000000000E+00  0.00000000000E+00  0.68533975975E+03  0.68533975975E+03  0.25500000920E-02 0.  1.
        2   -1    0    0  501    0  0.00000000000E+00  0.00000000000E+00 -0.14558700428E+04  0.14558700428E+04  0.25500000920E-02 0. -1.
    10030    2    1    2    0    0  0.00000000000E+00  0.00000000000E+00 -0.77053028305E+03  0.21412098026E+04  0.19977643759E+04 0.  0.
        5    1    3    3  502    0  0.12836773450E+02 -0.99606140476E+03 -0.30620973177E+03  0.10421562237E+04  0.46999998093E+01 0. -1.
       -5    1    3    3    0  502 -0.12836773450E+02  0.99606140476E+03 -0.46432055129E+03  0.10990535788E+04  0.46999998093E+01 0.  1.
</event>
<event>
 5   0  0.2313821E-06  0.2003227E+04  0.7818609E-02  0.8605113E-01
        1   -1    0    0  501    0  0.00000000000E+00  0.00000000000E+00  0.13697420551E+04  0.13697420551E+04  0.50400001928E-02 0.  1.
       -1   -1    0    0    0  501  0.00000000000E+00  0.00000000000E+00 -0.73242264220E+03  0.73242264222E+03  0.50400001928E-02 0. -1.
    10030    2    1    2    0    0  0.00000000000E+00  0.00000000000E+00  0.63731941293E+03  0.21021646973E+04  0.20032274910E+04 0.  0.
        1    1    3    3  502    0 -0.45488599863E+03  0.36825159399E+03 -0.53431957920E+03  0.79248212660E+03  0.50400001928E-02 0. -1.
       -1    1    3    3    0  502  0.45488599863E+03 -0.36825159399E+03  0.11716389921E+04  0.13096825708E+04  0.50400001928E-02 0.  1.
</event>
<event>
 5   0  0.2313821E-06  0.1999710E+04  0.7818609E-02  0.8606756E-01
       -1   -1    0    0    0  501  0.00000000000E+00  0.00000000000E+00  0.40962293987E+03  0.40962293990E+03  0.50400001928E-02 0. -1.
        1   -1    0    0  501    0  0.00000000000E+00  0.00000000000E+00 -0.24405622832E+04  0.24405622832E+04  0.50400001928E-02 0.  1.
    10030    2    1    2    0    0  0.00000000000E+00  0.00000000000E+00 -0.20309393434E+04  0.28501852231E+04  0.19997102765E+04 0.  0.
        1    1    3    3  502    0 -0.75677714075E+03 -0.46431279408E+03 -0.36012297187E+03  0.95811615496E+03  0.50400001928E-02 0.  1.
       -1    1    3    3    0  502  0.75677714075E+03  0.46431279408E+03 -0.16708163715E+04  0.18920690682E+04  0.50400001928E-02 0. -1.
</event>
<event>
 5   0  0.5251252E-06  0.2001153E+04  0.7818609E-02  0.8606082E-01
       -2   -1    0    0    0  501  0.00000000000E+00  0.00000000000E+00  0.65951124713E+03  0.65951124713E+03  0.25500000920E-02 0.  1.
        2   -1    0    0  501    0  0.00000000000E+00  0.00000000000E+00 -0.15180229516E+04  0.15180229516E+04  0.25500000920E-02 0. -1.
    10030    2    1    2    0    0  0.00000000000E+00  0.00000000000E+00 -0.85851170447E+03  0.21775341987E+04  0.20011528777E+04 0.  0.
        5    1    3    3  502    0  0.70732387955E+02 -0.82882979968E+03  0.17578240511E+03  0.85022552978E+03  0.46999998093E+01 0.  1.
       -5    1    3    3    0  502 -0.70732387955E+02  0.82882979968E+03 -0.10342941096E+04  0.13273086689E+04  0.46999998093E+01 0. -1.
</event>
<event>
 5   0  0.2356996E-06  0.1998956E+04  0.7818609E-02  0.8607109E-01
        1   -1    0    0  501    0  0.00000000000E+00  0.00000000000E+00  0.19738781801E+04  0.19738781801E+04  0.50400001928E-02 0. -1.
       -1   -1    0    0    0  501  0.00000000000E+00  0.00000000000E+00 -0.50608815894E+03  0.50608815896E+03  0.50400001928E-02 0.  1.
    10030    2    1    2    0    0  0.00000000000E+00  0.00000000000E+00  0.14677900212E+04  0.24799663391E+04  0.19989561018E+04 0.  0.
        4    1    3    3  502    0 -0.23861305285E+03  0.63297166355E+03  0.16467205769E+04  0.17802470579E+04  0.12699999809E+01 0. -1.
       -4    1    3    3    0  502  0.23861305285E+03 -0.63297166355E+03 -0.17893055569E+03  0.69971928122E+03  0.12699999809E+01 0.  1.
</event>
<event>
 5   0  0.2313821E-06  0.2004836E+04  0.7818609E-02  0.8604363E-01
        1   -1    0    0  501    0  0.00000000000E+00  0.00000000000E+00  0.67658379895E+03  0.67658379896E+03  0.50400001928E-02 0.  1.
       -1   -1    0    0    0  501  0.00000000000E+00  0.00000000000E+00 -0.14851699349E+04  0.14851699349E+04  0.50400001928E-02 0. -1.
    10030    2    1    2    0    0  0.00000000000E+00  0.00000000000E+00 -0.80858613592E+03  0.21617537338E+04  0.20048360697E+04 0.  0.
        1    1    3    3  502    0  0.75212483784E+03  0.49955612907E+03  0.65211084477E+02  0.90526271510E+03  0.50400001928E-02 0.  1.
       -1    1    3    3    0  502 -0.75212483784E+03 -0.49955612907E+03 -0.87379722040E+03  0.12564910187E+04  0.50400001928E-02 0. -1.
</event>
<event>
 5   0  0.5251252E-06  0.2000905E+04  0.7818609E-02  0.8606198E-01
       -2   -1    0    0    0  501  0.00000000000E+00  0.00000000000E+00  0.21299400826E+04  0.21299400826E+04  0.25500000920E-02 0.  1.
        2   -1    0    0  501    0  0.00000000000E+00  0.00000000000E+00 -0.46992189508E+03  0.46992189508E+03  0.25500000920E-02 0. -1.
    10030    2    1    2    0    0  0.00000000000E+00  0.00000000000E+00  0.16600181875E+04  0.25998619777E+04  0.20009052751E+04 0.  0.
        5    1    3    3  502    0  0.31657023193E+03 -0.84521919233E+03  0.26922380257E+03  0.94186821833E+03  0.46999998093E+01 0. -1.
       -5    1    3    3    0  502 -0.31657023193E+03  0.84521919233E+03  0.13907943849E+04  0.16579937593E+04  0.46999998093E+01 0.  1.
</event>
<event>
 5   0  0.2379743E-06  0.2003488E+04  0.7818609E-02  0.8604992E-01
        1   -1    0    0  501    0  0.00000000000E+00  0.00000000000E+00  0.12018602413E+04  0.12018602413E+04  0.50400001928E-02 0. -1.
       -1   -1    0    0    0  501  0.00000000000E+00  0.00000000000E+00 -0.83494783709E+03  0.83494783711E+03  0.50400001928E-02 0.  1.
    10030    2    1    2    0    0  0.00000000000E+00  0.00000000000E+00  0.36691240419E+03  0.20368080784E+04  0.20034875682E+04 0.  0.
        5    1    3    3  502    0  0.62786754030E+03  0.37400100679E+03  0.87995925745E+03  0.11438727141E+04  0.46999998093E+01 0. -1.
       -5    1    3    3    0  502 -0.62786754030E+03 -0.37400100679E+03 -0.51304685326E+03  0.89293536433E+03  0.46999998093E+01 0.  1.
</event>
<event>
 5   0  0.5030137E-06  0.2000320E+04  0.7818609E-02  0.8606471E-01
       -2   -1    0    0    0  501  0.00000000000E+00  0.00000000000E+00  0.59107088775E+03  0.59107088776E+03  0.25500000920E-02 0. -1.
        2   -1    0    0  501    0  0.00000000000E+00  0.00000000000E+00 -0.16923851338E+04  0.16923851338E+04  0.25500000920E-02 0.  1.
    10030    2    1    2    0    0  0.00000000000E+00  0.00000000000E+00 -0.11013142460E+04  0.22834560215E+04  0.20003195579E+04 0.  0.
        3    1    3    3  502    0  0.83650267642E+03  0.54825435727E+03 -0.55057387836E+03  0.11416878617E+04  0.10100000352E+00 0. -1.
       -3    1    3    3    0  502 -0.83650267642E+03 -0.54825435727E+03 -0.55074036768E+03  0.11417681598E+04  0.10100000352E+00 0.  1.
</event>
<event>
 5   0  0.2386776E-06  0.2000286E+04  0.7818609E-02  0.8606487E-01
       -1   -1    0    0    0  501  0.00000000000E+00  0.00000000000E+00  0.56080496689E+03  0.56080496691E+03  0.50400001928E-02 0. -1.
        1   -1    0    0  501    0  0.00000000000E+00  0.00000000000E+00 -0.17836608282E+04  0.17836608282E+04  0.50400001928E-02 0.  1.
    10030    2    1    2    0    0  0.00000000000E+00  0.00000000000E+00 -0.12228558613E+04  0.23444657951E+04  0.20002858313E+04 0.  0.
        2    1    3    3  502    0  0.76734582921E+02  0.24032958564E+03 -0.17457543334E+04  0.17638890834E+04  0.25500000920E-02 0.  1.
       -2    1    3    3    0  502 -0.76734582921E+02 -0.24032958564E+03  0.52289847215E+03  0.58057671167E+03  0.25500000920E-02 0. -1.
</event>
<event>
 5   0  0.2356996E-06  0.2000249E+04  0.7818609E-02  0.8606504E-01
       -1   -1    0    0    0  501  0.00000000000E+00  0.00000000000E+00  0.68975513235E+03  0.68975513237E+03  0.50400001928E-02 0.  1.
        1   -1    0    0  501    0  0.00000000000E+00  0.00000000000E+00 -0.14501502505E+04  0.14501502505E+04  0.50400001928E-02 0. -1.
    10030    2    1    2    0    0  0.00000000000E+00  0.00000000000E+00 -0.76039511815E+03  0.21399053829E+04  0.20002485626E+04 0.  0.
        4    1    3    3  502    0  0.25519447230E+03 -0.81471885634E+03 -0.93748629341E+03  0.12679799670E+04  0.12699999809E+01 0. -1.
       -4    1    3    3    0  502 -0.25519447230E+03  0.81471885634E+03  0.17709117526E+03  0.87192541586E+03  0.12699999809E+01 0.  1.
</event>
<event>
 5   0  0.2313821E-06  0.1999173E+04  0.7818609E-02  0.8607007E-01
       -1   -1    0    0    0  501  0.00000000000E+00  0.00000000000E+00  0.10330346771E+04  0.10330346772E+04  0.50400001928E-02 0.  1.
        1   -1    0    0  501    0  0.00000000000E+00  0.00000000000E+00 -0.96722148681E+03  0.96722148683E+03  0.50400001928E-02 0. -1.
    10030    2    1    2    0    0  0.00000000000E+00  0.00000000000E+00  0.65813190328E+02  0.20002561640E+04  0.19991731655E+04 0.  0.
        1    1    3    3  502    0 -0.17632856719E+03  0.68657995145E+03  0.73805042821E+03  0.10233289930E+04  0.50400001928E-02 0.  1.
       -1    1    3    3    0  502  0.17632856719E+03 -0.68657995145E+03 -0.67223723789E+03  0.97692717096E+03  0.50400001928E-02 0. -1.
</event>
<event>
 5   0  0.2356996E-06  0.1999327E+04  0.7818609E-02  0.8606935E-01
       -1   -1    0    0    0  501  0.00000000000E+00  0.00000000000E+00  0.59746301538E+03  0.59746301541E+03  0.50400001928E-02 0.  1.
        1   -1    0    0  501    0  0.00000000000E+00  0.00000000000E+00 -0.16726179385E+04  0.16726179385E+04  0.50400001928E-02 0. -1.
    10030    2    1    2    0    0  0.00000000000E+00  0.00000000000E+00 -0.10751549231E+04  0.22700809539E+04  0.19993272440E+04 0.  0.
        4    1    3    3  502    0 -0.44384112718E+02 -0.51411952287E+03 -0.15096985908E+04  0.15954561357E+04  0.12699999809E+01 0. -1.
       -4    1    3    3    0  502  0.44384112718E+02  0.51411952287E+03  0.43454366766E+03  0.67462481815E+03  0.12699999809E+01 0.  1.
</event>
<event>
 5   0  0.5129100E-06  0.1999806E+04  0.7818609E-02  0.8606711E-01
        2   -1    0    0  501    0  0.00000000000E+00  0.00000000000E+00  0.99995597246E+03  0.99995597247E+03  0.25500000920E-02 0. -1.
       -2   -1    0    0    0  501  0.00000000000E+00  0.00000000000E+00 -0.99985011372E+03  0.99985011373E+03  0.25500000920E-02 0.  1.
    10030    2    1    2    0    0  0.00000000000E+00  0.00000000000E+00  0.10585873971E+00  0.19998060862E+04  0.19998060834E+04 0.  0.
        2    1    3    3  502    0  0.69507364244E+03 -0.14132880371E+03 -0.70472000924E+03  0.99986573629E+03  0.25500000920E-02 0.  1.
       -2    1    3    3    0  502 -0.69507364244E+03  0.14132880371E+03  0.70482586798E+03  0.99994034990E+03  0.25500000920E-02 0. -1.
</event>
<event>
 5   0  0.4956214E-06  0.1997362E+04  0.7818609E-02  0.8607855E-01
        2   -1    0    0  501    0  0.00000000000E+00  0.00000000000E+00  0.23273882289E+04  0.23273882289E+04  0.25500000920E-02 0.  1.
       -2   -1    0    0    0  501  0.00000000000E+00  0.00000000000E+00 -0.42853344263E+03  0.42853344264E+03  0.25500000920E-02 0. -1.
    10030    2    1    2    0    0  0.00000000000E+00  0.00000000000E+00  0.18988547863E+04  0.27559216716E+04  0.19973619503E+04 0.  0.
        1    1    3    3  502    0  0.59029215205E+03 -0.49347148859E+03  0.70901599656E+02  0.77264867286E+03  0.50400001928E-02 0. -1.
       -1    1    3    3    0  502 -0.59029215205E+03  0.49347148859E+03  0.18279531866E+04  0.19832729987E+04  0.50400001928E-02 0.  1.
</event>
<event>
 5   0  0.5030137E-06  0.1998368E+04  0.7818609E-02  0.8607384E-01
        2   -1    0    0  501    0  0.00000000000E+00  0.00000000000E+00  0.16083708362E+04  0.16083708362E+04  0.25500000920E-02 0.  1.
       -2   -1    0    0    0  501  0.00000000000E+00  0.00000000000E+00 -0.62073303773E+03  0.62073303774E+03  0.25500000920E-02 0. -1.
    10030    2    1    2    0    0  0.00000000000E+00  0.00000000000E+00  0.98763779851E+03  0.22291038740E+04  0.19983682493E+04 0.  0.
        3    1    3    3  502    0 -0.27686660708E+03 -0.45822975381E+03 -0.44723663458E+03  0.69760321309E+03  0.10100000352E+00 0. -1.
       -3    1    3    3    0  502  0.27686660708E+03  0.45822975381E+03  0.14348744331E+04  0.15315006609E+04  0.10100000352E+00 0.  1.
</event>
<event>
 5   0  0.4956214E-06  0.1997908E+04  0.7818609E-02  0.8607599E-01
       -2   -1    0    0    0  501  0.00000000000E+00  0.00000000000E+00  0.63284651204E+03  0.63284651204E+03  0.25500000920E-02 0.  1.
        2   -1    0    0  501    0  0.00000000000E+00  0.00000000000E+00 -0.15768580334E+04  0.15768580334E+04  0.25500000920E-02 0. -1.
    10030    2    1    2    0    0  0.00000000000E+00  0.00000000000E+00 -0.94401152141E+03  0.22097045455E+04  0.19979080123E+04 0.  0.
        1    1    3    3  502    0  0.35988905797E+03  0.44988244518E+03  0.43059173847E+03  0.71925210726E+03  0.50400001928E-02 0.  1.
       -1    1    3    3    0  502 -0.35988905797E+03 -0.44988244518E+03 -0.13746032599E+04  0.14904524382E+04  0.50400001928E-02 0. -1.
</event>
<event>
 5   0  0.5118981E-06  0.2001849E+04  0.7818609E-02  0.8605757E-01
        2   -1    0    0  501    0  0.00000000000E+00  0.00000000000E+00  0.95152684478E+03  0.95152684479E+03  0.25500000920E-02 0. -1.
       -2   -1    0    0    0  501  0.00000000000E+00  0.00000000000E+00 -0.10528863190E+04  0.10528863190E+04  0.25500000920E-02 0.  1.
    10030    2    1    2    0    0  0.00000000000E+00  0.00000000000E+00 -0.10135947421E+03  0.20044131638E+04  0.20018487426E+04 0.  0.
        4    1    3    3  502    0 -0.24406093089E+03 -0.31528919830E+03  0.86857857318E+03  0.95572138579E+03  0.12699999809E+01 0. -1.
       -4    1    3    3    0  502  0.24406093089E+03  0.31528919830E+03 -0.96993804740E+03  0.10486917780E+04  0.12699999809E+01 0.  1.
</event>
<event>
 5   0  0.2311520E-06  0.1998435E+04  0.7818609E-02  0.8607353E-01
       -1   -1    0    0    0  501  0.00000000000E+00  0.00000000000E+00  0.96589704155E+03  0.96589704157E+03  0.50400001928E-02 0. -1.
        1   -1    0    0  501    0  0.00000000000E+00  0.00000000000E+00 -0.10336869626E+04  0.10336869626E+04  0.50400001928E-02 0.  1.
    10030    2    1    2    0    0  0.00000000000E+00  0.00000000000E+00 -0.67789921045E+02  0.19995840042E+04  0.19984345664E+04 0.  0.
        3    1    3    3  502    0  0.38368728364E+03 -0.40766977432E+03 -0.86203313069E+03  0.10278675523E+04  0.10100000352E+00 0.  1.
       -3    1    3    3    0  502 -0.38368728364E+03  0.40766977432E+03  0.79424320965E+03  0.97171645185E+03  0.10100000352E+00 0. -1.
</event>
<event>
 5   0  0.2313821E-06  0.1996336E+04  0.7818609E-02  0.8608336E-01
       -1   -1    0    0    0  501  0.00000000000E+00  0.00000000000E+00  0.70469521932E+03  0.70469521934E+03  0.50400001928E-02 0. -1.
        1   -1    0    0  501    0  0.00000000000E+00  0.00000000000E+00 -0.14138578718E+04  0.14138578718E+04  0.50400001928E-02 0.  1.
    10030    2    1    2    0    0  0.00000000000E+00  0.00000000000E+00 -0.70916265246E+03  0.21185530911E+04  0.19963355260E+04 0.  0.
        1    1    3    3  502    0 -0.40254792703E+02 -0.73842354977E+03 -0.10660340921E+04  0.12974276368E+04  0.50400001928E-02 0.  1.
       -1    1    3    3    0  502  0.40254792703E+02  0.73842354977E+03  0.35687143969E+03  0.82112545429E+03  0.50400001928E-02 0. -1.
</event>
<event>
 5   0  0.1777750E-06  0.2000121E+04  0.7818609E-02  0.8606564E-01
        3   -1    0    0  501    0  0.00000000000E+00  0.00000000000E+00  0.19656718509E+04  0.19656718535E+04  0.10100000352E+00 0.  1.
       -3   -1    0    0    0  501  0.00000000000E+00  0.00000000000E+00 -0.50879358078E+03  0.50879359081E+03  0.10100000352E+00 0. -1.
    10030    2    1    2    0    0  0.00000000000E+00  0.00000000000E+00  0.14568782701E+04  0.24744654443E+04  0.20001212316E+04 0.  0.
        4    1    3    3  502    0 -0.49810756134E+03 -0.68905872775E+03  0.13798077316E+04  0.16207356546E+04  0.12699999809E+01 0.  1.
       -4    1    3    3    0  502  0.49810756134E+03  0.68905872775E+03  0.77070538458E+02  0.85372978967E+03  0.12699999809E+01 0. -1.
</event>
<event>
 5   0  0.2313821E-06  0.1999329E+04  0.7818609E-02  0.8606935E-01
        1   -1    0    0  501    0  0.00000000000E+00  0.00000000000E+00  0.95358112481E+03  0.95358112482E+03  0.50400001928E-02 0. -1.
       -1   -1    0    0    0  501  0.00000000000E+00  0.00000000000E+00 -0.10479746120E+04  0.10479746120E+04  0.50400001928E-02 0.  1.
    10030    2    1    2    0    0  0.00000000000E+00  0.00000000000E+00 -0.94393487227E+02  0.20015557369E+04  0.19993286967E+04 0.  0.
        1    1    3    3  502    0 -0.71203256941E+03  0.69542410790E+03 -0.14070174365E+03  0.10051875698E+04  0.50400001928E-02 0.  1.
       -1    1    3    3    0  502  0.71203256941E+03 -0.69542410790E+03  0.46308256427E+02  0.99636816709E+03  0.50400001928E-02 0. -1.
</event>
<event>
 5   0  0.2356996E-06  0.2000203E+04  0.7818609E-02  0.8606526E-01
        1   -1    0    0  501    0  0.00000000000E+00  0.00000000000E+00  0.16185217049E+04  0.16185217049E+04  0.50400001928E-02 0.  1.
       -1   -1    0    0    0  501  0.00000000000E+00  0.00000000000E+00 -0.61797307402E+03  0.61797307404E+03  0.50400001928E-02 0. -1.
    10030    2    1    2    0    0  0.00000000000E+00  0.00000000000E+00  0.10005486308E+04  0.22364947789E+04  0.20002028231E+04 0.  0.
        4    1    3    3  502    0 -0.56546006953E+03 -0.45111643295E+03  0.12724752487E+04  0.14637096699E+04  0.12699999809E+01 0.  1.
       -4    1    3    3    0  502  0.56546006953E+03  0.45111643295E+03 -0.27192661785E+03  0.77278510901E+03  0.12699999809E+01 0. -1.
</event>
<event>
 5   0  0.2311520E-06  0.2002376E+04  0.7818609E-02  0.8605510E-01
       -1   -1    0    0    0  501  0.00000000000E+00  0.00000000000E+00  0.69105957357E+03  0.69105957359E+03  0.50400001928E-02 0. -1.
        1   -1    0    0  501    0  0.00000000000E+00  0.00000000000E+00 -0.14504939112E+04  0.14504939112E+04  0.50400001928E-02 0.  1.
    10030    2    1    2    0    0  0.00000000000E+00  0.00000000000E+00 -0.75943433764E+03  0.21415534848E+04  0.20023762921E+04 0.  0.
        3    1    3    3  502    0 -0.33574598071E+03 -0.28597999529E+03 -0.13410048400E+04  0.14116670685E+04  0.10100000352E+00 0.  1.
       -3    1    3    3    0  502  0.33574598071E+03  0.28597999529E+03  0.58157050236E+03  0.72988641629E+03  0.10100000352E+00 0. -1.
</event>
<event>
 5   0  0.5118981E-06  0.1999062E+04  0.7818609E-02  0.8607059E-01
        2   -1    0    0  501    0  0.00000000000E+00  0.00000000000E+00  0.17747627807E+04  0.17747627807E+04  0.25500000920E-02 0. -1.
       -2   -1    0    0    0  501  0.00000000000E+00  0.00000000000E+00 -0.56292709325E+03  0.56292709325E+03  0.25500000920E-02 0.  1.
    10030    2    1    2    0    0  0.00000000000E+00  0.00000000000E+00  0.12118356874E+04  0.23376898739E+04  0.19990618333E+04 0.  0.
        4    1    3    3  502    0  0.25147854024E+03  0.63783577788E+03  0.14564331688E+04  0.16097438069E+04  0.12699999809E+01 0. -1.
       -4    1    3    3    0  502 -0.25147854024E+03 -0.63783577788E+03 -0.24459748136E+03  0.72794606705E+03  0.12699999809E+01 0.  1.
</event>
<event>
 5   0  0.2386776E-06  0.1999299E+04  0.7818609E-02  0.8606948E-01
       -1   -1    0    0    0  501  0.00000000000E+00  0.00000000000E+00  0.69737062375E+03  0.69737062377E+03  0.50400001928E-02 0.  1.
        1   -1    0    0  501    0  0.00000000000E+00  0.00000000000E+00 -0.14329533976E+04  0.14329533976E+04  0.50400001928E-02 0. -1.
    10030    2    1    2    0    0  0.00000000000E+00  0.00000000000E+00 -0.73558277388E+03  0.21303240214E+04  0.19992994821E+04 0.  0.
        2    1    3    3  502    0  0.60302068710E+03  0.70085284588E+03  0.37211450985E+02  0.92531797385E+03  0.25500000920E-02 0.  1.
       -2    1    3    3    0  502 -0.60302068710E+03 -0.70085284588E+03 -0.77279422486E+03  0.12050060475E+04  0.25500000920E-02 0. -1.
</event>
<event>
 5   0  0.2311520E-06  0.1999512E+04  0.7818609E-02  0.8606849E-01
        1   -1    0    0  501    0  0.00000000000E+00  0.00000000000E+00  0.82333229245E+03  0.82333229247E+03  0.50400001928E-02 0. -1.
       -1   -1    0    0    0  501  0.00000000000E+00  0.00000000000E+00 -0.12139833728E+04  0.12139833728E+04  0.50400001928E-02 0.  1.
    10030    2    1    2    0    0  0.00000000000E+00  0.00000000000E+00 -0.39065108033E+03  0.20373156653E+04  0.19995116537E+04 0.  0.
        3    1    3    3  502    0 -0.26693039102E+03  0.77630340741E+03 -0.77673913016E+03  0.11301426903E+04  0.10100000352E+00 0.  1.
       -3    1    3    3    0  502  0.26693039102E+03 -0.77630340741E+03  0.38608804982E+03  0.90717297492E+03  0.10100000352E+00 0. -1.
</event>
<event>
 5   0  0.5251252E-06  0.2000360E+04  0.7818609E-02  0.8606453E-01
       -2   -1    0    0    0  501  0.00000000000E+00  0.00000000000E+00  0.56831741308E+03  0.56831741308E+03  0.25500000920E-02 0. -1.
        2   -1    0    0  501    0  0.00000000000E+00  0.00000000000E+00 -0.17602129252E+04  0.17602129252E+04  0.25500000920E-02 0.  1.
    10030    2    1    2    0    0  0.00000000000E+00  0.00000000000E+00 -0.11918955121E+04  0.23285303383E+04  0.20003596238E+04 0.  0.
        5    1    3    3  502    0  0.74038853460E+03  0.11626481490E+03  0.17500959077E+03  0.76963831519E+03  0.46999998093E+01 0. -1.
       -5    1    3    3    0  502 -0.74038853460E+03 -0.11626481490E+03 -0.13669051029E+04  0.15588920231E+04  0.46999998093E+01 0.  1.
</event>
<event>
 5   0  0.2386776E-06  0.1999969E+04  0.7818609E-02  0.8606635E-01
        1   -1    0    0  501    0  0.00000000000E+00  0.00000000000E+00  0.23090519047E+04  0.23090519047E+04  0.50400001928E-02 0.  1.
       -1   -1    0    0    0  501  0.00000000000E+00  0.00000000000E+00 -0.43306470958E+03  0.43306470961E+03  0.50400001928E-02 0. -1.
    10030    2    1    2    0    0  0.00000000000E+00  0.00000000000E+00  0.18759871951E+04  0.27421166143E+04  0.19999688923E+04 0.  0.
        2    1    3    3  502    0  0.15931946567E+03  0.97956226734E+03  0.11061617814E+04  0.14861086146E+04  0.25500000920E-02 0.  1.
       -2    1    3    3    0  502 -0.15931946567E+03 -0.97956226734E+03  0.76982541374E+03  0.12560079997E+04  0.25500000920E-02 0. -1.
</event>
<event>
 5   0  0.2379743E-06  0.1998653E+04  0.7818609E-02  0.8607251E-01
        1   -1    0    0  501    0  0.00000000000E+00  0.00000000000E+00  0.57295329586E+03  0.57295329588E+03  0.50400001928E-02 0.  1.
       -1   -1    0    0    0  501  0.00000000000E+00  0.00000000000E+00 -0.17429920312E+04  0.17429920312E+04  0.50400001928E-02 0. -1.
    10030    2    1    2    0    0  0.00000000000E+00  0.00000000000E+00 -0.11700387354E+04  0.23159453271E+04  0.19986525751E+04 0.  0.
        5    1    3    3  502    0 -0.49564626740E+03 -0.60479952586E+03 -0.13060426287E+04  0.15222408242E+04  0.46999998093E+01 0. -1.
       -5    1    3    3    0  502  0.49564626740E+03  0.60479952586E+03  0.13600389339E+03  0.79370450287E+03  0.46999998093E+01 0.  1.
</event>
<event>
 5   0  0.2379743E-06  0.1999570E+04  0.7818609E-02  0.8606822E-01
       -1   -1    0    0    0  501  0.00000000000E+00  0.00000000000E+00  0.75902861790E+03  0.75902861791E+03  0.50400001928E-02 0.  1.
        1   -1    0    0  501    0  0.00000000000E+00  0.00000000000E+00 -0.13169066527E+04  0.13169066528E+04  0.50400001928E-02 0. -1.
    10030    2    1    2    0    0  0.00000000000E+00  0.00000000000E+00 -0.55787803485E+03  0.20759352707E+04  0.19995697903E+04 0.  0.
        5    1    3    3  502    0 -0.30578948047E+03 -0.58165896391E+02 -0.12653063553E+04  0.13030398078E+04  0.46999998093E+01 0. -1.
       -5    1    3    3    0  502  0.30578948047E+03  0.58165896391E+02  0.70742832049E+03  0.77289546286E+03  0.46999998093E+01 0.  1.
</event>
<event>
 5   0  0.5129100E-06  0.1999995E+04  0.7818609E-02  0.8606623E-01
        2   -1    0    0  501    0  0.00000000000E+00  0.00000000000E+00  0.12068021288E+04  0.12068021288E+04  0.25500000920E-02 0.  1.
       -2   -1    0    0    0  501  0.00000000000E+00  0.00000000000E+00 -0.82863190900E+03  0.82863190901E+03  0.25500000920E-02 0. -1.
    10030    2    1    2    0    0  0.00000000000E+00  0.00000000000E+00  0.37817021983E+03  0.20354340378E+04  0.19999947518E+04 0.  0.
        2    1    3    3  502    0  0.47754217212E+03  0.83393268021E+03  0.47058076587E+03  0.10700170552E+04  0.25500000920E-02 0.  1.
       -2    1    3    3    0  502 -0.47754217212E+03 -0.83393268021E+03 -0.92410546039E+02  0.96541698261E+03  0.25500000920E-02 0. -1.
</event>
<event>
 5   0  0.5129100E-06  0.1998071E+04  0.7818609E-02  0.8607523E-01
        2   -1    0    0  501    0  0.00000000000E+00  0.00000000000E+00  0.15665553709E+04  0.15665553709E+04  0.25500000920E-02 0. -1.
       -2   -1    0    0    0  501  0.00000000000E+00  0.00000000000E+00 -0.63711239805E+03  0.63711239806E+03  0.25500000920E-02 0.  1.
    10030    2    1    2    0    0  0.00000000000E+00  0.00000000000E+00  0.92944297288E+03  0.22036677690E+04  0.19980709187E+04 0.  0.
        2    1    3    3  502    0  0.17946454750E+03  0.97429701773E+03  0.60686119333E+03  0.11617842788E+04  0.25500000920E-02 0. -1.
       -2    1    3    3    0  502 -0.17946454750E+03 -0.97429701773E+03  0.32258177954E+03  0.10418834902E+04  0.25500000920E-02 0.  1.
</event>
<event>
 5   0  0.5251252E-06  0.1999687E+04  0.7818609E-02  0.8606767E-01
       -2   -1    0    0    0  501  0.00000000000E+00  0.00000000000E+00  0.80808783293E+03  0.80808783294E+03  0.25500000920E-02 0. -1.
        2   -1    0    0  501    0  0.00000000000E+00  0.00000000000E+00 -0.12371017229E+04  0.12371017229E+04  0.25500000920E-02 0.  1.
    10030    2    1    2    0    0  0.00000000000E+00  0.00000000000E+00 -0.42901388999E+03  0.20451895559E+04  0.19996868259E+04 0.  0.
        5    1    3    3  502    0  0.58917088482E+03  0.40013835965E+03 -0.93220966446E+03  0.11731453392E+04  0.46999998093E+01 0.  1.
       -5    1    3    3    0  502 -0.58917088482E+03 -0.40013835965E+03  0.50319577447E+03  0.87204421667E+03  0.46999998093E+01 0. -1.
</event>
<event>
 5   0  0.5118981E-06  0.1999886E+04  0.7818609E-02  0.8606674E-01
        2   -1    0    0  501    0  0.00000000000E+00  0.00000000000E+00  0.15972380108E+04  0.15972380108E+04  0.25500000920E-02 0.  1.
       -2   -1    0    0    0  501  0.00000000000E+00  0.00000000000E+00 -0.62600918872E+03  0.62600918872E+03  0.25500000920E-02 0. -1.
    10030    2    1    2    0    0  0.00000000000E+00  0.00000000000E+00  0.97122882204E+03  0.22232471995E+04  0.19998856680E+04 0.  0.
        4    1    3    3  502    0 -0.85895788727E+03  0.25420815780E+03 -0.83721507206E+01  0.89582484080E+03  0.12699999809E+01 0. -1.
       -4    1    3    3    0  502  0.85895788727E+03 -0.25420815780E+03  0.97960097276E+03  0.13274223587E+04  0.12699999809E+01 0.  1.
</event>
<event>
 5   0  0.2313821E-06  0.2002459E+04  0.7818609E-02  0.8605472E-01
        1   -1    0    0  501    0  0.00000000000E+00  0.00000000000E+00  0.20328801444E+04  0.20328801444E+04  0.50400001928E-02 0.  1.
       -1   -1    0    0    0  501  0.00000000000E+00  0.00000000000E+00 -0.49312324688E+03  0.49312324690E+03  0.50400001928E-02 0. -1.
    10030    2    1    2    0    0  0.00000000000E+00  0.00000000000E+00  0.15397568975E+04  0.25260033913E+04  0.20024589457E+04 0.  0.
        1    1    3    3  502    0  0.54835927924E+03  0.47726077754E+03  0.16383437548E+04  0.17923855634E+04  0.50400001928E-02 0.  1.
       -1    1    3    3    0  502 -0.54835927924E+03 -0.47726077754E+03 -0.98586857334E+02  0.73361782787E+03  0.50400001928E-02 0. -1.
</event>
<event>
 5   0  0.5118981E-06  0.1997821E+04  0.7818609E-02  0.8607640E-01
       -2   -1    0    0    0  501  0.00000000000E+00  0.00000000000E+00  0.11692753376E+04  0.11692753376E+04  0.25500000920E-02 0.  1.
        2   -1    0    0  501    0  0.00000000000E+00  0.00000000000E+00 -0.85336834619E+03  0.85336834619E+03  0.25500000920E-02 0. -1.
    10030    2    1    2    0    0  0.00000000000E+00  0.00000000000E+00  0.31590699138E+03  0.20226436838E+04  0.19978213745E+04 0.  0.
        4    1    3    3  502    0  0.63982720720E+03  0.70546155599E+03  0.46297083736E+03  0.10589610338E+04  0.12699999809E+01 0.  1.
       -4    1    3    3    0  502 -0.63982720720E+03 -0.70546155599E+03 -0.14706384598E+03  0.96368264991E+03  0.12699999809E+01 0. -1.
</event>
<event>
 5   0  0.2356996E-06  0.2000039E+04  0.7818609E-02  0.8606603E-01
        1   -1    0    0  501    0  0.00000000000E+00  0.00000000000E+00  0.58612685868E+03  0.58612685870E+03  0.50400001928E-02 0.  1.
       -1   -1    0    0    0  501  0.00000000000E+00  0.00000000000E+00 -0.17061815082E+04  0.17061815082E+04  0.50400001928E-02 0. -1.
    10030    2    1    2    0    0  0.00000000000E+00  0.00000000000E+00 -0.11200546495E+04  0.22923083669E+04  0.20000388074E+04 0.  0.
        4    1    3    3  502    0 -0.52968814047E+03  0.35583916695E+03  0.32245419845E+03  0.71496109117E+03  0.12699999809E+01 0.  1.
       -4    1    3    3    0  502  0.52968814047E+03 -0.35583916695E+03 -0.14425088480E+04  0.15773472757E+04  0.12699999809E+01 0. -1.
</event>
<event>
 5   0  0.4956214E-06  0.1999218E+04  0.7818609E-02  0.8606986E-01
        2   -1    0    0  501    0  0.00000000000E+00  0.00000000000E+00  0.10542658494E+04  0.10542658494E+04  0.25500000920E-02 0.  1.
       -2   -1    0    0    0  501  0.00000000000E+00  0.00000000000E+00 -0.94778585357E+03  0.94778585357E+03  0.25500000920E-02 0. -1.
    10030    2    1    2    0    0  0.00000000000E+00  0.00000000000E+00  0.10647999582E+03  0.20020517030E+04  0.19992181051E+04 0.  0.
        1    1    3    3  502    0 -0.18136991811E+03  0.25670638838E+02 -0.93083497038E+03  0.94868739371E+03  0.50400001928E-02 0. -1.
       -1    1    3    3    0  502  0.18136991811E+03 -0.25670638838E+02  0.10373149662E+04  0.10533643093E+04  0.50400001928E-02 0.  1.
</event>
<event>
 5   0  0.2311520E-06  0.2001920E+04  0.7818609E-02  0.8605724E-01
        1   -1    0    0  501    0  0.00000000000E+00  0.00000000000E+00  0.13062524556E+04  0.13062524556E+04  0.50400001928E-02 0.  1.
       -1   -1    0    0    0  501  0.00000000000E+00  0.00000000000E+00 -0.76701935985E+03  0.76701935987E+03  0.50400001928E-02 0. -1.
    10030    2    1    2    0    0  0.00000000000E+00  0.00000000000E+00  0.53923309578E+03  0.20732718155E+04  0.20019200008E+04 0.  0.
        3    1    3    3  502    0  0.53379873749E+03 -0.85865985901E+02 -0.60278901392E+03  0.80973370017E+03  0.10100000352E+00 0. -1.
       -3    1    3    3    0  502 -0.53379873749E+03  0.85865985901E+02  0.11420221097E+04  0.12635381153E+04  0.10100000352E+00 0.  1.
</event>
<event>
 5   0  0.5030137E-06  0.1999794E+04  0.7818609E-02  0.8606717E-01
       -2   -1    0    0    0  501  0.00000000000E+00  0.00000000000E+00  0.80928762681E+03  0.80928762681E+03  0.25500000920E-02 0.  1.
        2   -1    0    0  501    0  0.00000000000E+00  0.00000000000E+00 -0.12353997095E+04  0.12353997095E+04  0.25500000920E-02 0. -1.
    10030    2    1    2    0    0  0.00000000000E+00  0.00000000000E+00 -0.42611208272E+03  0.20446873363E+04  0.19997936884E+04 0.  0.
        3    1    3    3  502    0 -0.67565263742E+02  0.17832554789E+03 -0.12166348593E+04  0.12314891217E+04  0.10100000352E+00 0. -1.
       -3    1    3    3    0  502  0.67565263742E+02 -0.17832554789E+03  0.79052277653E+03  0.81319821465E+03  0.10100000352E+00 0.  1.
</event>
<event>
 5   0  0.2379743E-06  0.1998076E+04  0.7818609E-02  0.8607521E-01
        1   -1    0    0  501    0  0.00000000000E+00  0.00000000000E+00  0.10478082743E+04  0.10478082743E+04  0.50400001928E-02 0. -1.
       -1   -1    0    0    0  501  0.00000000000E+00  0.00000000000E+00 -0.95253808284E+03  0.95253808285E+03  0.50400001928E-02 0.  1.
    10030    2    1    2    0    0  0.00000000000E+00  0.00000000000E+00  0.95270191450E+02  0.20003463572E+04  0.19980763597E+04 0.  0.
        5    1    3    3  502    0 -0.24372104705E+03 -0.11464613555E+03  0.10107631431E+04  0.10460439315E+04  0.46999998093E+01 0. -1.
       -5    1    3    3    0  502  0.24372104705E+03  0.11464613555E+03 -0.91549295163E+03  0.95430242568E+03  0.46999998093E+01 0.  1.
</event>
<event>
 5   0  0.4956214E-06  0.1998428E+04  0.7818609E-02  0.8607356E-01
        2   -1    0    0  501    0  0.00000000000E+00  0.00000000000E+00  0.15874545833E+04  0.15874545833E+04  0.25500000920E-02 0. -1.
       -2   -1    0    0    0  501  0.00000000000E+00  0.00000000000E+00 -0.62894945565E+03  0.62894945566E+03  0.25500000920E-02 0.  1.
    10030    2    1    2    0    0  0.00000000000E+00  0.00000000000E+00  0.95850512763E+03  0.22164040389E+04  0.19984280783E+04 0.  0.
        1    1    3    3  502    0  0.78270010613E+03  0.53760816159E+03  0.82429162322E+03  0.12574174612E+04  0.50400001928E-02 0. -1.
       -1    1    3    3    0  502 -0.78270010613E+03 -0.53760816159E+03  0.13421350441E+03  0.95898657777E+03  0.50400001928E-02 0.  1.
</event>
<event>
 5   0  0.5030137E-06  0.2000209E+04  0.7818609E-02  0.8606523E-01
        2   -1    0    0  501    0  0.00000000000E+00  0.00000000000E+00  0.12607491051E+04  0.12607491051E+04  0.25500000920E-02 0.  1.
       -2   -1    0    0    0  501  0.00000000000E+00  0.00000000000E+00 -0.79334490961E+03  0.79334490961E+03  0.25500000920E-02 0. -1.
    10030    2    1    2    0    0  0.00000000000E+00  0.00000000000E+00  0.46740419546E+03  0.20540940147E+04  0.20002088739E+04 0.  0.
        3    1    3    3  502    0  0.66285695219E+03  0.64949829402E+03  0.61654752768E+03  0.11141625721E+04  0.10100000352E+00 0.  1.
       -3    1    3    3    0  502 -0.66285695219E+03 -0.64949829402E+03 -0.14914333222E+03  0.93993144258E+03  0.10100000352E+00 0. -1.
</event>
<event>
 5   0  0.1777750E-06  0.1999988E+04  0.7818609E-02  0.8606626E-01
        3   -1    0    0  501    0  0.00000000000E+00  0.00000000000E+00  0.82692454498E+03  0.82692455115E+03  0.10100000352E+00 0. -1.
       -3   -1    0    0    0  501  0.00000000000E+00  0.00000000000E+00 -0.12092855660E+04  0.12092855702E+04  0.10100000352E+00 0.  1.
    10030    2    1    2    0    0  0.00000000000E+00  0.00000000000E+00 -0.38236102102E+03  0.20362101214E+04  0.19999879270E+04 0.  0.
        4    1    3    3  502    0 -0.75643287906E+02 -0.57184611957E+03  0.64047141851E+03  0.86193685517E+03  0.12699999809E+01 0. -1.
       -4    1    3    3    0  502  0.75643287906E+02  0.57184611957E+03 -0.10228324395E+04  0.11742732662E+04  0.12699999809E+01 0.  1.
</event>
<event>
 5   0  0.2356996E-06  0.2000211E+04  0.7818609E-02  0.8606522E-01
       -1   -1    0    0    0  501  0.00000000000E+00  0.00000000000E+00  0.52760373013E+03  0.52760373015E+03  0.50400001928E-02 0.  1.
        1   -1    0    0  501    0  0.00000000000E+00  0.00000000000E+00 -0.18957619299E+04  0.18957619299E+04  0.50400001928E-02 0. -1.
    10030    2    1    2    0    0  0.00000000000E+00  0.00000000000E+00 -0.13681581997E+04  0.24233656600E+04  0.20002110545E+04 0.  0.
        4    1    3    3  502    0  0.48699299684E+03 -0.71083730856E+02 -0.17388936657E+04  0.18071989014E+04  0.12699999809E+01 0. -1.
       -4    1    3    3    0  502 -0.48699299684E+03  0.71083730856E+02  0.37073546598E+03  0.61616675859E+03  0.12699999809E+01 0.  1.
</event>
<event>
 5   0  0.2386776E-06  0.2000244E+04  0.7818609E-02  0.8606507E-01
        1   -1    0    0  501    0  0.00000000000E+00  0.00000000000E+00  0.13915259294E+04  0.13915259294E+04  0.50400001928E-02 0. -1.
       -1   -1    0    0    0  501  0.00000000000E+00  0.00000000000E+00 -0.71881061679E+03  0.71881061681E+03  0.50400001928E-02 0.  1.
    10030    2    1    2    0    0  0.00000000000E+00  0.00000000000E+00  0.67271531260E+03  0.21103365462E+04  0.20002435968E+04 0.  0.
        2    1    3    3  502    0 -0.26791524043E+02 -0.24928605631E+02 -0.71810400046E+03  0.71903586602E+03  0.25500000920E-02 0.  1.
       -2    1    3    3    0  502  0.26791524043E+02  0.24928605631E+02  0.13908193131E+04  0.13913006802E+04  0.25500000920E-02 0. -1.
</event>
<event>
 5   0  0.5118981E-06  0.1999856E+04  0.7818609E-02  0.8606688E-01
       -2   -1    0    0    0  501  0.00000000000E+00  0.00000000000E+00  0.94052378667E+03  0.94052378668E+03  0.25500000920E-02 0.  1.
        2   -1    0    0  501    0  0.00000000000E+00  0.00000000000E+00 -0.10630844747E+04  0.10630844747E+04  0.25500000920E-02 0. -1.
    10030    2    1    2    0    0  0.00000000000E+00  0.00000000000E+00 -0.12256068799E+03  0.20036082613E+04  0.19998562305E+04 0.  0.
        4    1    3    3  502    0  0.16463617193E+03 -0.28505641805E+03  0.88467984418E+03  0.94393975982E+03  0.12699999809E+01 0.  1.
       -4    1    3    3    0  502 -0.16463617193E+03  0.28505641805E+03 -0.10072405322E+04  0.10596685015E+04  0.12699999809E+01 0. -1.
</event>
<event>
 5   0  0.4956214E-06  0.2000623E+04  0.7818609E-02  0.8606330E-01
       -2   -1    0    0    0  501  0.00000000000E+00  0.00000000000E+00  0.74100492803E+03  0.74100492804E+03  0.25500000920E-02 0. -1.
        2   -1    0    0  501    0  0.00000000000E+00  0.00000000000E+00 -0.13503592936E+04  0.13503592936E+04  0.25500000920E-02 0.  1.
    10030    2    1    2    0    0  0.00000000000E+00  0.00000000000E+00 -0.60935436559E+03  0.20913642217E+04  0.20006227942E+04 0.  0.
        1    1    3    3  502    0  0.19060997127E+03  0.13262182933E+03 -0.13217947376E+04  0.13420365267E+04  0.50400001928E-02 0.  1.
       -1    1    3    3    0  502 -0.19060997127E+03 -0.13262182933E+03  0.71244037198E+03  0.74932769494E+03  0.50400001928E-02 0. -1.
</event>
<event>
 5   0  0.2313821E-06  0.1998645E+04  0.7818609E-02  0.8607255E-01
        1   -1    0    0  501    0  0.00000000000E+00  0.00000000000E+00  0.82480049594E+03  0.82480049596E+03  0.50400001928E-02 0.  1.
       -1   -1    0    0    0  501  0.00000000000E+00  0.00000000000E+00 -0.12107717384E+04  0.12107717384E+04  0.50400001928E-02 0. -1.
    10030    2    1    2    0    0  0.00000000000E+00  0.00000000000E+00 -0.38597124241E+03  0.20355722343E+04  0.19986446711E+04 0.  0.
        1    1    3    3  502    0 -0.44222272387E+03 -0.65849538673E+03  0.42608380200E+03  0.90040242014E+03  0.50400001928E-02 0.  1.
       -1    1    3    3    0  502  0.44222272387E+03  0.65849538673E+03 -0.81205504441E+03  0.11351698142E+04  0.50400001928E-02 0. -1.
</event>
<event>
 5   0  0.5251252E-06  0.1999976E+04  0.7818609E-02  0.8606632E-01
       -2   -1    0    0    0  501  0.00000000000E+00  0.00000000000E+00  0.71116943091E+03  0.71116943091E+03  0.25500000920E-02 0. -1.
        2   -1    0    0  501    0  0.00000000000E+00  0.00000000000E+00 -0.14061003959E+04  0.14061003959E+04  0.25500000920E-02 0.  1.
    10030    2    1    2    0    0  0.00000000000E+00  0.00000000000E+00 -0.69493096500E+03  0.21172698268E+04  0.19999756182E+04 0.  0.
        5    1    3    3  502    0 -0.17861027255E+03  0.57388700435E+01 -0.13890474200E+04  0.14005032628E+04  0.46999998093E+01 0.  1.
       -5    1    3    3    0  502  0.17861027255E+03 -0.57388700435E+01  0.69411645504E+03  0.71676656399E+03  0.46999998093E+01 0. -1.
</event>
<event>
 5   0  0.2356996E-06  0.1999832E+04  0.7818609E-02  0.8606699E-01
        1   -1    0    0  501    0  0.00000000000E+00  0.00000000000E+00  0.13198014123E+04  0.13198014123E+04  0.50400001928E-02 0.  1.
       -1   -1    0    0    0  501  0.00000000000E+00  0.00000000000E+00 -0.75756221056E+03  0.75756221058E+03  0.50400001928E-02 0. -1.
    10030    2    1    2    0    0  0.00000000000E+00  0.00000000000E+00  0.56223920172E+03  0.20773636229E+04  0.19998316683E+04 0.  0.
        4    1    3    3  502    0  0.86549604296E+02  0.10330765140E+03 -0.74808358836E+03  0.76012760304E+03  0.12699999809E+01 0. -1.
       -4    1    3    3    0  502 -0.86549604296E+02 -0.10330765140E+03  0.13103227901E+04  0.13172360198E+04  0.12699999809E+01 0.  1.
</event>
<event>
 5   0  0.2311520E-06  0.2000175E+04  0.7818609E-02  0.8606539E-01
        1   -1    0    0  501    0  0.00000000000E+00  0.00000000000E+00  0.50227510150E+03  0.50227510152E+03  0.50400001928E-02 0.  1.
       -1   -1    0    0    0  501  0.00000000000E+00  0.00000000000E+00 -0.19912889169E+04  0.19912889169E+04  0.50400001928E-02 0. -1.
    10030    2    1    2    0    0  0.00000000000E+00  0.00000000000E+00 -0.14890138154E+04  0.24935640185E+04  0.20001748353E+04 0.  0.
        3    1    3    3  502    0 -0.41589332191E+03  0.77939035985E+03 -0.16008679717E+03  0.89779974442E+03  0.10100000352E+00 0.  1.
       -3    1    3    3    0  502  0.41589332191E+03 -0.77939035985E+03 -0.13289270183E+04  0.15957642740E+04  0.10100000352E+00 0. -1.
</event>
<event>
 5   0  0.2386776E-06  0.1996179E+04  0.7818609E-02  0.8608409E-01
        1   -1    0    0  501    0  0.00000000000E+00  0.00000000000E+00  0.13931558150E+04  0.13931558150E+04  0.50400001928E-02 0.  1.
       -1   -1    0    0    0  501  0.00000000000E+00  0.00000000000E+00 -0.71505457946E+03  0.71505457948E+03  0.50400001928E-02 0. -1.
    10030    2    1    2    0    0  0.00000000000E+00  0.00000000000E+00  0.67810123556E+03  0.21082103945E+04  0.19961787951E+04 0.  0.
        2    1    3    3  502    0 -0.36418745727E+03 -0.92098442115E+03  0.46984640191E+03  0.10961753735E+04  0.25500000920E-02 0. -1.
       -2    1    3    3    0  502  0.36418745727E+03  0.92098442115E+03  0.20825483365E+03  0.10120350210E+04  0.25500000920E-02 0.  1.
</event>
<event>
 5   0  0.5118981E-06  0.1999901E+04  0.7818609E-02  0.8606667E-01
       -2   -1    0    0    0  501  0.00000000000E+00  0.00000000000E+00  0.70565463370E+03  0.70565463370E+03  0.25500000920E-02 0. -1.
        2   -1    0    0  501    0  0.00000000000E+00  0.00000000000E+00 -0.14169839642E+04  0.14169839642E+04  0.25500000920E-02 0.  1.
    10030    2    1    2    0    0  0.00000000000E+00  0.00000000000E+00 -0.71132933051E+03  0.21226385979E+04  0.19999012978E+04 0.  0.
        4    1    3    3  502    0 -0.10703783198E+03  0.57924769711E+03 -0.12132862772E+04  0.13487216894E+04  0.12699999809E+01 0.  1.
       -4    1    3    3    0  502  0.10703783198E+03 -0.57924769711E+03  0.50195694669E+03  0.77391690853E+03  0.12699999809E+01 0. -1.
</event>
<event>
 5   0  0.2313821E-06  0.1999862E+04  0.7818609E-02  0.8606685E-01
       -1   -1    0    0    0  501  0.00000000000E+00  0.00000000000E+00  0.17230636311E+04  0.17230636311E+04  0.50400001928E-02 0. -1.
        1   -1    0    0  501    0  0.00000000000E+00  0.00000000000E+00 -0.58028175761E+03  0.58028175763E+03  0.50400001928E-02 0.  1.
    10030    2    1    2    0    0  0.00000000000E+00  0.00000000000E+00  0.11427818735E+04  0.23033453888E+04  0.19998623877E+04 0.  0.
        1    1    3    3  502    0 -0.27990611557E+02 -0.60590004531E+03  0.14869895814E+04  0.16059378426E+04  0.50400001928E-02 0. -1.
       -1    1    3    3    0  502  0.27990611557E+02  0.60590004531E+03 -0.34420770786E+03  0.69740754614E+03  0.50400001928E-02 0.  1.
</event>
<event>
 5   0  0.2311520E-06  0.2000389E+04  0.7818609E-02  0.8606439E-01
        1   -1    0    0  501    0  0.00000000000E+00  0.00000000000E+00  0.52375080358E+03  0.52375080361E+03  0.50400001928E-02 0.  1.
       -1   -1    0    0    0  501  0.00000000000E+00  0.00000000000E+00 -0.19100474043E+04  0.19100474043E+04  0.50400001928E-02 0. -1.
    10030    2    1    2    0    0  0.00000000000E+00  0.00000000000E+00 -0.13862966007E+04  0.24337982079E+04  0.20003888251E+04 0.  0.
        3    1    3    3  502    0 -0.76198850053E+03 -0.18992558371E+03  0.60486172069E+02  0.78762731638E+03  0.10100000352E+00 0.  1.
       -3    1    3    3    0  502  0.76198850053E+03  0.18992558371E+03 -0.14467827728E+04  0.16461708915E+04  0.10100000352E+00 0. -1.
</event>
<event>
 5   0  0.5129100E-06  0.2000952E+04  0.7818609E-02  0.8606176E-01
       -2   -1    0    0    0  501  0.00000000000E+00  0.00000000000E+00  0.48288441519E+03  0.48288441520E+03  0.25500000920E-02 0. -1.
        2   -1    0    0  501    0  0.00000000000E+00  0.00000000000E+00 -0.20728610082E+04  0.20728610082E+04  0.25500000920E-02 0.  1.
    10030    2    1    2    0    0  0.00000000000E+00  0.00000000000E+00 -0.15899765931E+04  0.25557454234E+04  0.20009520492E+04 0.  0.
        2    1    3    3  502    0  0.15968797024E+01  0.93887935537E+03 -0.35353619460E+03  0.10032371778E+04  0.25500000920E-02 0. -1.
       -2    1    3    3    0  502 -0.15968797024E+01 -0.93887935537E+03 -0.12364403985E+04  0.15525082457E+04  0.25500000920E-02 0.  1.
</event>
<event>
 5   0  0.5118981E-06  0.2004974E+04  0.7818609E-02  0.8604299E-01
       -2   -1    0    0    0  501  0.00000000000E+00  0.00000000000E+00  0.30254664240E+04  0.30254664240E+04  0.25500000920E-02 0. -1.
        2   -1    0    0  501    0  0.00000000000E+00  0.00000000000E+00 -0.33217372644E+03  0.33217372644E+03  0.25500000920E-02 0.  1.
    10030    2    1    2    0    0  0.00000000000E+00  0.00000000000E+00  0.26932926976E+04  0.33576401504E+04  0.20049742704E+04 0.  0.
        4    1    3    3  502    0  0.74083995252E+03  0.58541189179E+03  0.19106544467E+04  0.21312327292E+04  0.12699999809E+01 0. -1.
       -4    1    3    3    0  502 -0.74083995252E+03 -0.58541189179E+03  0.78263825082E+03  0.12264074212E+04  0.12699999809E+01 0.  1.
</event>
<event>
 5   0  0.2379743E-06  0.1999556E+04  0.7818609E-02  0.8606828E-01
        1   -1    0    0  501    0  0.00000000000E+00  0.00000000000E+00  0.49634354054E+03  0.49634354056E+03  0.50400001928E-02 0.  1.
       -1   -1    0    0    0  501  0.00000000000E+00  0.00000000000E+00 -0.20138383290E+04  0.20138383291E+04  0.50400001928E-02 0. -1.
    10030    2    1    2    0    0  0.00000000000E+00  0.00000000000E+00 -0.15174947885E+04  0.25101818696E+04  0.19995555970E+04 0.  0.
        5    1    3    3  502    0  0.87808149578E+03  0.37829966391E+03 -0.11255986238E+04  0.14768656340E+04  0.46999998093E+01 0.  1.
       -5    1    3    3    0  502 -0.87808149578E+03 -0.37829966391E+03 -0.39189616474E+03  0.10333162357E+04  0.46999998093E+01 0. -1.
</event>
<event>
 5   0  0.5118981E-06  0.1994839E+04  0.7818609E-02  0.8609038E-01
        2   -1    0    0  501    0  0.00000000000E+00  0.00000000000E+00  0.84968194127E+03  0.84968194127E+03  0.25500000920E-02 0.  1.
       -2   -1    0    0    0  501  0.00000000000E+00  0.00000000000E+00 -0.11708441991E+04  0.11708441991E+04  0.25500000920E-02 0. -1.
    10030    2    1    2    0    0  0.00000000000E+00  0.00000000000E+00 -0.32116225780E+03  0.20205261403E+04  0.19948385117E+04 0.  0.
        4    1    3    3  502    0 -0.82559280526E+03  0.47697009780E+03 -0.45716495815E+03  0.10574050152E+04  0.12699999809E+01 0.  1.
       -4    1    3    3    0  502  0.82559280526E+03 -0.47697009780E+03  0.13600270035E+03  0.96312112514E+03  0.12699999809E+01 0. -1.
</event>
<event>
 5   0  0.2386776E-06  0.1999682E+04  0.7818609E-02  0.8606769E-01
       -1   -1    0    0    0  501  0.00000000000E+00  0.00000000000E+00  0.15044553262E+04  0.15044553262E+04  0.50400001928E-02 0.  1.
        1   -1    0    0  501    0  0.00000000000E+00  0.00000000000E+00 -0.66448086993E+03  0.66448086995E+03  0.50400001928E-02 0. -1.
    10030    2    1    2    0    0  0.00000000000E+00  0.00000000000E+00  0.83997445630E+03  0.21689361962E+04  0.19996817586E+04 0.  0.
        2    1    3    3  502    0 -0.30338166810E+03  0.14831738338E+03  0.14407276482E+04  0.14797751988E+04  0.25500000920E-02 0.  1.
       -2    1    3    3    0  502  0.30338166810E+03 -0.14831738338E+03 -0.60075319188E+03  0.68916099738E+03  0.25500000920E-02 0. -1.
</event>
<event>
 5   0  0.5251252E-06  0.1999937E+04  0.7818609E-02  0.8606650E-01
       -2   -1    0    0    0  501  0.00000000000E+00  0.00000000000E+00  0.18643243204E+04  0.18643243204E+04  0.25500000920E-02 0.  1.
        2   -1    0    0  501    0  0.00000000000E+00  0.00000000000E+00 -0.53635356779E+03  0.53635356779E+03  0.25500000920E-02 0. -1.
    10030    2    1    2    0    0  0.00000000000E+00  0.00000000000E+00  0.13279707526E+04  0.24006778881E+04  0.19999369997E+04 0.  0.
        5    1    3    3  502    0  0.91105417704E+03  0.37754617008E+03  0.86251653933E+03  0.13101594157E+04  0.46999998093E+01 0.  1.
       -5    1    3    3    0  502 -0.91105417704E+03 -0.37754617008E+03  0.46545421324E+03  0.10905184724E+04  0.46999998093E+01 0. -1.
</event>
<event>
 5   0  0.2356996E-06  0.2000170E+04  0.7818609E-02  0.8606541E-01
       -1   -1    0    0    0  501  0.00000000000E+00  0.00000000000E+00  0.64471145461E+03  0.64471145463E+03  0.50400001928E-02 0.  1.
        1   -1    0    0  501    0  0.00000000000E+00  0.00000000000E+00 -0.15513455228E+04  0.15513455228E+04  0.50400001928E-02 0. -1.
    10030    2    1    2    0    0  0.00000000000E+00  0.00000000000E+00 -0.90663406816E+03  0.21960569774E+04  0.20001702214E+04 0.  0.
        4    1    3    3  502    0 -0.81582708600E+03  0.54695746908E+03 -0.24664754265E+03  0.10127057472E+04  0.12699999809E+01 0. -1.
       -4    1    3    3    0  502  0.81582708600E+03 -0.54695746908E+03 -0.65998652551E+03  0.11833512302E+04  0.12699999809E+01 0.  1.
</event>
<event>
 5   0  0.5030137E-06  0.1999782E+04  0.7818609E-02  0.8606723E-01
        2   -1    0    0  501    0  0.00000000000E+00  0.00000000000E+00  0.80560279652E+03  0.80560279652E+03  0.25500000920E-02 0.  1.
       -2   -1    0    0    0  501  0.00000000000E+00  0.00000000000E+00 -0.12410359384E+04  0.12410359384E+04  0.25500000920E-02 0. -1.
    10030    2    1    2    0    0  0.00000000000E+00  0.00000000000E+00 -0.43543314184E+03  0.20466387349E+04  0.19997820106E+04 0.  0.
        3    1    3    3  502    0  0.45826846932E+03 -0.68075736853E+03 -0.80236479734E+03  0.11477063488E+04  0.10100000352E+00 0. -1.
       -3    1    3    3    0  502 -0.45826846932E+03  0.68075736853E+03  0.36693165551E+03  0.89893238611E+03  0.10100000352E+00 0.  1.
</event>
<event>
 5   0  0.2386776E-06  0.1999843E+04  0.7818609E-02  0.8606694E-01
       -1   -1    0    0    0  501  0.00000000000E+00  0.00000000000E+00  0.70306526027E+03  0.70306526029E+03  0.50400001928E-02 0.  1.
        1   -1    0    0  501    0  0.00000000000E+00  0.00000000000E+00 -0.14221190957E+04  0.14221190957E+04  0.50400001928E-02 0. -1.
    10030    2    1    2    0    0  0.00000000000E+00  0.00000000000E+00 -0.71905383544E+03  0.21251843560E+04  0.19998425260E+04 0.  0.
        2    1    3    3  502    0  0.78077106854E+03 -0.62463113409E+03 -0.36873100592E+03  0.10657063713E+04  0.25500000920E-02 0. -1.
       -2    1    3    3    0  502 -0.78077106854E+03  0.62463113409E+03 -0.35032282951E+03  0.10594779847E+04  0.25500000920E-02 0.  1.
</event>
<event>
 5   0  0.5129100E-06  0.1999998E+04  0.7818609E-02  0.8606622E-01
       -2   -1    0    0    0  501  0.00000000000E+00  0.00000000000E+00  0.83591010166E+03  0.83591010167E+03  0.25500000920E-02 0. -1.
        2   -1    0    0  501    0  0.00000000000E+00  0.00000000000E+00 -0.11962985749E+04  0.11962985749E+04  0.25500000920E-02 0.  1.
    10030    2    1    2    0    0  0.00000000000E+00  0.00000000000E+00 -0.36038847320E+03  0.20322086765E+04  0.19999980633E+04 0.  0.
        2    1    3    3  502    0 -0.59128918599E+03  0.78301612618E+03 -0.37633390785E+03  0.10508874181E+04  0.25500000920E-02 0.  1.
       -2    1    3    3    0  502  0.59128918599E+03 -0.78301612618E+03  0.15945434658E+02  0.98132125842E+03  0.25500000920E-02 0. -1.
</event>
<event>
 5   0  0.1777750E-06  0.2001123E+04  0.7818609E-02  0.8606096E-01
        3   -1    0    0  501    0  0.00000000000E+00  0.00000000000E+00  0.98438828565E+03  0.98438829084E+03  0.10100000352E+00 0. -1.
       -3   -1    0    0    0  501  0.00000000000E+00  0.00000000000E+00 -0.10170004401E+04  0.10170004451E+04  0.10100000352E+00 0.  1.
    10030    2    1    2    0    0  0.00000000000E+00  0.00000000000E+00 -0.32612154402E+02  0.20013887359E+04  0.20011230146E+04 0.  0.
        3    1    3    3  502    0  0.84748810023E+03  0.52954170930E+03 -0.66040115184E+02  0.10015047723E+04  0.10100000352E+00 0.  1.
       -3    1    3    3    0  502 -0.84748810023E+03 -0.52954170930E+03  0.33427960783E+02  0.99988396361E+03  0.10100000352E+00 0. -1.
</event>
<event>
 5   0  0.5118981E-06  0.2000054E+04  0.7818609E-02  0.8606595E-01
       -2   -1    0    0    0  501  0.00000000000E+00  0.00000000000E+00  0.88249338855E+03  0.88249338855E+03  0.25500000920E-02 0.  1.
        2   -1    0    0  501    0  0.00000000000E+00  0.00000000000E+00 -0.11332141786E+04  0.11332141786E+04  0.25500000920E-02 0. -1.
    10030    2    1    2    0    0  0.00000000000E+00  0.00000000000E+00 -0.25072079005E+03  0.20157075672E+04  0.20000540197E+04 0.  0.
        4    1    3    3  502    0  0.41140388121E+03 -0.80809161454E+03  0.29958785133E+03  0.95499722750E+03  0.12699999809E+01 0.  1.
       -4    1    3    3    0  502 -0.41140388121E+03  0.80809161454E+03 -0.55030864138E+03  0.10607103397E+04  0.12699999809E+01 0. -1.
</event>
<event>
 5   0  0.5251252E-06  0.2001008E+04  0.7818609E-02  0.8606150E-01
        2   -1    0    0  501    0  0.00000000000E+00  0.00000000000E+00  0.24764603552E+04  0.24764603552E+04  0.25500000920E-02 0.  1.
       -2   -1    0    0    0  501  0.00000000000E+00  0.00000000000E+00 -0.40420920412E+03  0.40420920413E+03  0.25500000920E-02 0. -1.
    10030    2    1    2    0    0  0.00000000000E+00  0.00000000000E+00  0.20722511511E+04  0.28806695594E+04  0.20010078153E+04 0.  0.
        5    1    3    3  502    0  0.63005690940E+03 -0.77715420487E+03  0.10458482157E+04  0.14473289010E+04  0.46999998093E+01 0. -1.
       -5    1    3    3    0  502 -0.63005690940E+03  0.77715420487E+03  0.10264029354E+04  0.14333406584E+04  0.46999998093E+01 0.  1.
</event>
<event>
 5   0  0.2313821E-06  0.2002733E+04  0.7818609E-02  0.8605344E-01
        1   -1    0    0  501    0  0.00000000000E+00  0.00000000000E+00  0.18850346866E+04  0.18850346866E+04  0.50400001928E-02 0.  1.
       -1   -1    0    0    0  501  0.00000000000E+00  0.00000000000E+00 -0.53194492909E+03  0.53194492912E+03  0.50400001928E-02 0. -1.
    10030    2    1    2    0    0  0.00000000000E+00  0.00000000000E+00  0.13530897575E+04  0.24169796158E+04  0.20027327757E+04 0.  0.
        1    1    3    3  502    0 -0.89873873040E+03  0.31921868316E+03  0.10447851506E+04  0.14146405494E+04  0.50400001928E-02 0.  1.
       -1    1    3    3    0  502  0.89873873040E+03 -0.31921868316E+03  0.30830460698E+03  0.10023390663E+04  0.50400001928E-02 0. -1.
</event>
<event>
 5   0  0.2386776E-06  0.2000775E+04  0.7818609E-02  0.8606258E-01
       -1   -1    0    0    0  501  0.00000000000E+00  0.00000000000E+00  0.46573332677E+03  0.46573332680E+03  0.50400001928E-02 0.  1.
        1   -1    0    0  501    0  0.00000000000E+00  0.00000000000E+00 -0.21488163461E+04  0.21488163461E+04  0.50400001928E-02 0. -1.
    10030    2    1    2    0    0  0.00000000000E+00  0.00000000000E+00 -0.16830830193E+04  0.26145496729E+04  0.20007752353E+04 0.  0.
        2    1    3    3  502    0 -0.83522802444E+03 -0.22106556108E+03 -0.18256278998E+03  0.88306568691E+03  0.25500000920E-02 0. -1.
       -2    1    3    3    0  502  0.83522802444E+03  0.22106556108E+03 -0.15005202294E+04  0.17314839860E+04  0.25500000920E-02 0.  1.
</event>
<event>
 5   0  0.5251252E-06  0.1999904E+04  0.7818609E-02  0.8606666E-01
       -2   -1    0    0    0  501  0.00000000000E+00  0.00000000000E+00  0.59104506093E+03  0.59104506094E+03  0.25500000920E-02 0.  1.
        2   -1    0    0  501    0  0.00000000000E+00  0.00000000000E+00 -0.16917560067E+04  0.16917560067E+04  0.25500000920E-02 0. -1.
    10030    2    1    2    0    0  0.00000000000E+00  0.00000000000E+00 -0.11007109457E+04  0.22828010676E+04  0.19999040298E+04 0.  0.
        5    1    3    3  502    0  0.36145562052E+03  0.78869008933E+02 -0.16107493023E+04  0.16526965514E+04  0.46999998093E+01 0. -1.
       -5    1    3    3    0  502 -0.36145562052E+03 -0.78869008933E+02  0.51003835656E+03  0.63010451620E+03  0.46999998093E+01 0.  1.
</event>
<event>
 5   0  0.2311520E-06  0.1999380E+04  0.7818609E-02  0.8606910E-01
        1   -1    0    0  501    0  0.00000000000E+00  0.00000000000E+00  0.10927898300E+04  0.10927898300E+04  0.50400001928E-02 0.  1.
       -1   -1    0    0    0  501  0.00000000000E+00  0.00000000000E+00 -0.91452208232E+03  0.91452208234E+03  0.50400001928E-02 0. -1.
    10030    2    1    2    0    0  0.00000000000E+00  0.00000000000E+00  0.17826774771E+03  0.20073119124E+04  0.19993803349E+04 0.  0.
        3    1    3    3  502    0 -0.75067645984E+03  0.62390663076E+03 -0.12760628140E+03  0.98440743827E+03  0.10100000352E+00 0.  1.
       -3    1    3    3    0  502  0.75067645984E+03 -0.62390663076E+03  0.30587402912E+03  0.10229044741E+04  0.10100000352E+00 0. -1.
</event>
<event>
 5   0  0.4956214E-06  0.1999234E+04  0.7818609E-02  0.8606979E-01
        2   -1    0    0  501    0  0.00000000000E+00  0.00000000000E+00  0.94530221044E+03  0.94530221044E+03  0.25500000920E-02 0.  1.
       -2   -1    0    0    0  501  0.00000000000E+00  0.00000000000E+00 -0.10570521468E+04  0.10570521468E+04  0.25500000920E-02 0. -1.
    10030    2    1    2    0    0  0.00000000000E+00  0.00000000000E+00 -0.11174993632E+03  0.20023543572E+04  0.19992335840E+04 0.  0.
        1    1    3    3  502    0 -0.78080655711E+03 -0.59206884744E+03  0.14199184212E+03  0.99013437623E+03  0.50400001928E-02 0.  1.
       -1    1    3    3    0  502  0.78080655711E+03  0.59206884744E+03 -0.25374177844E+03  0.10122199810E+04  0.50400001928E-02 0. -1.
</event>
<event>
 5   0  0.2313821E-06  0.1986517E+04  0.7818609E-02  0.8612951E-01
        1   -1    0    0  501    0  0.00000000000E+00  0.00000000000E+00  0.14360165607E+04  0.14360165607E+04  0.50400001928E-02 0.  1.
       -1   -1    0    0    0  501  0.00000000000E+00  0.00000000000E+00 -0.68701307152E+03  0.68701307154E+03  0.50400001928E-02 0. -1.
    10030    2    1    2    0    0  0.00000000000E+00  0.00000000000E+00  0.74900348913E+03  0.21230296322E+04  0.19865166983E+04 0.  0.
        1    1    3    3  502    0 -0.86578703923E+02 -0.88936976585E+03  0.83799565099E+03  0.12250351683E+04  0.50400001928E-02 0.  1.
       -1    1    3    3    0  502  0.86578703923E+02  0.88936976585E+03 -0.88992161855E+02  0.89799446395E+03  0.50400001928E-02 0. -1.
</event>
<event>
 5   0  0.4956214E-06  0.2000780E+04  0.7818609E-02  0.8606256E-01
        2   -1    0    0  501    0  0.00000000000E+00  0.00000000000E+00  0.98752114723E+03  0.98752114723E+03  0.25500000920E-02 0. -1.
       -2   -1    0    0    0  501  0.00000000000E+00  0.00000000000E+00 -0.10134263496E+04  0.10134263496E+04  0.25500000920E-02 0.  1.
    10030    2    1    2    0    0  0.00000000000E+00  0.00000000000E+00 -0.25905202419E+02  0.20009474969E+04  0.20007797994E+04 0.  0.
        1    1    3    3  502    0 -0.18214965253E+03  0.94222375558E+03  0.26958806873E+03  0.99681584474E+03  0.50400001928E-02 0.  1.
       -1    1    3    3    0  502  0.18214965253E+03 -0.94222375558E+03 -0.29549327115E+03  0.10041316521E+04  0.50400001928E-02 0. -1.
</event>
<event>
 5   0  0.4956214E-06  0.2003172E+04  0.7818609E-02  0.8605139E-01
        2   -1    0    0  501    0  0.00000000000E+00  0.00000000000E+00  0.10474546305E+04  0.10474546305E+04  0.25500000920E-02 0. -1.
       -2   -1    0    0    0  501  0.00000000000E+00  0.00000000000E+00 -0.95772641099E+03  0.95772641100E+03  0.25500000920E-02 0.  1.
    10030    2    1    2    0    0  0.00000000000E+00  0.00000000000E+00  0.89728219510E+02  0.20051810415E+04  0.20031724478E+04 0.  0.
        1    1    3    3  502    0 -0.37138630135E+03  0.20580629749E+03  0.95290706593E+03  0.10432237982E+04  0.50400001928E-02 0. -1.
       -1    1    3    3    0  502  0.37138630135E+03 -0.20580629749E+03 -0.86317884642E+03  0.96195724325E+03  0.50400001928E-02 0.  1.
</event>
<event>
 5   0  0.5251252E-06  0.1999591E+04  0.7818609E-02  0.8606812E-01
       -2   -1    0    0    0  501  0.00000000000E+00  0.00000000000E+00  0.45271156796E+03  0.45271156797E+03  0.25500000920E-02 0. -1.
        2   -1    0    0  501    0  0.00000000000E+00  0.00000000000E+00 -0.22080081877E+04  0.22080081877E+04  0.25500000920E-02 0.  1.
    10030    2    1    2    0    0  0.00000000000E+00  0.00000000000E+00 -0.17552966197E+04  0.26607197557E+04  0.19995908069E+04 0.  0.
        5    1    3    3  502    0 -0.77709028867E+03  0.58724863994E+03 -0.57762550413E+03  0.11324326006E+04  0.46999998093E+01 0.  1.
       -5    1    3    3    0  502  0.77709028867E+03 -0.58724863994E+03 -0.11776711156E+04  0.15282871551E+04  0.46999998093E+01 0. -1.
</event>
<event>
 5   0  0.5030137E-06  0.2000201E+04  0.7818609E-02  0.8606527E-01
       -2   -1    0    0    0  501  0.00000000000E+00  0.00000000000E+00  0.88710242207E+03  0.88710242207E+03  0.25500000920E-02 0. -1.
        2   -1    0    0  501    0  0.00000000000E+00  0.00000000000E+00 -0.11274921160E+04  0.11274921160E+04  0.25500000920E-02 0.  1.
    10030    2    1    2    0    0  0.00000000000E+00  0.00000000000E+00 -0.24038969396E+03  0.20145945381E+04  0.20002009769E+04 0.  0.
        3    1    3    3  502    0  0.64249988877E+03  0.10262131553E+03  0.64478613082E+03  0.91601659710E+03  0.10100000352E+00 0. -1.
       -3    1    3    3    0  502 -0.64249988877E+03 -0.10262131553E+03 -0.88517582477E+03  0.10985779410E+04  0.10100000352E+00 0.  1.
</event>
<event>
 5   0  0.2356996E-06  0.1999870E+04  0.7818609E-02  0.8606682E-01
        1   -1    0    0  501    0  0.00000000000E+00  0.00000000000E+00  0.16123107113E+04  0.16123107113E+04  0.50400001928E-02 0.  1.
       -1   -1    0    0    0  501  0.00000000000E+00  0.00000000000E+00 -0.62014714195E+03  0.62014714198E+03  0.50400001928E-02 0. -1.
    10030    2    1    2    0    0  0.00000000000E+00  0.00000000000E+00  0.99216356937E+03  0.22324578533E+04  0.19998698754E+04 0.  0.
        4    1    3    3  502    0  0.90037796969E+03  0.11229909643E+03  0.96516318986E+03  0.13247011630E+04  0.12699999809E+01 0. -1.
       -4    1    3    3    0  502 -0.90037796969E+03 -0.11229909643E+03  0.27000379514E+02  0.90775669028E+03  0.12699999809E+01 0.  1.
</event>
<event>
 5   0  0.2311520E-06  0.1999732E+04  0.7818609E-02  0.8606746E-01
       -1   -1    0    0    0  501  0.00000000000E+00  0.00000000000E+00  0.74429989982E+03  0.74429989984E+03  0.50400001928E-02 0. -1.
        1   -1    0    0  501    0  0.00000000000E+00  0.00000000000E+00 -0.13431845929E+04  0.13431845930E+04  0.50400001928E-02 0.  1.
    10030    2    1    2    0    0  0.00000000000E+00  0.00000000000E+00 -0.59888469313E+03  0.20874844928E+04  0.19997321401E+04 0.  0.
        3    1    3    3  502    0  0.95726358361E+03 -0.13219075663E+03 -0.31458928592E+02  0.96685967908E+03  0.10100000352E+00 0. -1.
       -3    1    3    3    0  502 -0.95726358361E+03  0.13219075663E+03 -0.56742576454E+03  0.11206248137E+04  0.10100000352E+00 0.  1.
</event>
<event>
 5   0  0.2386776E-06  0.2002561E+04  0.7818609E-02  0.8605424E-01
        1   -1    0    0  501    0  0.00000000000E+00  0.00000000000E+00  0.11478328814E+04  0.11478328814E+04  0.50400001928E-02 0. -1.
       -1   -1    0    0    0  501  0.00000000000E+00  0.00000000000E+00 -0.87343934841E+03  0.87343934842E+03  0.50400001928E-02 0.  1.
    10030    2    1    2    0    0  0.00000000000E+00  0.00000000000E+00  0.27439353302E+03  0.20212722299E+04  0.20025607647E+04 0.  0.
        2    1    3    3  502    0 -0.22856334846E+02  0.41521326368E+03 -0.78215858401E+03  0.88583097537E+03  0.25500000920E-02 0.  1.
       -2    1    3    3    0  502  0.22856334846E+02 -0.41521326368E+03  0.10565521170E+04  0.11354412545E+04  0.25500000920E-02 0. -1.
</event>
<event>
 5   0  0.2313821E-06  0.2000488E+04  0.7818609E-02  0.8606392E-01
        1   -1    0    0  501    0  0.00000000000E+00  0.00000000000E+00  0.15745262700E+04  0.15745262700E+04  0.50400001928E-02 0.  1.
       -1   -1    0    0    0  501  0.00000000000E+00  0.00000000000E+00 -0.63542185982E+03  0.63542185984E+03  0.50400001928E-02 0. -1.
    10030    2    1    2    0    0  0.00000000000E+00  0.00000000000E+00  0.93910441019E+03  0.22099481299E+04  0.20004883512E+04 0.  0.
        1    1    3    3  502    0 -0.61175182839E+03  0.31707368321E+03  0.12705294165E+04  0.14453446019E+04  0.50400001928E-02 0.  1.
       -1    1    3    3    0  502  0.61175182839E+03 -0.31707368321E+03 -0.33142500628E+03  0.76460352794E+03  0.50400001928E-02 0. -1.
</event>
<event>
 5   0  0.4956214E-06  0.2001080E+04  0.7818609E-02  0.8606116E-01
       -2   -1    0    0    0  501  0.00000000000E+00  0.00000000000E+00  0.47954614172E+03  0.47954614173E+03  0.25500000920E-02 0.  1.
        2   -1    0    0  501    0  0.00000000000E+00  0.00000000000E+00 -0.20875576852E+04  0.20875576852E+04  0.25500000920E-02 0. -1.
    10030    2    1    2    0    0  0.00000000000E+00  0.00000000000E+00 -0.16080115435E+04  0.25671038269E+04  0.20010799420E+04 0.  0.
        1    1    3    3  502    0  0.67181074097E+03  0.24266015862E+03  0.94789420498E+02  0.72055441053E+03  0.50400001928E-02 0.  1.
       -1    1    3    3    0  502 -0.67181074097E+03 -0.24266015862E+03 -0.17028009640E+04  0.18465494164E+04  0.50400001928E-02 0. -1.
</event>
<event>
 5   0  0.2311520E-06  0.1999066E+04  0.7818609E-02  0.8607058E-01
        1   -1    0    0  501    0  0.00000000000E+00  0.00000000000E+00  0.29343528478E+04  0.29343528478E+04  0.50400001928E-02 0.  1.
       -1   -1    0    0    0  501  0.00000000000E+00  0.00000000000E+00 -0.34047226894E+03  0.34047226897E+03  0.50400001928E-02 0. -1.
    10030    2    1    2    0    0  0.00000000000E+00  0.00000000000E+00  0.25938805789E+04  0.32748251168E+04  0.19990655537E+04 0.  0.
        3    1    3    3  502    0 -0.89767861463E+03  0.70142649075E+02  0.20078394524E+04  0.22004922547E+04  0.10100000352E+00 0.  1.
       -3    1    3    3    0  502  0.89767861463E+03 -0.70142649075E+02  0.58604112651E+03  0.10743328621E+04  0.10100000352E+00 0. -1.
</event>
<event>
 5   0  0.5129100E-06  0.2000924E+04  0.7818609E-02  0.8606189E-01
       -2   -1    0    0    0  501  0.00000000000E+00  0.00000000000E+00  0.72624321385E+03  0.72624321385E+03  0.25500000920E-02 0.  1.
        2   -1    0    0  501    0  0.00000000000E+00  0.00000000000E+00 -0.13782221478E+04  0.13782221478E+04  0.25500000920E-02 0. -1.
    10030    2    1    2    0    0  0.00000000000E+00  0.00000000000E+00 -0.65197893395E+03  0.21044653616E+04  0.20009242684E+04 0.  0.
        2    1    3    3  502    0  0.53606698402E+03  0.82376988637E+03 -0.52264034019E+03  0.11131565758E+04  0.25500000920E-02 0.  1.
       -2    1    3    3    0  502 -0.53606698402E+03 -0.82376988637E+03 -0.12933859376E+03  0.99130878585E+03  0.25500000920E-02 0. -1.
</event>
<event>
 5   0  0.2379743E-06  0.2000848E+04  0.7818609E-02  0.8606224E-01
       -1   -1    0    0    0  501  0.00000000000E+00  0.00000000000E+00  0.55821603919E+03  0.55821603921E+03  0.50400001928E-02 0.  1.
        1   -1    0    0  501    0  0.00000000000E+00  0.00000000000E+00 -0.17929413698E+04  0.17929413698E+04  0.50400001928E-02 0. -1.
    10030    2    1    2    0    0  0.00000000000E+00  0.00000000000E+00 -0.12347253306E+04  0.23511574090E+04  0.20008484500E+04 0.  0.
        5    1    3    3  502    0 -0.43337576996E+03  0.78402161195E+03 -0.11406654677E+04  0.14503945136E+04  0.46999998093E+01 0. -1.
       -5    1    3    3    0  502  0.43337576996E+03 -0.78402161195E+03 -0.94059862989E+02  0.90076289545E+03  0.46999998093E+01 0.  1.
</event>
<event>
 5   0  0.5118981E-06  0.2000274E+04  0.7818609E-02  0.8606492E-01
        2   -1    0    0  501    0  0.00000000000E+00  0.00000000000E+00  0.60156095907E+03  0.60156095908E+03  0.25500000920E-02 0. -1.
       -2   -1    0    0    0  501  0.00000000000E+00  0.00000000000E+00 -0.16627981804E+04  0.16627981804E+04  0.25500000920E-02 0.  1.
    10030    2    1    2    0    0  0.00000000000E+00  0.00000000000E+00 -0.10612372213E+04  0.22643591395E+04  0.20002744493E+04 0.  0.
        4    1    3    3  502    0  0.33098063076E+03  0.50307471377E+03 -0.14345670765E+04  0.15558331066E+04  0.12699999809E+01 0.  1.
       -4    1    3    3    0  502 -0.33098063076E+03 -0.50307471377E+03  0.37332985523E+03  0.70852603288E+03  0.12699999809E+01 0. -1.
</event>
<event>
 5   0  0.4956214E-06  0.2000685E+04  0.7818609E-02  0.8606300E-01
       -2   -1    0    0    0  501  0.00000000000E+00  0.00000000000E+00  0.45272738458E+03  0.45272738459E+03  0.25500000920E-02 0. -1.
        2   -1    0    0  501    0  0.00000000000E+00  0.00000000000E+00 -0.22103481527E+04  0.22103481527E+04  0.25500000920E-02 0.  1.
    10030    2    1    2    0    0  0.00000000000E+00  0.00000000000E+00 -0.17576207681E+04  0.26630755373E+04  0.20006850209E+04 0.  0.
        1    1    3    3  502    0 -0.71737901095E+03  0.24621955175E+03 -0.17470068560E+04  0.19045444778E+04  0.50400001928E-02 0.  1.
       -1    1    3    3    0  502  0.71737901095E+03 -0.24621955175E+03 -0.10613912089E+02  0.75853105946E+03  0.50400001928E-02 0. -1.
</event>
<event>
 5   0  0.4956214E-06  0.1999306E+04  0.7818609E-02  0.8606945E-01
        2   -1    0    0  501    0  0.00000000000E+00  0.00000000000E+00  0.17692431861E+04  0.17692431861E+04  0.25500000920E-02 0. -1.
       -2   -1    0    0    0  501  0.00000000000E+00  0.00000000000E+00 -0.56482110563E+03  0.56482110564E+03  0.25500000920E-02 0.  1.
    10030    2    1    2    0    0  0.00000000000E+00  0.00000000000E+00  0.12044220805E+04  0.23340642918E+04  0.19993057720E+04 0.  0.
        1    1    3    3  502    0 -0.46047054715E+03  0.62911756585E+03  0.13326610907E+04  0.15439584253E+04  0.50400001928E-02 0. -1.
       -1    1    3    3    0  502  0.46047054715E+03 -0.62911756585E+03 -0.12823901018E+03  0.79010586646E+03  0.50400001928E-02 0.  1.
</event>
<event>
 5   0  0.2356996E-06  0.2000070E+04  0.7818609E-02  0.8606588E-01
        1   -1    0    0  501    0  0.00000000000E+00  0.00000000000E+00  0.82779290161E+03  0.82779290163E+03  0.50400001928E-02 0.  1.
       -1   -1    0    0    0  501  0.00000000000E+00  0.00000000000E+00 -0.12081162912E+04  0.12081162912E+04  0.50400001928E-02 0. -1.
    10030    2    1    2    0    0  0.00000000000E+00  0.00000000000E+00 -0.38032338960E+03  0.20359091929E+04  0.20000700890E+04 0.  0.
        4    1    3    3  502    0  0.42547042946E+03  0.58429315400E+03  0.51334099352E+03  0.88653492017E+03  0.12699999809E+01 0.  1.
       -4    1    3    3    0  502 -0.42547042946E+03 -0.58429315400E+03 -0.89366438312E+03  0.11493742727E+04  0.12699999809E+01 0. -1.
</event>
<event>
 5   0  0.5118981E-06  0.2004196E+04  0.7818609E-02  0.8604661E-01
       -2   -1    0    0    0  501  0.00000000000E+00  0.00000000000E+00  0.19560891889E+04  0.19560891889E+04  0.25500000920E-02 0. -1.
        2   -1    0    0  501    0  0.00000000000E+00  0.00000000000E+00 -0.51337159112E+03  0.51337159113E+03  0.25500000920E-02 0.  1.
    10030    2    1    2    0    0  0.00000000000E+00  0.00000000000E+00  0.14427175978E+04  0.24694607800E+04  0.20041962172E+04 0.  0.
        4    1    3    3  502    0 -0.78800989023E+03 -0.23882307584E+03  0.17629160453E+02  0.82359483294E+03  0.12699999809E+01 0.  1.
       -4    1    3    3    0  502  0.78800989023E+03  0.23882307584E+03  0.14250884373E+04  0.16458659471E+04  0.12699999809E+01 0. -1.
</event>
<event>
 5   0  0.5118981E-06  0.1996367E+04  0.7818609E-02  0.8608321E-01
       -2   -1    0    0    0  501  0.00000000000E+00  0.00000000000E+00  0.24807039802E+04  0.24807039802E+04  0.25500000920E-02 0.  1.
        2   -1    0    0  501    0  0.00000000000E+00  0.00000000000E+00 -0.40164833155E+03  0.40164833155E+03  0.25500000920E-02 0. -1.
    10030    2    1    2    0    0  0.00000000000E+00  0.00000000000E+00  0.20790556486E+04  0.28823523117E+04  0.19963673156E+04 0.  0.
        4    1    3    3  502    0 -0.30601967440E+03  0.71852386760E+03  0.14199543718E+03  0.79378139718E+03  0.12699999809E+01 0. -1.
       -4    1    3    3    0  502  0.30601967440E+03 -0.71852386760E+03  0.19370602115E+04  0.20885709146E+04  0.12699999809E+01 0.  1.
</event>
<event>
 5   0  0.2386776E-06  0.2000445E+04  0.7818609E-02  0.8606412E-01
        1   -1    0    0  501    0  0.00000000000E+00  0.00000000000E+00  0.23222554396E+04  0.23222554396E+04  0.50400001928E-02 0. -1.
       -1   -1    0    0    0  501  0.00000000000E+00  0.00000000000E+00 -0.43080764883E+03  0.43080764886E+03  0.50400001928E-02 0.  1.
    10030    2    1    2    0    0  0.00000000000E+00  0.00000000000E+00  0.18914477908E+04  0.27530630885E+04  0.20004453564E+04 0.  0.
        2    1    3    3  502    0  0.38332828719E+03  0.88253775467E+03  0.13216927260E+04  0.16348348926E+04  0.25500000920E-02 0. -1.
       -2    1    3    3    0  502 -0.38332828719E+03 -0.88253775467E+03  0.56975506485E+03  0.11182281959E+04  0.25500000920E-02 0.  1.
</event>
<event>
 5   0  0.4956214E-06  0.1998857E+04  0.7818609E-02  0.8607155E-01
       -2   -1    0    0    0  501  0.00000000000E+00  0.00000000000E+00  0.53108371533E+03  0.53108371533E+03  0.25500000920E-02 0. -1.
        2   -1    0    0  501    0  0.00000000000E+00  0.00000000000E+00 -0.18807916406E+04  0.18807916406E+04  0.25500000920E-02 0.  1.
    10030    2    1    2    0    0  0.00000000000E+00  0.00000000000E+00 -0.13497079253E+04  0.24118753559E+04  0.19988574859E+04 0.  0.
        1    1    3    3  502    0 -0.27178032845E+03  0.21380654185E+03  0.45659933712E+03  0.57276586749E+03  0.50400001928E-02 0. -1.
       -1    1    3    3    0  502  0.27178032845E+03 -0.21380654185E+03 -0.18063072624E+04  0.18391094885E+04  0.50400001928E-02 0.  1.
</event>
<event>
 5   0  0.2379743E-06  0.1999430E+04  0.7818609E-02  0.8606887E-01
       -1   -1    0    0    0  501  0.00000000000E+00  0.00000000000E+00  0.86376026083E+03  0.86376026084E+03  0.50400001928E-02 0.  1.
        1   -1    0    0  501    0  0.00000000000E+00  0.00000000000E+00 -0.11570683259E+04  0.11570683259E+04  0.50400001928E-02 0. -1.
    10030    2    1    2    0    0  0.00000000000E+00  0.00000000000E+00 -0.29330806508E+03  0.20208285868E+04  0.19994295577E+04 0.  0.
        5    1    3    3  502    0  0.31962288354E+02  0.40651681540E+03 -0.10691824772E+04  0.11443123562E+04  0.46999998093E+01 0. -1.
       -5    1    3    3    0  502 -0.31962288354E+02 -0.40651681540E+03  0.77587441210E+03  0.87651623055E+03  0.46999998093E+01 0.  1.
</event>
<event>
 5   0  0.2379743E-06  0.2000038E+04  0.7818609E-02  0.8606603E-01
        1   -1    0    0  501    0  0.00000000000E+00  0.00000000000E+00  0.23099775230E+04  0.23099775230E+04  0.50400001928E-02 0.  1.
       -1   -1    0    0    0  501  0.00000000000E+00  0.00000000000E+00 -0.43292120785E+03  0.43292120788E+03  0.50400001928E-02 0. -1.
    10030    2    1    2    0    0  0.00000000000E+00  0.00000000000E+00  0.18770563152E+04  0.27428987309E+04  0.20000382590E+04 0.  0.
        5    1    3    3  502    0  0.36416736538E+02  0.96709793236E+03  0.59318110238E+03  0.11351169542E+04  0.46999998093E+01 0.  1.
       -5    1    3    3    0  502 -0.36416736538E+02 -0.96709793236E+03  0.12838752128E+04  0.16077817767E+04  0.46999998093E+01 0. -1.
</event>
<event>
 5   0  0.2379743E-06  0.1999705E+04  0.7818609E-02  0.8606759E-01
       -1   -1    0    0    0  501  0.00000000000E+00  0.00000000000E+00  0.11151903622E+04  0.11151903623E+04  0.50400001928E-02 0.  1.
        1   -1    0    0  501    0  0.00000000000E+00  0.00000000000E+00 -0.89644342027E+03  0.89644342029E+03  0.50400001928E-02 0. -1.
    10030    2    1    2    0    0  0.00000000000E+00  0.00000000000E+00  0.21874694197E+03  0.20116337825E+04  0.19997050409E+04 0.  0.
        5    1    3    3  502    0 -0.85059592531E+03 -0.10719445816E+03  0.62691193606E+03  0.10620945088E+04  0.46999998093E+01 0. -1.
       -5    1    3    3    0  502  0.85059592531E+03  0.10719445816E+03 -0.40816499408E+03  0.94953927376E+03  0.46999998093E+01 0.  1.
</event>
<event>
 5   0  0.2386776E-06  0.2000693E+04  0.7818609E-02  0.8606297E-01
        1   -1    0    0  501    0  0.00000000000E+00  0.00000000000E+00  0.11966850416E+04  0.11966850416E+04  0.50400001928E-02 0. -1.
       -1   -1    0    0    0  501  0.00000000000E+00  0.00000000000E+00 -0.83622068419E+03  0.83622068421E+03  0.50400001928E-02 0.  1.
    10030    2    1    2    0    0  0.00000000000E+00  0.00000000000E+00  0.36046435742E+03  0.20329057258E+04  0.20006926643E+04 0.  0.
        2    1    3    3  502    0  0.35784200192E+03  0.91914478974E+03  0.34969497676E+03  0.10465011322E+04  0.25500000920E-02 0.  1.
       -2    1    3    3    0  502 -0.35784200192E+03 -0.91914478974E+03  0.10769380662E+02  0.98640459367E+03  0.25500000920E-02 0. -1.
</event>
<event>
 5   0  0.5030137E-06  0.2000787E+04  0.7818609E-02  0.8606253E-01
        2   -1    0    0  501    0  0.00000000000E+00  0.00000000000E+00  0.19543592051E+04  0.19543592051E+04  0.25500000920E-02 0.  1.
       -2   -1    0    0    0  501  0.00000000000E+00  0.00000000000E+00 -0.51207944456E+03  0.51207944456E+03  0.25500000920E-02 0. -1.
    10030    2    1    2    0    0  0.00000000000E+00  0.00000000000E+00  0.14422797605E+04  0.24664386496E+04  0.20007870214E+04 0.  0.
        3    1    3    3  502    0  0.42089326864E+03  0.10692465510E+03 -0.38982872881E+03  0.58356702568E+03  0.10100000352E+00 0. -1.
       -3    1    3    3    0  502 -0.42089326864E+03 -0.10692465510E+03  0.18321084893E+04  0.18828716240E+04  0.10100000352E+00 0.  1.
</event>
<event>
 5   0  0.5251252E-06  0.1998670E+04  0.7818609E-02  0.8607243E-01
       -2   -1    0    0    0  501  0.00000000000E+00  0.00000000000E+00  0.74580616154E+03  0.74580616155E+03  0.25500000920E-02 0. -1.
        2   -1    0    0  501    0  0.00000000000E+00  0.00000000000E+00 -0.13390487105E+04  0.13390487105E+04  0.25500000920E-02 0.  1.
    10030    2    1    2    0    0  0.00000000000E+00  0.00000000000E+00 -0.59324254895E+03  0.20848548720E+04  0.19986703369E+04 0.  0.
        5    1    3    3  502    0  0.44399826993E+02  0.45982672716E+03 -0.12209681201E+04  0.13054490430E+04  0.46999998093E+01 0.  1.
       -5    1    3    3    0  502 -0.44399826993E+02 -0.45982672716E+03  0.62772557114E+03  0.77940582902E+03  0.46999998093E+01 0. -1.
</event>
<event>
 5   0  0.5129100E-06  0.1999940E+04  0.7818609E-02  0.8606649E-01
       -2   -1    0    0    0  501  0.00000000000E+00  0.00000000000E+00  0.55799334346E+03  0.55799334347E+03  0.25500000920E-02 0. -1.
        2   -1    0    0  501    0  0.00000000000E+00  0.00000000000E+00 -0.17920282323E+04  0.17920282323E+04  0.25500000920E-02 0.  1.
    10030    2    1    2    0    0  0.00000000000E+00  0.00000000000E+00 -0.12340348888E+04  0.23500215757E+04  0.19999398240E+04 0.  0.
        2    1    3    3  502    0  0.17482320223E+03  0.97108847744E+03 -0.42622583560E+03  0.10748229836E+04  0.25500000920E-02 0. -1.
       -2    1    3    3    0  502 -0.17482320223E+03 -0.97108847744E+03 -0.80780905320E+03  0.12751985922E+04  0.25500000920E-02 0.  1.
</event>
<event>
 5   0  0.2356996E-06  0.2000197E+04  0.7818609E-02  0.8606529E-01
        1   -1    0    0  501    0  0.00000000000E+00  0.00000000000E+00  0.20029254302E+04  0.20029254303E+04  0.50400001928E-02 0.  1.
       -1   -1    0    0    0  501  0.00000000000E+00  0.00000000000E+00 -0.49936797890E+03  0.49936797892E+03  0.50400001928E-02 0. -1.
    10030    2    1    2    0    0  0.00000000000E+00  0.00000000000E+00  0.15035574513E+04  0.25022934092E+04  0.20001968143E+04 0.  0.
        4    1    3    3  502    0 -0.10100896723E+03 -0.21907374275E+03 -0.46242271413E+03  0.52156734528E+03  0.12699999809E+01 0. -1.
       -4    1    3    3    0  502  0.10100896723E+03  0.21907374275E+03  0.19659801655E+04  0.19807260639E+04  0.12699999809E+01 0.  1.
</event>
<event>
 5   0  0.4956214E-06  0.2000226E+04  0.7818609E-02  0.8606515E-01
       -2   -1    0    0    0  501  0.00000000000E+00  0.00000000000E+00  0.77576822979E+03  0.77576822980E+03  0.25500000920E-02 0.  1.
        2   -1    0    0  501    0  0.00000000000E+00  0.00000000000E+00 -0.12893362558E+04  0.12893362558E+04  0.25500000920E-02 0. -1.
    10030    2    1    2    0    0  0.00000000000E+00  0.00000000000E+00 -0.51356802605E+03  0.20651044856E+04  0.20002260920E+04 0.  0.
        1    1    3    3  502    0  0.83893856740E+02 -0.70526032351E+03  0.47018243027E+03  0.85176394669E+03  0.50400001928E-02 0.  1.
       -1    1    3    3    0  502 -0.83893856740E+02  0.70526032351E+03 -0.98375045633E+03  0.12133405390E+04  0.50400001928E-02 0. -1.
</event>
<event>
 5   0  0.2386776E-06  0.1998374E+04  0.7818609E-02  0.8607381E-01
       -1   -1    0    0    0  501  0.00000000000E+00  0.00000000000E+00  0.41850089182E+03  0.41850089185E+03  0.50400001928E-02 0.  1.
        1   -1    0    0  501    0  0.00000000000E+00  0.00000000000E+00 -0.23855967141E+04  0.23855967141E+04  0.50400001928E-02 0. -1.
    10030    2    1    2    0    0  0.00000000000E+00  0.00000000000E+00 -0.19670958223E+04  0.28040976060E+04  0.19983736912E+04 0.  0.
        2    1    3    3  502    0 -0.33469516365E+03  0.92031765854E+03 -0.70513260770E+03  0.12067383476E+04  0.25500000920E-02 0.  1.
       -2    1    3    3    0  502  0.33469516365E+03 -0.92031765854E+03 -0.12619632146E+04  0.15973592583E+04  0.25500000920E-02 0. -1.
</event>
<event>
 5   0  0.2313821E-06  0.2000264E+04  0.7818609E-02  0.8606497E-01
        1   -1    0    0  501    0  0.00000000000E+00  0.00000000000E+00  0.14851481210E+04  0.14851481210E+04  0.50400001928E-02 0. -1.
       -1   -1    0    0    0  501  0.00000000000E+00  0.00000000000E+00 -0.67351107609E+03  0.67351107611E+03  0.50400001928E-02 0.  1.
    10030    2    1    2    0    0  0.00000000000E+00  0.00000000000E+00  0.81163704492E+03  0.21586591971E+04  0.20002636918E+04 0.  0.
        1    1    3    3  502    0  0.30162184627E+03 -0.92960754837E+03  0.17658893254E+03  0.99314127054E+03  0.50400001928E-02 0.  1.
       -1    1    3    3    0  502 -0.30162184627E+03  0.92960754837E+03  0.63504811238E+03  0.11655179266E+04  0.50400001928E-02 0. -1.
</event>
<event>
 5   0  0.2311520E-06  0.2010160E+04  0.7818609E-02  0.8601885E-01
        1   -1    0    0  501    0  0.00000000000E+00  0.00000000000E+00  0.10783860241E+04  0.10783860241E+04  0.50400001928E-02 0. -1.
       -1   -1    0    0    0  501  0.00000000000E+00  0.00000000000E+00 -0.93675721840E+03  0.93675721841E+03  0.50400001928E-02 0.  1.
    10030    2    1    2    0    0  0.00000000000E+00  0.00000000000E+00  0.14162880573E+03  0.20151432426E+04  0.20101600855E+04 0.  0.
        3    1    3    3  502    0  0.74484488877E+03  0.66961771537E+03  0.15471230630E+03  0.10134681549E+04  0.10100000352E+00 0.  1.
       -3    1    3    3    0  502 -0.74484488877E+03 -0.66961771537E+03 -0.13083500570E+02  0.10016750877E+04  0.10100000352E+00 0. -1.
</event>
<event>
 5   0  0.2386776E-06  0.2000082E+04  0.7818609E-02  0.8606583E-01
       -1   -1    0    0    0  501  0.00000000000E+00  0.00000000000E+00  0.13927717106E+04  0.13927717106E+04  0.50400001928E-02 0.  1.
        1   -1    0    0  501    0  0.00000000000E+00  0.00000000000E+00 -0.71805131469E+03  0.71805131471E+03  0.50400001928E-02 0. -1.
    10030    2    1    2    0    0  0.00000000000E+00  0.00000000000E+00  0.67472039593E+03  0.21108230253E+04  0.20000815562E+04 0.  0.
        2    1    3    3  502    0  0.11888795948E+03 -0.99275231210E+03  0.35820360019E+03  0.10620740649E+04  0.25500000920E-02 0.  1.
       -2    1    3    3    0  502 -0.11888795948E+03  0.99275231210E+03  0.31651679574E+03  0.10487489605E+04  0.25500000920E-02 0. -1.
</event>
<event>
 5   0  0.2311520E-06  0.2000071E+04  0.7818609E-02  0.8606587E-01
        1   -1    0    0  501    0  0.00000000000E+00  0.00000000000E+00  0.11935557231E+04  0.11935557231E+04  0.50400001928E-02 0. -1.
       -1   -1    0    0    0  501  0.00000000000E+00  0.00000000000E+00 -0.83789258501E+03  0.83789258502E+03  0.50400001928E-02 0.  1.
    10030    2    1    2    0    0  0.00000000000E+00  0.00000000000E+00  0.35566313811E+03  0.20314483082E+04  0.20000714889E+04 0.  0.
        3    1    3    3  502    0  0.93650139976E+03  0.31950202349E+03  0.30801972460E+02  0.98998241725E+03  0.10100000352E+00 0. -1.
       -3    1    3    3    0  502 -0.93650139976E+03 -0.31950202349E+03  0.32486116565E+03  0.10414658909E+04  0.10100000352E+00 0.  1.
</event>
<event>
 5   0  0.2313821E-06  0.2001015E+04  0.7818609E-02  0.8606146E-01
       -1   -1    0    0    0  501  0.00000000000E+00  0.00000000000E+00  0.15948189745E+04  0.15948189745E+04  0.50400001928E-02 0. -1.
        1   -1    0    0  501    0  0.00000000000E+00  0.00000000000E+00 -0.62766671969E+03  0.62766671971E+03  0.50400001928E-02 0.  1.
    10030    2    1    2    0    0  0.00000000000E+00  0.00000000000E+00  0.96715225478E+03  0.22224856942E+04  0.20010145369E+04 0.  0.
        1    1    3    3  502    0  0.75489969845E+03 -0.64973652434E+03  0.58884890237E+03  0.11570540764E+04  0.50400001928E-02 0. -1.
       -1    1    3    3    0  502 -0.75489969845E+03  0.64973652434E+03  0.37830335242E+03  0.10654316178E+04  0.50400001928E-02 0.  1.
</event>
<event>
 5   0  0.2386776E-06  0.1999302E+04  0.7818609E-02  0.8606947E-01
       -1   -1    0    0    0  501  0.00000000000E+00  0.00000000000E+00  0.74823943832E+03  0.74823943834E+03  0.50400001928E-02 0.  1.
        1   -1    0    0  501    0  0.00000000000E+00  0.00000000000E+00 -0.13355384123E+04  0.13355384123E+04  0.50400001928E-02 0. -1.
    10030    2    1    2    0    0  0.00000000000E+00  0.00000000000E+00 -0.58729897401E+03  0.20837778507E+04  0.19993023899E+04 0.  0.
        2    1    3    3  502    0  0.91851711860E+03  0.61043266031E+02  0.11256503173E+03  0.92740005600E+03  0.25500000920E-02 0. -1.
       -2    1    3    3    0  502 -0.91851711860E+03 -0.61043266031E+02 -0.69986400574E+03  0.11563777947E+04  0.25500000920E-02 0.  1.
</event>
<event>
 5   0  0.5129100E-06  0.1999584E+04  0.7818609E-02  0.8606815E-01
        2   -1    0    0  501    0  0.00000000000E+00  0.00000000000E+00  0.49361843723E+03  0.49361843723E+03  0.25500000920E-02 0. -1.
       -2   -1    0    0    0  501  0.00000000000E+00  0.00000000000E+00 -0.20250129647E+04  0.20250129647E+04  0.25500000920E-02 0.  1.
    10030    2    1    2    0    0  0.00000000000E+00  0.00000000000E+00 -0.15313945274E+04  0.25186314019E+04  0.19995836917E+04 0.  0.
        2    1    3    3  502    0  0.60518636851E+02 -0.46836485410E+03 -0.18756674242E+04  0.19342069248E+04  0.25500000920E-02 0.  1.
       -2    1    3    3    0  502 -0.60518636851E+02  0.46836485410E+03  0.34427289673E+03  0.58442447707E+03  0.25500000920E-02 0. -1.
</event>
<event>
 5   0  0.2386776E-06  0.1999742E+04  0.7818609E-02  0.8606741E-01
        1   -1    0    0  501    0  0.00000000000E+00  0.00000000000E+00  0.18968077850E+04  0.18968077850E+04  0.50400001928E-02 0. -1.
       -1   -1    0    0    0  501  0.00000000000E+00  0.00000000000E+00 -0.52706542874E+03  0.52706542876E+03  0.50400001928E-02 0.  1.
    10030    2    1    2    0    0  0.00000000000E+00  0.00000000000E+00  0.13697423563E+04  0.24238732138E+04  0.19997417918E+04 0.  0.
        2    1    3    3  502    0 -0.32068199136E+03  0.66663744128E+03 -0.13048051219E+03  0.75117746357E+03  0.25500000920E-02 0.  1.
       -2    1    3    3    0  502  0.32068199136E+03 -0.66663744128E+03  0.15002228685E+04  0.16726957502E+04  0.25500000920E-02 0. -1.
</event>
<event>
 5   0  0.2379743E-06  0.1999465E+04  0.7818609E-02  0.8606871E-01
       -1   -1    0    0    0  501  0.00000000000E+00  0.00000000000E+00  0.92932418674E+03  0.92932418675E+03  0.50400001928E-02 0.  1.
        1   -1    0    0  501    0  0.00000000000E+00  0.00000000000E+00 -0.10754754687E+04  0.10754754687E+04  0.50400001928E-02 0. -1.
    10030    2    1    2    0    0  0.00000000000E+00  0.00000000000E+00 -0.14615128192E+03  0.20047996554E+04  0.19994652938E+04 0.  0.
        5    1    3    3  502    0 -0.33199452343E+03 -0.92778003741E+03 -0.24218833758E+03  0.10147282603E+04  0.46999998093E+01 0. -1.
       -5    1    3    3    0  502  0.33199452343E+03  0.92778003741E+03  0.96037055660E+02  0.99007139513E+03  0.46999998093E+01 0.  1.
</event>
<event>
 5   0  0.1777750E-06  0.1998350E+04  0.7818609E-02  0.8607393E-01
       -3   -1    0    0    0  501  0.00000000000E+00  0.00000000000E+00  0.10377289123E+04  0.10377289173E+04  0.10100000352E+00 0. -1.
        3   -1    0    0  501    0  0.00000000000E+00  0.00000000000E+00 -0.96205337971E+03  0.96205338502E+03  0.10100000352E+00 0.  1.
    10030    2    1    2    0    0  0.00000000000E+00  0.00000000000E+00  0.75675532624E+02  0.19997823023E+04  0.19983499369E+04 0.  0.
        5    1    3    3  502    0 -0.53328381415E+03 -0.75516094727E+03  0.41714618284E+03  0.10142448967E+04  0.46999998093E+01 0. -1.
       -5    1    3    3    0  502  0.53328381415E+03  0.75516094727E+03 -0.34147065022E+03  0.98553740552E+03  0.46999998093E+01 0.  1.
</event>
<event>
 5   0  0.5030137E-06  0.1990180E+04  0.7818609E-02  0.8611226E-01
       -2   -1    0    0    0  501  0.00000000000E+00  0.00000000000E+00  0.48733421807E+03  0.48733421807E+03  0.25500000920E-02 0. -1.
        2   -1    0    0  501    0  0.00000000000E+00  0.00000000000E+00 -0.20318792920E+04  0.20318792920E+04  0.25500000920E-02 0.  1.
    10030    2    1    2    0    0  0.00000000000E+00  0.00000000000E+00 -0.15445450740E+04  0.25192135101E+04  0.19901801989E+04 0.  0.
        3    1    3    3  502    0 -0.44946310918E+03 -0.26090708220E+03 -0.18464435167E+04  0.19181874941E+04  0.10100000352E+00 0.  1.
       -3    1    3    3    0  502  0.44946310918E+03  0.26090708220E+03  0.30189844268E+03  0.60102601603E+03  0.10100000352E+00 0. -1.
</event>
<event>
 5   0  0.5030137E-06  0.1999003E+04  0.7818609E-02  0.8607087E-01
        2   -1    0    0  501    0  0.00000000000E+00  0.00000000000E+00  0.60049893214E+03  0.60049893215E+03  0.25500000920E-02 0. -1.
       -2   -1    0    0    0  501  0.00000000000E+00  0.00000000000E+00 -0.16636215503E+04  0.16636215503E+04  0.25500000920E-02 0.  1.
    10030    2    1    2    0    0  0.00000000000E+00  0.00000000000E+00 -0.10631226181E+04  0.22641204824E+04  0.19990027158E+04 0.  0.
        3    1    3    3  502    0 -0.81660672672E+03 -0.36116748797E+03 -0.10402530174E+04  0.13709175215E+04  0.10100000352E+00 0.  1.
       -3    1    3    3    0  502  0.81660672672E+03  0.36116748797E+03 -0.22869600748E+02  0.89320296088E+03  0.10100000352E+00 0. -1.
</event>
<event>
 5   0  0.5118981E-06  0.2000505E+04  0.7818609E-02  0.8606385E-01
       -2   -1    0    0    0  501  0.00000000000E+00  0.00000000000E+00  0.15505264893E+04  0.15505264893E+04  0.25500000920E-02 0.  1.
        2   -1    0    0  501    0  0.00000000000E+00  0.00000000000E+00 -0.64526787217E+03  0.64526787217E+03  0.25500000920E-02 0. -1.
    10030    2    1    2    0    0  0.00000000000E+00  0.00000000000E+00  0.90525861712E+03  0.21957943615E+04  0.20005048648E+04 0.  0.
        4    1    3    3  502    0  0.33174905516E+03  0.12308321861E+03  0.14795327875E+04  0.15212579651E+04  0.12699999809E+01 0.  1.
       -4    1    3    3    0  502 -0.33174905516E+03 -0.12308321861E+03 -0.57427417038E+03  0.67453639633E+03  0.12699999809E+01 0. -1.
</event>
<event>
 5   0  0.5030137E-06  0.1999866E+04  0.7818609E-02  0.8606683E-01
       -2   -1    0    0    0  501  0.00000000000E+00  0.00000000000E+00  0.87472194195E+03  0.87472194195E+03  0.25500000920E-02 0. -1.
        2   -1    0    0  501    0  0.00000000000E+00  0.00000000000E+00 -0.11430675765E+04  0.11430675765E+04  0.25500000920E-02 0.  1.
    10030    2    1    2    0    0  0.00000000000E+00  0.00000000000E+00 -0.26834563455E+03  0.20177895185E+04  0.19998662858E+04 0.  0.
        3    1    3    3  502    0 -0.31666764435E+03  0.63152839370E+03 -0.84815869019E+03  0.11038476720E+04  0.10100000352E+00 0.  1.
       -3    1    3    3    0  502  0.31666764435E+03 -0.63152839370E+03  0.57981305564E+03  0.91394184646E+03  0.10100000352E+00 0. -1.
</event>
<event>
 5   0  0.4956214E-06  0.2000241E+04  0.7818609E-02  0.8606508E-01
        2   -1    0    0  501    0  0.00000000000E+00  0.00000000000E+00  0.20613697564E+04  0.20613697564E+04  0.25500000920E-02 0.  1.
       -2   -1    0    0    0  501  0.00000000000E+00  0.00000000000E+00 -0.48523119685E+03  0.48523119686E+03  0.25500000920E-02 0. -1.
    10030    2    1    2    0    0  0.00000000000E+00  0.00000000000E+00  0.15761385595E+04  0.25466009532E+04  0.20002408995E+04 0.  0.
        1    1    3    3  502    0 -0.14070136306E+03  0.98970792982E+03  0.82673302226E+03  0.12972301839E+04  0.50400001928E-02 0. -1.
       -1    1    3    3    0  502  0.14070136306E+03 -0.98970792982E+03  0.74940553725E+03  0.12493707693E+04  0.50400001928E-02 0.  1.
</event>
<event>
 5   0  0.5251252E-06  0.2000459E+04  0.7818609E-02  0.8606406E-01
        2   -1    0    0  501    0  0.00000000000E+00  0.00000000000E+00  0.19880340057E+04  0.19880340057E+04  0.25500000920E-02 0. -1.
       -2   -1    0    0    0  501  0.00000000000E+00  0.00000000000E+00 -0.50324044498E+03  0.50324044499E+03  0.25500000920E-02 0.  1.
    10030    2    1    2    0    0  0.00000000000E+00  0.00000000000E+00  0.14847935607E+04  0.24912744507E+04  0.20004590650E+04 0.  0.
        5    1    3    3  502    0 -0.88357898957E+03  0.19864330734E+03  0.21364863580E+03  0.93050460716E+03  0.46999998093E+01 0.  1.
       -5    1    3    3    0  502  0.88357898957E+03 -0.19864330734E+03  0.12711449249E+04  0.15607698436E+04  0.46999998093E+01 0. -1.
</event>
<event>
 5   0  0.5251252E-06  0.2005514E+04  0.7818609E-02  0.8604047E-01
        2   -1    0    0  501    0  0.00000000000E+00  0.00000000000E+00  0.36515816302E+03  0.36515816303E+03  0.25500000920E-02 0.  1.
       -2   -1    0    0    0  501  0.00000000000E+00  0.00000000000E+00 -0.27536606585E+04  0.27536606585E+04  0.25500000920E-02 0. -1.
    10030    2    1    2    0    0  0.00000000000E+00  0.00000000000E+00 -0.23885024955E+04  0.31188188215E+04  0.20055140664E+04 0.  0.
        5    1    3    3  502    0  0.83322200624E+00 -0.65440575712E+03 -0.23757877761E+04  0.24642721515E+04  0.46999998093E+01 0. -1.
       -5    1    3    3    0  502 -0.83322200624E+00  0.65440575712E+03 -0.12714719331E+02  0.65454667007E+03  0.46999998093E+01 0.  1.
</event>
<event>
 5   0  0.2311520E-06  0.1999986E+04  0.7818609E-02  0.8606627E-01
       -1   -1    0    0    0  501  0.00000000000E+00  0.00000000000E+00  0.55344300055E+03  0.55344300058E+03  0.50400001928E-02 0. -1.
        1   -1    0    0  501    0  0.00000000000E+00  0.00000000000E+00 -0.18068451821E+04  0.18068451821E+04  0.50400001928E-02 0.  1.
    10030    2    1    2    0    0  0.00000000000E+00  0.00000000000E+00 -0.12534021816E+04  0.23602881827E+04  0.19999858191E+04 0.  0.
        3    1    3    3  502    0  0.74830608333E+03  0.39861602265E+03 -0.12524368899E+04  0.15124334370E+04  0.10100000352E+00 0. -1.
       -3    1    3    3    0  502 -0.74830608333E+03 -0.39861602265E+03 -0.96529165319E+00  0.84785474573E+03  0.10100000352E+00 0.  1.
</event>
<event>
 5   0  0.2313821E-06  0.1999654E+04  0.7818609E-02  0.8606782E-01
        1   -1    0    0  501    0  0.00000000000E+00  0.00000000000E+00  0.10197213403E+04  0.10197213403E+04  0.50400001928E-02 0.  1.
       -1   -1    0    0    0  501  0.00000000000E+00  0.00000000000E+00 -0.98032076416E+03  0.98032076418E+03  0.50400001928E-02 0. -1.
    10030    2    1    2    0    0  0.00000000000E+00  0.00000000000E+00  0.39400576131E+02  0.20000421045E+04  0.19996539736E+04 0.  0.
        1    1    3    3  502    0  0.39623284668E+03 -0.90509976916E+03 -0.13345664441E+03  0.99700388007E+03  0.50400001928E-02 0. -1.
       -1    1    3    3    0  502 -0.39623284668E+03  0.90509976916E+03  0.17285722055E+03  0.10030382244E+04  0.50400001928E-02 0.  1.
</event>
<event>
 5   0  0.2311520E-06  0.1998715E+04  0.7818609E-02  0.8607222E-01
       -1   -1    0    0    0  501  0.00000000000E+00  0.00000000000E+00  0.13408104172E+04  0.13408104172E+04  0.50400001928E-02 0.  1.
        1   -1    0    0  501    0  0.00000000000E+00  0.00000000000E+00 -0.74485972810E+03  0.74485972812E+03  0.50400001928E-02 0. -1.
    10030    2    1    2    0    0  0.00000000000E+00  0.00000000000E+00  0.59595068911E+03  0.20856701453E+04  0.19987152702E+04 0.  0.
        3    1    3    3  502    0  0.74199394265E+02 -0.33519342729E+03 -0.68139517402E+03  0.76299382513E+03  0.10100000352E+00 0. -1.
       -3    1    3    3    0  502 -0.74199394265E+02  0.33519342729E+03  0.12773458631E+04  0.13226763202E+04  0.10100000352E+00 0.  1.
</event>
<event>
 5   0  0.2313821E-06  0.2000080E+04  0.7818609E-02  0.8606583E-01
        1   -1    0    0  501    0  0.00000000000E+00  0.00000000000E+00  0.25395913400E+04  0.25395913400E+04  0.50400001928E-02 0.  1.
       -1   -1    0    0    0  501  0.00000000000E+00  0.00000000000E+00 -0.39379563006E+03  0.39379563010E+03  0.50400001928E-02 0. -1.
    10030    2    1    2    0    0  0.00000000000E+00  0.00000000000E+00  0.21457957099E+04  0.29333869701E+04  0.20000799703E+04 0.  0.
        1    1    3    3  502    0 -0.16851122731E+03 -0.20154318009E+02  0.25183167113E+04  0.25240287813E+04  0.50400001928E-02 0.  1.
       -1    1    3    3    0  502  0.16851122731E+03  0.20154318009E+02 -0.37252100137E+03  0.40935818882E+03  0.50400001928E-02 0. -1.
</event>
<event>
 5   0  0.2356996E-06  0.1998686E+04  0.7818609E-02  0.8607235E-01
        1   -1    0    0  501    0  0.00000000000E+00  0.00000000000E+00  0.20678045326E+04  0.20678045326E+04  0.50400001928E-02 0. -1.
       -1   -1    0    0    0  501  0.00000000000E+00  0.00000000000E+00 -0.48296965362E+03  0.48296965364E+03  0.50400001928E-02 0.  1.
    10030    2    1    2    0    0  0.00000000000E+00  0.00000000000E+00  0.15848348789E+04  0.25507741862E+04  0.19986864075E+04 0.  0.
        4    1    3    3  502    0  0.23272174518E+03  0.79060438692E+03  0.15137619776E+04  0.17235694488E+04  0.12699999809E+01 0. -1.
       -4    1    3    3    0  502 -0.23272174518E+03 -0.79060438692E+03  0.71072901346E+02  0.82720473736E+03  0.12699999809E+01 0.  1.
</event>
<event>
 5   0  0.5118981E-06  0.2000676E+04  0.7818609E-02  0.8606305E-01
       -2   -1    0    0    0  501  0.00000000000E+00  0.00000000000E+00  0.60579872742E+03  0.60579872742E+03  0.25500000920E-02 0. -1.
        2   -1    0    0  501    0  0.00000000000E+00  0.00000000000E+00 -0.16518294763E+04  0.16518294763E+04  0.25500000920E-02 0.  1.
    10030    2    1    2    0    0  0.00000000000E+00  0.00000000000E+00 -0.10460307489E+04  0.22576282038E+04  0.20006760804E+04 0.  0.
        4    1    3    3  502    0 -0.99517900474E+03  0.10107290174E+03 -0.51307498835E+03  0.11242084057E+04  0.12699999809E+01 0. -1.
       -4    1    3    3    0  502  0.99517900474E+03 -0.10107290174E+03 -0.53295576058E+03  0.11334197980E+04  0.12699999809E+01 0.  1.
</event>
<event>
 5   0  0.5251252E-06  0.2001037E+04  0.7818609E-02  0.8606136E-01
       -2   -1    0    0    0  501  0.00000000000E+00  0.00000000000E+00  0.99536844297E+03  0.99536844298E+03  0.25500000920E-02 0.  1.
        2   -1    0    0  501    0  0.00000000000E+00  0.00000000000E+00 -0.10056948777E+04  0.10056948777E+04  0.25500000920E-02 0. -1.
    10030    2    1    2    0    0  0.00000000000E+00  0.00000000000E+00 -0.10326434696E+02  0.20010633206E+04  0.20010366758E+04 0.  0.
        5    1    3    3  502    0 -0.20818436756E+03 -0.86746521033E+03 -0.45813528780E+03  0.10028692108E+04  0.46999998093E+01 0. -1.
       -5    1    3    3    0  502  0.20818436756E+03  0.86746521033E+03  0.44780885310E+03  0.99819410985E+03  0.46999998093E+01 0.  1.
</event>
<event>
 5   0  0.2313821E-06  0.2000563E+04  0.7818609E-02  0.8606357E-01
       -1   -1    0    0    0  501  0.00000000000E+00  0.00000000000E+00  0.34932751146E+03  0.34932751150E+03  0.50400001928E-02 0. -1.
        1   -1    0    0  501    0  0.00000000000E+00  0.00000000000E+00 -0.28642556129E+04  0.28642556129E+04  0.50400001928E-02 0.  1.
    10030    2    1    2    0    0  0.00000000000E+00  0.00000000000E+00 -0.25149281015E+04  0.32135831244E+04  0.20005632062E+04 0.  0.
        1    1    3    3  502    0  0.70883199515E+03  0.66980029120E+02 -0.12886451957E+03  0.72355731361E+03  0.50400001928E-02 0. -1.
       -1    1    3    3    0  502 -0.70883199515E+03 -0.66980029120E+02 -0.23860635819E+04  0.24900258108E+04  0.50400001928E-02 0.  1.
</event>
<event>
 5   0  0.5030137E-06  0.1995606E+04  0.7818609E-02  0.8608678E-01
        2   -1    0    0  501    0  0.00000000000E+00  0.00000000000E+00  0.65083047626E+03  0.65083047626E+03  0.25500000920E-02 0. -1.
       -2   -1    0    0    0  501  0.00000000000E+00  0.00000000000E+00 -0.15297552118E+04  0.15297552118E+04  0.25500000920E-02 0.  1.
    10030    2    1    2    0    0  0.00000000000E+00  0.00000000000E+00 -0.87892473551E+03  0.21805856880E+04  0.19956064873E+04 0.  0.
        3    1    3    3  502    0 -0.87003403937E+03  0.18039253698E+03 -0.93553860032E+03  0.12902453952E+04  0.10100000352E+00 0.  1.
       -3    1    3    3    0  502  0.87003403937E+03 -0.18039253698E+03  0.56613864809E+02  0.89034029278E+03  0.10100000352E+00 0. -1.
</event>
<event>
 5   0  0.4956214E-06  0.1998423E+04  0.7818609E-02  0.8607358E-01
       -2   -1    0    0    0  501  0.00000000000E+00  0.00000000000E+00  0.78784453100E+03  0.78784453100E+03  0.25500000920E-02 0. -1.
        2   -1    0    0  501    0  0.00000000000E+00  0.00000000000E+00 -0.12672853100E+04  0.12672853100E+04  0.25500000920E-02 0.  1.
    10030    2    1    2    0    0  0.00000000000E+00  0.00000000000E+00 -0.47944077896E+03  0.20551298410E+04  0.19984231791E+04 0.  0.
        1    1    3    3  502    0  0.61859749850E+01  0.29678677546E+03  0.74145089286E+03  0.79866769242E+03  0.50400001928E-02 0. -1.
       -1    1    3    3    0  502 -0.61859749850E+01 -0.29678677546E+03 -0.12208916718E+04  0.12564621485E+04  0.50400001928E-02 0.  1.
</event>
<event>
 5   0  0.5129100E-06  0.2000245E+04  0.7818609E-02  0.8606506E-01
        2   -1    0    0  501    0  0.00000000000E+00  0.00000000000E+00  0.47115626194E+03  0.47115626194E+03  0.25500000920E-02 0. -1.
       -2   -1    0    0    0  501  0.00000000000E+00  0.00000000000E+00 -0.21229588570E+04  0.21229588570E+04  0.25500000920E-02 0.  1.
    10030    2    1    2    0    0  0.00000000000E+00  0.00000000000E+00 -0.16518025951E+04  0.25941151190E+04  0.20002453443E+04 0.  0.
        2    1    3    3  502    0 -0.59723528059E+03  0.14358563373E+03  0.19769469895E+03  0.64528289036E+03  0.25500000920E-02 0. -1.
       -2    1    3    3    0  502  0.59723528059E+03 -0.14358563373E+03 -0.18494972940E+04  0.19488322286E+04  0.25500000920E-02 0.  1.
</event>
<event>
 5   0  0.2386776E-06  0.2000245E+04  0.7818609E-02  0.8606506E-01
       -1   -1    0    0    0  501  0.00000000000E+00  0.00000000000E+00  0.60910687193E+03  0.60910687195E+03  0.50400001928E-02 0.  1.
        1   -1    0    0  501    0  0.00000000000E+00  0.00000000000E+00 -0.16421500607E+04  0.16421500607E+04  0.50400001928E-02 0. -1.
    10030    2    1    2    0    0  0.00000000000E+00  0.00000000000E+00 -0.10330431888E+04  0.22512569326E+04  0.20002448717E+04 0.  0.
        2    1    3    3  502    0 -0.17623479130E+03  0.37233622525E+03 -0.15422332508E+04  0.15963008382E+04  0.25500000920E-02 0. -1.
       -2    1    3    3    0  502  0.17623479130E+03 -0.37233622525E+03  0.50919006205E+03  0.65495609440E+03  0.25500000920E-02 0.  1.
</event>
<event>
 5   0  0.2356996E-06  0.1997958E+04  0.7818609E-02  0.8607576E-01
        1   -1    0    0  501    0  0.00000000000E+00  0.00000000000E+00  0.15722644968E+04  0.15722644968E+04  0.50400001928E-02 0. -1.
       -1   -1    0    0    0  501  0.00000000000E+00  0.00000000000E+00 -0.63472696158E+03  0.63472696160E+03  0.50400001928E-02 0.  1.
    10030    2    1    2    0    0  0.00000000000E+00  0.00000000000E+00  0.93753753522E+03  0.22069914584E+04  0.19979576241E+04 0.  0.
        4    1    3    3  502    0 -0.50622811636E+03  0.65903169456E+03 -0.14364262716E+03  0.84334126987E+03  0.12699999809E+01 0.  1.
       -4    1    3    3    0  502  0.50622811636E+03 -0.65903169456E+03  0.10811801624E+04  0.13636501885E+04  0.12699999809E+01 0. -1.
</event>
<event>
 5   0  0.5251252E-06  0.2002057E+04  0.7818609E-02  0.8605660E-01
        2   -1    0    0  501    0  0.00000000000E+00  0.00000000000E+00  0.81998707880E+03  0.81998707880E+03  0.25500000920E-02 0.  1.
       -2   -1    0    0    0  501  0.00000000000E+00  0.00000000000E+00 -0.12220410679E+04  0.12220410679E+04  0.25500000920E-02 0. -1.
    10030    2    1    2    0    0  0.00000000000E+00  0.00000000000E+00 -0.40205398908E+03  0.20420281467E+04  0.20020568278E+04 0.  0.
        5    1    3    3  502    0 -0.39016501175E+03  0.69311132368E+03 -0.82094746068E+03  0.11430699308E+04  0.46999998093E+01 0.  1.
       -5    1    3    3    0  502  0.39016501175E+03 -0.69311132368E+03  0.41889347160E+03  0.89895821592E+03  0.46999998093E+01 0. -1.
</event>
<event>
 5   0  0.2386776E-06  0.1999585E+04  0.7818609E-02  0.8606815E-01
       -1   -1    0    0    0  501  0.00000000000E+00  0.00000000000E+00  0.11662819867E+04  0.11662819867E+04  0.50400001928E-02 0.  1.
        1   -1    0    0  501    0  0.00000000000E+00  0.00000000000E+00 -0.85706963318E+03  0.85706963319E+03  0.50400001928E-02 0. -1.
    10030    2    1    2    0    0  0.00000000000E+00  0.00000000000E+00  0.30921235349E+03  0.20233516199E+04  0.19995848314E+04 0.  0.
        2    1    3    3  502    0 -0.33029266056E+03  0.58808091145E+03 -0.59217139881E+03  0.89755187349E+03  0.25500000920E-02 0. -1.
       -2    1    3    3    0  502  0.33029266056E+03 -0.58808091145E+03  0.90138375230E+03  0.11257997464E+04  0.25500000920E-02 0.  1.
</event>
<event>
 5   0  0.2379743E-06  0.2001233E+04  0.7818609E-02  0.8606045E-01
        1   -1    0    0  501    0  0.00000000000E+00  0.00000000000E+00  0.11932708980E+04  0.11932708980E+04  0.50400001928E-02 0. -1.
       -1   -1    0    0    0  501  0.00000000000E+00  0.00000000000E+00 -0.83906611213E+03  0.83906611214E+03  0.50400001928E-02 0.  1.
    10030    2    1    2    0    0  0.00000000000E+00  0.00000000000E+00  0.35420478583E+03  0.20323370101E+04  0.20012327931E+04 0.  0.
        5    1    3    3  502    0  0.94631152533E+02 -0.42161521322E+02 -0.83359379391E+03  0.84001985224E+03  0.46999998093E+01 0.  1.
       -5    1    3    3    0  502 -0.94631152533E+02  0.42161521322E+02  0.11877985797E+04  0.11923171579E+04  0.46999998093E+01 0. -1.
</event>
<event>
 5   0  0.2356996E-06  0.2001494E+04  0.7818609E-02  0.8605923E-01
       -1   -1    0    0    0  501  0.00000000000E+00  0.00000000000E+00  0.72380847515E+03  0.72380847517E+03  0.50400001928E-02 0.  1.
        1   -1    0    0  501    0  0.00000000000E+00  0.00000000000E+00 -0.13836451646E+04  0.13836451646E+04  0.50400001928E-02 0. -1.
    10030    2    1    2    0    0  0.00000000000E+00  0.00000000000E+00 -0.65983668946E+03  0.21074536398E+04  0.20014935391E+04 0.  0.
        4    1    3    3  502    0  0.31405794352E+02 -0.80096630395E+03  0.30093200059E+03  0.85620968569E+03  0.12699999809E+01 0.  1.
       -4    1    3    3    0  502 -0.31405794352E+02  0.80096630395E+03 -0.96076869005E+03  0.12512439541E+04  0.12699999809E+01 0. -1.
</event>
<event>
 5   0  0.2311520E-06  0.2000079E+04  0.7818609E-02  0.8606584E-01
       -1   -1    0    0    0  501  0.00000000000E+00  0.00000000000E+00  0.12268963365E+04  0.12268963366E+04  0.50400001928E-02 0. -1.
        1   -1    0    0  501    0  0.00000000000E+00  0.00000000000E+00 -0.81512907221E+03  0.81512907222E+03  0.50400001928E-02 0.  1.
    10030    2    1    2    0    0  0.00000000000E+00  0.00000000000E+00  0.41176726433E+03  0.20420254088E+04  0.20000788710E+04 0.  0.
        3    1    3    3  502    0 -0.13938375126E+03  0.61152228340E+03  0.10011232086E+04  0.11813699769E+04  0.10100000352E+00 0. -1.
       -3    1    3    3    0  502  0.13938375126E+03 -0.61152228340E+03 -0.58935594429E+03  0.86065543191E+03  0.10100000352E+00 0.  1.
</event>
<event>
 5   0  0.2379743E-06  0.2003813E+04  0.7818609E-02  0.8604840E-01
       -1   -1    0    0    0  501  0.00000000000E+00  0.00000000000E+00  0.59762180097E+03  0.59762180099E+03  0.50400001928E-02 0. -1.
        1   -1    0    0  501    0  0.00000000000E+00  0.00000000000E+00 -0.16796852169E+04  0.16796852170E+04  0.50400001928E-02 0.  1.
    10030    2    1    2    0    0  0.00000000000E+00  0.00000000000E+00 -0.10820634160E+04  0.22773070179E+04  0.20038128699E+04 0.  0.
        5    1    3    3  502    0 -0.98240042597E+03 -0.53656396170E+02 -0.75607955621E+03  0.12408335872E+04  0.46999998093E+01 0.  1.
       -5    1    3    3    0  502  0.98240042597E+03  0.53656396170E+02 -0.32598385977E+03  0.10364734307E+04  0.46999998093E+01 0. -1.
</event>
<event>
 5   0  0.2313821E-06  0.2000391E+04  0.7818609E-02  0.8606438E-01
       -1   -1    0    0    0  501  0.00000000000E+00  0.00000000000E+00  0.59391453169E+03  0.59391453172E+03  0.50400001928E-02 0. -1.
        1   -1    0    0  501    0  0.00000000000E+00  0.00000000000E+00 -0.16844020262E+04  0.16844020262E+04  0.50400001928E-02 0.  1.
    10030    2    1    2    0    0  0.00000000000E+00  0.00000000000E+00 -0.10904874945E+04  0.22783165579E+04  0.20003908024E+04 0.  0.
        1    1    3    3  502    0 -0.46844550489E+03  0.25467961089E+01  0.46124501694E+03  0.65741512220E+03  0.50400001928E-02 0. -1.
       -1    1    3    3    0  502  0.46844550489E+03 -0.25467961089E+01 -0.15517325114E+04  0.16209014357E+04  0.50400001928E-02 0.  1.
</event>
<event>
 5   0  0.1777750E-06  0.2001217E+04  0.7818609E-02  0.8606052E-01
       -3   -1    0    0    0  501  0.00000000000E+00  0.00000000000E+00  0.99129911305E+03  0.99129911819E+03  0.10100000352E+00 0.  1.
        3   -1    0    0  501    0  0.00000000000E+00  0.00000000000E+00 -0.10100049863E+04  0.10100049913E+04  0.10100000352E+00 0. -1.
    10030    2    1    2    0    0  0.00000000000E+00  0.00000000000E+00 -0.18705873228E+02  0.20013041095E+04  0.20012166872E+04 0.  0.
        5    1    3    3  502    0 -0.47109167109E+03 -0.80837277027E+03 -0.36405289484E+03  0.10039673792E+04  0.46999998093E+01 0.  1.
       -5    1    3    3    0  502  0.47109167109E+03  0.80837277027E+03  0.34534702161E+03  0.99733673031E+03  0.46999998093E+01 0. -1.
</event>
<event>
 5   0  0.4956214E-06  0.2000880E+04  0.7818609E-02  0.8606210E-01
       -2   -1    0    0    0  501  0.00000000000E+00  0.00000000000E+00  0.77386315026E+03  0.77386315027E+03  0.25500000920E-02 0.  1.
        2   -1    0    0  501    0  0.00000000000E+00  0.00000000000E+00 -0.12933551039E+04  0.12933551039E+04  0.25500000920E-02 0. -1.
    10030    2    1    2    0    0  0.00000000000E+00  0.00000000000E+00 -0.51949195359E+03  0.20672182541E+04  0.20008796616E+04 0.  0.
        1    1    3    3  502    0  0.51100009965E+03 -0.15124048081E+03 -0.11345084211E+04  0.12534369320E+04  0.50400001928E-02 0. -1.
       -1    1    3    3    0  502 -0.51100009965E+03  0.15124048081E+03  0.61501646753E+03  0.81378132212E+03  0.50400001928E-02 0.  1.
</event>
<event>
 5   0  0.2313821E-06  0.2000051E+04  0.7818609E-02  0.8606597E-01
       -1   -1    0    0    0  501  0.00000000000E+00  0.00000000000E+00  0.76857789579E+03  0.76857789581E+03  0.50400001928E-02 0. -1.
        1   -1    0    0  501    0  0.00000000000E+00  0.00000000000E+00 -0.13011706379E+04  0.13011706379E+04  0.50400001928E-02 0.  1.
    10030    2    1    2    0    0  0.00000000000E+00  0.00000000000E+00 -0.53259274206E+03  0.20697485337E+04  0.20000509903E+04 0.  0.
        1    1    3    3  502    0 -0.68090779540E+03 -0.23697037694E+02 -0.10238262381E+04  0.12298037003E+04  0.50400001928E-02 0.  1.
       -1    1    3    3    0  502  0.68090779540E+03  0.23697037694E+02  0.49123349605E+03  0.83994483336E+03  0.50400001928E-02 0. -1.
</event>
<event>
 5   0  0.4956214E-06  0.1999969E+04  0.7818609E-02  0.8606635E-01
        2   -1    0    0  501    0  0.00000000000E+00  0.00000000000E+00  0.15094806975E+04  0.15094806975E+04  0.25500000920E-02 0.  1.
       -2   -1    0    0    0  501  0.00000000000E+00  0.00000000000E+00 -0.66245901604E+03  0.66245901604E+03  0.25500000920E-02 0. -1.
    10030    2    1    2    0    0  0.00000000000E+00  0.00000000000E+00  0.84702168143E+03  0.21719397135E+04  0.19999690973E+04 0.  0.
        1    1    3    3  502    0  0.55815431372E+02 -0.28239814566E+03  0.14635124639E+04  0.14915538230E+04  0.50400001928E-02 0.  1.
       -1    1    3    3    0  502 -0.55815431372E+02  0.28239814566E+03 -0.61649078246E+03  0.68038589046E+03  0.50400001928E-02 0. -1.
</event>
<event>
 5   0  0.5251252E-06  0.2000977E+04  0.7818609E-02  0.8606164E-01
        2   -1    0    0  501    0  0.00000000000E+00  0.00000000000E+00  0.85562892206E+03  0.85562892206E+03  0.25500000920E-02 0. -1.
       -2   -1    0    0    0  501  0.00000000000E+00  0.00000000000E+00 -0.11698726167E+04  0.11698726167E+04  0.25500000920E-02 0.  1.
    10030    2    1    2    0    0  0.00000000000E+00  0.00000000000E+00 -0.31424369461E+03  0.20255015387E+04  0.20009766075E+04 0.  0.
        5    1    3    3  502    0 -0.24453976043E+03  0.86912570414E+03 -0.59342150215E+03  0.10804398888E+04  0.46999998093E+01 0.  1.
       -5    1    3    3    0  502  0.24453976043E+03 -0.86912570414E+03  0.27917780753E+03  0.94506164997E+03  0.46999998093E+01 0. -1.
</event>
<event>
 5   0  0.2386776E-06  0.1997659E+04  0.7818609E-02  0.8607716E-01
       -1   -1    0    0    0  501  0.00000000000E+00  0.00000000000E+00  0.12797943770E+04  0.12797943770E+04  0.50400001928E-02 0.  1.
        1   -1    0    0  501    0  0.00000000000E+00  0.00000000000E+00 -0.77954711657E+03  0.77954711658E+03  0.50400001928E-02 0. -1.
    10030    2    1    2    0    0  0.00000000000E+00  0.00000000000E+00  0.50024726042E+03  0.20593414936E+04  0.19976586459E+04 0.  0.
        2    1    3    3  502    0  0.49690936212E+02  0.85767961109E+03  0.77534185455E+03  0.11572547238E+04  0.25500000920E-02 0.  1.
       -2    1    3    3    0  502 -0.49690936212E+02 -0.85767961109E+03 -0.27509459412E+03  0.90208676975E+03  0.25500000920E-02 0. -1.
</event>
<event>
 5   0  0.2313821E-06  0.1999777E+04  0.7818609E-02  0.8606725E-01
        1   -1    0    0  501    0  0.00000000000E+00  0.00000000000E+00  0.95373520946E+03  0.95373520948E+03  0.50400001928E-02 0. -1.
       -1   -1    0    0    0  501  0.00000000000E+00  0.00000000000E+00 -0.10482749744E+04  0.10482749744E+04  0.50400001928E-02 0.  1.
    10030    2    1    2    0    0  0.00000000000E+00  0.00000000000E+00 -0.94539764919E+02  0.20020101839E+04  0.19997767398E+04 0.  0.
        1    1    3    3  502    0 -0.19369130670E+03 -0.39804005739E+03 -0.94483383166E+03  0.10433902334E+04  0.50400001928E-02 0.  1.
       -1    1    3    3    0  502  0.19369130670E+03  0.39804005739E+03  0.85029406674E+03  0.95861995052E+03  0.50400001928E-02 0. -1.
</event>
<event>
 5   0  0.5129100E-06  0.2000251E+04  0.7818609E-02  0.8606503E-01
        2   -1    0    0  501    0  0.00000000000E+00  0.00000000000E+00  0.97330505894E+03  0.97330505894E+03  0.25500000920E-02 0.  1.
       -2   -1    0    0    0  501  0.00000000000E+00  0.00000000000E+00 -0.10276849335E+04  0.10276849335E+04  0.25500000920E-02 0. -1.
    10030    2    1    2    0    0  0.00000000000E+00  0.00000000000E+00 -0.54379874518E+02  0.20009899924E+04  0.20002509290E+04 0.  0.
        2    1    3    3  502    0 -0.58654105779E+02 -0.98675932694E+03 -0.17928779065E+03  0.10046284812E+04  0.25500000920E-02 0. -1.
       -2    1    3    3    0  502  0.58654105779E+02  0.98675932694E+03  0.12490791614E+03  0.99636151117E+03  0.25500000920E-02 0.  1.
</event>
<event>
 5   0  0.2311520E-06  0.1999681E+04  0.7818609E-02  0.8606770E-01
        1   -1    0    0  501    0  0.00000000000E+00  0.00000000000E+00  0.10004204758E+04  0.10004204758E+04  0.50400001928E-02 0.  1.
       -1   -1    0    0    0  501  0.00000000000E+00  0.00000000000E+00 -0.99926043068E+03  0.99926043069E+03  0.50400001928E-02 0. -1.
    10030    2    1    2    0    0  0.00000000000E+00  0.00000000000E+00  0.11600450742E+01  0.19996809065E+04  0.19996805700E+04 0.  0.
        3    1    3    3  502    0 -0.34946143440E+03 -0.78158459611E+03 -0.51583347460E+03  0.99954087396E+03  0.10100000352E+00 0. -1.
       -3    1    3    3    0  502  0.34946143440E+03  0.78158459611E+03  0.51699351967E+03  0.10001400325E+04  0.10100000352E+00 0.  1.
</event>
<event>
 5   0  0.2311520E-06  0.1999825E+04  0.7818609E-02  0.8606702E-01
       -1   -1    0    0    0  501  0.00000000000E+00  0.00000000000E+00  0.96771348859E+03  0.96771348860E+03  0.50400001928E-02 0. -1.
        1   -1    0    0  501    0  0.00000000000E+00  0.00000000000E+00 -0.10331831797E+04  0.10331831797E+04  0.50400001928E-02 0.  1.
    10030    2    1    2    0    0  0.00000000000E+00  0.00000000000E+00 -0.65469691138E+02  0.20008966683E+04  0.19998252916E+04 0.  0.
        3    1    3    3  502    0 -0.75418025078E+03  0.20577496287E+03  0.59105252909E+03  0.98003790149E+03  0.10100000352E+00 0. -1.
       -3    1    3    3    0  502  0.75418025078E+03 -0.20577496287E+03 -0.65652222023E+03  0.10208587669E+04  0.10100000352E+00 0.  1.
</event>
<event>
 5   0  0.5129100E-06  0.2000425E+04  0.7818609E-02  0.8606422E-01
       -2   -1    0    0    0  501  0.00000000000E+00  0.00000000000E+00  0.74469232436E+03  0.74469232437E+03  0.25500000920E-02 0.  1.
        2   -1    0    0  501    0  0.00000000000E+00  0.00000000000E+00 -0.13434072565E+04  0.13434072565E+04  0.25500000920E-02 0. -1.
    10030    2    1    2    0    0  0.00000000000E+00  0.00000000000E+00 -0.59871493218E+03  0.20880995809E+04  0.20004250273E+04 0.  0.
        2    1    3    3  502    0  0.19988385073E+03  0.15366045525E+03 -0.13096944977E+04  0.13337408918E+04  0.25500000920E-02 0. -1.
       -2    1    3    3    0  502 -0.19988385073E+03 -0.15366045525E+03  0.71097956548E+03  0.75435868910E+03  0.25500000920E-02 0.  1.
</event>
<event>
 5   0  0.2379743E-06  0.1999048E+04  0.7818609E-02  0.8607066E-01
        1   -1    0    0  501    0  0.00000000000E+00  0.00000000000E+00  0.13100566723E+04  0.13100566723E+04  0.50400001928E-02 0. -1.
       -1   -1    0    0    0  501  0.00000000000E+00  0.00000000000E+00 -0.76259954500E+03  0.76259954501E+03  0.50400001928E-02 0.  1.
    10030    2    1    2    0    0  0.00000000000E+00  0.00000000000E+00  0.54745712731E+03  0.20726562173E+04  0.19990483959E+04 0.  0.
        5    1    3    3  502    0 -0.33685797800E+03 -0.41005355242E+03 -0.60445938321E+03  0.80436959736E+03  0.46999998093E+01 0.  1.
       -5    1    3    3    0  502  0.33685797800E+03  0.41005355242E+03  0.11519165105E+04  0.12682866200E+04  0.46999998093E+01 0. -1.
</event>
<event>
 5   0  0.5030137E-06  0.2000094E+04  0.7818609E-02  0.8606577E-01
       -2   -1    0    0    0  501  0.00000000000E+00  0.00000000000E+00  0.84266081789E+03  0.84266081790E+03  0.25500000920E-02 0.  1.
        2   -1    0    0  501    0  0.00000000000E+00  0.00000000000E+00 -0.11868285953E+04  0.11868285953E+04  0.25500000920E-02 0. -1.
    10030    2    1    2    0    0  0.00000000000E+00  0.00000000000E+00 -0.34416777738E+03  0.20294894132E+04  0.20000939526E+04 0.  0.
        3    1    3    3  502    0  0.96960568035E+03  0.19226267249E+03 -0.18218092235E+02  0.98865161695E+03  0.10100000352E+00 0.  1.
       -3    1    3    3    0  502 -0.96960568035E+03 -0.19226267249E+03 -0.32594968515E+03  0.10408377962E+04  0.10100000352E+00 0. -1.
</event>
<event>
 5   0  0.5030137E-06  0.1999481E+04  0.7818609E-02  0.8606863E-01
        2   -1    0    0  501    0  0.00000000000E+00  0.00000000000E+00  0.75114132684E+03  0.75114132685E+03  0.25500000920E-02 0.  1.
       -2   -1    0    0    0  501  0.00000000000E+00  0.00000000000E+00 -0.13306169948E+04  0.13306169948E+04  0.25500000920E-02 0. -1.
    10030    2    1    2    0    0  0.00000000000E+00  0.00000000000E+00 -0.57947566791E+03  0.20817583216E+04  0.19994813477E+04 0.  0.
        3    1    3    3  502    0  0.11322172555E+03  0.94793959283E+03 -0.59872026787E+03  0.11268871284E+04  0.10100000352E+00 0. -1.
       -3    1    3    3    0  502 -0.11322172555E+03 -0.94793959283E+03  0.19244599961E+02  0.95487119320E+03  0.10100000352E+00 0.  1.
</event>
<event>
 5   0  0.5129100E-06  0.1998803E+04  0.7818609E-02  0.8607180E-01
       -2   -1    0    0    0  501  0.00000000000E+00  0.00000000000E+00  0.51884907118E+03  0.51884907119E+03  0.25500000920E-02 0.  1.
        2   -1    0    0  501    0  0.00000000000E+00  0.00000000000E+00 -0.19250370730E+04  0.19250370730E+04  0.25500000920E-02 0. -1.
    10030    2    1    2    0    0  0.00000000000E+00  0.00000000000E+00 -0.14061880018E+04  0.24438861441E+04  0.19988033393E+04 0.  0.
        2    1    3    3  502    0 -0.72343050889E+03 -0.22105046475E+03  0.95480742003E+02  0.76245103532E+03  0.25500000920E-02 0.  1.
       -2    1    3    3    0  502  0.72343050889E+03  0.22105046475E+03 -0.15016687438E+04  0.16814351088E+04  0.25500000920E-02 0. -1.
</event>
<event>
 5   0  0.2356996E-06  0.1999898E+04  0.7818609E-02  0.8606668E-01
        1   -1    0    0  501    0  0.00000000000E+00  0.00000000000E+00  0.98175133182E+03  0.98175133183E+03  0.50400001928E-02 0.  1.
       -1   -1    0    0    0  501  0.00000000000E+00  0.00000000000E+00 -0.10184842144E+04  0.10184842144E+04  0.50400001928E-02 0. -1.
    10030    2    1    2    0    0  0.00000000000E+00  0.00000000000E+00 -0.36732882581E+02  0.20002355462E+04  0.19998982314E+04 0.  0.
        4    1    3    3  502    0  0.60222990412E+03  0.16711582115E+03  0.76233427965E+03  0.98578076768E+03  0.12699999809E+01 0.  1.
       -4    1    3    3    0  502 -0.60222990412E+03 -0.16711582115E+03 -0.79906716223E+03  0.10144547786E+04  0.12699999809E+01 0. -1.
</event>
<event>
 5   0  0.4956214E-06  0.2001287E+04  0.7818609E-02  0.8606019E-01
       -2   -1    0    0    0  501  0.00000000000E+00  0.00000000000E+00  0.59315663151E+03  0.59315663152E+03  0.25500000920E-02 0. -1.
        2   -1    0    0  501    0  0.00000000000E+00  0.00000000000E+00 -0.16880666198E+04  0.16880666198E+04  0.25500000920E-02 0.  1.
    10030    2    1    2    0    0  0.00000000000E+00  0.00000000000E+00 -0.10949099883E+04  0.22812232513E+04  0.20012874956E+04 0.  0.
        1    1    3    3  502    0 -0.81665074546E+03  0.34718990109E+03 -0.10745528469E+04  0.13936007636E+04  0.50400001928E-02 0. -1.
       -1    1    3    3    0  502  0.81665074546E+03 -0.34718990109E+03 -0.20357141382E+02  0.88762248772E+03  0.50400001928E-02 0.  1.
</event>
<event>
 5   0  0.5129100E-06  0.1999841E+04  0.7818609E-02  0.8606695E-01
       -2   -1    0    0    0  501  0.00000000000E+00  0.00000000000E+00  0.61299248523E+03  0.61299248524E+03  0.25500000920E-02 0.  1.
        2   -1    0    0  501    0  0.00000000000E+00  0.00000000000E+00 -0.16310826559E+04  0.16310826559E+04  0.25500000920E-02 0. -1.
    10030    2    1    2    0    0  0.00000000000E+00  0.00000000000E+00 -0.10180901707E+04  0.22440751412E+04  0.19998414046E+04 0.  0.
        2    1    3    3  502    0 -0.93431505680E+03 -0.35405129146E+03 -0.55314435247E+03  0.11420444899E+04  0.25500000920E-02 0.  1.
       -2    1    3    3    0  502  0.93431505680E+03  0.35405129146E+03 -0.46494581824E+03  0.11020306512E+04  0.25500000920E-02 0. -1.
</event>
<event>
 5   0  0.4956214E-06  0.1999271E+04  0.7818609E-02  0.8606961E-01
       -2   -1    0    0    0  501  0.00000000000E+00  0.00000000000E+00  0.11138557928E+04  0.11138557928E+04  0.25500000920E-02 0. -1.
        2   -1    0    0  501    0  0.00000000000E+00  0.00000000000E+00 -0.89712818940E+03  0.89712818941E+03  0.25500000920E-02 0.  1.
    10030    2    1    2    0    0  0.00000000000E+00  0.00000000000E+00  0.21672760339E+03  0.20109839822E+04  0.19992712979E+04 0.  0.
        1    1    3    3  502    0 -0.73200576809E+03 -0.45327918877E+03 -0.40252612913E+03  0.95043240272E+03  0.50400001928E-02 0.  1.
       -1    1    3    3    0  502  0.73200576809E+03  0.45327918877E+03  0.61925373252E+03  0.10605515795E+04  0.50400001928E-02 0. -1.
</event>
<event>
 5   0  0.5030137E-06  0.1999406E+04  0.7818609E-02  0.8606898E-01
       -2   -1    0    0    0  501  0.00000000000E+00  0.00000000000E+00  0.96192354003E+03  0.96192354003E+03  0.25500000920E-02 0.  1.
        2   -1    0    0  501    0  0.00000000000E+00  0.00000000000E+00 -0.10389662636E+04  0.10389662636E+04  0.25500000920E-02 0. -1.
    10030    2    1    2    0    0  0.00000000000E+00  0.00000000000E+00 -0.77042723536E+02  0.20008898036E+04  0.19994060180E+04 0.  0.
        3    1    3    3  502    0 -0.40090074389E+03  0.16697216570E+03  0.86259397499E+03  0.96574814857E+03  0.10100000352E+00 0.  1.
       -3    1    3    3    0  502  0.40090074389E+03 -0.16697216570E+03 -0.93963669852E+03  0.10351416550E+04  0.10100000352E+00 0. -1.
</event>
<event>
 5   0  0.2386776E-06  0.1999700E+04  0.7818609E-02  0.8606761E-01
        1   -1    0    0  501    0  0.00000000000E+00  0.00000000000E+00  0.98159554604E+03  0.98159554605E+03  0.50400001928E-02 0.  1.
       -1   -1    0    0    0  501  0.00000000000E+00  0.00000000000E+00 -0.10184442907E+04  0.10184442907E+04  0.50400001928E-02 0. -1.
    10030    2    1    2    0    0  0.00000000000E+00  0.00000000000E+00 -0.36848744640E+02  0.20000398367E+04  0.19997003572E+04 0.  0.
        2    1    3    3  502    0  0.87531621959E+03 -0.47712845713E+03  0.58206718501E+02  0.99860806674E+03  0.25500000920E-02 0.  1.
       -2    1    3    3    0  502 -0.87531621959E+03  0.47712845713E+03 -0.95055463141E+02  0.10014317700E+04  0.25500000920E-02 0. -1.
</event>
<event>
 5   0  0.5030137E-06  0.1999430E+04  0.7818609E-02  0.8606887E-01
        2   -1    0    0  501    0  0.00000000000E+00  0.00000000000E+00  0.17724715249E+04  0.17724715249E+04  0.25500000920E-02 0.  1.
       -2   -1    0    0    0  501  0.00000000000E+00  0.00000000000E+00 -0.56386258253E+03  0.56386258254E+03  0.25500000920E-02 0. -1.
    10030    2    1    2    0    0  0.00000000000E+00  0.00000000000E+00  0.12086089424E+04  0.23363341074E+04  0.19994302904E+04 0.  0.
        3    1    3    3  502    0  0.11083196410E+03  0.88267650594E+03  0.11372593446E+04  0.14438699268E+04  0.10100000352E+00 0.  1.
       -3    1    3    3    0  502 -0.11083196410E+03 -0.88267650594E+03  0.71349597743E+02  0.89246418063E+03  0.10100000352E+00 0. -1.
</event>
<event>
 5   0  0.5118981E-06  0.1999955E+04  0.7818609E-02  0.8606642E-01
        2   -1    0    0  501    0  0.00000000000E+00  0.00000000000E+00  0.89836895613E+03  0.89836895614E+03  0.25500000920E-02 0.  1.
       -2   -1    0    0    0  501  0.00000000000E+00  0.00000000000E+00 -0.11130777648E+04  0.11130777648E+04  0.25500000920E-02 0. -1.
    10030    2    1    2    0    0  0.00000000000E+00  0.00000000000E+00 -0.21470880866E+03  0.20114467209E+04  0.19999545091E+04 0.  0.
        4    1    3    3  502    0  0.23628942702E+03  0.97050968922E+03 -0.59847966535E+02  0.10006523583E+04  0.12699999809E+01 0.  1.
       -4    1    3    3    0  502 -0.23628942702E+03 -0.97050968922E+03 -0.15486084213E+03  0.10107943626E+04  0.12699999809E+01 0. -1.
</event>
<event>
 5   0  0.2313821E-06  0.1999899E+04  0.7818609E-02  0.8606668E-01
       -1   -1    0    0    0  501  0.00000000000E+00  0.00000000000E+00  0.18260148457E+04  0.18260148457E+04  0.50400001928E-02 0.  1.
        1   -1    0    0  501    0  0.00000000000E+00  0.00000000000E+00 -0.54758552621E+03  0.54758552623E+03  0.50400001928E-02 0. -1.
    10030    2    1    2    0    0  0.00000000000E+00  0.00000000000E+00  0.12784293195E+04  0.23736003720E+04  0.19998992977E+04 0.  0.
        1    1    3    3  502    0  0.41735318596E+03 -0.15021198870E+03  0.17028636688E+04  0.17596851985E+04  0.50400001928E-02 0.  1.
       -1    1    3    3    0  502 -0.41735318596E+03  0.15021198870E+03 -0.42443434924E+03  0.61391517347E+03  0.50400001928E-02 0. -1.
</event>
<event>
 5   0  0.2386776E-06  0.2000591E+04  0.7818609E-02  0.8606344E-01
       -1   -1    0    0    0  501  0.00000000000E+00  0.00000000000E+00  0.10572504005E+04  0.10572504005E+04  0.50400001928E-02 0.  1.
        1   -1    0    0  501    0  0.00000000000E+00  0.00000000000E+00 -0.94640890986E+03  0.94640890987E+03  0.50400001928E-02 0. -1.
    10030    2    1    2    0    0  0.00000000000E+00  0.00000000000E+00  0.11084149061E+03  0.20036593103E+04  0.20005911116E+04 0.  0.
        2    1    3    3  502    0 -0.34168817906E+03 -0.22658599700E+03 -0.85839250121E+03  0.95127793620E+03  0.25500000920E-02 0. -1.
       -2    1    3    3    0  502  0.34168817906E+03  0.22658599700E+03  0.96923399182E+03  0.10523813741E+04  0.25500000920E-02 0.  1.
</event>
<event>
 5   0  0.2379743E-06  0.2000627E+04  0.7818609E-02  0.8606328E-01
        1   -1    0    0  501    0  0.00000000000E+00  0.00000000000E+00  0.19411457175E+04  0.19411457175E+04  0.50400001928E-02 0.  1.
       -1   -1    0    0    0  501  0.00000000000E+00  0.00000000000E+00 -0.51548250295E+03  0.51548250297E+03  0.50400001928E-02 0. -1.
    10030    2    1    2    0    0  0.00000000000E+00  0.00000000000E+00  0.14256632145E+04  0.24566282204E+04  0.20006265549E+04 0.  0.
        5    1    3    3  502    0 -0.24896485316E+03 -0.13386170110E+03  0.18910694753E+04  0.19120848055E+04  0.46999998093E+01 0.  1.
       -5    1    3    3    0  502  0.24896485316E+03  0.13386170110E+03 -0.46540626080E+03  0.54454341490E+03  0.46999998093E+01 0. -1.
</event>
<event>
 5   0  0.1777750E-06  0.2000367E+04  0.7818609E-02  0.8606449E-01
       -3   -1    0    0    0  501  0.00000000000E+00  0.00000000000E+00  0.17943666288E+04  0.17943666317E+04  0.10100000352E+00 0.  1.
        3   -1    0    0  501    0  0.00000000000E+00  0.00000000000E+00 -0.55750414835E+03  0.55750415750E+03  0.10100000352E+00 0. -1.
    10030    2    1    2    0    0  0.00000000000E+00  0.00000000000E+00  0.12368624805E+04  0.23518707892E+04  0.20003668197E+04 0.  0.
        5    1    3    3  502    0  0.86772084066E+03 -0.19606492589E+02  0.12027780242E+04  0.14832467554E+04  0.46999998093E+01 0.  1.
       -5    1    3    3    0  502 -0.86772084066E+03  0.19606492589E+02  0.34084456239E+02  0.86862403376E+03  0.46999998093E+01 0. -1.
</event>
<event>
 5   0  0.2311520E-06  0.1998786E+04  0.7818609E-02  0.8607188E-01
       -1   -1    0    0    0  501  0.00000000000E+00  0.00000000000E+00  0.93969242269E+03  0.93969242270E+03  0.50400001928E-02 0.  1.
        1   -1    0    0  501    0  0.00000000000E+00  0.00000000000E+00 -0.10628864553E+04  0.10628864553E+04  0.50400001928E-02 0. -1.
    10030    2    1    2    0    0  0.00000000000E+00  0.00000000000E+00 -0.12319403263E+03  0.20025788780E+04  0.19987859798E+04 0.  0.
        3    1    3    3  502    0  0.33281250065E+03  0.86233720949E+02  0.87857908163E+03  0.94345197445E+03  0.10100000352E+00 0.  1.
       -3    1    3    3    0  502 -0.33281250065E+03 -0.86233720949E+02 -0.10017731143E+04  0.10591269036E+04  0.10100000352E+00 0. -1.
</event>
<event>
 5   0  0.5118981E-06  0.2001856E+04  0.7818609E-02  0.8605754E-01
       -2   -1    0    0    0  501  0.00000000000E+00  0.00000000000E+00  0.38933313166E+03  0.38933313167E+03  0.25500000920E-02 0.  1.
        2   -1    0    0  501    0  0.00000000000E+00  0.00000000000E+00 -0.25732633005E+04  0.25732633005E+04  0.25500000920E-02 0. -1.
    10030    2    1    2    0    0  0.00000000000E+00  0.00000000000E+00 -0.21839301689E+04  0.29625964322E+04  0.20018557984E+04 0.  0.
        4    1    3    3  502    0 -0.73687973003E+03 -0.67633313274E+03 -0.11480619242E+04  0.15226509901E+04  0.12699999809E+01 0.  1.
       -4    1    3    3    0  502  0.73687973003E+03  0.67633313274E+03 -0.10358682447E+04  0.14399454421E+04  0.12699999809E+01 0. -1.
</event>
<event>
 5   0  0.2313821E-06  0.1999755E+04  0.7818609E-02  0.8606735E-01
       -1   -1    0    0    0  501  0.00000000000E+00  0.00000000000E+00  0.83049808165E+03  0.83049808167E+03  0.50400001928E-02 0.  1.
        1   -1    0    0  501    0  0.00000000000E+00  0.00000000000E+00 -0.12038016270E+04  0.12038016270E+04  0.50400001928E-02 0. -1.
    10030    2    1    2    0    0  0.00000000000E+00  0.00000000000E+00 -0.37330354532E+03  0.20342997087E+04  0.19997549269E+04 0.  0.
        1    1    3    3  502    0  0.44450987291E+03  0.16953964754E+03 -0.10812880086E+04  0.11813198030E+04  0.50400001928E-02 0. -1.
       -1    1    3    3    0  502 -0.44450987291E+03 -0.16953964754E+03  0.70798446332E+03  0.85297990570E+03  0.50400001928E-02 0.  1.
</event>
<event>
 5   0  0.5251252E-06  0.1999626E+04  0.7818609E-02  0.8606796E-01
        2   -1    0    0  501    0  0.00000000000E+00  0.00000000000E+00  0.15114912143E+04  0.15114912143E+04  0.25500000920E-02 0. -1.
       -2   -1    0    0    0  501  0.00000000000E+00  0.00000000000E+00 -0.66135079309E+03  0.66135079310E+03  0.25500000920E-02 0.  1.
    10030    2    1    2    0    0  0.00000000000E+00  0.00000000000E+00  0.85014042120E+03  0.21728420074E+04  0.19996258783E+04 0.  0.
        5    1    3    3  502    0 -0.61660684208E+03  0.78663769458E+03  0.39843210668E+03  0.10759986496E+04  0.46999998093E+01 0. -1.
       -5    1    3    3    0  502  0.61660684208E+03 -0.78663769458E+03  0.45170831452E+03  0.10968433578E+04  0.46999998093E+01 0.  1.
</event>
<event>
 5   0  0.5251252E-06  0.2002428E+04  0.7818609E-02  0.8605486E-01
        2   -1    0    0  501    0  0.00000000000E+00  0.00000000000E+00  0.24763678892E+04  0.24763678892E+04  0.25500000920E-02 0. -1.
       -2   -1    0    0    0  501  0.00000000000E+00  0.00000000000E+00 -0.40479826518E+03  0.40479826519E+03  0.25500000920E-02 0.  1.
    10030    2    1    2    0    0  0.00000000000E+00  0.00000000000E+00  0.20715696240E+04  0.28811661544E+04  0.20024279518E+04 0.  0.
        5    1    3    3  502    0 -0.69305073515E+03 -0.20160080773E+03  0.20341393669E+04  0.21584038689E+04  0.46999998093E+01 0. -1.
       -5    1    3    3    0  502  0.69305073515E+03  0.20160080773E+03  0.37430257073E+02  0.72276228547E+03  0.46999998093E+01 0.  1.
</event>
<event>
 5   0  0.5251252E-06  0.1997730E+04  0.7818609E-02  0.8607683E-01
        2   -1    0    0  501    0  0.00000000000E+00  0.00000000000E+00  0.17833822621E+04  0.17833822621E+04  0.25500000920E-02 0.  1.
       -2   -1    0    0    0  501  0.00000000000E+00  0.00000000000E+00 -0.55946036729E+03  0.55946036730E+03  0.25500000920E-02 0. -1.
    10030    2    1    2    0    0  0.00000000000E+00  0.00000000000E+00  0.12239218948E+04  0.23428426294E+04  0.19977304076E+04 0.  0.
        5    1    3    3  502    0  0.66505776108E+03  0.17750894365E+03  0.14608086056E+04  0.16148669056E+04  0.46999998093E+01 0.  1.
       -5    1    3    3    0  502 -0.66505776108E+03 -0.17750894365E+03 -0.23688671081E+03  0.72797572378E+03  0.46999998093E+01 0. -1.
</event>
<event>
 5   0  0.5129100E-06  0.1999993E+04  0.7818609E-02  0.8606624E-01
        2   -1    0    0  501    0  0.00000000000E+00  0.00000000000E+00  0.15402702869E+04  0.15402702869E+04  0.25500000920E-02 0.  1.
       -2   -1    0    0    0  501  0.00000000000E+00  0.00000000000E+00 -0.64923199785E+03  0.64923199786E+03  0.25500000920E-02 0. -1.
    10030    2    1    2    0    0  0.00000000000E+00  0.00000000000E+00  0.89103828907E+03  0.21895022848E+04  0.19999927556E+04 0.  0.
        2    1    3    3  502    0 -0.39428982794E+03 -0.89959643928E+03  0.65107245102E+03  0.11784029695E+04  0.25500000920E-02 0.  1.
       -2    1    3    3    0  502  0.39428982794E+03  0.89959643928E+03  0.23996583805E+03  0.10110993153E+04  0.25500000920E-02 0. -1.
</event>
<event>
 5   0  0.2356996E-06  0.2000039E+04  0.7818609E-02  0.8606602E-01
        1   -1    0    0  501    0  0.00000000000E+00  0.00000000000E+00  0.98325963783E+03  0.98325963784E+03  0.50400001928E-02 0. -1.
       -1   -1    0    0    0  501  0.00000000000E+00  0.00000000000E+00 -0.10170650780E+04  0.10170650780E+04  0.50400001928E-02 0.  1.
    10030    2    1    2    0    0  0.00000000000E+00  0.00000000000E+00 -0.33805440191E+02  0.20003247159E+04  0.20000390399E+04 0.  0.
        4    1    3    3  502    0  0.29113462440E+03  0.62742882159E+02  0.93787565756E+03  0.98402662603E+03  0.12699999809E+01 0. -1.
       -4    1    3    3    0  502 -0.29113462440E+03 -0.62742882159E+02 -0.97168109776E+03  0.10162980898E+04  0.12699999809E+01 0.  1.
</event>
<event>
 5   0  0.4956214E-06  0.2000650E+04  0.7818609E-02  0.8606317E-01
        2   -1    0    0  501    0  0.00000000000E+00  0.00000000000E+00  0.18494823919E+04  0.18494823919E+04  0.25500000920E-02 0. -1.
       -2   -1    0    0    0  501  0.00000000000E+00  0.00000000000E+00 -0.54104323840E+03  0.54104323840E+03  0.25500000920E-02 0.  1.
    10030    2    1    2    0    0  0.00000000000E+00  0.00000000000E+00  0.13084391535E+04  0.23905256303E+04  0.20006498371E+04 0.  0.
        1    1    3    3  502    0  0.28031096875E+03  0.38055831584E+03 -0.39920388352E+03  0.61867811630E+03  0.50400001928E-02 0.  1.
       -1    1    3    3    0  502 -0.28031096875E+03 -0.38055831584E+03  0.17076430370E+04  0.17718475140E+04  0.50400001928E-02 0. -1.
</event>
<event>
 5   0  0.5251252E-06  0.1999911E+04  0.7818609E-02  0.8606662E-01
       -2   -1    0    0    0  501  0.00000000000E+00  0.00000000000E+00  0.86913384725E+03  0.86913384726E+03  0.25500000920E-02 0.  1.
        2   -1    0    0  501    0  0.00000000000E+00  0.00000000000E+00 -0.11504680757E+04  0.11504680757E+04  0.25500000920E-02 0. -1.
    10030    2    1    2    0    0  0.00000000000E+00  0.00000000000E+00 -0.28133422840E+03  0.20196019229E+04  0.19999107427E+04 0.  0.
        5    1    3    3  502    0  0.53022310009E+03  0.81132295192E+03 -0.38907114695E+03  0.10444040959E+04  0.46999998093E+01 0. -1.
       -5    1    3    3    0  502 -0.53022310009E+03 -0.81132295192E+03  0.10773691855E+03  0.97519782700E+03  0.46999998093E+01 0.  1.
</event>
<event>
 5   0  0.5118981E-06  0.2000240E+04  0.7818609E-02  0.8606508E-01
       -2   -1    0    0    0  501  0.00000000000E+00  0.00000000000E+00  0.62520459084E+03  0.62520459084E+03  0.25500000920E-02 0. -1.
        2   -1    0    0  501    0  0.00000000000E+00  0.00000000000E+00 -0.15998608056E+04  0.15998608056E+04  0.25500000920E-02 0.  1.
    10030    2    1    2    0    0  0.00000000000E+00  0.00000000000E+00 -0.97465621477E+03  0.22250653965E+04  0.20002403059E+04 0.  0.
        4    1    3    3  502    0 -0.61891010295E+03  0.15058958826E+03  0.37038260301E+03  0.73682550522E+03  0.12699999809E+01 0. -1.
       -4    1    3    3    0  502  0.61891010295E+03 -0.15058958826E+03 -0.13450388178E+04  0.14882398912E+04  0.12699999809E+01 0.  1.
</event>
<event>
 5   0  0.5251252E-06  0.2000035E+04  0.7818609E-02  0.8606605E-01
        2   -1    0    0  501    0  0.00000000000E+00  0.00000000000E+00  0.12891690952E+04  0.12891690952E+04  0.25500000920E-02 0.  1.
       -2   -1    0    0    0  501  0.00000000000E+00  0.00000000000E+00 -0.77572020265E+03  0.77572020266E+03  0.25500000920E-02 0. -1.
    10030    2    1    2    0    0  0.00000000000E+00  0.00000000000E+00  0.51344889258E+03  0.20648892979E+04  0.20000345115E+04 0.  0.
        5    1    3    3  502    0  0.23486911793E+03 -0.21355978217E+03 -0.72230863586E+03  0.78900135523E+03  0.46999998093E+01 0. -1.
       -5    1    3    3    0  502 -0.23486911793E+03  0.21355978217E+03  0.12357575284E+04  0.12758879427E+04  0.46999998093E+01 0.  1.
</event>
<event>
 5   0  0.5251252E-06  0.1999741E+04  0.7818609E-02  0.8606742E-01
        2   -1    0    0  501    0  0.00000000000E+00  0.00000000000E+00  0.10673743605E+04  0.10673743605E+04  0.25500000920E-02 0. -1.
       -2   -1    0    0    0  501  0.00000000000E+00  0.00000000000E+00 -0.93663591642E+03  0.93663591642E+03  0.25500000920E-02 0.  1.
    10030    2    1    2    0    0  0.00000000000E+00  0.00000000000E+00  0.13073844410E+03  0.20040102769E+04  0.19997411456E+04 0.  0.
        5    1    3    3  502    0  0.46123039738E+03  0.56314517436E+03  0.75229088506E+03  0.10468188156E+04  0.46999998093E+01 0. -1.
       -5    1    3    3    0  502 -0.46123039738E+03 -0.56314517436E+03 -0.62155244097E+03  0.95719146138E+03  0.46999998093E+01 0.  1.
</event>
<event>
 5   0  0.2356996E-06  0.2000098E+04  0.7818609E-02  0.8606575E-01
        1   -1    0    0  501    0  0.00000000000E+00  0.00000000000E+00  0.10924942851E+04  0.10924942851E+04  0.50400001928E-02 0.  1.
       -1   -1    0    0    0  501  0.00000000000E+00  0.00000000000E+00 -0.91542647868E+03  0.91542647869E+03  0.50400001928E-02 0. -1.
    10030    2    1    2    0    0  0.00000000000E+00  0.00000000000E+00  0.17706780640E+03  0.20079207638E+04  0.20000981940E+04 0.  0.
        4    1    3    3  502    0  0.57435900597E+01  0.71817454828E+03  0.78716436253E+03  0.10655688702E+04  0.12699999809E+01 0.  1.
       -4    1    3    3    0  502 -0.57435900597E+01 -0.71817454828E+03 -0.61009655613E+03  0.94235189357E+03  0.12699999809E+01 0. -1.
</event>
<event>
 5   0  0.2311520E-06  0.1999979E+04  0.7818609E-02  0.8606631E-01
       -1   -1    0    0    0  501  0.00000000000E+00  0.00000000000E+00  0.94035048520E+03  0.94035048521E+03  0.50400001928E-02 0. -1.
        1   -1    0    0  501    0  0.00000000000E+00  0.00000000000E+00 -0.10634104274E+04  0.10634104274E+04  0.50400001928E-02 0.  1.
    10030    2    1    2    0    0  0.00000000000E+00  0.00000000000E+00 -0.12305994223E+03  0.20037609126E+04  0.19999785113E+04 0.  0.
        3    1    3    3  502    0  0.61071266919E+02  0.72817530790E+03 -0.74546991241E+03  0.10438842748E+04  0.10100000352E+00 0.  1.
       -3    1    3    3    0  502 -0.61071266919E+02 -0.72817530790E+03  0.62240997018E+03  0.95987663784E+03  0.10100000352E+00 0. -1.
</event>
<event>
 5   0  0.2379743E-06  0.1999978E+04  0.7818609E-02  0.8606631E-01
       -1   -1    0    0    0  501  0.00000000000E+00  0.00000000000E+00  0.46683699931E+03  0.46683699933E+03  0.50400001928E-02 0.  1.
        1   -1    0    0  501    0  0.00000000000E+00  0.00000000000E+00 -0.21420285141E+04  0.21420285141E+04  0.50400001928E-02 0. -1.
    10030    2    1    2    0    0  0.00000000000E+00  0.00000000000E+00 -0.16751915148E+04  0.26088655134E+04  0.19999781639E+04 0.  0.
        5    1    3    3  502    0  0.78495951153E+03 -0.22001689166E+03 -0.82156266347E+02  0.81935377552E+03  0.46999998093E+01 0.  1.
       -5    1    3    3    0  502 -0.78495951153E+03  0.22001689166E+03 -0.15930352484E+04  0.17895117379E+04  0.46999998093E+01 0. -1.
</event>
<event>
 5   0  0.4956214E-06  0.1998975E+04  0.7818609E-02  0.8607100E-01
        2   -1    0    0  501    0  0.00000000000E+00  0.00000000000E+00  0.14668860901E+04  0.14668860901E+04  0.25500000920E-02 0.  1.
       -2   -1    0    0    0  501  0.00000000000E+00  0.00000000000E+00 -0.68101741956E+03  0.68101741957E+03  0.25500000920E-02 0. -1.
    10030    2    1    2    0    0  0.00000000000E+00  0.00000000000E+00  0.78586867057E+03  0.21479035097E+04  0.19989747171E+04 0.  0.
        1    1    3    3  502    0  0.22896691457E+03 -0.48217979429E+03 -0.51503737801E+03  0.74174571300E+03  0.50400001928E-02 0. -1.
       -1    1    3    3    0  502 -0.22896691457E+03  0.48217979429E+03  0.13009060486E+04  0.14061577967E+04  0.50400001928E-02 0.  1.
</event>
<event>
 5   0  0.5251252E-06  0.1998396E+04  0.7818609E-02  0.8607371E-01
       -2   -1    0    0    0  501  0.00000000000E+00  0.00000000000E+00  0.61312996977E+03  0.61312996977E+03  0.25500000920E-02 0.  1.
        2   -1    0    0  501    0  0.00000000000E+00  0.00000000000E+00 -0.16283608817E+04  0.16283608817E+04  0.25500000920E-02 0. -1.
    10030    2    1    2    0    0  0.00000000000E+00  0.00000000000E+00 -0.10152309119E+04  0.22414908515E+04  0.19983962151E+04 0.  0.
        5    1    3    3  502    0 -0.69739476076E+03 -0.34221579652E+03 -0.12124723536E+04  0.14399938895E+04  0.46999998093E+01 0. -1.
       -5    1    3    3    0  502  0.69739476076E+03  0.34221579652E+03  0.19724144163E+03  0.80149696195E+03  0.46999998093E+01 0.  1.
</event>
<event>
 5   0  0.2379743E-06  0.2001320E+04  0.7818609E-02  0.8606004E-01
       -1   -1    0    0    0  501  0.00000000000E+00  0.00000000000E+00  0.91301145198E+03  0.91301145199E+03  0.50400001928E-02 0.  1.
        1   -1    0    0  501    0  0.00000000000E+00  0.00000000000E+00 -0.10967232216E+04  0.10967232216E+04  0.50400001928E-02 0. -1.
    10030    2    1    2    0    0  0.00000000000E+00  0.00000000000E+00 -0.18371176959E+03  0.20097346736E+04  0.20013204251E+04 0.  0.
        5    1    3    3  502    0  0.93127518102E+03 -0.35008195329E+03  0.15682793236E+02  0.99503712333E+03  0.46999998093E+01 0. -1.
       -5    1    3    3    0  502 -0.93127518102E+03  0.35008195329E+03 -0.19939456282E+03  0.10146975502E+04  0.46999998093E+01 0.  1.
</event>
<event>
 5   0  0.2313821E-06  0.1998576E+04  0.7818609E-02  0.8607287E-01
        1   -1    0    0  501    0  0.00000000000E+00  0.00000000000E+00  0.18994091840E+04  0.18994091840E+04  0.50400001928E-02 0. -1.
       -1   -1    0    0    0  501  0.00000000000E+00  0.00000000000E+00 -0.52573029026E+03  0.52573029028E+03  0.50400001928E-02 0.  1.
    10030    2    1    2    0    0  0.00000000000E+00  0.00000000000E+00  0.13736788937E+04  0.24251394742E+04  0.19985764350E+04 0.  0.
        1    1    3    3  502    0  0.65901218952E+03 -0.26786922940E+03  0.15384293777E+04  0.16949383293E+04  0.50400001928E-02 0. -1.
       -1    1    3    3    0  502 -0.65901218952E+03  0.26786922940E+03 -0.16475048403E+03  0.73020114490E+03  0.50400001928E-02 0.  1.
</event>
<event>
 5   0  0.5118981E-06  0.1996896E+04  0.7818609E-02  0.8608073E-01
       -2   -1    0    0    0  501  0.00000000000E+00  0.00000000000E+00  0.12320675190E+04  0.12320675190E+04  0.25500000920E-02 0. -1.
        2   -1    0    0  501    0  0.00000000000E+00  0.00000000000E+00 -0.80912662233E+03  0.80912662233E+03  0.25500000920E-02 0.  1.
    10030    2    1    2    0    0  0.00000000000E+00  0.00000000000E+00  0.42294089663E+03  0.20411941413E+04  0.19968962217E+04 0.  0.
        4    1    3    3  502    0 -0.11655520818E+03  0.82425792333E+03 -0.35203986379E+03  0.90383622373E+03  0.12699999809E+01 0.  1.
       -4    1    3    3    0  502  0.11655520818E+03 -0.82425792333E+03  0.77498076042E+03  0.11373579176E+04  0.12699999809E+01 0. -1.
</event>
<event>
 5   0  0.2313821E-06  0.1999659E+04  0.7818609E-02  0.8606780E-01
       -1   -1    0    0    0  501  0.00000000000E+00  0.00000000000E+00  0.14204908268E+04  0.14204908268E+04  0.50400001928E-02 0.  1.
        1   -1    0    0  501    0  0.00000000000E+00  0.00000000000E+00 -0.70374210921E+03  0.70374210923E+03  0.50400001928E-02 0. -1.
    10030    2    1    2    0    0  0.00000000000E+00  0.00000000000E+00  0.71674871759E+03  0.21242329360E+04  0.19996591816E+04 0.  0.
        1    1    3    3  502    0 -0.65398317452E+03  0.18037598960E+03 -0.42183937724E+03  0.79886040732E+03  0.50400001928E-02 0. -1.
       -1    1    3    3    0  502  0.65398317452E+03 -0.18037598960E+03  0.11385880948E+04  0.13253725287E+04  0.50400001928E-02 0.  1.
</event>
<event>
 5   0  0.5118981E-06  0.2000021E+04  0.7818609E-02  0.8606611E-01
        2   -1    0    0  501    0  0.00000000000E+00  0.00000000000E+00  0.19048155357E+04  0.19048155357E+04  0.25500000920E-02 0.  1.
       -2   -1    0    0    0  501  0.00000000000E+00  0.00000000000E+00 -0.52499620809E+03  0.52499620810E+03  0.25500000920E-02 0. -1.
    10030    2    1    2    0    0  0.00000000000E+00  0.00000000000E+00  0.13798193276E+04  0.24298117438E+04  0.20000209332E+04 0.  0.
        4    1    3    3  502    0 -0.79575002390E+03 -0.44377302648E+03  0.11906265492E+04  0.14992484091E+04  0.12699999809E+01 0.  1.
       -4    1    3    3    0  502  0.79575002390E+03  0.44377302648E+03  0.18919277837E+03  0.93056333468E+03  0.12699999809E+01 0. -1.
</event>
<event>
 5   0  0.4956214E-06  0.2000588E+04  0.7818609E-02  0.8606346E-01
       -2   -1    0    0    0  501  0.00000000000E+00  0.00000000000E+00  0.97033325800E+03  0.97033325800E+03  0.25500000920E-02 0.  1.
        2   -1    0    0  501    0  0.00000000000E+00  0.00000000000E+00 -0.10311796235E+04  0.10311796235E+04  0.25500000920E-02 0. -1.
    10030    2    1    2    0    0  0.00000000000E+00  0.00000000000E+00 -0.60846365522E+02  0.20015128815E+04  0.20005877973E+04 0.  0.
        1    1    3    3  502    0 -0.61040798994E+03 -0.76838570103E+03 -0.22435136607E+03  0.10066518938E+04  0.50400001928E-02 0. -1.
       -1    1    3    3    0  502  0.61040798994E+03  0.76838570103E+03  0.16350500055E+03  0.99486098776E+03  0.50400001928E-02 0.  1.
</event>
<event>
 5   0  0.2386776E-06  0.1999541E+04  0.7818609E-02  0.8606835E-01
        1   -1    0    0  501    0  0.00000000000E+00  0.00000000000E+00  0.20796210539E+04  0.20796210539E+04  0.50400001928E-02 0. -1.
       -1   -1    0    0    0  501  0.00000000000E+00  0.00000000000E+00 -0.48063608503E+03  0.48063608505E+03  0.50400001928E-02 0.  1.
    10030    2    1    2    0    0  0.00000000000E+00  0.00000000000E+00  0.15989849688E+04  0.25602571389E+04  0.19995408690E+04 0.  0.
        2    1    3    3  502    0 -0.12620791106E+03  0.37231679656E+03 -0.37751649474E+03  0.54503847353E+03  0.25500000920E-02 0.  1.
       -2    1    3    3    0  502  0.12620791106E+03 -0.37231679656E+03  0.19765014636E+04  0.20152186654E+04  0.25500000920E-02 0. -1.
</event>
<event>
 5   0  0.2313821E-06  0.2000409E+04  0.7818609E-02  0.8606429E-01
       -1   -1    0    0    0  501  0.00000000000E+00  0.00000000000E+00  0.11245909238E+04  0.11245909238E+04  0.50400001928E-02 0.  1.
        1   -1    0    0  501    0  0.00000000000E+00  0.00000000000E+00 -0.88957624569E+03  0.88957624571E+03  0.50400001928E-02 0. -1.
    10030    2    1    2    0    0  0.00000000000E+00  0.00000000000E+00  0.23501467810E+03  0.20141671695E+04  0.20004093301E+04 0.  0.
        1    1    3    3  502    0  0.50500103277E+03  0.84104578697E+03  0.31384926210E+03  0.10299929214E+04  0.50400001928E-02 0.  1.
       -1    1    3    3    0  502 -0.50500103277E+03 -0.84104578697E+03 -0.78834584000E+02  0.98417424806E+03  0.50400001928E-02 0. -1.
</event>
<event>
 5   0  0.1777750E-06  0.1994257E+04  0.7818609E-02  0.8609310E-01
       -3   -1    0    0    0  501  0.00000000000E+00  0.00000000000E+00  0.18696996183E+04  0.18696996210E+04  0.10100000352E+00 0. -1.
        3   -1    0    0  501    0  0.00000000000E+00  0.00000000000E+00 -0.53177799186E+03  0.53177800145E+03  0.10100000352E+00 0.  1.
    10030    2    1    2    0    0  0.00000000000E+00  0.00000000000E+00  0.13379216264E+04  0.24014776225E+04  0.19942568773E+04 0.  0.
        1    1    3    3  502    0 -0.54467247290E+03  0.27257564744E+03 -0.28174433965E+03  0.67107783398E+03  0.50400001928E-02 0.  1.
       -1    1    3    3    0  502  0.54467247290E+03 -0.27257564744E+03  0.16196659661E+04  0.17303997885E+04  0.50400001928E-02 0. -1.
</event>
<event>
 5   0  0.5118981E-06  0.2000186E+04  0.7818609E-02  0.8606533E-01
        2   -1    0    0  501    0  0.00000000000E+00  0.00000000000E+00  0.11275373758E+04  0.11275373758E+04  0.25500000920E-02 0. -1.
       -2   -1    0    0    0  501  0.00000000000E+00  0.00000000000E+00 -0.88705392972E+03  0.88705392973E+03  0.25500000920E-02 0.  1.
    10030    2    1    2    0    0  0.00000000000E+00  0.00000000000E+00  0.24048344605E+03  0.20145913055E+04  0.20001864514E+04 0.  0.
        4    1    3    3  502    0  0.47467895742E+03 -0.24729829092E+03  0.97113843356E+03  0.11088679035E+04  0.12699999809E+01 0. -1.
       -4    1    3    3    0  502 -0.47467895742E+03  0.24729829092E+03 -0.73065498751E+03  0.90572340203E+03  0.12699999809E+01 0.  1.
</event>
<event>
 5   0  0.2356996E-06  0.1999591E+04  0.7818609E-02  0.8606812E-01
        1   -1    0    0  501    0  0.00000000000E+00  0.00000000000E+00  0.25920952894E+04  0.25920952894E+04  0.50400001928E-02 0. -1.
       -1   -1    0    0    0  501  0.00000000000E+00  0.00000000000E+00 -0.38563055497E+03  0.38563055500E+03  0.50400001928E-02 0.  1.
    10030    2    1    2    0    0  0.00000000000E+00  0.00000000000E+00  0.22064647344E+04  0.29777258444E+04  0.19995911032E+04 0.  0.
        4    1    3    3  502    0 -0.38074434809E+03 -0.60845300824E+03  0.66780204183E+02  0.72086235191E+03  0.12699999809E+01 0.  1.
       -4    1    3    3    0  502  0.38074434809E+03  0.60845300824E+03  0.21396845303E+04  0.22568634925E+04  0.12699999809E+01 0. -1.
</event>
<event>
 5   0  0.5118981E-06  0.1999495E+04  0.7818609E-02  0.8606857E-01
       -2   -1    0    0    0  501  0.00000000000E+00  0.00000000000E+00  0.57345917569E+03  0.57345917570E+03  0.25500000920E-02 0.  1.
        2   -1    0    0  501    0  0.00000000000E+00  0.00000000000E+00 -0.17429236059E+04  0.17429236059E+04  0.25500000920E-02 0. -1.
    10030    2    1    2    0    0  0.00000000000E+00  0.00000000000E+00 -0.11694644302E+04  0.23163827816E+04  0.19994954707E+04 0.  0.
        4    1    3    3  502    0  0.44100476407E+03  0.20452348572E+03 -0.15967847808E+04  0.16691429859E+04  0.12699999809E+01 0. -1.
       -4    1    3    3    0  502 -0.44100476407E+03 -0.20452348572E+03  0.42732035065E+03  0.64723979569E+03  0.12699999809E+01 0.  1.
</event>
<event>
 5   0  0.2386776E-06  0.1992066E+04  0.7818609E-02  0.8610339E-01
       -1   -1    0    0    0  501  0.00000000000E+00  0.00000000000E+00  0.53569215726E+03  0.53569215728E+03  0.50400001928E-02 0. -1.
        1   -1    0    0  501    0  0.00000000000E+00  0.00000000000E+00 -0.18519622099E+04  0.18519622099E+04  0.50400001928E-02 0.  1.
    10030    2    1    2    0    0  0.00000000000E+00  0.00000000000E+00 -0.13162700527E+04  0.23876543672E+04  0.19920658939E+04 0.  0.
        2    1    3    3  502    0 -0.48315707708E+03 -0.25056047907E+02  0.38539777498E+03  0.61854669318E+03  0.25500000920E-02 0. -1.
       -2    1    3    3    0  502  0.48315707708E+03  0.25056047907E+02 -0.17016678276E+04  0.17691076740E+04  0.25500000920E-02 0.  1.
</event>
<event>
 5   0  0.4956214E-06  0.2000282E+04  0.7818609E-02  0.8606489E-01
       -2   -1    0    0    0  501  0.00000000000E+00  0.00000000000E+00  0.66251409536E+03  0.66251409537E+03  0.25500000920E-02 0.  1.
        2   -1    0    0  501    0  0.00000000000E+00  0.00000000000E+00 -0.15098279463E+04  0.15098279463E+04  0.25500000920E-02 0. -1.
    10030    2    1    2    0    0  0.00000000000E+00  0.00000000000E+00 -0.84731385093E+03  0.21723420417E+04  0.20002822761E+04 0.  0.
        1    1    3    3  502    0  0.46274368482E+03 -0.16513279219E+03  0.52241460061E+03  0.71715937688E+03  0.50400001928E-02 0.  1.
       -1    1    3    3    0  502 -0.46274368482E+03  0.16513279219E+03 -0.13697284515E+04  0.14551826648E+04  0.50400001928E-02 0. -1.
</event>
<event>
 5   0  0.2311520E-06  0.1999932E+04  0.7818609E-02  0.8606652E-01
       -1   -1    0    0    0  501  0.00000000000E+00  0.00000000000E+00  0.58361115746E+03  0.58361115748E+03  0.50400001928E-02 0. -1.
        1   -1    0    0  501    0  0.00000000000E+00  0.00000000000E+00 -0.17133538666E+04  0.17133538666E+04  0.50400001928E-02 0.  1.
    10030    2    1    2    0    0  0.00000000000E+00  0.00000000000E+00 -0.11297427091E+04  0.22969650241E+04  0.19999324321E+04 0.  0.
        3    1    3    3  502    0 -0.32196864302E+03 -0.87062112086E+03 -0.13777045110E+03  0.93841656559E+03  0.10100000352E+00 0. -1.
       -3    1    3    3    0  502  0.32196864302E+03  0.87062112086E+03 -0.99197225805E+03  0.13585484585E+04  0.10100000352E+00 0.  1.
</event>
<event>
 5   0  0.2313821E-06  0.1999846E+04  0.7818609E-02  0.8606693E-01
        1   -1    0    0  501    0  0.00000000000E+00  0.00000000000E+00  0.75100721989E+03  0.75100721991E+03  0.50400001928E-02 0.  1.
       -1   -1    0    0    0  501  0.00000000000E+00  0.00000000000E+00 -0.13313397026E+04  0.13313397026E+04  0.50400001928E-02 0. -1.
    10030    2    1    2    0    0  0.00000000000E+00  0.00000000000E+00 -0.58033248269E+03  0.20823469225E+04  0.19998457228E+04 0.  0.
        1    1    3    3  502    0  0.37325438344E+03 -0.48120143712E+03 -0.11159612861E+04  0.12713155588E+04  0.50400001928E-02 0. -1.
       -1    1    3    3    0  502 -0.37325438344E+03  0.48120143712E+03  0.53562880344E+03  0.81103136372E+03  0.50400001928E-02 0.  1.
</event>
<event>
 5   0  0.2311520E-06  0.2000240E+04  0.7818609E-02  0.8606509E-01
        1   -1    0    0  501    0  0.00000000000E+00  0.00000000000E+00  0.78844585307E+03  0.78844585308E+03  0.50400001928E-02 0. -1.
       -1   -1    0    0    0  501  0.00000000000E+00  0.00000000000E+00 -0.12686219124E+04  0.12686219124E+04  0.50400001928E-02 0.  1.
    10030    2    1    2    0    0  0.00000000000E+00  0.00000000000E+00 -0.48017605932E+03  0.20570677655E+04  0.20002396716E+04 0.  0.
        3    1    3    3  502    0  0.88395421642E+03  0.46698291198E+03 -0.26902237626E+03  0.10352879532E+04  0.10100000352E+00 0.  1.
       -3    1    3    3    0  502 -0.88395421642E+03 -0.46698291198E+03 -0.21115368306E+03  0.10217798123E+04  0.10100000352E+00 0. -1.
</event>
<event>
 5   0  0.5030137E-06  0.1999536E+04  0.7818609E-02  0.8606838E-01
        2   -1    0    0  501    0  0.00000000000E+00  0.00000000000E+00  0.12528057456E+04  0.12528057456E+04  0.25500000920E-02 0.  1.
       -2   -1    0    0    0  501  0.00000000000E+00  0.00000000000E+00 -0.79783774630E+03  0.79783774630E+03  0.25500000920E-02 0. -1.
    10030    2    1    2    0    0  0.00000000000E+00  0.00000000000E+00  0.45496799932E+03  0.20506434919E+04  0.19995356587E+04 0.  0.
        3    1    3    3  502    0  0.55385005491E+03  0.53085336893E+03 -0.42997947263E+03  0.87945297755E+03  0.10100000352E+00 0. -1.
       -3    1    3    3    0  502 -0.55385005491E+03 -0.53085336893E+03  0.88494747195E+03  0.11711905144E+04  0.10100000352E+00 0.  1.
</event>
<event>
 5   0  0.5129100E-06  0.1999751E+04  0.7818609E-02  0.8606737E-01
        2   -1    0    0  501    0  0.00000000000E+00  0.00000000000E+00  0.14987896124E+04  0.14987896124E+04  0.25500000920E-02 0.  1.
       -2   -1    0    0    0  501  0.00000000000E+00  0.00000000000E+00 -0.66703908510E+03  0.66703908511E+03  0.25500000920E-02 0. -1.
    10030    2    1    2    0    0  0.00000000000E+00  0.00000000000E+00  0.83175052727E+03  0.21658286975E+04  0.19997512363E+04 0.  0.
        2    1    3    3  502    0  0.40517602015E+03 -0.70805908794E+03 -0.21026945912E+03  0.84245387100E+03  0.25500000920E-02 0. -1.
       -2    1    3    3    0  502 -0.40517602015E+03  0.70805908794E+03  0.10420199864E+04  0.13233748265E+04  0.25500000920E-02 0.  1.
</event>
<event>
 5   0  0.2356996E-06  0.1999763E+04  0.7818609E-02  0.8606732E-01
       -1   -1    0    0    0  501  0.00000000000E+00  0.00000000000E+00  0.67321651122E+03  0.67321651124E+03  0.50400001928E-02 0.  1.
        1   -1    0    0  501    0  0.00000000000E+00  0.00000000000E+00 -0.14850539690E+04  0.14850539690E+04  0.50400001928E-02 0. -1.
    10030    2    1    2    0    0  0.00000000000E+00  0.00000000000E+00 -0.81183745777E+03  0.21582704802E+04  0.19997628380E+04 0.  0.
        4    1    3    3  502    0 -0.18085071580E+03 -0.78425168849E+03 -0.10462443758E+04  0.13199949239E+04  0.12699999809E+01 0. -1.
       -4    1    3    3    0  502  0.18085071580E+03  0.78425168849E+03  0.23440691800E+03  0.83827555637E+03  0.12699999809E+01 0.  1.
</event>
<event>
 5   0  0.4956214E-06  0.1999893E+04  0.7818609E-02  0.8606671E-01
       -2   -1    0    0    0  501  0.00000000000E+00  0.00000000000E+00  0.90929883275E+03  0.90929883276E+03  0.25500000920E-02 0. -1.
        2   -1    0    0  501    0  0.00000000000E+00  0.00000000000E+00 -0.10996307362E+04  0.10996307362E+04  0.25500000920E-02 0.  1.
    10030    2    1    2    0    0  0.00000000000E+00  0.00000000000E+00 -0.19033190344E+03  0.20089295690E+04  0.19998929420E+04 0.  0.
        1    1    3    3  502    0  0.35161931779E+03 -0.67098405108E+03 -0.75083053618E+03  0.10665843781E+04  0.50400001928E-02 0.  1.
       -1    1    3    3    0  502 -0.35161931779E+03  0.67098405108E+03  0.56049863274E+03  0.94234519088E+03  0.50400001928E-02 0. -1.
</event>
<event>
 5   0  0.1777750E-06  0.2000507E+04  0.7818609E-02  0.8606384E-01
        4   -1    0    0  501    0  0.00000000000E+00  0.00000000000E+00  0.10941691387E+04  0.10941698758E+04  0.12699999809E+01 0.  1.
       -4   -1    0    0    0  501  0.00000000000E+00  0.00000000000E+00 -0.91439721457E+03  0.91439809652E+03  0.12699999809E+01 0. -1.
    10030    2    1    2    0    0  0.00000000000E+00  0.00000000000E+00  0.17977192415E+03  0.20085679723E+04  0.20005067744E+04 0.  0.
        1    1    3    3  502    0  0.31224582239E+03 -0.55330810750E+03  0.86556592093E+03  0.10737093084E+04  0.50400001928E-02 0.  1.
       -1    1    3    3    0  502 -0.31224582239E+03  0.55330810750E+03 -0.68579399678E+03  0.93485866390E+03  0.50400001928E-02 0. -1.
</event>
<event>
 5   0  0.2356996E-06  0.2001329E+04  0.7818609E-02  0.8605999E-01
        1   -1    0    0  501    0  0.00000000000E+00  0.00000000000E+00  0.11961036372E+04  0.11961036372E+04  0.50400001928E-02 0.  1.
       -1   -1    0    0    0  501  0.00000000000E+00  0.00000000000E+00 -0.83715966978E+03  0.83715966979E+03  0.50400001928E-02 0. -1.
    10030    2    1    2    0    0  0.00000000000E+00  0.00000000000E+00  0.35894396740E+03  0.20332633070E+04  0.20013292842E+04 0.  0.
        4    1    3    3  502    0 -0.87557595931E+02 -0.97086510668E+03 -0.50149279461E+02  0.97609525719E+03  0.12699999809E+01 0. -1.
       -4    1    3    3    0  502  0.87557595931E+02  0.97086510668E+03  0.40909324687E+03  0.10571680498E+04  0.12699999809E+01 0.  1.
</event>
<event>
 5   0  0.4956214E-06  0.1999615E+04  0.7818609E-02  0.8606801E-01
       -2   -1    0    0    0  501  0.00000000000E+00  0.00000000000E+00  0.70121904573E+03  0.70121904573E+03  0.25500000920E-02 0.  1.
        2   -1    0    0  501    0  0.00000000000E+00  0.00000000000E+00 -0.14255383699E+04  0.14255383699E+04  0.25500000920E-02 0. -1.
    10030    2    1    2    0    0  0.00000000000E+00  0.00000000000E+00 -0.72431932415E+03  0.21267574156E+04  0.19996146182E+04 0.  0.
        1    1    3    3  502    0  0.40460341325E+03  0.65362212036E+03 -0.10420956859E+04  0.12949475730E+04  0.50400001928E-02 0. -1.
       -1    1    3    3    0  502 -0.40460341325E+03 -0.65362212036E+03  0.31777636170E+03  0.83180984264E+03  0.50400001928E-02 0.  1.
</event>
<event>
 5   0  0.2313821E-06  0.2000342E+04  0.7818609E-02  0.8606461E-01
        1   -1    0    0  501    0  0.00000000000E+00  0.00000000000E+00  0.13660317411E+04  0.13660317411E+04  0.50400001928E-02 0. -1.
       -1   -1    0    0    0  501  0.00000000000E+00  0.00000000000E+00 -0.73229776461E+03  0.73229776463E+03  0.50400001928E-02 0.  1.
    10030    2    1    2    0    0  0.00000000000E+00  0.00000000000E+00  0.63373397651E+03  0.20983295058E+04  0.20003419612E+04 0.  0.
        1    1    3    3  502    0 -0.51998220583E+03 -0.26409851807E+03  0.11692039132E+04  0.13065861289E+04  0.50400001928E-02 0. -1.
       -1    1    3    3    0  502  0.51998220583E+03  0.26409851807E+03 -0.53546993670E+03  0.79174337683E+03  0.50400001928E-02 0.  1.
</event>
<event>
 5   0  0.4956214E-06  0.2000309E+04  0.7818609E-02  0.8606476E-01
       -2   -1    0    0    0  501  0.00000000000E+00  0.00000000000E+00  0.12709305837E+04  0.12709305837E+04  0.25500000920E-02 0. -1.
        2   -1    0    0  501    0  0.00000000000E+00  0.00000000000E+00 -0.78706794705E+03  0.78706794706E+03  0.25500000920E-02 0.  1.
    10030    2    1    2    0    0  0.00000000000E+00  0.00000000000E+00  0.48386263660E+03  0.20579985307E+04  0.20003087015E+04 0.  0.
        1    1    3    3  502    0 -0.51474255552E+02  0.99824504618E+03  0.20680045972E+03  0.10207395365E+04  0.50400001928E-02 0. -1.
       -1    1    3    3    0  502  0.51474255552E+02 -0.99824504618E+03  0.27706217688E+03  0.10372589942E+04  0.50400001928E-02 0.  1.
</event>
<event>
 5   0  0.2356996E-06  0.2001253E+04  0.7818609E-02  0.8606035E-01
        1   -1    0    0  501    0  0.00000000000E+00  0.00000000000E+00  0.20283801194E+04  0.20283801194E+04  0.50400001928E-02 0. -1.
       -1   -1    0    0    0  501  0.00000000000E+00  0.00000000000E+00 -0.49362208664E+03  0.49362208667E+03  0.50400001928E-02 0.  1.
    10030    2    1    2    0    0  0.00000000000E+00  0.00000000000E+00  0.15347580327E+04  0.25220022060E+04  0.20012528347E+04 0.  0.
        4    1    3    3  502    0 -0.51675149274E+03 -0.69789243567E+03  0.14085522776E+03  0.87973164380E+03  0.12699999809E+01 0.  1.
       -4    1    3    3    0  502  0.51675149274E+03  0.69789243567E+03  0.13939028050E+04  0.16422705622E+04  0.12699999809E+01 0. -1.
</event>
<event>
 5   0  0.5129100E-06  0.2000358E+04  0.7818609E-02  0.8606453E-01
       -2   -1    0    0    0  501  0.00000000000E+00  0.00000000000E+00  0.54286853583E+03  0.54286853584E+03  0.25500000920E-02 0. -1.
        2   -1    0    0  501    0  0.00000000000E+00  0.00000000000E+00 -0.18427260714E+04  0.18427260714E+04  0.25500000920E-02 0.  1.
    10030    2    1    2    0    0  0.00000000000E+00  0.00000000000E+00 -0.12998575356E+04  0.23855946072E+04  0.20003579723E+04 0.  0.
        2    1    3    3  502    0  0.17015815406E+03 -0.98533603920E+03 -0.67704784097E+03  0.12075738845E+04  0.25500000920E-02 0.  1.
       -2    1    3    3    0  502 -0.17015815406E+03  0.98533603920E+03 -0.62280969460E+03  0.11780207227E+04  0.25500000920E-02 0. -1.
</event>
<event>
 5   0  0.5129100E-06  0.2000141E+04  0.7818609E-02  0.8606555E-01
        2   -1    0    0  501    0  0.00000000000E+00  0.00000000000E+00  0.15630358527E+04  0.15630358527E+04  0.25500000920E-02 0. -1.
       -2   -1    0    0    0  501  0.00000000000E+00  0.00000000000E+00 -0.63987059521E+03  0.63987059521E+03  0.25500000920E-02 0.  1.
    10030    2    1    2    0    0  0.00000000000E+00  0.00000000000E+00  0.92316525750E+03  0.22029064479E+04  0.20001406765E+04 0.  0.
        2    1    3    3  502    0 -0.18464618532E+02 -0.70589422659E+03 -0.31838511828E+03  0.77459452930E+03  0.25500000920E-02 0.  1.
       -2    1    3    3    0  502  0.18464618532E+02  0.70589422659E+03  0.12415503758E+04  0.14283119186E+04  0.25500000920E-02 0. -1.
</event>
<event>
 5   0  0.2356996E-06  0.1998843E+04  0.7818609E-02  0.8607162E-01
        1   -1    0    0  501    0  0.00000000000E+00  0.00000000000E+00  0.91594185683E+03  0.91594185685E+03  0.50400001928E-02 0.  1.
       -1   -1    0    0    0  501  0.00000000000E+00  0.00000000000E+00 -0.10905096356E+04  0.10905096356E+04  0.50400001928E-02 0. -1.
    10030    2    1    2    0    0  0.00000000000E+00  0.00000000000E+00 -0.17456777873E+03  0.20064514924E+04  0.19988430859E+04 0.  0.
        4    1    3    3  502    0 -0.27238256535E+03  0.95292030554E+03 -0.21658583240E+03  0.10144754341E+04  0.12699999809E+01 0. -1.
       -4    1    3    3    0  502  0.27238256535E+03 -0.95292030554E+03  0.42018053672E+02  0.99197605836E+03  0.12699999809E+01 0.  1.
</event>
<event>
 5   0  0.2379743E-06  0.1999944E+04  0.7818609E-02  0.8606647E-01
        1   -1    0    0  501    0  0.00000000000E+00  0.00000000000E+00  0.14663242467E+04  0.14663242467E+04  0.50400001928E-02 0. -1.
       -1   -1    0    0    0  501  0.00000000000E+00  0.00000000000E+00 -0.68193950167E+03  0.68193950168E+03  0.50400001928E-02 0.  1.
    10030    2    1    2    0    0  0.00000000000E+00  0.00000000000E+00  0.78438474507E+03  0.21482637484E+04  0.19999444254E+04 0.  0.
        5    1    3    3  502    0  0.19031478397E+03 -0.10282505048E+03 -0.65649407896E+03  0.69123026099E+03  0.46999998093E+01 0.  1.
       -5    1    3    3    0  502 -0.19031478397E+03  0.10282505048E+03  0.14408788240E+04  0.14570334874E+04  0.46999998093E+01 0. -1.
</event>
<event>
 5   0  0.2386776E-06  0.2001334E+04  0.7818609E-02  0.8605997E-01
       -1   -1    0    0    0  501  0.00000000000E+00  0.00000000000E+00  0.40120024084E+03  0.40120024087E+03  0.50400001928E-02 0. -1.
        1   -1    0    0  501    0  0.00000000000E+00  0.00000000000E+00 -0.24958482763E+04  0.24958482763E+04  0.50400001928E-02 0.  1.
    10030    2    1    2    0    0  0.00000000000E+00  0.00000000000E+00 -0.20946480355E+04  0.28970485172E+04  0.20013344844E+04 0.  0.
        2    1    3    3  502    0 -0.18773526430E+03  0.17964452935E+03  0.35151348393E+03  0.43712517175E+03  0.25500000920E-02 0. -1.
       -2    1    3    3    0  502  0.18773526430E+03 -0.17964452935E+03 -0.24461615194E+04  0.24599233454E+04  0.25500000920E-02 0.  1.
</event>
<event>
 5   0  0.5030137E-06  0.1999984E+04  0.7818609E-02  0.8606628E-01
        2   -1    0    0  501    0  0.00000000000E+00  0.00000000000E+00  0.21389631995E+04  0.21389631995E+04  0.25500000920E-02 0. -1.
       -2   -1    0    0    0  501  0.00000000000E+00  0.00000000000E+00 -0.46750885837E+03  0.46750885837E+03  0.25500000920E-02 0.  1.
    10030    2    1    2    0    0  0.00000000000E+00  0.00000000000E+00  0.16714543411E+04  0.26064720579E+04  0.19999842434E+04 0.  0.
        3    1    3    3  502    0 -0.74160336433E+03  0.15024802503E+03  0.16877694404E+04  0.18496258306E+04  0.10100000352E+00 0.  1.
       -3    1    3    3    0  502  0.74160336433E+03 -0.15024802503E+03 -0.16315099326E+02  0.75684622723E+03  0.10100000352E+00 0. -1.
</event>
<event>
 5   0  0.2386776E-06  0.1999252E+04  0.7818609E-02  0.8606971E-01
       -1   -1    0    0    0  501  0.00000000000E+00  0.00000000000E+00  0.17159599836E+04  0.17159599836E+04  0.50400001928E-02 0.  1.
        1   -1    0    0  501    0  0.00000000000E+00  0.00000000000E+00 -0.58232821028E+03  0.58232821031E+03  0.50400001928E-02 0. -1.
    10030    2    1    2    0    0  0.00000000000E+00  0.00000000000E+00  0.11336317733E+04  0.22982881939E+04  0.19992517662E+04 0.  0.
        2    1    3    3  502    0 -0.57502662448E+03 -0.65746579527E+03  0.79584511915E+01  0.87348739416E+03  0.25500000920E-02 0. -1.
       -2    1    3    3    0  502  0.57502662448E+03  0.65746579527E+03  0.11256733221E+04  0.14248007997E+04  0.25500000920E-02 0.  1.
</event>
<event>
 5   0  0.2313821E-06  0.2000470E+04  0.7818609E-02  0.8606401E-01
        1   -1    0    0  501    0  0.00000000000E+00  0.00000000000E+00  0.12304550598E+04  0.12304550598E+04  0.50400001928E-02 0. -1.
       -1   -1    0    0    0  501  0.00000000000E+00  0.00000000000E+00 -0.81308938869E+03  0.81308938871E+03  0.50400001928E-02 0.  1.
    10030    2    1    2    0    0  0.00000000000E+00  0.00000000000E+00  0.41736567114E+03  0.20435444485E+04  0.20004698972E+04 0.  0.
        1    1    3    3  502    0  0.41822545510E+03  0.19339393429E+03  0.11155803632E+04  0.12069934929E+04  0.50400001928E-02 0. -1.
       -1    1    3    3    0  502 -0.41822545510E+03 -0.19339393429E+03 -0.69821469208E+03  0.83655095563E+03  0.50400001928E-02 0.  1.
</event>
<event>
 5   0  0.4956214E-06  0.2000275E+04  0.7818609E-02  0.8606492E-01
        2   -1    0    0  501    0  0.00000000000E+00  0.00000000000E+00  0.14206557409E+04  0.14206557409E+04  0.25500000920E-02 0. -1.
       -2   -1    0    0    0  501  0.00000000000E+00  0.00000000000E+00 -0.70409392128E+03  0.70409392129E+03  0.25500000920E-02 0.  1.
    10030    2    1    2    0    0  0.00000000000E+00  0.00000000000E+00  0.71656181960E+03  0.21247496622E+04  0.20002750525E+04 0.  0.
        1    1    3    3  502    0 -0.12835282734E+03  0.46663520867E+03  0.12879903354E+04  0.13759149575E+04  0.50400001928E-02 0. -1.
       -1    1    3    3    0  502  0.12835282734E+03 -0.46663520867E+03 -0.57142851577E+03  0.74883470467E+03  0.50400001928E-02 0.  1.
</event>
<event>
 5   0  0.1777750E-06  0.1999426E+04  0.7818609E-02  0.8606889E-01
       -3   -1    0    0    0  501  0.00000000000E+00  0.00000000000E+00  0.10534910391E+04  0.10534910439E+04  0.10100000352E+00 0.  1.
        3   -1    0    0  501    0  0.00000000000E+00  0.00000000000E+00 -0.94868003659E+03  0.94868004196E+03  0.10100000352E+00 0. -1.
    10030    2    1    2    0    0  0.00000000000E+00  0.00000000000E+00  0.10481100249E+03  0.20021710859E+04  0.19994258453E+04 0.  0.
        2    1    3    3  502    0 -0.43619797945E+03 -0.88825195384E+03  0.19460652301E+03  0.10085295779E+04  0.25500000920E-02 0.  1.
       -2    1    3    3    0  502  0.43619797945E+03  0.88825195384E+03 -0.89795520523E+02  0.99364150793E+03  0.25500000920E-02 0. -1.
</event>
<event>
 5   0  0.2379743E-06  0.1998930E+04  0.7818609E-02  0.8607121E-01
        1   -1    0    0  501    0  0.00000000000E+00  0.00000000000E+00  0.72983297728E+03  0.72983297730E+03  0.50400001928E-02 0.  1.
       -1   -1    0    0    0  501  0.00000000000E+00  0.00000000000E+00 -0.13687102832E+04  0.13687102832E+04  0.50400001928E-02 0. -1.
    10030    2    1    2    0    0  0.00000000000E+00  0.00000000000E+00 -0.63887730589E+03  0.20985432605E+04  0.19989296146E+04 0.  0.
        5    1    3    3  502    0 -0.40440457082E+03 -0.82146250586E+03 -0.74011167017E+03  0.11773406813E+04  0.46999998093E+01 0. -1.
       -5    1    3    3    0  502  0.40440457082E+03  0.82146250586E+03  0.10123436428E+03  0.92120257921E+03  0.46999998093E+01 0.  1.
</event>
<event>
 5   0  0.5129100E-06  0.2002626E+04  0.7818609E-02  0.8605394E-01
       -2   -1    0    0    0  501  0.00000000000E+00  0.00000000000E+00  0.97669349498E+03  0.97669349499E+03  0.25500000920E-02 0. -1.
        2   -1    0    0  501    0  0.00000000000E+00  0.00000000000E+00 -0.10265529940E+04  0.10265529940E+04  0.25500000920E-02 0.  1.
    10030    2    1    2    0    0  0.00000000000E+00  0.00000000000E+00 -0.49859498989E+02  0.20032464890E+04  0.20026259076E+04 0.  0.
        2    1    3    3  502    0 -0.66385301828E+03 -0.26965932207E+03  0.67472294686E+03  0.98420934505E+03  0.25500000920E-02 0. -1.
       -2    1    3    3    0  502  0.66385301828E+03  0.26965932207E+03 -0.72458244584E+03  0.10190371439E+04  0.25500000920E-02 0.  1.
</event>
<event>
 5   0  0.5129100E-06  0.1999898E+04  0.7818609E-02  0.8606668E-01
       -2   -1    0    0    0  501  0.00000000000E+00  0.00000000000E+00  0.43477428524E+03  0.43477428525E+03  0.25500000920E-02 0.  1.
        2   -1    0    0  501    0  0.00000000000E+00  0.00000000000E+00 -0.22998101078E+04  0.22998101078E+04  0.25500000920E-02 0. -1.
    10030    2    1    2    0    0  0.00000000000E+00  0.00000000000E+00 -0.18650358226E+04  0.27345843931E+04  0.19998982933E+04 0.  0.
        2    1    3    3  502    0 -0.94954282875E+03 -0.15893455412E+03 -0.56306061824E+03  0.11153156665E+04  0.25500000920E-02 0.  1.
       -2    1    3    3    0  502  0.94954282875E+03  0.15893455412E+03 -0.13019752044E+04  0.16192687266E+04  0.25500000920E-02 0. -1.
</event>
<event>
 5   0  0.2311520E-06  0.1999738E+04  0.7818609E-02  0.8606743E-01
       -1   -1    0    0    0  501  0.00000000000E+00  0.00000000000E+00  0.15580880733E+04  0.15580880733E+04  0.50400001928E-02 0. -1.
        1   -1    0    0  501    0  0.00000000000E+00  0.00000000000E+00 -0.64164396456E+03  0.64164396458E+03  0.50400001928E-02 0.  1.
    10030    2    1    2    0    0  0.00000000000E+00  0.00000000000E+00  0.91644410875E+03  0.21997320379E+04  0.19997377913E+04 0.  0.
        3    1    3    3  502    0 -0.77783773376E+03 -0.49468753811E+03  0.88424069227E+03  0.12773523055E+04  0.10100000352E+00 0.  1.
       -3    1    3    3    0  502  0.77783773376E+03  0.49468753811E+03  0.32203416472E+02  0.92237973235E+03  0.10100000352E+00 0. -1.
</event>
<event>
 5   0  0.5251252E-06  0.1999977E+04  0.7818609E-02  0.8606631E-01
        2   -1    0    0  501    0  0.00000000000E+00  0.00000000000E+00  0.67837071187E+03  0.67837071187E+03  0.25500000920E-02 0. -1.
       -2   -1    0    0    0  501  0.00000000000E+00  0.00000000000E+00 -0.14740861555E+04  0.14740861555E+04  0.25500000920E-02 0.  1.
    10030    2    1    2    0    0  0.00000000000E+00  0.00000000000E+00 -0.79571544366E+03  0.21524568674E+04  0.19999768745E+04 0.  0.
        5    1    3    3  502    0  0.44610952707E+03 -0.55786913103E+03  0.35529800312E+03  0.79780350872E+03  0.46999998093E+01 0. -1.
       -5    1    3    3    0  502 -0.44610952707E+03  0.55786913103E+03 -0.11510134468E+04  0.13546533587E+04  0.46999998093E+01 0.  1.
</event>
<event>
 5   0  0.2356996E-06  0.1996915E+04  0.7818609E-02  0.8608064E-01
       -1   -1    0    0    0  501  0.00000000000E+00  0.00000000000E+00  0.10604089676E+04  0.10604089676E+04  0.50400001928E-02 0. -1.
        1   -1    0    0  501    0  0.00000000000E+00  0.00000000000E+00 -0.94012547133E+03  0.94012547135E+03  0.50400001928E-02 0.  1.
    10030    2    1    2    0    0  0.00000000000E+00  0.00000000000E+00  0.12028349624E+03  0.20005344389E+04  0.19969151013E+04 0.  0.
        4    1    3    3  502    0  0.72908605264E+03 -0.53626228406E+03  0.48253629536E+03  0.10256639794E+04  0.12699999809E+01 0.  1.
       -4    1    3    3    0  502 -0.72908605264E+03  0.53626228406E+03 -0.36225279912E+03  0.97487045951E+03  0.12699999809E+01 0. -1.
</event>
<event>
 5   0  0.5129100E-06  0.1993217E+04  0.7818609E-02  0.8609799E-01
       -2   -1    0    0    0  501  0.00000000000E+00  0.00000000000E+00  0.83033432290E+03  0.83033432290E+03  0.25500000920E-02 0.  1.
        2   -1    0    0  501    0  0.00000000000E+00  0.00000000000E+00 -0.11961789593E+04  0.11961789593E+04  0.25500000920E-02 0. -1.
    10030    2    1    2    0    0  0.00000000000E+00  0.00000000000E+00 -0.36584463643E+03  0.20265132822E+04  0.19932169438E+04 0.  0.
        2    1    3    3  502    0  0.44429481654E+03 -0.40403063499E+02 -0.10889872483E+04  0.11768277353E+04  0.25500000920E-02 0. -1.
       -2    1    3    3    0  502 -0.44429481654E+03  0.40403063499E+02  0.72314261189E+03  0.84968554694E+03  0.25500000920E-02 0.  1.
</event>
<event>
 5   0  0.2379743E-06  0.2001578E+04  0.7818609E-02  0.8605883E-01
       -1   -1    0    0    0  501  0.00000000000E+00  0.00000000000E+00  0.90246447992E+03  0.90246447993E+03  0.50400001928E-02 0.  1.
        1   -1    0    0  501    0  0.00000000000E+00  0.00000000000E+00 -0.11098264650E+04  0.11098264650E+04  0.50400001928E-02 0. -1.
    10030    2    1    2    0    0  0.00000000000E+00  0.00000000000E+00 -0.20736198507E+03  0.20122909449E+04  0.20015783408E+04 0.  0.
        5    1    3    3  502    0  0.45530724236E+02  0.68172295559E+03  0.63149032862E+03  0.93038774722E+03  0.46999998093E+01 0.  1.
       -5    1    3    3    0  502 -0.45530724236E+02 -0.68172295559E+03 -0.83885231369E+03  0.10819031977E+04  0.46999998093E+01 0. -1.
</event>
<event>
 5   0  0.1777750E-06  0.2004489E+04  0.7818609E-02  0.8604525E-01
        3   -1    0    0  501    0  0.00000000000E+00  0.00000000000E+00  0.14665666861E+04  0.14665666896E+04  0.10100000352E+00 0.  1.
       -3   -1    0    0    0  501  0.00000000000E+00  0.00000000000E+00 -0.68492913484E+03  0.68492914229E+03  0.10100000352E+00 0. -1.
    10030    2    1    2    0    0  0.00000000000E+00  0.00000000000E+00  0.78163755129E+03  0.21514958319E+04  0.20044892250E+04 0.  0.
        2    1    3    3  502    0  0.74783592908E+03 -0.13130397903E+03  0.10930111456E+04  0.13308541153E+04  0.25500000920E-02 0.  1.
       -2    1    3    3    0  502 -0.74783592908E+03  0.13130397903E+03 -0.31137359436E+03  0.82064171658E+03  0.25500000920E-02 0. -1.
</event>
<event>
 5   0  0.2386776E-06  0.1999769E+04  0.7818609E-02  0.8606729E-01
        1   -1    0    0  501    0  0.00000000000E+00  0.00000000000E+00  0.16275866147E+04  0.16275866147E+04  0.50400001928E-02 0.  1.
       -1   -1    0    0    0  501  0.00000000000E+00  0.00000000000E+00 -0.61426483839E+03  0.61426483842E+03  0.50400001928E-02 0. -1.
    10030    2    1    2    0    0  0.00000000000E+00  0.00000000000E+00  0.10133217763E+04  0.22418514531E+04  0.19997692156E+04 0.  0.
        2    1    3    3  502    0 -0.92254207262E+03  0.24007175090E+03  0.16838651854E+03  0.96802496919E+03  0.25500000920E-02 0.  1.
       -2    1    3    3    0  502  0.92254207262E+03 -0.24007175090E+03  0.84493525775E+03  0.12738264839E+04  0.25500000920E-02 0. -1.
</event>
<event>
 5   0  0.2379743E-06  0.2001145E+04  0.7818609E-02  0.8606086E-01
        1   -1    0    0  501    0  0.00000000000E+00  0.00000000000E+00  0.29021408648E+04  0.29021408648E+04  0.50400001928E-02 0. -1.
       -1   -1    0    0    0  501  0.00000000000E+00  0.00000000000E+00 -0.34496775806E+03  0.34496775809E+03  0.50400001928E-02 0.  1.
    10030    2    1    2    0    0  0.00000000000E+00  0.00000000000E+00  0.25571731068E+04  0.32471086229E+04  0.20011447002E+04 0.  0.
        5    1    3    3  502    0  0.47235786613E+02  0.42349917831E+03 -0.19035137691E+03  0.46673173265E+03  0.46999998093E+01 0.  1.
       -5    1    3    3    0  502 -0.47235786613E+02 -0.42349917831E+03  0.27475244837E+04  0.27803768903E+04  0.46999998093E+01 0. -1.
</event>
<event>
 5   0  0.5129100E-06  0.2000429E+04  0.7818609E-02  0.8606420E-01
        2   -1    0    0  501    0  0.00000000000E+00  0.00000000000E+00  0.10903295985E+04  0.10903295985E+04  0.25500000920E-02 0. -1.
       -2   -1    0    0    0  501  0.00000000000E+00  0.00000000000E+00 -0.91754692459E+03  0.91754692460E+03  0.25500000920E-02 0.  1.
    10030    2    1    2    0    0  0.00000000000E+00  0.00000000000E+00  0.17278267389E+03  0.20078765231E+04  0.20004285240E+04 0.  0.
        2    1    3    3  502    0 -0.34216239852E+03  0.87644600130E+03 -0.25427750744E+03  0.97462287627E+03  0.25500000920E-02 0.  1.
       -2    1    3    3    0  502  0.34216239852E+03 -0.87644600130E+03  0.42706018132E+03  0.10332536468E+04  0.25500000920E-02 0. -1.
</event>
<event>
 5   0  0.5129100E-06  0.2004471E+04  0.7818609E-02  0.8604533E-01
        2   -1    0    0  501    0  0.00000000000E+00  0.00000000000E+00  0.29495526652E+04  0.29495526652E+04  0.25500000920E-02 0. -1.
       -2   -1    0    0    0  501  0.00000000000E+00  0.00000000000E+00 -0.34055198523E+03  0.34055198524E+03  0.25500000920E-02 0.  1.
    10030    2    1    2    0    0  0.00000000000E+00  0.00000000000E+00  0.26090006800E+04  0.32901046505E+04  0.20044710182E+04 0.  0.
        2    1    3    3  502    0 -0.17612398381E+02 -0.59241567722E+03  0.26310886676E+04  0.26970157782E+04  0.25500000920E-02 0. -1.
       -2    1    3    3    0  502  0.17612398381E+02  0.59241567722E+03 -0.22087987588E+02  0.59308887226E+03  0.25500000920E-02 0.  1.
</event>
<event>
 5   0  0.2356996E-06  0.2000096E+04  0.7818609E-02  0.8606576E-01
        1   -1    0    0  501    0  0.00000000000E+00  0.00000000000E+00  0.14844699494E+04  0.14844699494E+04  0.50400001928E-02 0. -1.
       -1   -1    0    0    0  501  0.00000000000E+00  0.00000000000E+00 -0.67370602242E+03  0.67370602244E+03  0.50400001928E-02 0.  1.
    10030    2    1    2    0    0  0.00000000000E+00  0.00000000000E+00  0.81076392694E+03  0.21581759718E+04  0.20000963427E+04 0.  0.
        4    1    3    3  502    0 -0.43609892693E+03  0.89637524956E+03  0.49186567301E+03  0.11115773996E+04  0.12699999809E+01 0.  1.
       -4    1    3    3    0  502  0.43609892693E+03 -0.89637524956E+03  0.31889825393E+03  0.10465985722E+04  0.12699999809E+01 0. -1.
</event>
<event>
 5   0  0.5118981E-06  0.1999455E+04  0.7818609E-02  0.8606876E-01
        2   -1    0    0  501    0  0.00000000000E+00  0.00000000000E+00  0.28212136146E+04  0.28212136146E+04  0.25500000920E-02 0. -1.
       -2   -1    0    0    0  501  0.00000000000E+00  0.00000000000E+00 -0.35426419923E+03  0.35426419924E+03  0.25500000920E-02 0.  1.
    10030    2    1    2    0    0  0.00000000000E+00  0.00000000000E+00  0.24669494153E+04  0.31754778138E+04  0.19994549078E+04 0.  0.
        4    1    3    3  502    0 -0.52259121629E+03 -0.22571725417E+03  0.25386808998E+04  0.26017210039E+04  0.12699999809E+01 0. -1.
       -4    1    3    3    0  502  0.52259121629E+03  0.22571725417E+03 -0.71731484460E+02  0.57375680993E+03  0.12699999809E+01 0.  1.
</event>
<event>
 5   0  0.1777750E-06  0.2000328E+04  0.7818609E-02  0.8606467E-01
       -3   -1    0    0    0  501  0.00000000000E+00  0.00000000000E+00  0.83360552482E+03  0.83360553094E+03  0.10100000352E+00 0.  1.
        3   -1    0    0  501    0  0.00000000000E+00  0.00000000000E+00 -0.12000021853E+04  0.12000021896E+04  0.10100000352E+00 0. -1.
    10030    2    1    2    0    0  0.00000000000E+00  0.00000000000E+00 -0.36639666050E+03  0.20336077205E+04  0.20003284350E+04 0.  0.
        3    1    3    3  502    0 -0.93477279002E+03 -0.16520368747E+03 -0.50345674694E+03  0.10745050645E+04  0.10100000352E+00 0. -1.
       -3    1    3    3    0  502  0.93477279002E+03  0.16520368747E+03  0.13706008645E+03  0.95910265604E+03  0.10100000352E+00 0.  1.
</event>
<event>
 5   0  0.1777750E-06  0.2003344E+04  0.7818609E-02  0.8605059E-01
        3   -1    0    0  501    0  0.00000000000E+00  0.00000000000E+00  0.53113404741E+03  0.53113405701E+03  0.10100000352E+00 0.  1.
       -3   -1    0    0    0  501  0.00000000000E+00  0.00000000000E+00 -0.18890654068E+04  0.18890654095E+04  0.10100000352E+00 0. -1.
    10030    2    1    2    0    0  0.00000000000E+00  0.00000000000E+00 -0.13579313594E+04  0.24201994665E+04  0.20033441743E+04 0.  0.
        2    1    3    3  502    0 -0.72093040389E+03 -0.18059466762E+03  0.13233148651E+03  0.75489516064E+03  0.25500000920E-02 0.  1.
       -2    1    3    3    0  502  0.72093040389E+03  0.18059466762E+03 -0.14902628459E+04  0.16653043059E+04  0.25500000920E-02 0. -1.
</event>
<event>
 5   0  0.2311520E-06  0.1999774E+04  0.7818609E-02  0.8606726E-01
        1   -1    0    0  501    0  0.00000000000E+00  0.00000000000E+00  0.10027178649E+04  0.10027178649E+04  0.50400001928E-02 0. -1.
       -1   -1    0    0    0  501  0.00000000000E+00  0.00000000000E+00 -0.99706388625E+03  0.99706388626E+03  0.50400001928E-02 0.  1.
    10030    2    1    2    0    0  0.00000000000E+00  0.00000000000E+00  0.56539786640E+01  0.19997817512E+04  0.19997737584E+04 0.  0.
        3    1    3    3  502    0 -0.64672752166E+03  0.69323683191E+03  0.32053876992E+03  0.10007891414E+04  0.10100000352E+00 0.  1.
       -3    1    3    3    0  502  0.64672752166E+03 -0.69323683191E+03 -0.31488479125E+03  0.99899260976E+03  0.10100000352E+00 0. -1.
</event>
<event>
 5   0  0.5129100E-06  0.2009454E+04  0.7818609E-02  0.8602213E-01
       -2   -1    0    0    0  501  0.00000000000E+00  0.00000000000E+00  0.37437588548E+03  0.37437588549E+03  0.25500000920E-02 0.  1.
        2   -1    0    0  501    0  0.00000000000E+00  0.00000000000E+00 -0.26964247319E+04  0.26964247319E+04  0.25500000920E-02 0. -1.
    10030    2    1    2    0    0  0.00000000000E+00  0.00000000000E+00 -0.23220488464E+04  0.30708006174E+04  0.20094540519E+04 0.  0.
        2    1    3    3  502    0  0.36434013052E+03 -0.57982135420E+03 -0.22845614847E+04  0.23849858933E+04  0.25500000920E-02 0. -1.
       -2    1    3    3    0  502 -0.36434013052E+03  0.57982135420E+03 -0.37487361645E+02  0.68581472410E+03  0.25500000920E-02 0.  1.
</event>
<event>
 5   0  0.2313821E-06  0.2000553E+04  0.7818609E-02  0.8606362E-01
        1   -1    0    0  501    0  0.00000000000E+00  0.00000000000E+00  0.17533914690E+04  0.17533914690E+04  0.50400001928E-02 0. -1.
       -1   -1    0    0    0  501  0.00000000000E+00  0.00000000000E+00 -0.57063888283E+03  0.57063888285E+03  0.50400001928E-02 0.  1.
    10030    2    1    2    0    0  0.00000000000E+00  0.00000000000E+00  0.11827525862E+04  0.23240303519E+04  0.20005532725E+04 0.  0.
        1    1    3    3  502    0  0.25536395340E+03  0.54452195122E+03 -0.33713501430E+03  0.68947438092E+03  0.50400001928E-02 0.  1.
       -1    1    3    3    0  502 -0.25536395340E+03 -0.54452195122E+03  0.15198876005E+04  0.16345559710E+04  0.50400001928E-02 0. -1.
</event>
<event>
 5   0  0.5129100E-06  0.1999386E+04  0.7818609E-02  0.8606908E-01
        2   -1    0    0  501    0  0.00000000000E+00  0.00000000000E+00  0.17427243475E+04  0.17427243475E+04  0.25500000920E-02 0. -1.
       -2   -1    0    0    0  501  0.00000000000E+00  0.00000000000E+00 -0.57346204841E+03  0.57346204841E+03  0.25500000920E-02 0.  1.
    10030    2    1    2    0    0  0.00000000000E+00  0.00000000000E+00  0.11692622991E+04  0.23161863959E+04  0.19993861800E+04 0.  0.
        2    1    3    3  502    0 -0.37490416728E+03  0.89963994897E+03  0.84232051793E+03  0.12881805104E+04  0.25500000920E-02 0.  1.
       -2    1    3    3    0  502  0.37490416728E+03 -0.89963994897E+03  0.32694178118E+03  0.10280058855E+04  0.25500000920E-02 0. -1.
</event>
<event>
 5   0  0.5129100E-06  0.2002130E+04  0.7818609E-02  0.8605626E-01
        2   -1    0    0  501    0  0.00000000000E+00  0.00000000000E+00  0.13696969611E+04  0.13696969611E+04  0.25500000920E-02 0.  1.
       -2   -1    0    0    0  501  0.00000000000E+00  0.00000000000E+00 -0.73164431349E+03  0.73164431350E+03  0.25500000920E-02 0. -1.
    10030    2    1    2    0    0  0.00000000000E+00  0.00000000000E+00  0.63805264765E+03  0.21013412746E+04  0.20021298588E+04 0.  0.
        2    1    3    3  502    0  0.23135538470E+02  0.73240759768E+02  0.13665997908E+04  0.13687565343E+04  0.25500000920E-02 0.  1.
       -2    1    3    3    0  502 -0.23135538470E+02 -0.73240759768E+02 -0.72854714312E+03  0.73258474035E+03  0.25500000920E-02 0. -1.
</event>
<event>
 5   0  0.2311520E-06  0.2000255E+04  0.7818609E-02  0.8606502E-01
       -1   -1    0    0    0  501  0.00000000000E+00  0.00000000000E+00  0.75857004587E+03  0.75857004589E+03  0.50400001928E-02 0. -1.
        1   -1    0    0  501    0  0.00000000000E+00  0.00000000000E+00 -0.13186054068E+04  0.13186054068E+04  0.50400001928E-02 0.  1.
    10030    2    1    2    0    0  0.00000000000E+00  0.00000000000E+00 -0.56003536094E+03  0.20771754527E+04  0.20002545478E+04 0.  0.
        3    1    3    3  502    0 -0.99838675331E+03  0.56419134520E+02 -0.29786358820E+03  0.10433992310E+04  0.10100000352E+00 0. -1.
       -3    1    3    3    0  502  0.99838675331E+03 -0.56419134520E+02 -0.26217177274E+03  0.10337762217E+04  0.10100000352E+00 0.  1.
</event>
<event>
 5   0  0.2313821E-06  0.1995259E+04  0.7818609E-02  0.8608840E-01
       -1   -1    0    0    0  501  0.00000000000E+00  0.00000000000E+00  0.44052850713E+03  0.44052850716E+03  0.50400001928E-02 0.  1.
        1   -1    0    0  501    0  0.00000000000E+00  0.00000000000E+00 -0.22592521723E+04  0.22592521723E+04  0.50400001928E-02 0. -1.
    10030    2    1    2    0    0  0.00000000000E+00  0.00000000000E+00 -0.18187236652E+04  0.26997806794E+04  0.19952593683E+04 0.  0.
        1    1    3    3  502    0  0.65014086120E+03  0.55015261944E+03 -0.16123399169E+04  0.18234557993E+04  0.50400001928E-02 0. -1.
       -1    1    3    3    0  502 -0.65014086120E+03 -0.55015261944E+03 -0.20638374822E+03  0.87632488018E+03  0.50400001928E-02 0.  1.
</event>
<event>
 5   0  0.2311520E-06  0.1999103E+04  0.7818609E-02  0.8607040E-01
        1   -1    0    0  501    0  0.00000000000E+00  0.00000000000E+00  0.22107484171E+04  0.22107484171E+04  0.50400001928E-02 0.  1.
       -1   -1    0    0    0  501  0.00000000000E+00  0.00000000000E+00 -0.45192999719E+03  0.45192999722E+03  0.50400001928E-02 0. -1.
    10030    2    1    2    0    0  0.00000000000E+00  0.00000000000E+00  0.17588184199E+04  0.26626784143E+04  0.19991033250E+04 0.  0.
        3    1    3    3  502    0 -0.62835784182E+03 -0.29461673884E+03  0.18375436448E+04  0.19642299399E+04  0.10100000352E+00 0.  1.
       -3    1    3    3    0  502  0.62835784182E+03  0.29461673884E+03 -0.78725224863E+02  0.69844847442E+03  0.10100000352E+00 0. -1.
</event>
<event>
 5   0  0.1777750E-06  0.2001103E+04  0.7818609E-02  0.8606105E-01
       -3   -1    0    0    0  501  0.00000000000E+00  0.00000000000E+00  0.47316138427E+03  0.47316139505E+03  0.10100000352E+00 0. -1.
        3   -1    0    0  501    0  0.00000000000E+00  0.00000000000E+00 -0.21157759718E+04  0.21157759743E+04  0.10100000352E+00 0.  1.
    10030    2    1    2    0    0  0.00000000000E+00  0.00000000000E+00 -0.16426145876E+04  0.25889373693E+04  0.20011032005E+04 0.  0.
        1    1    3    3  502    0 -0.31269983547E+03 -0.68811174512E+03 -0.16695061123E+04  0.18326291550E+04  0.50400001928E-02 0.  1.
       -1    1    3    3    0  502  0.31269983547E+03  0.68811174512E+03  0.26891524705E+02  0.75630821429E+03  0.50400001928E-02 0. -1.
</event>
<event>
 5   0  0.2356996E-06  0.1999325E+04  0.7818609E-02  0.8606936E-01
        1   -1    0    0  501    0  0.00000000000E+00  0.00000000000E+00  0.12403358149E+04  0.12403358149E+04  0.50400001928E-02 0.  1.
       -1   -1    0    0    0  501  0.00000000000E+00  0.00000000000E+00 -0.80568901300E+03  0.80568901302E+03  0.50400001928E-02 0. -1.
    10030    2    1    2    0    0  0.00000000000E+00  0.00000000000E+00  0.43464680185E+03  0.20460248279E+04  0.19993248245E+04 0.  0.
        4    1    3    3  502    0 -0.67624267797E+03  0.41761216006E+03 -0.40315499303E+03  0.89120123263E+03  0.12699999809E+01 0. -1.
       -4    1    3    3    0  502  0.67624267797E+03 -0.41761216006E+03  0.83780179488E+03  0.11548235953E+04  0.12699999809E+01 0.  1.
</event>
<event>
 5   0  0.2356996E-06  0.1998061E+04  0.7818609E-02  0.8607528E-01
       -1   -1    0    0    0  501  0.00000000000E+00  0.00000000000E+00  0.55097283871E+03  0.55097283874E+03  0.50400001928E-02 0. -1.
        1   -1    0    0  501    0  0.00000000000E+00  0.00000000000E+00 -0.18114534431E+04  0.18114534431E+04  0.50400001928E-02 0.  1.
    10030    2    1    2    0    0  0.00000000000E+00  0.00000000000E+00 -0.12604806044E+04  0.23624262819E+04  0.19980607056E+04 0.  0.
        4    1    3    3  502    0  0.66427997950E+03 -0.60156019905E+03 -0.10823493562E+03  0.90269539627E+03  0.12699999809E+01 0. -1.
       -4    1    3    3    0  502 -0.66427997950E+03  0.60156019905E+03 -0.11522456688E+04  0.14597308856E+04  0.12699999809E+01 0.  1.
</event>
<event>
 5   0  0.4956214E-06  0.1997834E+04  0.7818609E-02  0.8607634E-01
        2   -1    0    0  501    0  0.00000000000E+00  0.00000000000E+00  0.78617503672E+03  0.78617503673E+03  0.25500000920E-02 0.  1.
       -2   -1    0    0    0  501  0.00000000000E+00  0.00000000000E+00 -0.12692277227E+04  0.12692277227E+04  0.25500000920E-02 0. -1.
    10030    2    1    2    0    0  0.00000000000E+00  0.00000000000E+00 -0.48305268598E+03  0.20554027594E+04  0.19978339786E+04 0.  0.
        1    1    3    3  502    0 -0.77240801783E+03 -0.29467240764E+03 -0.81838754942E+03  0.11632730354E+04  0.50400001928E-02 0. -1.
       -1    1    3    3    0  502  0.77240801783E+03  0.29467240764E+03  0.33533486344E+03  0.89212972403E+03  0.50400001928E-02 0.  1.
</event>
<event>
 5   0  0.5030137E-06  0.2001473E+04  0.7818609E-02  0.8605933E-01
       -2   -1    0    0    0  501  0.00000000000E+00  0.00000000000E+00  0.51016596453E+03  0.51016596454E+03  0.25500000920E-02 0. -1.
        2   -1    0    0  501    0  0.00000000000E+00  0.00000000000E+00 -0.19630339074E+04  0.19630339074E+04  0.25500000920E-02 0.  1.
    10030    2    1    2    0    0  0.00000000000E+00  0.00000000000E+00 -0.14528679429E+04  0.24731998720E+04  0.20014725447E+04 0.  0.
        3    1    3    3  502    0 -0.90582355818E+03 -0.61386653359E+02 -0.20628557168E+03  0.93104156032E+03  0.10100000352E+00 0. -1.
       -3    1    3    3    0  502  0.90582355818E+03  0.61386653359E+02 -0.12465823712E+04  0.15421583117E+04  0.10100000352E+00 0.  1.
</event>
<event>
 5   0  0.1777750E-06  0.2000185E+04  0.7818609E-02  0.8606534E-01
       -3   -1    0    0    0  501  0.00000000000E+00  0.00000000000E+00  0.62226319733E+03  0.62226320553E+03  0.10100000352E+00 0.  1.
        3   -1    0    0  501    0  0.00000000000E+00  0.00000000000E+00 -0.16073339730E+04  0.16073339762E+04  0.10100000352E+00 0. -1.
    10030    2    1    2    0    0  0.00000000000E+00  0.00000000000E+00 -0.98507077565E+03  0.22295971817E+04  0.20001847814E+04 0.  0.
        2    1    3    3  502    0 -0.65995116187E+03  0.47066672363E+03 -0.11454864413E+04  0.14032825403E+04  0.25500000920E-02 0. -1.
       -2    1    3    3    0  502  0.65995116187E+03 -0.47066672363E+03  0.16041566561E+03  0.82631464139E+03  0.25500000920E-02 0.  1.
</event>
<event>
 5   0  0.5129100E-06  0.2000596E+04  0.7818609E-02  0.8606342E-01
        2   -1    0    0  501    0  0.00000000000E+00  0.00000000000E+00  0.96894503667E+03  0.96894503667E+03  0.25500000920E-02 0. -1.
       -2   -1    0    0    0  501  0.00000000000E+00  0.00000000000E+00 -0.10326653503E+04  0.10326653503E+04  0.25500000920E-02 0.  1.
    10030    2    1    2    0    0  0.00000000000E+00  0.00000000000E+00 -0.63720313677E+02  0.20016103870E+04  0.20005958770E+04 0.  0.
        2    1    3    3  502    0  0.74732841078E+02 -0.99057122480E+03  0.85585982955E+02  0.99706635157E+03  0.25500000920E-02 0.  1.
       -2    1    3    3    0  502 -0.74732841078E+02  0.99057122480E+03 -0.14930629663E+03  0.10045440355E+04  0.25500000920E-02 0. -1.
</event>
<event>
 5   0  0.5118981E-06  0.1998862E+04  0.7818609E-02  0.8607153E-01
       -2   -1    0    0    0  501  0.00000000000E+00  0.00000000000E+00  0.72133132027E+03  0.72133132027E+03  0.25500000920E-02 0. -1.
        2   -1    0    0  501    0  0.00000000000E+00  0.00000000000E+00 -0.13847476284E+04  0.13847476284E+04  0.25500000920E-02 0.  1.
    10030    2    1    2    0    0  0.00000000000E+00  0.00000000000E+00 -0.66341630817E+03  0.21060789487E+04  0.19988615110E+04 0.  0.
        4    1    3    3  502    0 -0.94865547397E+03 -0.22984174146E+03 -0.10551708705E+03  0.98178913365E+03  0.12699999809E+01 0. -1.
       -4    1    3    3    0  502  0.94865547397E+03  0.22984174146E+03 -0.55789922112E+03  0.11242898151E+04  0.12699999809E+01 0.  1.
</event>
<event>
 5   0  0.2356996E-06  0.1999548E+04  0.7818609E-02  0.8606832E-01
       -1   -1    0    0    0  501  0.00000000000E+00  0.00000000000E+00  0.41581027043E+03  0.41581027046E+03  0.50400001928E-02 0. -1.
        1   -1    0    0  501    0  0.00000000000E+00  0.00000000000E+00 -0.24038554276E+04  0.24038554276E+04  0.50400001928E-02 0.  1.
    10030    2    1    2    0    0  0.00000000000E+00  0.00000000000E+00 -0.19880451572E+04  0.28196656981E+04  0.19995477243E+04 0.  0.
        4    1    3    3  502    0 -0.18519798728E+02 -0.27651412277E+03 -0.23486075554E+04  0.23649021343E+04  0.12699999809E+01 0.  1.
       -4    1    3    3    0  502  0.18519798728E+02  0.27651412277E+03  0.36056239817E+03  0.45476356374E+03  0.12699999809E+01 0. -1.
</event>
<event>
 5   0  0.5251252E-06  0.2000348E+04  0.7818609E-02  0.8606458E-01
       -2   -1    0    0    0  501  0.00000000000E+00  0.00000000000E+00  0.96420809514E+03  0.96420809515E+03  0.25500000920E-02 0.  1.
        2   -1    0    0  501    0  0.00000000000E+00  0.00000000000E+00 -0.10374812869E+04  0.10374812869E+04  0.25500000920E-02 0. -1.
    10030    2    1    2    0    0  0.00000000000E+00  0.00000000000E+00 -0.73273191721E+02  0.20016893820E+04  0.20003478251E+04 0.  0.
        5    1    3    3  502    0  0.10508353874E+03 -0.98648215804E+03 -0.16375000269E+03  0.10054977631E+04  0.46999998093E+01 0.  1.
       -5    1    3    3    0  502 -0.10508353874E+03  0.98648215804E+03  0.90476810972E+02  0.99619161890E+03  0.46999998093E+01 0. -1.
</event>
<event>
 5   0  0.5030137E-06  0.1998932E+04  0.7818609E-02  0.8607120E-01
        2   -1    0    0  501    0  0.00000000000E+00  0.00000000000E+00  0.91884580618E+03  0.91884580618E+03  0.25500000920E-02 0. -1.
       -2   -1    0    0    0  501  0.00000000000E+00  0.00000000000E+00 -0.10871597787E+04  0.10871597787E+04  0.25500000920E-02 0.  1.
    10030    2    1    2    0    0  0.00000000000E+00  0.00000000000E+00 -0.16831397248E+03  0.20060055848E+04  0.19989319181E+04 0.  0.
        3    1    3    3  502    0  0.65933966651E+03 -0.72627197646E+03 -0.27649222770E+03  0.10191406879E+04  0.10100000352E+00 0.  1.
       -3    1    3    3    0  502 -0.65933966651E+03  0.72627197646E+03  0.10817825522E+03  0.98686489690E+03  0.10100000352E+00 0. -1.
</event>
<event>
 5   0  0.2356996E-06  0.1997843E+04  0.7818609E-02  0.8607630E-01
        1   -1    0    0  501    0  0.00000000000E+00  0.00000000000E+00  0.16489441913E+04  0.16489441913E+04  0.50400001928E-02 0.  1.
       -1   -1    0    0    0  501  0.00000000000E+00  0.00000000000E+00 -0.60514103446E+03  0.60514103448E+03  0.50400001928E-02 0. -1.
    10030    2    1    2    0    0  0.00000000000E+00  0.00000000000E+00  0.10438031569E+04  0.22540852258E+04  0.19978426302E+04 0.  0.
        4    1    3    3  502    0  0.58130109877E+03  0.55105316666E+03  0.11953427616E+04  0.14388941901E+04  0.12699999809E+01 0.  1.
       -4    1    3    3    0  502 -0.58130109877E+03 -0.55105316666E+03 -0.15153960470E+03  0.81519103565E+03  0.12699999809E+01 0. -1.
</event>
<event>
 5   0  0.2311520E-06  0.2002697E+04  0.7818609E-02  0.8605361E-01
        1   -1    0    0  501    0  0.00000000000E+00  0.00000000000E+00  0.96595627873E+03  0.96595627874E+03  0.50400001928E-02 0.  1.
       -1   -1    0    0    0  501  0.00000000000E+00  0.00000000000E+00 -0.10380378796E+04  0.10380378796E+04  0.50400001928E-02 0. -1.
    10030    2    1    2    0    0  0.00000000000E+00  0.00000000000E+00 -0.72081600908E+02  0.20039941584E+04  0.20026973884E+04 0.  0.
        3    1    3    3  502    0 -0.75513562594E+03 -0.65456834796E+03  0.27322089265E+02  0.99971798147E+03  0.10100000352E+00 0.  1.
       -3    1    3    3    0  502  0.75513562594E+03  0.65456834796E+03 -0.99403690173E+02  0.10042761769E+04  0.10100000352E+00 0. -1.
</event>
<event>
 5   0  0.5118981E-06  0.1998749E+04  0.7818609E-02  0.8607206E-01
       -2   -1    0    0    0  501  0.00000000000E+00  0.00000000000E+00  0.95244963554E+03  0.95244963555E+03  0.25500000920E-02 0.  1.
        2   -1    0    0  501    0  0.00000000000E+00  0.00000000000E+00 -0.10486117219E+04  0.10486117219E+04  0.25500000920E-02 0. -1.
    10030    2    1    2    0    0  0.00000000000E+00  0.00000000000E+00 -0.96162086375E+02  0.20010613575E+04  0.19987494614E+04 0.  0.
        4    1    3    3  502    0  0.12492460175E+03  0.99069842570E+03 -0.88855447655E+02  0.10024901148E+04  0.12699999809E+01 0. -1.
       -4    1    3    3    0  502 -0.12492460175E+03 -0.99069842570E+03 -0.73066387199E+01  0.99857124266E+03  0.12699999809E+01 0.  1.
</event>
<event>
 5   0  0.5030137E-06  0.1999391E+04  0.7818609E-02  0.8606905E-01
        2   -1    0    0  501    0  0.00000000000E+00  0.00000000000E+00  0.10370223944E+04  0.10370223944E+04  0.25500000920E-02 0. -1.
       -2   -1    0    0    0  501  0.00000000000E+00  0.00000000000E+00 -0.96371255721E+03  0.96371255721E+03  0.25500000920E-02 0.  1.
    10030    2    1    2    0    0  0.00000000000E+00  0.00000000000E+00  0.73309837208E+02  0.20007349516E+04  0.19993914110E+04 0.  0.
        3    1    3    3  502    0 -0.32573190957E+03  0.93829472379E+03 -0.76969733130E+02  0.99620410339E+03  0.10100000352E+00 0. -1.
       -3    1    3    3    0  502  0.32573190957E+03 -0.93829472379E+03  0.15027957034E+03  0.10045308482E+04  0.10100000352E+00 0.  1.
</event>
<event>
 5   0  0.5129100E-06  0.1994124E+04  0.7818609E-02  0.8609373E-01
        2   -1    0    0  501    0  0.00000000000E+00  0.00000000000E+00  0.13030583625E+04  0.13030583625E+04  0.25500000920E-02 0.  1.
       -2   -1    0    0    0  501  0.00000000000E+00  0.00000000000E+00 -0.76292286565E+03  0.76292286565E+03  0.25500000920E-02 0. -1.
    10030    2    1    2    0    0  0.00000000000E+00  0.00000000000E+00  0.54013549683E+03  0.20659812281E+04  0.19941243893E+04 0.  0.
        2    1    3    3  502    0  0.50637003900E+03  0.12304314572E+03  0.11507473395E+04  0.12632377731E+04  0.25500000920E-02 0.  1.
       -2    1    3    3    0  502 -0.50637003900E+03 -0.12304314572E+03 -0.61061184268E+03  0.80274345499E+03  0.25500000920E-02 0. -1.
</event>
<event>
 5   0  0.5129100E-06  0.2000923E+04  0.7818609E-02  0.8606189E-01
        2   -1    0    0  501    0  0.00000000000E+00  0.00000000000E+00  0.11181151951E+04  0.11181151951E+04  0.25500000920E-02 0.  1.
       -2   -1    0    0    0  501  0.00000000000E+00  0.00000000000E+00 -0.89518797378E+03  0.89518797378E+03  0.25500000920E-02 0. -1.
    10030    2    1    2    0    0  0.00000000000E+00  0.00000000000E+00  0.22292722133E+03  0.20133031689E+04  0.20009230630E+04 0.  0.
        2    1    3    3  502    0  0.48087102433E+03  0.60291263530E+03  0.75273149719E+03  0.10776573178E+04  0.25500000920E-02 0.  1.
       -2    1    3    3    0  502 -0.48087102433E+03 -0.60291263530E+03 -0.52980427586E+03  0.93564585104E+03  0.25500000920E-02 0. -1.
</event>
<event>
 5   0  0.5118981E-06  0.2000866E+04  0.7818609E-02  0.8606216E-01
        2   -1    0    0  501    0  0.00000000000E+00  0.00000000000E+00  0.48368808983E+03  0.48368808984E+03  0.25500000920E-02 0. -1.
       -2   -1    0    0    0  501  0.00000000000E+00  0.00000000000E+00 -0.20692391360E+04  0.20692391360E+04  0.25500000920E-02 0.  1.
    10030    2    1    2    0    0  0.00000000000E+00  0.00000000000E+00 -0.15855510462E+04  0.25529272258E+04  0.20008661376E+04 0.  0.
        4    1    3    3  502    0  0.74275044756E+03 -0.16699911473E+03  0.35385880146E+02  0.76211593940E+03  0.12699999809E+01 0. -1.
       -4    1    3    3    0  502 -0.74275044756E+03  0.16699911473E+03 -0.16209369263E+04  0.17908112864E+04  0.12699999809E+01 0.  1.
</event>
<event>
 5   0  0.5251252E-06  0.1999859E+04  0.7818609E-02  0.8606686E-01
        2   -1    0    0  501    0  0.00000000000E+00  0.00000000000E+00  0.13584195467E+04  0.13584195467E+04  0.25500000920E-02 0.  1.
       -2   -1    0    0    0  501  0.00000000000E+00  0.00000000000E+00 -0.73604616799E+03  0.73604616800E+03  0.25500000920E-02 0. -1.
    10030    2    1    2    0    0  0.00000000000E+00  0.00000000000E+00  0.62237337868E+03  0.20944657147E+04  0.19998594969E+04 0.  0.
        5    1    3    3  502    0  0.74525282494E+03  0.87747307725E+02  0.10033097046E+04  0.12528981669E+04  0.46999998093E+01 0.  1.
       -5    1    3    3    0  502 -0.74525282494E+03 -0.87747307725E+02 -0.38093632597E+03  0.84156754781E+03  0.46999998093E+01 0. -1.
</event>
<event>
 5   0  0.5251252E-06  0.1999027E+04  0.7818609E-02  0.8607076E-01
       -2   -1    0    0    0  501  0.00000000000E+00  0.00000000000E+00  0.56678914920E+03  0.56678914921E+03  0.25500000920E-02 0.  1.
        2   -1    0    0  501    0  0.00000000000E+00  0.00000000000E+00 -0.17626082327E+04  0.17626082327E+04  0.25500000920E-02 0. -1.
    10030    2    1    2    0    0  0.00000000000E+00  0.00000000000E+00 -0.11958190835E+04  0.23293973819E+04  0.19990269839E+04 0.  0.
        5    1    3    3  502    0  0.75725020789E+03  0.51590717814E+02 -0.13557046638E+04  0.15537202788E+04  0.46999998093E+01 0. -1.
       -5    1    3    3    0  502 -0.75725020789E+03 -0.51590717814E+02  0.15988558024E+03  0.77567710310E+03  0.46999998093E+01 0.  1.
</event>
<event>
 5   0  0.5030137E-06  0.1999939E+04  0.7818609E-02  0.8606649E-01
       -2   -1    0    0    0  501  0.00000000000E+00  0.00000000000E+00  0.83445171092E+03  0.83445171092E+03  0.25500000920E-02 0.  1.
        2   -1    0    0  501    0  0.00000000000E+00  0.00000000000E+00 -0.11983181605E+04  0.11983181605E+04  0.25500000920E-02 0. -1.
    10030    2    1    2    0    0  0.00000000000E+00  0.00000000000E+00 -0.36386644957E+03  0.20327698714E+04  0.19999386383E+04 0.  0.
        3    1    3    3  502    0 -0.15908164018E+03 -0.58568678375E+03 -0.98971400708E+03  0.11609779511E+04  0.10100000352E+00 0. -1.
       -3    1    3    3    0  502  0.15908164018E+03  0.58568678375E+03  0.62584755751E+03  0.87179192033E+03  0.10100000352E+00 0.  1.
</event>
<event>
 5   0  0.2313821E-06  0.2003223E+04  0.7818609E-02  0.8605115E-01
        1   -1    0    0  501    0  0.00000000000E+00  0.00000000000E+00  0.18100352230E+04  0.18100352230E+04  0.50400001928E-02 0.  1.
       -1   -1    0    0    0  501  0.00000000000E+00  0.00000000000E+00 -0.55425733355E+03  0.55425733357E+03  0.50400001928E-02 0. -1.
    10030    2    1    2    0    0  0.00000000000E+00  0.00000000000E+00  0.12557778894E+04  0.23642925566E+04  0.20032226999E+04 0.  0.
        1    1    3    3  502    0 -0.32192887628E+03 -0.82149942250E+03  0.68391066810E+02  0.88497279088E+03  0.50400001928E-02 0. -1.
       -1    1    3    3    0  502  0.32192887628E+03  0.82149942250E+03  0.11873868226E+04  0.14793197657E+04  0.50400001928E-02 0.  1.
</event>
<event>
 5   0  0.2313821E-06  0.2000790E+04  0.7818609E-02  0.8606252E-01
       -1   -1    0    0    0  501  0.00000000000E+00  0.00000000000E+00  0.14083826643E+04  0.14083826643E+04  0.50400001928E-02 0.  1.
        1   -1    0    0  501    0  0.00000000000E+00  0.00000000000E+00 -0.71059498972E+03  0.71059498974E+03  0.50400001928E-02 0. -1.
    10030    2    1    2    0    0  0.00000000000E+00  0.00000000000E+00  0.69778767454E+03  0.21189776540E+04  0.20007895090E+04 0.  0.
        1    1    3    3  502    0  0.39082964368E+03  0.92067415575E+03  0.32768719461E+03  0.10525053962E+04  0.50400001928E-02 0.  1.
       -1    1    3    3    0  502 -0.39082964368E+03 -0.92067415575E+03  0.37010047992E+03  0.10664722578E+04  0.50400001928E-02 0. -1.
</event>
<event>
 5   0  0.5129100E-06  0.2003311E+04  0.7818609E-02  0.8605074E-01
        2   -1    0    0  501    0  0.00000000000E+00  0.00000000000E+00  0.13905835321E+04  0.13905835322E+04  0.25500000920E-02 0. -1.
       -2   -1    0    0    0  501  0.00000000000E+00  0.00000000000E+00 -0.72150569490E+03  0.72150569491E+03  0.25500000920E-02 0.  1.
    10030    2    1    2    0    0  0.00000000000E+00  0.00000000000E+00  0.66907783725E+03  0.21120892271E+04  0.20033111967E+04 0.  0.
        2    1    3    3  502    0 -0.82982654138E+03  0.91274958327E+02 -0.24902372008E+03  0.87118081933E+03  0.25500000920E-02 0.  1.
       -2    1    3    3    0  502  0.82982654138E+03 -0.91274958327E+02  0.91810155733E+03  0.12409084077E+04  0.25500000920E-02 0. -1.
</event>
<event>
 5   0  0.5118981E-06  0.1997464E+04  0.7818609E-02  0.8607807E-01
       -2   -1    0    0    0  501  0.00000000000E+00  0.00000000000E+00  0.95750689622E+03  0.95750689622E+03  0.25500000920E-02 0.  1.
        2   -1    0    0  501    0  0.00000000000E+00  0.00000000000E+00 -0.10417322540E+04  0.10417322540E+04  0.25500000920E-02 0. -1.
    10030    2    1    2    0    0  0.00000000000E+00  0.00000000000E+00 -0.84225357754E+02  0.19992391502E+04  0.19974642096E+04 0.  0.
        4    1    3    3  502    0 -0.22277073295E+03 -0.72691497857E+03  0.60609852278E+03  0.97231127616E+03  0.12699999809E+01 0.  1.
       -4    1    3    3    0  502  0.22277073295E+03  0.72691497857E+03 -0.69032388054E+03  0.10269278740E+04  0.12699999809E+01 0. -1.
</event>
<event>
 5   0  0.2379743E-06  0.2003020E+04  0.7818609E-02  0.8605210E-01
        1   -1    0    0  501    0  0.00000000000E+00  0.00000000000E+00  0.11111204828E+04  0.11111204828E+04  0.50400001928E-02 0.  1.
       -1   -1    0    0    0  501  0.00000000000E+00  0.00000000000E+00 -0.90271198799E+03  0.90271198801E+03  0.50400001928E-02 0. -1.
    10030    2    1    2    0    0  0.00000000000E+00  0.00000000000E+00  0.20840849483E+03  0.20138324708E+04  0.20030195006E+04 0.  0.
        5    1    3    3  502    0 -0.73581142764E+03 -0.31304430852E+03 -0.50203051833E+03  0.94417791092E+03  0.46999998093E+01 0. -1.
       -5    1    3    3    0  502  0.73581142764E+03  0.31304430852E+03  0.71043901317E+03  0.10696545599E+04  0.46999998093E+01 0.  1.
</event>
<event>
 5   0  0.4956214E-06  0.2000557E+04  0.7818609E-02  0.8606360E-01
        2   -1    0    0  501    0  0.00000000000E+00  0.00000000000E+00  0.17015549926E+04  0.17015549926E+04  0.25500000920E-02 0.  1.
       -2   -1    0    0    0  501  0.00000000000E+00  0.00000000000E+00 -0.58802497063E+03  0.58802497064E+03  0.25500000920E-02 0. -1.
    10030    2    1    2    0    0  0.00000000000E+00  0.00000000000E+00  0.11135300220E+04  0.22895799633E+04  0.20005567471E+04 0.  0.
        1    1    3    3  502    0  0.10715286370E+03  0.94135411504E+03  0.18959204985E+03  0.96621656553E+03  0.50400001928E-02 0. -1.
       -1    1    3    3    0  502 -0.10715286370E+03 -0.94135411504E+03  0.92393797214E+03  0.13233633977E+04  0.50400001928E-02 0.  1.
</event>
<event>
 5   0  0.2379743E-06  0.1999966E+04  0.7818609E-02  0.8606637E-01
        1   -1    0    0  501    0  0.00000000000E+00  0.00000000000E+00  0.83404026058E+03  0.83404026059E+03  0.50400001928E-02 0.  1.
       -1   -1    0    0    0  501  0.00000000000E+00  0.00000000000E+00 -0.11989422046E+04  0.11989422046E+04  0.50400001928E-02 0. -1.
    10030    2    1    2    0    0  0.00000000000E+00  0.00000000000E+00 -0.36490194403E+03  0.20329824652E+04  0.19999660685E+04 0.  0.
        5    1    3    3  502    0  0.55851648891E+03 -0.45201443792E+03  0.52450583401E+03  0.88959888735E+03  0.46999998093E+01 0.  1.
       -5    1    3    3    0  502 -0.55851648891E+03  0.45201443792E+03 -0.88940777804E+03  0.11433835779E+04  0.46999998093E+01 0. -1.
</event>
<event>
 5   0  0.2356996E-06  0.1999800E+04  0.7818609E-02  0.8606714E-01
       -1   -1    0    0    0  501  0.00000000000E+00  0.00000000000E+00  0.73037188212E+03  0.73037188214E+03  0.50400001928E-02 0. -1.
        1   -1    0    0  501    0  0.00000000000E+00  0.00000000000E+00 -0.13688916283E+04  0.13688916283E+04  0.50400001928E-02 0.  1.
    10030    2    1    2    0    0  0.00000000000E+00  0.00000000000E+00 -0.63851974618E+03  0.20992635105E+04  0.19997999450E+04 0.  0.
        4    1    3    3  502    0 -0.21808445854E+03 -0.88799248827E+03 -0.74399074895E+03  0.11788194678E+04  0.12699999809E+01 0.  1.
       -4    1    3    3    0  502  0.21808445854E+03  0.88799248827E+03  0.10547100278E+03  0.92044404263E+03  0.12699999809E+01 0. -1.
</event>
<event>
 5   0  0.2313821E-06  0.2000852E+04  0.7818609E-02  0.8606222E-01
        1   -1    0    0  501    0  0.00000000000E+00  0.00000000000E+00  0.25198332784E+04  0.25198332784E+04  0.50400001928E-02 0.  1.
       -1   -1    0    0    0  501  0.00000000000E+00  0.00000000000E+00 -0.39718992486E+03  0.39718992489E+03  0.50400001928E-02 0. -1.
    10030    2    1    2    0    0  0.00000000000E+00  0.00000000000E+00  0.21226433535E+04  0.29170232033E+04  0.20008522090E+04 0.  0.
        1    1    3    3  502    0 -0.82914623844E+03  0.55803728613E+03  0.99672391929E+03  0.14115054618E+04  0.50400001928E-02 0. -1.
       -1    1    3    3    0  502  0.82914623844E+03 -0.55803728613E+03  0.11259194342E+04  0.15055177414E+04  0.50400001928E-02 0.  1.
</event>
<event>
 5   0  0.2313821E-06  0.2000078E+04  0.7818609E-02  0.8606584E-01
       -1   -1    0    0    0  501  0.00000000000E+00  0.00000000000E+00  0.36828226763E+03  0.36828226766E+03  0.50400001928E-02 0. -1.
        1   -1    0    0  501    0  0.00000000000E+00  0.00000000000E+00 -0.27155212051E+04  0.27155212051E+04  0.50400001928E-02 0.  1.
    10030    2    1    2    0    0  0.00000000000E+00  0.00000000000E+00 -0.23472389374E+04  0.30838034727E+04  0.20000783057E+04 0.  0.
        1    1    3    3  502    0 -0.30363435151E+03  0.30912406775E+03 -0.25632683571E+04  0.25996338549E+04  0.50400001928E-02 0.  1.
       -1    1    3    3    0  502  0.30363435151E+03 -0.30912406775E+03  0.21602941969E+03  0.48416961787E+03  0.50400001928E-02 0. -1.
</event>
<event>
 5   0  0.2313821E-06  0.2001742E+04  0.7818609E-02  0.8605806E-01
        1   -1    0    0  501    0  0.00000000000E+00  0.00000000000E+00  0.16855441359E+04  0.16855441359E+04  0.50400001928E-02 0. -1.
       -1   -1    0    0    0  501  0.00000000000E+00  0.00000000000E+00 -0.59431443392E+03  0.59431443394E+03  0.50400001928E-02 0.  1.
    10030    2    1    2    0    0  0.00000000000E+00  0.00000000000E+00  0.10912297020E+04  0.22798585699E+04  0.20017424500E+04 0.  0.
        1    1    3    3  502    0  0.59416101024E+03 -0.22489541648E+03  0.14264616654E+04  0.15615371072E+04  0.50400001928E-02 0. -1.
       -1    1    3    3    0  502 -0.59416101024E+03  0.22489541648E+03 -0.33523196336E+03  0.71832146266E+03  0.50400001928E-02 0.  1.
</event>
<event>
 5   0  0.2386776E-06  0.2000089E+04  0.7818609E-02  0.8606579E-01
       -1   -1    0    0    0  501  0.00000000000E+00  0.00000000000E+00  0.10248765933E+04  0.10248765933E+04  0.50400001928E-02 0. -1.
        1   -1    0    0  501    0  0.00000000000E+00  0.00000000000E+00 -0.97581391425E+03  0.97581391427E+03  0.50400001928E-02 0.  1.
    10030    2    1    2    0    0  0.00000000000E+00  0.00000000000E+00  0.49062679021E+02  0.20006905076E+04  0.20000888382E+04 0.  0.
        2    1    3    3  502    0  0.63459661137E+03 -0.73538945226E+03  0.26246490069E+03  0.10061800683E+04  0.25500000920E-02 0.  1.
       -2    1    3    3    0  502 -0.63459661137E+03  0.73538945226E+03 -0.21340222167E+03  0.99451043930E+03  0.25500000920E-02 0. -1.
</event>
<event>
 5   0  0.2379743E-06  0.1999796E+04  0.7818609E-02  0.8606716E-01
       -1   -1    0    0    0  501  0.00000000000E+00  0.00000000000E+00  0.76314136524E+03  0.76314136526E+03  0.50400001928E-02 0.  1.
        1   -1    0    0  501    0  0.00000000000E+00  0.00000000000E+00 -0.13101062606E+04  0.13101062606E+04  0.50400001928E-02 0. -1.
    10030    2    1    2    0    0  0.00000000000E+00  0.00000000000E+00 -0.54696489536E+03  0.20732476259E+04  0.19997962700E+04 0.  0.
        5    1    3    3  502    0 -0.51069307318E+03 -0.75175463815E+03  0.15876253476E+03  0.92258879433E+03  0.46999998093E+01 0.  1.
       -5    1    3    3    0  502  0.51069307318E+03  0.75175463815E+03 -0.70572743012E+03  0.11506588315E+04  0.46999998093E+01 0. -1.
</event>
<event>
 5   0  0.5030137E-06  0.1999824E+04  0.7818609E-02  0.8606703E-01
        2   -1    0    0  501    0  0.00000000000E+00  0.00000000000E+00  0.13915416845E+04  0.13915416845E+04  0.25500000920E-02 0. -1.
       -2   -1    0    0    0  501  0.00000000000E+00  0.00000000000E+00 -0.71850065501E+03  0.71850065502E+03  0.25500000920E-02 0.  1.
    10030    2    1    2    0    0  0.00000000000E+00  0.00000000000E+00  0.67304102947E+03  0.21100423395E+04  0.19998236040E+04 0.  0.
        3    1    3    3  502    0  0.95755225371E+03  0.25604236711E+03  0.47553792765E+03  0.10993636083E+04  0.10100000352E+00 0. -1.
       -3    1    3    3    0  502 -0.95755225371E+03 -0.25604236711E+03  0.19750310182E+03  0.10106787312E+04  0.10100000352E+00 0.  1.
</event>
<event>
 5   0  0.2311520E-06  0.2000202E+04  0.7818609E-02  0.8606526E-01
        1   -1    0    0  501    0  0.00000000000E+00  0.00000000000E+00  0.70302117391E+03  0.70302117393E+03  0.50400001928E-02 0. -1.
       -1   -1    0    0    0  501  0.00000000000E+00  0.00000000000E+00 -0.14227202104E+04  0.14227202104E+04  0.50400001928E-02 0.  1.
    10030    2    1    2    0    0  0.00000000000E+00  0.00000000000E+00 -0.71969903648E+03  0.21257413843E+04  0.20002024222E+04 0.  0.
        3    1    3    3  502    0 -0.15714826504E+03 -0.19983082516E+03  0.66810917495E+03  0.71484111223E+03  0.10100000352E+00 0. -1.
       -3    1    3    3    0  502  0.15714826504E+03  0.19983082516E+03 -0.13878082114E+04  0.14109002721E+04  0.10100000352E+00 0.  1.
</event>
<event>
 5   0  0.2386776E-06  0.2000302E+04  0.7818609E-02  0.8606479E-01
        1   -1    0    0  501    0  0.00000000000E+00  0.00000000000E+00  0.84846871409E+03  0.84846871411E+03  0.50400001928E-02 0. -1.
       -1   -1    0    0    0  501  0.00000000000E+00  0.00000000000E+00 -0.11789498210E+04  0.11789498210E+04  0.50400001928E-02 0.  1.
    10030    2    1    2    0    0  0.00000000000E+00  0.00000000000E+00 -0.33048110686E+03  0.20274185351E+04  0.20003020158E+04 0.  0.
        2    1    3    3  502    0  0.83352194330E+03 -0.51878146654E+03  0.28157548317E+02  0.98218424317E+03  0.25500000920E-02 0. -1.
       -2    1    3    3    0  502 -0.83352194330E+03  0.51878146654E+03 -0.35863865518E+03  0.10452342919E+04  0.25500000920E-02 0.  1.
</event>
<event>
 5   0  0.5251252E-06  0.1999661E+04  0.7818609E-02  0.8606779E-01
       -2   -1    0    0    0  501  0.00000000000E+00  0.00000000000E+00  0.60078492825E+03  0.60078492826E+03  0.25500000920E-02 0.  1.
        2   -1    0    0  501    0  0.00000000000E+00  0.00000000000E+00 -0.16639246392E+04  0.16639246392E+04  0.25500000920E-02 0. -1.
    10030    2    1    2    0    0  0.00000000000E+00  0.00000000000E+00 -0.10631397109E+04  0.22647095675E+04  0.19996608162E+04 0.  0.
        5    1    3    3  502    0 -0.34623796727E+03 -0.54762495711E+03  0.33085169548E+03  0.72750172373E+03  0.46999998093E+01 0.  1.
       -5    1    3    3    0  502  0.34623796727E+03  0.54762495711E+03 -0.13939914064E+04  0.15372078437E+04  0.46999998093E+01 0. -1.
</event>
<event>
 5   0  0.5030137E-06  0.1998568E+04  0.7818609E-02  0.8607291E-01
        2   -1    0    0  501    0  0.00000000000E+00  0.00000000000E+00  0.71903768114E+03  0.71903768114E+03  0.25500000920E-02 0.  1.
       -2   -1    0    0    0  501  0.00000000000E+00  0.00000000000E+00 -0.13887561899E+04  0.13887561899E+04  0.25500000920E-02 0. -1.
    10030    2    1    2    0    0  0.00000000000E+00  0.00000000000E+00 -0.66971850877E+03  0.21077938710E+04  0.19985675175E+04 0.  0.
        3    1    3    3  502    0  0.12047851866E+03  0.19270077463E+03  0.69142061519E+03  0.72781257155E+03  0.10100000352E+00 0.  1.
       -3    1    3    3    0  502 -0.12047851866E+03 -0.19270077463E+03 -0.13611391240E+04  0.13799812995E+04  0.10100000352E+00 0. -1.
</event>
<event>
 5   0  0.2313821E-06  0.1999823E+04  0.7818609E-02  0.8606704E-01
       -1   -1    0    0    0  501  0.00000000000E+00  0.00000000000E+00  0.98856428738E+03  0.98856428739E+03  0.50400001928E-02 0. -1.
        1   -1    0    0  501    0  0.00000000000E+00  0.00000000000E+00 -0.10113885478E+04  0.10113885479E+04  0.50400001928E-02 0.  1.
    10030    2    1    2    0    0  0.00000000000E+00  0.00000000000E+00 -0.22824260469E+02  0.19999528353E+04  0.19998225912E+04 0.  0.
        1    1    3    3  502    0  0.41141148719E+03 -0.84293128474E+03  0.33506394624E+03  0.99602229427E+03  0.50400001928E-02 0. -1.
       -1    1    3    3    0  502 -0.41141148719E+03  0.84293128474E+03 -0.35788820671E+03  0.10039305410E+04  0.50400001928E-02 0.  1.
</event>
<event>
 5   0  0.5118981E-06  0.1999631E+04  0.7818609E-02  0.8606793E-01
        2   -1    0    0  501    0  0.00000000000E+00  0.00000000000E+00  0.16318816621E+04  0.16318816621E+04  0.25500000920E-02 0.  1.
       -2   -1    0    0    0  501  0.00000000000E+00  0.00000000000E+00 -0.61256360449E+03  0.61256360449E+03  0.25500000920E-02 0. -1.
    10030    2    1    2    0    0  0.00000000000E+00  0.00000000000E+00  0.10193180576E+04  0.22444452666E+04  0.19996312790E+04 0.  0.
        4    1    3    3  502    0  0.47534440205E+03  0.25817271779E+03  0.14534509416E+04  0.15508470928E+04  0.12699999809E+01 0.  1.
       -4    1    3    3    0  502 -0.47534440205E+03 -0.25817271779E+03 -0.43413288400E+03  0.69359817376E+03  0.12699999809E+01 0. -1.
</event>
<event>
 5   0  0.4956214E-06  0.1999855E+04  0.7818609E-02  0.8606689E-01
        2   -1    0    0  501    0  0.00000000000E+00  0.00000000000E+00  0.19265393922E+04  0.19265393922E+04  0.25500000920E-02 0. -1.
       -2   -1    0    0    0  501  0.00000000000E+00  0.00000000000E+00 -0.51899010273E+03  0.51899010274E+03  0.25500000920E-02 0.  1.
    10030    2    1    2    0    0  0.00000000000E+00  0.00000000000E+00  0.14075492894E+04  0.24455294949E+04  0.19998548718E+04 0.  0.
        1    1    3    3  502    0  0.24808671248E+03 -0.11504574581E+02  0.18882239283E+04  0.19044865386E+04  0.50400001928E-02 0. -1.
       -1    1    3    3    0  502 -0.24808671248E+03  0.11504574581E+02 -0.48067463886E+03  0.54104295635E+03  0.50400001928E-02 0.  1.
</event>
<event>
 5   0  0.5030137E-06  0.1999579E+04  0.7818609E-02  0.8606817E-01
       -2   -1    0    0    0  501  0.00000000000E+00  0.00000000000E+00  0.39301579213E+03  0.39301579214E+03  0.25500000920E-02 0.  1.
        2   -1    0    0  501    0  0.00000000000E+00  0.00000000000E+00 -0.25433562056E+04  0.25433562056E+04  0.25500000920E-02 0. -1.
    10030    2    1    2    0    0  0.00000000000E+00  0.00000000000E+00 -0.21503404134E+04  0.29363719977E+04  0.19995791095E+04 0.  0.
        3    1    3    3  502    0  0.12146753521E+03  0.87165876677E+03 -0.17717939402E+04  0.19783319096E+04  0.10100000352E+00 0. -1.
       -3    1    3    3    0  502 -0.12146753521E+03 -0.87165876677E+03 -0.37854647321E+03  0.95804008808E+03  0.10100000352E+00 0.  1.
</event>
<event>
 5   0  0.2379743E-06  0.2000703E+04  0.7818609E-02  0.8606292E-01
        1   -1    0    0  501    0  0.00000000000E+00  0.00000000000E+00  0.16749369225E+04  0.16749369225E+04  0.50400001928E-02 0. -1.
       -1   -1    0    0    0  501  0.00000000000E+00  0.00000000000E+00 -0.59745746047E+03  0.59745746049E+03  0.50400001928E-02 0.  1.
    10030    2    1    2    0    0  0.00000000000E+00  0.00000000000E+00  0.10774794621E+04  0.22723943830E+04  0.20007034365E+04 0.  0.
        5    1    3    3  502    0 -0.85942396506E+03  0.51070164700E+03  0.57898843786E+03  0.11552815350E+04  0.46999998093E+01 0. -1.
       -5    1    3    3    0  502  0.85942396506E+03 -0.51070164700E+03  0.49849102420E+03  0.11171128480E+04  0.46999998093E+01 0.  1.
</event>
<event>
 5   0  0.2386776E-06  0.2000614E+04  0.7818609E-02  0.8606334E-01
        1   -1    0    0  501    0  0.00000000000E+00  0.00000000000E+00  0.10341156598E+04  0.10341156598E+04  0.50400001928E-02 0.  1.
       -1   -1    0    0    0  501  0.00000000000E+00  0.00000000000E+00 -0.96760374386E+03  0.96760374387E+03  0.50400001928E-02 0. -1.
    10030    2    1    2    0    0  0.00000000000E+00  0.00000000000E+00  0.66511915923E+02  0.20017194037E+04  0.20006140897E+04 0.  0.
        2    1    3    3  502    0 -0.16708932023E+03  0.33336439761E+03  0.96197324019E+03  0.10317185553E+04  0.25500000920E-02 0.  1.
       -2    1    3    3    0  502  0.16708932023E+03 -0.33336439761E+03 -0.89546132427E+03  0.97000084835E+03  0.25500000920E-02 0. -1.
</event>
<event>
 5   0  0.2311520E-06  0.1998476E+04  0.7818609E-02  0.8607333E-01
        1   -1    0    0  501    0  0.00000000000E+00  0.00000000000E+00  0.90367978697E+03  0.90367978698E+03  0.50400001928E-02 0.  1.
       -1   -1    0    0    0  501  0.00000000000E+00  0.00000000000E+00 -0.11049013234E+04  0.11049013234E+04  0.50400001928E-02 0. -1.
    10030    2    1    2    0    0  0.00000000000E+00  0.00000000000E+00 -0.20122153645E+03  0.20085811104E+04  0.19984764123E+04 0.  0.
        3    1    3    3  502    0 -0.76218601525E+03 -0.47405558188E+03 -0.54194462867E+03  0.10485037946E+04  0.10100000352E+00 0. -1.
       -3    1    3    3    0  502  0.76218601525E+03  0.47405558188E+03  0.34072309221E+03  0.96007731581E+03  0.10100000352E+00 0.  1.
</event>
<event>
 5   0  0.5129100E-06  0.2000476E+04  0.7818609E-02  0.8606398E-01
        2   -1    0    0  501    0  0.00000000000E+00  0.00000000000E+00  0.19437793011E+04  0.19437793011E+04  0.25500000920E-02 0. -1.
       -2   -1    0    0    0  501  0.00000000000E+00  0.00000000000E+00 -0.51470658164E+03  0.51470658165E+03  0.25500000920E-02 0.  1.
    10030    2    1    2    0    0  0.00000000000E+00  0.00000000000E+00  0.14290727194E+04  0.24584858827E+04  0.20004759429E+04 0.  0.
        2    1    3    3  502    0  0.17398431688E+03 -0.88616152506E+03  0.12430182330E+04  0.15364397543E+04  0.25500000920E-02 0. -1.
       -2    1    3    3    0  502 -0.17398431688E+03  0.88616152506E+03  0.18605448644E+03  0.92204612843E+03  0.25500000920E-02 0.  1.
</event>
<event>
 5   0  0.5118981E-06  0.2000981E+04  0.7818609E-02  0.8606162E-01
        2   -1    0    0  501    0  0.00000000000E+00  0.00000000000E+00  0.18531628607E+04  0.18531628607E+04  0.25500000920E-02 0. -1.
       -2   -1    0    0    0  501  0.00000000000E+00  0.00000000000E+00 -0.54014743393E+03  0.54014743394E+03  0.25500000920E-02 0.  1.
    10030    2    1    2    0    0  0.00000000000E+00  0.00000000000E+00  0.13130154268E+04  0.23933102946E+04  0.20009809233E+04 0.  0.
        4    1    3    3  502    0  0.56007490965E+03 -0.25780481519E+03  0.15989249505E+04  0.17136831205E+04  0.12699999809E+01 0. -1.
       -4    1    3    3    0  502 -0.56007490965E+03  0.25780481519E+03 -0.28590952376E+03  0.67962717414E+03  0.12699999809E+01 0.  1.
</event>
<event>
 5   0  0.2386776E-06  0.1999471E+04  0.7818609E-02  0.8606868E-01
        1   -1    0    0  501    0  0.00000000000E+00  0.00000000000E+00  0.15219683259E+04  0.15219683260E+04  0.50400001928E-02 0. -1.
       -1   -1    0    0    0  501  0.00000000000E+00  0.00000000000E+00 -0.65669658850E+03  0.65669658852E+03  0.50400001928E-02 0.  1.
    10030    2    1    2    0    0  0.00000000000E+00  0.00000000000E+00  0.86527173745E+03  0.21786649145E+04  0.19994713376E+04 0.  0.
        2    1    3    3  502    0 -0.46239064630E+03 -0.18754775209E+03  0.13765844330E+04  0.14642281141E+04  0.25500000920E-02 0. -1.
       -2    1    3    3    0  502  0.46239064630E+03  0.18754775209E+03 -0.51131269551E+03  0.71443680035E+03  0.25500000920E-02 0.  1.
</event>
<event>
 5   0  0.2379743E-06  0.1999468E+04  0.7818609E-02  0.8606869E-01
       -1   -1    0    0    0  501  0.00000000000E+00  0.00000000000E+00  0.69761008714E+03  0.69761008716E+03  0.50400001928E-02 0. -1.
        1   -1    0    0  501    0  0.00000000000E+00  0.00000000000E+00 -0.14327035527E+04  0.14327035528E+04  0.50400001928E-02 0.  1.
    10030    2    1    2    0    0  0.00000000000E+00  0.00000000000E+00 -0.73509346561E+03  0.21303136399E+04  0.19994683797E+04 0.  0.
        5    1    3    3  502    0 -0.25533770795E+03 -0.13921999432E+03 -0.13866259468E+04  0.14168038531E+04  0.46999998093E+01 0.  1.
       -5    1    3    3    0  502  0.25533770795E+03  0.13921999432E+03  0.65153248114E+03  0.71350978683E+03  0.46999998093E+01 0. -1.
</event>
<event>
 5   0  0.2386776E-06  0.1998822E+04  0.7818609E-02  0.8607172E-01
       -1   -1    0    0    0  501  0.00000000000E+00  0.00000000000E+00  0.11981874564E+04  0.11981874564E+04  0.50400001928E-02 0. -1.
        1   -1    0    0  501    0  0.00000000000E+00  0.00000000000E+00 -0.83361127252E+03  0.83361127253E+03  0.50400001928E-02 0.  1.
    10030    2    1    2    0    0  0.00000000000E+00  0.00000000000E+00  0.36457618384E+03  0.20317987289E+04  0.19988222234E+04 0.  0.
        2    1    3    3  502    0  0.86092564896E+03  0.34429702590E+03  0.56138753763E+03  0.10839231442E+04  0.25500000920E-02 0. -1.
       -2    1    3    3    0  502 -0.86092564896E+03 -0.34429702590E+03 -0.19681135380E+03  0.94787558470E+03  0.25500000920E-02 0.  1.
</event>
<event>
 5   0  0.5129100E-06  0.1999449E+04  0.7818609E-02  0.8606878E-01
        2   -1    0    0  501    0  0.00000000000E+00  0.00000000000E+00  0.18728499983E+04  0.18728499983E+04  0.25500000920E-02 0. -1.
       -2   -1    0    0    0  501  0.00000000000E+00  0.00000000000E+00 -0.53365132443E+03  0.53365132443E+03  0.25500000920E-02 0.  1.
    10030    2    1    2    0    0  0.00000000000E+00  0.00000000000E+00  0.13391986739E+04  0.24065013228E+04  0.19994488061E+04 0.  0.
        2    1    3    3  502    0  0.35650777017E+03 -0.64297619388E+03 -0.14576238704E+03  0.74950840527E+03  0.25500000920E-02 0.  1.
       -2    1    3    3    0  502 -0.35650777017E+03  0.64297619388E+03  0.14849610609E+04  0.16569929175E+04  0.25500000920E-02 0. -1.
</event>
<event>
 5   0  0.5030137E-06  0.1999974E+04  0.7818609E-02  0.8606633E-01
       -2   -1    0    0    0  501  0.00000000000E+00  0.00000000000E+00  0.43349400706E+03  0.43349400706E+03  0.25500000920E-02 0. -1.
        2   -1    0    0  501    0  0.00000000000E+00  0.00000000000E+00 -0.23067768775E+04  0.23067768775E+04  0.25500000920E-02 0.  1.
    10030    2    1    2    0    0  0.00000000000E+00  0.00000000000E+00 -0.18732828705E+04  0.27402708846E+04  0.19999739519E+04 0.  0.
        3    1    3    3  502    0  0.65865616386E+03 -0.14313168043E+03 -0.19487566335E+04  0.20620298365E+04  0.10100000352E+00 0.  1.
       -3    1    3    3    0  502 -0.65865616386E+03  0.14313168043E+03  0.75473763014E+02  0.67824104803E+03  0.10100000352E+00 0. -1.
</event>
<event>
 5   0  0.5129100E-06  0.1999653E+04  0.7818609E-02  0.8606783E-01
       -2   -1    0    0    0  501  0.00000000000E+00  0.00000000000E+00  0.56450753010E+03  0.56450753011E+03  0.25500000920E-02 0.  1.
        2   -1    0    0  501    0  0.00000000000E+00  0.00000000000E+00 -0.17708409846E+04  0.17708409846E+04  0.25500000920E-02 0. -1.
    10030    2    1    2    0    0  0.00000000000E+00  0.00000000000E+00 -0.12063334545E+04  0.23353485147E+04  0.19996530403E+04 0.  0.
        2    1    3    3  502    0 -0.93820818754E+03 -0.95458574250E+02 -0.21528718584E+03  0.96731355566E+03  0.25500000920E-02 0. -1.
       -2    1    3    3    0  502  0.93820818754E+03  0.95458574250E+02 -0.99104626867E+03  0.13680349591E+04  0.25500000920E-02 0.  1.
</event>
<event>
 5   0  0.2311520E-06  0.2000219E+04  0.7818609E-02  0.8606518E-01
       -1   -1    0    0    0  501  0.00000000000E+00  0.00000000000E+00  0.91080194694E+03  0.91080194695E+03  0.50400001928E-02 0.  1.
        1   -1    0    0  501    0  0.00000000000E+00  0.00000000000E+00 -0.10981740743E+04  0.10981740743E+04  0.50400001928E-02 0. -1.
    10030    2    1    2    0    0  0.00000000000E+00  0.00000000000E+00 -0.18737212734E+03  0.20089760212E+04  0.20002190730E+04 0.  0.
        3    1    3    3  502    0  0.19111360175E+03 -0.42747514360E+03 -0.98127420606E+03  0.10872711184E+04  0.10100000352E+00 0. -1.
       -3    1    3    3    0  502 -0.19111360175E+03  0.42747514360E+03  0.79390207872E+03  0.92170490287E+03  0.10100000352E+00 0.  1.
</event>
<event>
 5   0  0.2379743E-06  0.1999412E+04  0.7818609E-02  0.8606896E-01
        1   -1    0    0  501    0  0.00000000000E+00  0.00000000000E+00  0.11509755981E+04  0.11509755981E+04  0.50400001928E-02 0.  1.
       -1   -1    0    0    0  501  0.00000000000E+00  0.00000000000E+00 -0.86831699346E+03  0.86831699348E+03  0.50400001928E-02 0. -1.
    10030    2    1    2    0    0  0.00000000000E+00  0.00000000000E+00  0.28265860463E+03  0.20192925916E+04  0.19994115844E+04 0.  0.
        5    1    3    3  502    0 -0.40255260012E+03  0.71214928253E+03 -0.43900108666E+03  0.92841221478E+03  0.46999998093E+01 0. -1.
       -5    1    3    3    0  502  0.40255260012E+03 -0.71214928253E+03  0.72165969129E+03  0.10908803768E+04  0.46999998093E+01 0.  1.
</event>
<event>
 5   0  0.5251252E-06  0.2003703E+04  0.7818609E-02  0.8604891E-01
        2   -1    0    0  501    0  0.00000000000E+00  0.00000000000E+00  0.18705217365E+04  0.18705217365E+04  0.25500000920E-02 0.  1.
       -2   -1    0    0    0  501  0.00000000000E+00  0.00000000000E+00 -0.53659156993E+03  0.53659156993E+03  0.25500000920E-02 0. -1.
    10030    2    1    2    0    0  0.00000000000E+00  0.00000000000E+00  0.13339301665E+04  0.24071133064E+04  0.20037027675E+04 0.  0.
        5    1    3    3  502    0  0.82007178305E+03 -0.43169143879E+03  0.11241172991E+04  0.14568929335E+04  0.46999998093E+01 0.  1.
       -5    1    3    3    0  502 -0.82007178305E+03  0.43169143879E+03  0.20981286747E+03  0.95022037288E+03  0.46999998093E+01 0. -1.
</event>
<event>
 5   0  0.2379743E-06  0.1999983E+04  0.7818609E-02  0.8606629E-01
        1   -1    0    0  501    0  0.00000000000E+00  0.00000000000E+00  0.92949483697E+03  0.92949483698E+03  0.50400001928E-02 0.  1.
       -1   -1    0    0    0  501  0.00000000000E+00  0.00000000000E+00 -0.10758348646E+04  0.10758348646E+04  0.50400001928E-02 0. -1.
    10030    2    1    2    0    0  0.00000000000E+00  0.00000000000E+00 -0.14634002759E+03  0.20053297016E+04  0.19999829520E+04 0.  0.
        5    1    3    3  502    0  0.13559975102E+03 -0.35218238591E+03  0.85534081668E+03  0.93490626701E+03  0.46999998093E+01 0.  1.
       -5    1    3    3    0  502 -0.13559975102E+03  0.35218238591E+03 -0.10016808443E+04  0.10704234345E+04  0.46999998093E+01 0. -1.
</event>
<event>
 5   0  0.2386776E-06  0.1999668E+04  0.7818609E-02  0.8606776E-01
       -1   -1    0    0    0  501  0.00000000000E+00  0.00000000000E+00  0.11255789348E+04  0.11255789349E+04  0.50400001928E-02 0.  1.
        1   -1    0    0  501    0  0.00000000000E+00  0.00000000000E+00 -0.88813718959E+03  0.88813718960E+03  0.50400001928E-02 0. -1.
    10030    2    1    2    0    0  0.00000000000E+00  0.00000000000E+00  0.23744174526E+03  0.20137161245E+04  0.19996684844E+04 0.  0.
        2    1    3    3  502    0 -0.14740265635E+03 -0.90931790798E+03  0.51014399805E+03  0.10530116332E+04  0.25500000920E-02 0.  1.
       -2    1    3    3    0  502  0.14740265635E+03  0.90931790798E+03 -0.27270225279E+03  0.96070449127E+03  0.25500000920E-02 0. -1.
</event>
<event>
 5   0  0.5251252E-06  0.1999240E+04  0.7818609E-02  0.8606976E-01
       -2   -1    0    0    0  501  0.00000000000E+00  0.00000000000E+00  0.68839994249E+03  0.68839994249E+03  0.25500000920E-02 0. -1.
        2   -1    0    0  501    0  0.00000000000E+00  0.00000000000E+00 -0.14515395029E+04  0.14515395029E+04  0.25500000920E-02 0.  1.
    10030    2    1    2    0    0  0.00000000000E+00  0.00000000000E+00 -0.76313956041E+03  0.21399394454E+04  0.19992395657E+04 0.  0.
        5    1    3    3  502    0  0.22238742254E+03 -0.58081356024E+02  0.65971917274E+03  0.69862800294E+03  0.46999998093E+01 0. -1.
       -5    1    3    3    0  502 -0.22238742254E+03  0.58081356024E+02 -0.14228587331E+04  0.14413114424E+04  0.46999998093E+01 0.  1.
</event>
<event>
 5   0  0.2313821E-06  0.1985444E+04  0.7818609E-02  0.8613456E-01
        1   -1    0    0  501    0  0.00000000000E+00  0.00000000000E+00  0.14159136774E+04  0.14159136774E+04  0.50400001928E-02 0. -1.
       -1   -1    0    0    0  501  0.00000000000E+00  0.00000000000E+00 -0.69601510151E+03  0.69601510152E+03  0.50400001928E-02 0.  1.
    10030    2    1    2    0    0  0.00000000000E+00  0.00000000000E+00  0.71989857591E+03  0.21119287790E+04  0.19854443351E+04 0.  0.
        1    1    3    3  502    0  0.47192119684E+03 -0.88968297022E+02  0.12841329901E+04  0.13709932568E+04  0.50400001928E-02 0. -1.
       -1    1    3    3    0  502 -0.47192119684E+03  0.88968297022E+02 -0.56423441415E+03  0.74093552219E+03  0.50400001928E-02 0.  1.
</event>
<event>
 5   0  0.5030137E-06  0.2000542E+04  0.7818609E-02  0.8606367E-01
       -2   -1    0    0    0  501  0.00000000000E+00  0.00000000000E+00  0.56228364608E+03  0.56228364608E+03  0.25500000920E-02 0. -1.
        2   -1    0    0  501    0  0.00000000000E+00  0.00000000000E+00 -0.17794261777E+04  0.17794261777E+04  0.25500000920E-02 0.  1.
    10030    2    1    2    0    0  0.00000000000E+00  0.00000000000E+00 -0.12171425317E+04  0.23417098238E+04  0.20005421657E+04 0.  0.
        3    1    3    3  502    0  0.70688903908E+03  0.34620828387E+03 -0.13310783710E+04  0.15463899667E+04  0.10100000352E+00 0.  1.
       -3    1    3    3    0  502 -0.70688903908E+03 -0.34620828387E+03  0.11393583930E+03  0.79531985708E+03  0.10100000352E+00 0. -1.
</event>
<event>
 5   0  0.4956214E-06  0.1999296E+04  0.7818609E-02  0.8606950E-01
        2   -1    0    0  501    0  0.00000000000E+00  0.00000000000E+00  0.88380107448E+03  0.88380107448E+03  0.25500000920E-02 0. -1.
       -2   -1    0    0    0  501  0.00000000000E+00  0.00000000000E+00 -0.11306801072E+04  0.11306801072E+04  0.25500000920E-02 0.  1.
    10030    2    1    2    0    0  0.00000000000E+00  0.00000000000E+00 -0.24687903270E+03  0.20144811817E+04  0.19992961698E+04 0.  0.
        1    1    3    3  502    0 -0.76665767214E+03  0.63717260499E+03 -0.48420155684E+02  0.99804680567E+03  0.50400001928E-02 0. -1.
       -1    1    3    3    0  502  0.76665767214E+03 -0.63717260499E+03 -0.19845887702E+03  0.10164343760E+04  0.50400001928E-02 0.  1.
</event>
<event>
 5   0  0.5030137E-06  0.1999047E+04  0.7818609E-02  0.8607066E-01
        2   -1    0    0  501    0  0.00000000000E+00  0.00000000000E+00  0.10888334549E+04  0.10888334549E+04  0.25500000920E-02 0.  1.
       -2   -1    0    0    0  501  0.00000000000E+00  0.00000000000E+00 -0.91753889886E+03  0.91753889887E+03  0.25500000920E-02 0. -1.
    10030    2    1    2    0    0  0.00000000000E+00  0.00000000000E+00  0.17129455607E+03  0.20063723538E+04  0.19990468222E+04 0.  0.
        3    1    3    3  502    0  0.68111253000E+03 -0.71042395932E+03 -0.89435541083E+02  0.98823843616E+03  0.10100000352E+00 0. -1.
       -3    1    3    3    0  502 -0.68111253000E+03  0.71042395932E+03  0.26073009715E+03  0.10181339176E+04  0.10100000352E+00 0.  1.
</event>
<event>
 5   0  0.2386776E-06  0.1998775E+04  0.7818609E-02  0.8607193E-01
       -1   -1    0    0    0  501  0.00000000000E+00  0.00000000000E+00  0.10853155897E+04  0.10853155897E+04  0.50400001928E-02 0. -1.
        1   -1    0    0  501    0  0.00000000000E+00  0.00000000000E+00 -0.92026307997E+03  0.92026307999E+03  0.50400001928E-02 0.  1.
    10030    2    1    2    0    0  0.00000000000E+00  0.00000000000E+00  0.16505250970E+03  0.20055786697E+04  0.19987754925E+04 0.  0.
        2    1    3    3  502    0  0.55964574849E+03 -0.34278255138E+03 -0.67374504135E+03  0.94055070150E+03  0.25500000920E-02 0.  1.
       -2    1    3    3    0  502 -0.55964574849E+03  0.34278255138E+03  0.83879755105E+03  0.10650279682E+04  0.25500000920E-02 0. -1.
</event>
<event>
 5   0  0.5118981E-06  0.2000218E+04  0.7818609E-02  0.8606519E-01
        2   -1    0    0  501    0  0.00000000000E+00  0.00000000000E+00  0.96110579758E+03  0.96110579758E+03  0.25500000920E-02 0.  1.
       -2   -1    0    0    0  501  0.00000000000E+00  0.00000000000E+00 -0.10406955341E+04  0.10406955341E+04  0.25500000920E-02 0. -1.
    10030    2    1    2    0    0  0.00000000000E+00  0.00000000000E+00 -0.79589736540E+02  0.20018013317E+04  0.20002184994E+04 0.  0.
        4    1    3    3  502    0 -0.69578355850E+03 -0.31671241033E+03 -0.68512711615E+03  0.10265584685E+04  0.12699999809E+01 0. -1.
       -4    1    3    3    0  502  0.69578355850E+03  0.31671241033E+03  0.60553737961E+03  0.97524286316E+03  0.12699999809E+01 0.  1.
</event>
<event>
 5   0  0.2379743E-06  0.1999182E+04  0.7818609E-02  0.8607003E-01
       -1   -1    0    0    0  501  0.00000000000E+00  0.00000000000E+00  0.11247837057E+04  0.11247837057E+04  0.50400001928E-02 0.  1.
        1   -1    0    0  501    0  0.00000000000E+00  0.00000000000E+00 -0.88833254277E+03  0.88833254278E+03  0.50400001928E-02 0. -1.
    10030    2    1    2    0    0  0.00000000000E+00  0.00000000000E+00  0.23645116296E+03  0.20131162485E+04  0.19991818020E+04 0.  0.
        5    1    3    3  502    0  0.79501606084E+03 -0.55541594192E+03  0.36203396506E+03  0.10351947099E+04  0.46999998093E+01 0. -1.
       -5    1    3    3    0  502 -0.79501606084E+03  0.55541594192E+03 -0.12558280211E+03  0.97792153863E+03  0.46999998093E+01 0.  1.
</event>
<event>
 5   0  0.2386776E-06  0.2000658E+04  0.7818609E-02  0.8606313E-01
        1   -1    0    0  501    0  0.00000000000E+00  0.00000000000E+00  0.12404590129E+04  0.12404590129E+04  0.50400001928E-02 0. -1.
       -1   -1    0    0    0  501  0.00000000000E+00  0.00000000000E+00 -0.80668334241E+03  0.80668334243E+03  0.50400001928E-02 0.  1.
    10030    2    1    2    0    0  0.00000000000E+00  0.00000000000E+00  0.43377567052E+03  0.20471423554E+04  0.20006575146E+04 0.  0.
        2    1    3    3  502    0 -0.70155316780E+03 -0.23273338618E+03  0.90657839987E+03  0.11697119609E+04  0.25500000920E-02 0. -1.
       -2    1    3    3    0  502  0.70155316780E+03  0.23273338618E+03 -0.47280272935E+03  0.87743039450E+03  0.25500000920E-02 0.  1.
</event>
<event>
 5   0  0.1777750E-06  0.2000524E+04  0.7818609E-02  0.8606376E-01
       -3   -1    0    0    0  501  0.00000000000E+00  0.00000000000E+00  0.20306527126E+04  0.20306527151E+04  0.10100000352E+00 0.  1.
        3   -1    0    0  501    0  0.00000000000E+00  0.00000000000E+00 -0.49271047212E+03  0.49271048247E+03  0.10100000352E+00 0. -1.
    10030    2    1    2    0    0  0.00000000000E+00  0.00000000000E+00  0.15379422404E+04  0.25233631975E+04  0.20005238044E+04 0.  0.
        5    1    3    3  502    0  0.62734607422E+03 -0.45399004092E+03 -0.29606411946E+02  0.77496366607E+03  0.46999998093E+01 0. -1.
       -5    1    3    3    0  502 -0.62734607422E+03  0.45399004092E+03  0.15675486524E+04  0.17483995315E+04  0.46999998093E+01 0.  1.
</event>
<event>
 5   0  0.2386776E-06  0.2000173E+04  0.7818609E-02  0.8606540E-01
       -1   -1    0    0    0  501  0.00000000000E+00  0.00000000000E+00  0.57140020309E+03  0.57140020311E+03  0.50400001928E-02 0. -1.
        1   -1    0    0  501    0  0.00000000000E+00  0.00000000000E+00 -0.17503901399E+04  0.17503901399E+04  0.50400001928E-02 0.  1.
    10030    2    1    2    0    0  0.00000000000E+00  0.00000000000E+00 -0.11789899368E+04  0.23217903430E+04  0.20001732739E+04 0.  0.
        2    1    3    3  502    0 -0.57436017658E+03  0.78879563960E+03 -0.33495224985E+03  0.10316400454E+04  0.25500000920E-02 0. -1.
       -2    1    3    3    0  502  0.57436017658E+03 -0.78879563960E+03 -0.84403768692E+03  0.12901502976E+04  0.25500000920E-02 0.  1.
</event>
<event>
 5   0  0.2311520E-06  0.2000082E+04  0.7818609E-02  0.8606582E-01
        1   -1    0    0  501    0  0.00000000000E+00  0.00000000000E+00  0.66721507298E+03  0.66721507300E+03  0.50400001928E-02 0. -1.
       -1   -1    0    0    0  501  0.00000000000E+00  0.00000000000E+00 -0.14988899551E+04  0.14988899551E+04  0.50400001928E-02 0.  1.
    10030    2    1    2    0    0  0.00000000000E+00  0.00000000000E+00 -0.83167488210E+03  0.21661050281E+04  0.20000819691E+04 0.  0.
        3    1    3    3  502    0  0.80160846499E+03  0.43607329612E+02 -0.10616629207E+04  0.13310168660E+04  0.10100000352E+00 0.  1.
       -3    1    3    3    0  502 -0.80160846499E+03 -0.43607329612E+02  0.22998803857E+03  0.83508816206E+03  0.10100000352E+00 0. -1.
</event>
<event>
 5   0  0.2379743E-06  0.2002206E+04  0.7818609E-02  0.8605590E-01
        1   -1    0    0  501    0  0.00000000000E+00  0.00000000000E+00  0.11096892955E+04  0.11096892955E+04  0.50400001928E-02 0.  1.
       -1   -1    0    0    0  501  0.00000000000E+00  0.00000000000E+00 -0.90314244061E+03  0.90314244062E+03  0.50400001928E-02 0. -1.
    10030    2    1    2    0    0  0.00000000000E+00  0.00000000000E+00  0.20654685488E+03  0.20128317361E+04  0.20022062818E+04 0.  0.
        5    1    3    3  502    0  0.42943665878E+03 -0.44757664702E+03 -0.68667308981E+03  0.92535545664E+03  0.46999998093E+01 0. -1.
       -5    1    3    3    0  502 -0.42943665878E+03  0.44757664702E+03  0.89321994468E+03  0.10874762795E+04  0.46999998093E+01 0.  1.
</event>
<event>
 5   0  0.5251252E-06  0.1999829E+04  0.7818609E-02  0.8606700E-01
       -2   -1    0    0    0  501  0.00000000000E+00  0.00000000000E+00  0.38769778477E+03  0.38769778478E+03  0.25500000920E-02 0.  1.
        2   -1    0    0  501    0  0.00000000000E+00  0.00000000000E+00 -0.25788884380E+04  0.25788884380E+04  0.25500000920E-02 0. -1.
    10030    2    1    2    0    0  0.00000000000E+00  0.00000000000E+00 -0.21911906532E+04  0.29665862228E+04  0.19998293273E+04 0.  0.
        5    1    3    3  502    0  0.41376005374E+03 -0.82414733278E+03 -0.52223675096E+03  0.10597969250E+04  0.46999998093E+01 0.  1.
       -5    1    3    3    0  502 -0.41376005374E+03  0.82414733278E+03 -0.16689539023E+04  0.19067892978E+04  0.46999998093E+01 0. -1.
</event>
<event>
 5   0  0.2311520E-06  0.2000676E+04  0.7818609E-02  0.8606305E-01
       -1   -1    0    0    0  501  0.00000000000E+00  0.00000000000E+00  0.71790658699E+03  0.71790658701E+03  0.50400001928E-02 0.  1.
        1   -1    0    0  501    0  0.00000000000E+00  0.00000000000E+00 -0.13938803266E+04  0.13938803266E+04  0.50400001928E-02 0. -1.
    10030    2    1    2    0    0  0.00000000000E+00  0.00000000000E+00 -0.67597373961E+03  0.21117869136E+04  0.20006757538E+04 0.  0.
        3    1    3    3  502    0 -0.74405060496E+03 -0.40628103459E+03  0.22254221469E+03  0.87647055246E+03  0.10100000352E+00 0.  1.
       -3    1    3    3    0  502  0.74405060496E+03  0.40628103459E+03 -0.89851595430E+03  0.12353163612E+04  0.10100000352E+00 0. -1.
</event>
<event>
 5   0  0.2379743E-06  0.2000013E+04  0.7818609E-02  0.8606614E-01
        1   -1    0    0  501    0  0.00000000000E+00  0.00000000000E+00  0.18564133622E+04  0.18564133622E+04  0.50400001928E-02 0. -1.
       -1   -1    0    0    0  501  0.00000000000E+00  0.00000000000E+00 -0.53868029987E+03  0.53868029990E+03  0.50400001928E-02 0.  1.
    10030    2    1    2    0    0  0.00000000000E+00  0.00000000000E+00  0.13177330623E+04  0.23950936621E+04  0.20000133066E+04 0.  0.
        5    1    3    3  502    0 -0.35886818116E+03 -0.47682229726E+02 -0.45743706699E+03  0.58337871639E+03  0.46999998093E+01 0.  1.
       -5    1    3    3    0  502  0.35886818116E+03  0.47682229726E+02  0.17751701293E+04  0.18117149457E+04  0.46999998093E+01 0. -1.
</event>
<event>
 5   0  0.2356996E-06  0.1998447E+04  0.7818609E-02  0.8607347E-01
        1   -1    0    0  501    0  0.00000000000E+00  0.00000000000E+00  0.12606721590E+04  0.12606721590E+04  0.50400001928E-02 0. -1.
       -1   -1    0    0    0  501  0.00000000000E+00  0.00000000000E+00 -0.79199616552E+03  0.79199616554E+03  0.50400001928E-02 0.  1.
    10030    2    1    2    0    0  0.00000000000E+00  0.00000000000E+00  0.46867599349E+03  0.20526683246E+04  0.19984469129E+04 0.  0.
        4    1    3    3  502    0 -0.36264372466E+03 -0.88783166467E+03  0.52246698255E+03  0.10921212829E+04  0.12699999809E+01 0. -1.
       -4    1    3    3    0  502  0.36264372466E+03  0.88783166467E+03 -0.53790989057E+02  0.96054704165E+03  0.12699999809E+01 0.  1.
</event>
<event>
 5   0  0.2386776E-06  0.1999717E+04  0.7818609E-02  0.8606753E-01
       -1   -1    0    0    0  501  0.00000000000E+00  0.00000000000E+00  0.11690532576E+04  0.11690532576E+04  0.50400001928E-02 0.  1.
        1   -1    0    0  501    0  0.00000000000E+00  0.00000000000E+00 -0.85515109772E+03  0.85515109773E+03  0.50400001928E-02 0. -1.
    10030    2    1    2    0    0  0.00000000000E+00  0.00000000000E+00  0.31390215987E+03  0.20242043553E+04  0.19997171565E+04 0.  0.
        2    1    3    3  502    0  0.63490715905E+03  0.77084674416E+03  0.20659624896E+03  0.10198008696E+04  0.25500000920E-02 0.  1.
       -2    1    3    3    0  502 -0.63490715905E+03 -0.77084674416E+03  0.10730591091E+03  0.10044034857E+04  0.25500000920E-02 0. -1.
</event>
<event>
 5   0  0.5129100E-06  0.2001147E+04  0.7818609E-02  0.8606085E-01
       -2   -1    0    0    0  501  0.00000000000E+00  0.00000000000E+00  0.79529222083E+03  0.79529222084E+03  0.25500000920E-02 0. -1.
        2   -1    0    0  501    0  0.00000000000E+00  0.00000000000E+00 -0.12588419559E+04  0.12588419559E+04  0.25500000920E-02 0.  1.
    10030    2    1    2    0    0  0.00000000000E+00  0.00000000000E+00 -0.46354973505E+03  0.20541341767E+04  0.20011468859E+04 0.  0.
        2    1    3    3  502    0  0.33303428505E+03 -0.28472463071E+03 -0.11551304801E+04  0.12354377267E+04  0.25500000920E-02 0.  1.
       -2    1    3    3    0  502 -0.33303428505E+03  0.28472463071E+03  0.69158074508E+03  0.81869645005E+03  0.25500000920E-02 0. -1.
</event>
<event>
 5   0  0.5030137E-06  0.1999973E+04  0.7818609E-02  0.8606633E-01
        2   -1    0    0  501    0  0.00000000000E+00  0.00000000000E+00  0.74804588553E+03  0.74804588553E+03  0.25500000920E-02 0.  1.
       -2   -1    0    0    0  501  0.00000000000E+00  0.00000000000E+00 -0.13367802208E+04  0.13367802208E+04  0.25500000920E-02 0. -1.
    10030    2    1    2    0    0  0.00000000000E+00  0.00000000000E+00 -0.58873433524E+03  0.20848261063E+04  0.19999729438E+04 0.  0.
        3    1    3    3  502    0 -0.28746909811E+03 -0.41860249629E+03  0.60363793656E+03  0.78882526641E+03  0.10100000352E+00 0.  1.
       -3    1    3    3    0  502  0.28746909811E+03  0.41860249629E+03 -0.11923722718E+04  0.12960008399E+04  0.10100000352E+00 0. -1.
</event>
<event>
 5   0  0.5118981E-06  0.2000231E+04  0.7818609E-02  0.8606513E-01
       -2   -1    0    0    0  501  0.00000000000E+00  0.00000000000E+00  0.96676783219E+03  0.96676783220E+03  0.25500000920E-02 0.  1.
        2   -1    0    0  501    0  0.00000000000E+00  0.00000000000E+00 -0.10346132396E+04  0.10346132396E+04  0.25500000920E-02 0. -1.
    10030    2    1    2    0    0  0.00000000000E+00  0.00000000000E+00 -0.67845407369E+02  0.20013810718E+04  0.20002307855E+04 0.  0.
        4    1    3    3  502    0 -0.31529840061E+03 -0.91122235746E+03 -0.29957476422E+03  0.10096959534E+04  0.12699999809E+01 0. -1.
       -4    1    3    3    0  502  0.31529840061E+03  0.91122235746E+03  0.23172935686E+03  0.99168511831E+03  0.12699999809E+01 0.  1.
</event>
<event>
 5   0  0.2379743E-06  0.1998528E+04  0.7818609E-02  0.8607309E-01
        1   -1    0    0  501    0  0.00000000000E+00  0.00000000000E+00  0.14926250472E+04  0.14926250472E+04  0.50400001928E-02 0. -1.
       -1   -1    0    0    0  501  0.00000000000E+00  0.00000000000E+00 -0.66897470333E+03  0.66897470334E+03  0.50400001928E-02 0.  1.
    10030    2    1    2    0    0  0.00000000000E+00  0.00000000000E+00  0.82365034385E+03  0.21615997505E+04  0.19985278563E+04 0.  0.
        5    1    3    3  502    0 -0.10166923754E+03 -0.65600885669E+03 -0.39599169319E+03  0.77299143915E+03  0.46999998093E+01 0.  1.
       -5    1    3    3    0  502  0.10166923754E+03  0.65600885669E+03  0.12196420370E+04  0.13886083114E+04  0.46999998093E+01 0. -1.
</event>
<event>
 5   0  0.4956214E-06  0.1998637E+04  0.7818609E-02  0.8607258E-01
       -2   -1    0    0    0  501  0.00000000000E+00  0.00000000000E+00  0.95442196941E+03  0.95442196942E+03  0.25500000920E-02 0.  1.
        2   -1    0    0  501    0  0.00000000000E+00  0.00000000000E+00 -0.10463272558E+04  0.10463272558E+04  0.25500000920E-02 0. -1.
    10030    2    1    2    0    0  0.00000000000E+00  0.00000000000E+00 -0.91905286364E+02  0.20007492252E+04  0.19986372558E+04 0.  0.
        1    1    3    3  502    0  0.61244142916E+03  0.12117783735E+03 -0.82707786830E+03  0.10362559398E+04  0.50400001928E-02 0. -1.
       -1    1    3    3    0  502 -0.61244142916E+03 -0.12117783735E+03  0.73517258193E+03  0.96449328544E+03  0.50400001928E-02 0.  1.
</event>
<event>
 5   0  0.5251252E-06  0.1999838E+04  0.7818609E-02  0.8606696E-01
       -2   -1    0    0    0  501  0.00000000000E+00  0.00000000000E+00  0.70749548607E+03  0.70749548607E+03  0.25500000920E-02 0.  1.
        2   -1    0    0  501    0  0.00000000000E+00  0.00000000000E+00 -0.14132074030E+04  0.14132074030E+04  0.25500000920E-02 0. -1.
    10030    2    1    2    0    0  0.00000000000E+00  0.00000000000E+00 -0.70571191691E+03  0.21207028891E+04  0.19998378519E+04 0.  0.
        5    1    3    3  502    0  0.42208947930E+03 -0.16235348635E+03 -0.12985483081E+04  0.13750519923E+04  0.46999998093E+01 0. -1.
       -5    1    3    3    0  502 -0.42208947930E+03  0.16235348635E+03  0.59283639121E+03  0.74565089674E+03  0.46999998093E+01 0.  1.
</event>
<event>
 5   0  0.2356996E-06  0.1999595E+04  0.7818609E-02  0.8606810E-01
       -1   -1    0    0    0  501  0.00000000000E+00  0.00000000000E+00  0.72164823247E+03  0.72164823248E+03  0.50400001928E-02 0. -1.
        1   -1    0    0  501    0  0.00000000000E+00  0.00000000000E+00 -0.13851552628E+04  0.13851552629E+04  0.50400001928E-02 0.  1.
    10030    2    1    2    0    0  0.00000000000E+00  0.00000000000E+00 -0.66350703038E+03  0.21068034953E+04  0.19995948061E+04 0.  0.
        4    1    3    3  502    0  0.23849791530E+03  0.30465325186E+03  0.63957363820E+03  0.74749642878E+03  0.12699999809E+01 0. -1.
       -4    1    3    3    0  502 -0.23849791530E+03 -0.30465325186E+03 -0.13030806686E+04  0.13593070666E+04  0.12699999809E+01 0.  1.
</event>
<event>
 5   0  0.2386776E-06  0.1995662E+04  0.7818609E-02  0.8608652E-01
       -1   -1    0    0    0  501  0.00000000000E+00  0.00000000000E+00  0.43811993363E+03  0.43811993366E+03  0.50400001928E-02 0. -1.
        1   -1    0    0  501    0  0.00000000000E+00  0.00000000000E+00 -0.22725883994E+04  0.22725883994E+04  0.50400001928E-02 0.  1.
    10030    2    1    2    0    0  0.00000000000E+00  0.00000000000E+00 -0.18344684657E+04  0.27107083330E+04  0.19956615733E+04 0.  0.
        2    1    3    3  502    0 -0.83741858164E+03 -0.43998887000E+02 -0.18267046717E+03  0.85823905907E+03  0.25500000920E-02 0. -1.
       -2    1    3    3    0  502  0.83741858164E+03  0.43998887000E+02 -0.16517979986E+04  0.18524692740E+04  0.25500000920E-02 0.  1.
</event>
<event>
 5   0  0.2386776E-06  0.2000111E+04  0.7818609E-02  0.8606569E-01
        1   -1    0    0  501    0  0.00000000000E+00  0.00000000000E+00  0.43422216059E+03  0.43422216062E+03  0.50400001928E-02 0.  1.
       -1   -1    0    0    0  501  0.00000000000E+00  0.00000000000E+00 -0.23032251032E+04  0.23032251032E+04  0.50400001928E-02 0. -1.
    10030    2    1    2    0    0  0.00000000000E+00  0.00000000000E+00 -0.18690029427E+04  0.27374472639E+04  0.20001113776E+04 0.  0.
        2    1    3    3  502    0  0.97310923326E+03  0.19281076207E+03 -0.11075897101E+04  0.14869003113E+04  0.25500000920E-02 0.  1.
       -2    1    3    3    0  502 -0.97310923326E+03 -0.19281076207E+03 -0.76141323253E+03  0.12505469525E+04  0.25500000920E-02 0. -1.
</event>
<event>
 5   0  0.2379743E-06  0.1999987E+04  0.7818609E-02  0.8606627E-01
       -1   -1    0    0    0  501  0.00000000000E+00  0.00000000000E+00  0.49004293101E+03  0.49004293103E+03  0.50400001928E-02 0. -1.
        1   -1    0    0  501    0  0.00000000000E+00  0.00000000000E+00 -0.20406111266E+04  0.20406111266E+04  0.50400001928E-02 0.  1.
    10030    2    1    2    0    0  0.00000000000E+00  0.00000000000E+00 -0.15505681956E+04  0.25306540576E+04  0.19999870575E+04 0.  0.
        5    1    3    3  502    0  0.26191092998E+03  0.45375285565E+03 -0.18530318208E+04  0.19256785838E+04  0.46999998093E+01 0.  1.
       -5    1    3    3    0  502 -0.26191092998E+03 -0.45375285565E+03  0.30246362526E+03  0.60497547377E+03  0.46999998093E+01 0. -1.
</event>
<event>
 5   0  0.2356996E-06  0.2000582E+04  0.7818609E-02  0.8606348E-01
        1   -1    0    0  501    0  0.00000000000E+00  0.00000000000E+00  0.85021863255E+03  0.85021863257E+03  0.50400001928E-02 0.  1.
       -1   -1    0    0    0  501  0.00000000000E+00  0.00000000000E+00 -0.11768529818E+04  0.11768529818E+04  0.50400001928E-02 0. -1.
    10030    2    1    2    0    0  0.00000000000E+00  0.00000000000E+00 -0.32663434920E+03  0.20270716143E+04  0.20005822481E+04 0.  0.
        4    1    3    3  502    0 -0.35765338868E+03 -0.80963741824E+03  0.30884872940E+03  0.93745285002E+03  0.12699999809E+01 0.  1.
       -4    1    3    3    0  502  0.35765338868E+03  0.80963741824E+03 -0.63548307861E+03  0.10896187643E+04  0.12699999809E+01 0. -1.
</event>
<event>
 5   0  0.5129100E-06  0.2000394E+04  0.7818609E-02  0.8606436E-01
       -2   -1    0    0    0  501  0.00000000000E+00  0.00000000000E+00  0.36886006948E+03  0.36886006949E+03  0.25500000920E-02 0. -1.
        2   -1    0    0  501    0  0.00000000000E+00  0.00000000000E+00 -0.27121240192E+04  0.27121240192E+04  0.25500000920E-02 0.  1.
    10030    2    1    2    0    0  0.00000000000E+00  0.00000000000E+00 -0.23432639498E+04  0.30809840887E+04  0.20003942153E+04 0.  0.
        2    1    3    3  502    0  0.85026903218E+03  0.76982991882E+01 -0.19827975843E+04  0.21574297094E+04  0.25500000920E-02 0.  1.
       -2    1    3    3    0  502 -0.85026903218E+03 -0.76982991882E+01 -0.36046636549E+03  0.92355437931E+03  0.25500000920E-02 0. -1.
</event>
<event>
 5   0  0.5129100E-06  0.2000247E+04  0.7818609E-02  0.8606505E-01
        2   -1    0    0  501    0  0.00000000000E+00  0.00000000000E+00  0.11499096863E+04  0.11499096863E+04  0.25500000920E-02 0.  1.
       -2   -1    0    0    0  501  0.00000000000E+00  0.00000000000E+00 -0.86984805517E+03  0.86984805517E+03  0.25500000920E-02 0. -1.
    10030    2    1    2    0    0  0.00000000000E+00  0.00000000000E+00  0.28006163118E+03  0.20197577415E+04  0.20002466891E+04 0.  0.
        2    1    3    3  502    0  0.38463863539E+03 -0.86611859583E+03  0.46273920176E+03  0.10546259388E+04  0.25500000920E-02 0.  1.
       -2    1    3    3    0  502 -0.38463863539E+03  0.86611859583E+03 -0.18267757058E+03  0.96513180275E+03  0.25500000920E-02 0. -1.
</event>
<event>
 5   0  0.5030137E-06  0.1999950E+04  0.7818609E-02  0.8606644E-01
        2   -1    0    0  501    0  0.00000000000E+00  0.00000000000E+00  0.51236553033E+03  0.51236553034E+03  0.25500000920E-02 0. -1.
       -2   -1    0    0    0  501  0.00000000000E+00  0.00000000000E+00 -0.19516345931E+04  0.19516345931E+04  0.25500000920E-02 0.  1.
    10030    2    1    2    0    0  0.00000000000E+00  0.00000000000E+00 -0.14392690628E+04  0.24640001235E+04  0.19999502927E+04 0.  0.
        3    1    3    3  502    0 -0.51380084775E+03  0.74336399927E+03 -0.19205928954E+03  0.92383338728E+03  0.10100000352E+00 0. -1.
       -3    1    3    3    0  502  0.51380084775E+03 -0.74336399927E+03 -0.12472097733E+04  0.15401667362E+04  0.10100000352E+00 0.  1.
</event>
<event>
 5   0  0.2313821E-06  0.2006150E+04  0.7818609E-02  0.8603751E-01
       -1   -1    0    0    0  501  0.00000000000E+00  0.00000000000E+00  0.14544425418E+04  0.14544425418E+04  0.50400001928E-02 0.  1.
        1   -1    0    0  501    0  0.00000000000E+00  0.00000000000E+00 -0.69178381047E+03  0.69178381049E+03  0.50400001928E-02 0. -1.
    10030    2    1    2    0    0  0.00000000000E+00  0.00000000000E+00  0.76265873137E+03  0.21462263523E+04  0.20061503470E+04 0.  0.
        1    1    3    3  502    0 -0.32214303448E+03  0.31095174923E+03  0.13416068684E+04  0.14143465327E+04  0.50400001928E-02 0.  1.
       -1    1    3    3    0  502  0.32214303448E+03 -0.31095174923E+03 -0.57894813706E+03  0.73187981967E+03  0.50400001928E-02 0. -1.
</event>
<event>
 5   0  0.2386776E-06  0.1999957E+04  0.7818609E-02  0.8606641E-01
        1   -1    0    0  501    0  0.00000000000E+00  0.00000000000E+00  0.16606992366E+04  0.16606992366E+04  0.50400001928E-02 0.  1.
       -1   -1    0    0    0  501  0.00000000000E+00  0.00000000000E+00 -0.60213012029E+03  0.60213012031E+03  0.50400001928E-02 0. -1.
    10030    2    1    2    0    0  0.00000000000E+00  0.00000000000E+00  0.10585691163E+04  0.22628293569E+04  0.19999570307E+04 0.  0.
        2    1    3    3  502    0 -0.26152777250E+02  0.38779542652E+03 -0.51316794868E+03  0.64374731389E+03  0.25500000920E-02 0. -1.
       -2    1    3    3    0  502  0.26152777250E+02 -0.38779542652E+03  0.15717370650E+04  0.16190820430E+04  0.25500000920E-02 0.  1.
</event>
<event>
 5   0  0.2386776E-06  0.1998547E+04  0.7818609E-02  0.8607300E-01
       -1   -1    0    0    0  501  0.00000000000E+00  0.00000000000E+00  0.65147737991E+03  0.65147737993E+03  0.50400001928E-02 0.  1.
        1   -1    0    0  501    0  0.00000000000E+00  0.00000000000E+00 -0.15327431611E+04  0.15327431611E+04  0.50400001928E-02 0. -1.
    10030    2    1    2    0    0  0.00000000000E+00  0.00000000000E+00 -0.88126578115E+03  0.21842205410E+04  0.19985469708E+04 0.  0.
        2    1    3    3  502    0  0.21427594299E+03 -0.78315008914E+03  0.19598667405E+03  0.83525386457E+03  0.25500000920E-02 0.  1.
       -2    1    3    3    0  502 -0.21427594299E+03  0.78315008914E+03 -0.10772524552E+04  0.13489666764E+04  0.25500000920E-02 0. -1.
</event>
<event>
 5   0  0.5030137E-06  0.1999550E+04  0.7818609E-02  0.8606831E-01
       -2   -1    0    0    0  501  0.00000000000E+00  0.00000000000E+00  0.14851023109E+04  0.14851023109E+04  0.25500000920E-02 0. -1.
        2   -1    0    0  501    0  0.00000000000E+00  0.00000000000E+00 -0.67305123429E+03  0.67305123430E+03  0.25500000920E-02 0.  1.
    10030    2    1    2    0    0  0.00000000000E+00  0.00000000000E+00  0.81205107662E+03  0.21581535452E+04  0.19995498928E+04 0.  0.
        3    1    3    3  502    0 -0.65132378428E+03 -0.24519293900E+03 -0.36868820555E+03  0.78757428374E+03  0.10100000352E+00 0.  1.
       -3    1    3    3    0  502  0.65132378428E+03  0.24519293900E+03  0.11807392822E+04  0.13705792615E+04  0.10100000352E+00 0. -1.
</event>
<event>
 5   0  0.5129100E-06  0.2000055E+04  0.7818609E-02  0.8606595E-01
       -2   -1    0    0    0  501  0.00000000000E+00  0.00000000000E+00  0.11440174376E+04  0.11440174376E+04  0.25500000920E-02 0. -1.
        2   -1    0    0  501    0  0.00000000000E+00  0.00000000000E+00 -0.87416063103E+03  0.87416063104E+03  0.25500000920E-02 0.  1.
    10030    2    1    2    0    0  0.00000000000E+00  0.00000000000E+00  0.26985680655E+03  0.20181780686E+04  0.20000550044E+04 0.  0.
        2    1    3    3  502    0 -0.78143820310E+03  0.60790665906E+03 -0.72698995621E+01  0.99007526120E+03  0.25500000920E-02 0. -1.
       -2    1    3    3    0  502  0.78143820310E+03 -0.60790665906E+03  0.27712670611E+03  0.10281028074E+04  0.25500000920E-02 0.  1.
</event>
<event>
 5   0  0.5129100E-06  0.1999886E+04  0.7818609E-02  0.8606674E-01
       -2   -1    0    0    0  501  0.00000000000E+00  0.00000000000E+00  0.14811527350E+04  0.14811527350E+04  0.25500000920E-02 0.  1.
        2   -1    0    0  501    0  0.00000000000E+00  0.00000000000E+00 -0.67507257823E+03  0.67507257823E+03  0.25500000920E-02 0. -1.
    10030    2    1    2    0    0  0.00000000000E+00  0.00000000000E+00  0.80608015681E+03  0.21562253133E+04  0.19998855923E+04 0.  0.
        2    1    3    3  502    0  0.12475866860E+03 -0.79549517476E+03 -0.23618937708E+03  0.83914404026E+03  0.25500000920E-02 0. -1.
       -2    1    3    3    0  502 -0.12475866860E+03  0.79549517476E+03  0.10422695339E+04  0.13170812730E+04  0.25500000920E-02 0.  1.
</event>
<event>
 5   0  0.2356996E-06  0.2000726E+04  0.7818609E-02  0.8606281E-01
       -1   -1    0    0    0  501  0.00000000000E+00  0.00000000000E+00  0.10853190043E+04  0.10853190043E+04  0.50400001928E-02 0.  1.
        1   -1    0    0  501    0  0.00000000000E+00  0.00000000000E+00 -0.92205733990E+03  0.92205733991E+03  0.50400001928E-02 0. -1.
    10030    2    1    2    0    0  0.00000000000E+00  0.00000000000E+00  0.16326166439E+03  0.20073763442E+04  0.20007262222E+04 0.  0.
        4    1    3    3  502    0  0.15804629559E+03  0.86227795976E+03 -0.40186595676E+03  0.96436495764E+03  0.12699999809E+01 0. -1.
       -4    1    3    3    0  502 -0.15804629559E+03 -0.86227795976E+03  0.56512762115E+03  0.10430113866E+04  0.12699999809E+01 0.  1.
</event>
<event>
 5   0  0.1777750E-06  0.2005072E+04  0.7818609E-02  0.8604253E-01
        3   -1    0    0  501    0  0.00000000000E+00  0.00000000000E+00  0.13683564184E+04  0.13683564221E+04  0.10100000352E+00 0.  1.
       -3   -1    0    0    0  501  0.00000000000E+00  0.00000000000E+00 -0.73451534694E+03  0.73451535389E+03  0.10100000352E+00 0. -1.
    10030    2    1    2    0    0  0.00000000000E+00  0.00000000000E+00  0.63384107141E+03  0.21028717760E+04  0.20050723684E+04 0.  0.
        1    1    3    3  502    0 -0.32223530300E+03 -0.69353241965E+03  0.99681217036E+03  0.12563667102E+04  0.50400001928E-02 0.  1.
       -1    1    3    3    0  502  0.32223530300E+03  0.69353241965E+03 -0.36297109895E+03  0.84650506573E+03  0.50400001928E-02 0. -1.
</event>
<event>
 5   0  0.4956214E-06  0.1997016E+04  0.7818609E-02  0.8608017E-01
       -2   -1    0    0    0  501  0.00000000000E+00  0.00000000000E+00  0.84536655961E+03  0.84536655961E+03  0.25500000920E-02 0. -1.
        2   -1    0    0  501    0  0.00000000000E+00  0.00000000000E+00 -0.11793920553E+04  0.11793920553E+04  0.25500000920E-02 0.  1.
    10030    2    1    2    0    0  0.00000000000E+00  0.00000000000E+00 -0.33402549573E+03  0.20247586150E+04  0.19970163788E+04 0.  0.
        1    1    3    3  502    0  0.35218848986E+03 -0.21359100310E+03 -0.10892424112E+04  0.11645200210E+04  0.50400001928E-02 0.  1.
       -1    1    3    3    0  502 -0.35218848986E+03  0.21359100310E+03  0.75521691549E+03  0.86023859391E+03  0.50400001928E-02 0. -1.
</event>
<event>
 5   0  0.5030137E-06  0.1999450E+04  0.7818609E-02  0.8606878E-01
        2   -1    0    0  501    0  0.00000000000E+00  0.00000000000E+00  0.28643497331E+04  0.28643497331E+04  0.25500000920E-02 0. -1.
       -2   -1    0    0    0  501  0.00000000000E+00  0.00000000000E+00 -0.34892723884E+03  0.34892723885E+03  0.25500000920E-02 0.  1.
    10030    2    1    2    0    0  0.00000000000E+00  0.00000000000E+00  0.25154224942E+04  0.32132769719E+04  0.19994495677E+04 0.  0.
        3    1    3    3  502    0  0.74363234441E+03  0.66706790854E+03  0.13195572406E+04  0.16550528631E+04  0.10100000352E+00 0. -1.
       -3    1    3    3    0  502 -0.74363234441E+03 -0.66706790854E+03  0.11958652537E+04  0.15582241088E+04  0.10100000352E+00 0.  1.
</event>
<event>
 5   0  0.2386776E-06  0.1999593E+04  0.7818609E-02  0.8606811E-01
        1   -1    0    0  501    0  0.00000000000E+00  0.00000000000E+00  0.15967748430E+04  0.15967748430E+04  0.50400001928E-02 0.  1.
       -1   -1    0    0    0  501  0.00000000000E+00  0.00000000000E+00 -0.62600728219E+03  0.62600728221E+03  0.50400001928E-02 0. -1.
    10030    2    1    2    0    0  0.00000000000E+00  0.00000000000E+00  0.97076756085E+03  0.22227821252E+04  0.19995926383E+04 0.  0.
        2    1    3    3  502    0 -0.44853151065E+03  0.19354746858E+03  0.14550759017E+04  0.15348899043E+04  0.25500000920E-02 0.  1.
       -2    1    3    3    0  502  0.44853151065E+03 -0.19354746858E+03 -0.48430834084E+03  0.68789222095E+03  0.25500000920E-02 0. -1.
</event>
<event>
 5   0  0.5030137E-06  0.1999883E+04  0.7818609E-02  0.8606675E-01
        2   -1    0    0  501    0  0.00000000000E+00  0.00000000000E+00  0.15634806642E+04  0.15634806642E+04  0.25500000920E-02 0. -1.
       -2   -1    0    0    0  501  0.00000000000E+00  0.00000000000E+00 -0.63952368956E+03  0.63952368956E+03  0.25500000920E-02 0.  1.
    10030    2    1    2    0    0  0.00000000000E+00  0.00000000000E+00  0.92395697468E+03  0.22030043538E+04  0.19998829195E+04 0.  0.
        3    1    3    3  502    0 -0.14687464266E+03  0.22974228605E+01  0.15515306473E+04  0.15584687352E+04  0.10100000352E+00 0. -1.
       -3    1    3    3    0  502  0.14687464266E+03 -0.22974228605E+01 -0.62757367266E+03  0.64453561858E+03  0.10100000352E+00 0.  1.
</event>
<event>
 5   0  0.5129100E-06  0.2000216E+04  0.7818609E-02  0.8606520E-01
       -2   -1    0    0    0  501  0.00000000000E+00  0.00000000000E+00  0.11689245492E+04  0.11689245492E+04  0.25500000920E-02 0. -1.
        2   -1    0    0  501    0  0.00000000000E+00  0.00000000000E+00 -0.85567213858E+03  0.85567213858E+03  0.25500000920E-02 0.  1.
    10030    2    1    2    0    0  0.00000000000E+00  0.00000000000E+00  0.31325241065E+03  0.20245966878E+04  0.20002161572E+04 0.  0.
        2    1    3    3  502    0 -0.71164689041E+03 -0.23667844883E+03  0.82632378294E+03  0.11159162061E+04  0.25500000920E-02 0.  1.
       -2    1    3    3    0  502  0.71164689041E+03  0.23667844883E+03 -0.51307137230E+03  0.90868048172E+03  0.25500000920E-02 0. -1.
</event>
<event>
 5   0  0.5251252E-06  0.2000010E+04  0.7818609E-02  0.8606616E-01
        2   -1    0    0  501    0  0.00000000000E+00  0.00000000000E+00  0.22149845672E+04  0.22149845672E+04  0.25500000920E-02 0.  1.
       -2   -1    0    0    0  501  0.00000000000E+00  0.00000000000E+00 -0.45147498352E+03  0.45147498353E+03  0.25500000920E-02 0. -1.
    10030    2    1    2    0    0  0.00000000000E+00  0.00000000000E+00  0.17635095836E+04  0.26664595507E+04  0.20000101210E+04 0.  0.
        5    1    3    3  502    0  0.15473786774E+03 -0.45934823318E+03 -0.28437220512E+03  0.56199132385E+03  0.46999998093E+01 0. -1.
       -5    1    3    3    0  502 -0.15473786774E+03  0.45934823318E+03  0.20478817888E+04  0.21044682269E+04  0.46999998093E+01 0.  1.
</event>
<event>
 5   0  0.2379743E-06  0.1998854E+04  0.7818609E-02  0.8607157E-01
        1   -1    0    0  501    0  0.00000000000E+00  0.00000000000E+00  0.97699811084E+03  0.97699811085E+03  0.50400001928E-02 0.  1.
       -1   -1    0    0    0  501  0.00000000000E+00  0.00000000000E+00 -0.10223703035E+04  0.10223703036E+04  0.50400001928E-02 0. -1.
    10030    2    1    2    0    0  0.00000000000E+00  0.00000000000E+00 -0.45372192707E+02  0.19993684144E+04  0.19988535266E+04 0.  0.
        5    1    3    3  502    0  0.58314701576E+03  0.17398806711E+03  0.77029770533E+03  0.98168881746E+03  0.46999998093E+01 0.  1.
       -5    1    3    3    0  502 -0.58314701576E+03 -0.17398806711E+03 -0.81566989804E+03  0.10176795970E+04  0.46999998093E+01 0. -1.
</event>
<event>
 5   0  0.2379743E-06  0.1998099E+04  0.7818609E-02  0.8607510E-01
       -1   -1    0    0    0  501  0.00000000000E+00  0.00000000000E+00  0.64926511097E+03  0.64926511099E+03  0.50400001928E-02 0.  1.
        1   -1    0    0  501    0  0.00000000000E+00  0.00000000000E+00 -0.15372763540E+04  0.15372763540E+04  0.50400001928E-02 0. -1.
    10030    2    1    2    0    0  0.00000000000E+00  0.00000000000E+00 -0.88801124306E+03  0.21865414650E+04  0.19980989992E+04 0.  0.
        5    1    3    3  502    0  0.91367913961E+03 -0.17251566126E+03 -0.44160257017E+02  0.93088315155E+03  0.46999998093E+01 0.  1.
       -5    1    3    3    0  502 -0.91367913961E+03  0.17251566126E+03 -0.84385098604E+03  0.12556583135E+04  0.46999998093E+01 0. -1.
</event>
<event>
 5   0  0.4956214E-06  0.2003772E+04  0.7818609E-02  0.8604859E-01
       -2   -1    0    0    0  501  0.00000000000E+00  0.00000000000E+00  0.94869729410E+03  0.94869729410E+03  0.25500000920E-02 0. -1.
        2   -1    0    0  501    0  0.00000000000E+00  0.00000000000E+00 -0.10580565600E+04  0.10580565600E+04  0.25500000920E-02 0.  1.
    10030    2    1    2    0    0  0.00000000000E+00  0.00000000000E+00 -0.10935926587E+03  0.20067538541E+04  0.20037718388E+04 0.  0.
        1    1    3    3  502    0  0.87091384848E+03 -0.31715180085E+03  0.32627994844E+03  0.98261630407E+03  0.50400001928E-02 0. -1.
       -1    1    3    3    0  502 -0.87091384848E+03  0.31715180085E+03 -0.43563921431E+03  0.10241375500E+04  0.50400001928E-02 0.  1.
</event>
<event>
 5   0  0.2356996E-06  0.2000174E+04  0.7818609E-02  0.8606539E-01
       -1   -1    0    0    0  501  0.00000000000E+00  0.00000000000E+00  0.15083621690E+04  0.15083621690E+04  0.50400001928E-02 0. -1.
        1   -1    0    0  501    0  0.00000000000E+00  0.00000000000E+00 -0.66308627352E+03  0.66308627354E+03  0.50400001928E-02 0.  1.
    10030    2    1    2    0    0  0.00000000000E+00  0.00000000000E+00  0.84527589548E+03  0.21714484426E+04  0.20001742422E+04 0.  0.
        4    1    3    3  502    0 -0.94482975962E+03  0.10984821144E+03  0.87315907988E+02  0.95519400381E+03  0.12699999809E+01 0. -1.
       -4    1    3    3    0  502  0.94482975962E+03 -0.10984821144E+03  0.75795998749E+03  0.12162544387E+04  0.12699999809E+01 0.  1.
</event>
<event>
 5   0  0.5129100E-06  0.1991597E+04  0.7818609E-02  0.8610559E-01
        2   -1    0    0  501    0  0.00000000000E+00  0.00000000000E+00  0.12644504364E+04  0.12644504364E+04  0.25500000920E-02 0.  1.
       -2   -1    0    0    0  501  0.00000000000E+00  0.00000000000E+00 -0.78422574887E+03  0.78422574887E+03  0.25500000920E-02 0. -1.
    10030    2    1    2    0    0  0.00000000000E+00  0.00000000000E+00  0.48022468751E+03  0.20486761852E+04  0.19915969375E+04 0.  0.
        2    1    3    3  502    0  0.99513445239E+03 -0.19015890918E+02  0.27199098034E+03  0.10318106783E+04  0.25500000920E-02 0.  1.
       -2    1    3    3    0  502 -0.99513445239E+03  0.19015890918E+02  0.20823370717E+03  0.10168655070E+04  0.25500000920E-02 0. -1.
</event>
<event>
 5   0  0.2313821E-06  0.2000447E+04  0.7818609E-02  0.8606411E-01
        1   -1    0    0  501    0  0.00000000000E+00  0.00000000000E+00  0.78530985654E+03  0.78530985656E+03  0.50400001928E-02 0. -1.
       -1   -1    0    0    0  501  0.00000000000E+00  0.00000000000E+00 -0.12739525638E+04  0.12739525638E+04  0.50400001928E-02 0.  1.
    10030    2    1    2    0    0  0.00000000000E+00  0.00000000000E+00 -0.48864270725E+03  0.20592624204E+04  0.20004474551E+04 0.  0.
        1    1    3    3  502    0 -0.47372621590E+03  0.65012639771E+03 -0.85624512131E+03  0.11748346983E+04  0.50400001928E-02 0.  1.
       -1    1    3    3    0  502  0.47372621590E+03 -0.65012639771E+03  0.36760241406E+03  0.88442772202E+03  0.50400001928E-02 0. -1.
</event>
<event>
 5   0  0.5118981E-06  0.1999950E+04  0.7818609E-02  0.8606644E-01
       -2   -1    0    0    0  501  0.00000000000E+00  0.00000000000E+00  0.84076492122E+03  0.84076492122E+03  0.25500000920E-02 0.  1.
        2   -1    0    0  501    0  0.00000000000E+00  0.00000000000E+00 -0.11893339413E+04  0.11893339413E+04  0.25500000920E-02 0. -1.
    10030    2    1    2    0    0  0.00000000000E+00  0.00000000000E+00 -0.34856902011E+03  0.20300988625E+04  0.19999502569E+04 0.  0.
        4    1    3    3  502    0 -0.65516452158E+03  0.72923635173E+03  0.25977241009E+02  0.98066438549E+03  0.12699999809E+01 0.  1.
       -4    1    3    3    0  502  0.65516452158E+03 -0.72923635173E+03 -0.37454626112E+03  0.10494344771E+04  0.12699999809E+01 0. -1.
</event>
<event>
 5   0  0.2356996E-06  0.2001113E+04  0.7818609E-02  0.8606101E-01
       -1   -1    0    0    0  501  0.00000000000E+00  0.00000000000E+00  0.98316516269E+03  0.98316516270E+03  0.50400001928E-02 0.  1.
        1   -1    0    0  501    0  0.00000000000E+00  0.00000000000E+00 -0.10182553416E+04  0.10182553416E+04  0.50400001928E-02 0. -1.
    10030    2    1    2    0    0  0.00000000000E+00  0.00000000000E+00 -0.35090178878E+02  0.20014205043E+04  0.20011128690E+04 0.  0.
        4    1    3    3  502    0  0.71924834538E+03  0.32845614636E+03 -0.63075429600E+03  0.10114614265E+04  0.12699999809E+01 0. -1.
       -4    1    3    3    0  502 -0.71924834538E+03 -0.32845614636E+03  0.59566411712E+03  0.98995907781E+03  0.12699999809E+01 0.  1.
</event>
<event>
 5   0  0.1777750E-06  0.2002732E+04  0.7818609E-02  0.8605344E-01
        4   -1    0    0  501    0  0.00000000000E+00  0.00000000000E+00  0.64529671265E+03  0.64529796239E+03  0.12699999809E+01 0.  1.
       -4   -1    0    0    0  501  0.00000000000E+00  0.00000000000E+00 -0.15539081886E+04  0.15539087076E+04  0.12699999809E+01 0. -1.
    10030    2    1    2    0    0  0.00000000000E+00  0.00000000000E+00 -0.90861147596E+03  0.21992066700E+04  0.20027319249E+04 0.  0.
        5    1    3    3  502    0  0.15294791271E+03 -0.71737227778E+02  0.62952418048E+03  0.65181445032E+03  0.46999998093E+01 0.  1.
       -5    1    3    3    0  502 -0.15294791271E+03  0.71737227778E+02 -0.15381356564E+04  0.15473922197E+04  0.46999998093E+01 0. -1.
</event>
<event>
 5   0  0.2356996E-06  0.2002211E+04  0.7818609E-02  0.8605587E-01
        1   -1    0    0  501    0  0.00000000000E+00  0.00000000000E+00  0.15753790376E+04  0.15753790376E+04  0.50400001928E-02 0.  1.
       -1   -1    0    0    0  501  0.00000000000E+00  0.00000000000E+00 -0.63617237212E+03  0.63617237214E+03  0.50400001928E-02 0. -1.
    10030    2    1    2    0    0  0.00000000000E+00  0.00000000000E+00  0.93920666546E+03  0.22115514097E+04  0.20022113968E+04 0.  0.
        4    1    3    3  502    0  0.68889799165E+03 -0.30258259038E+03 -0.25979938340E+03  0.79601130609E+03  0.12699999809E+01 0. -1.
       -4    1    3    3    0  502 -0.68889799165E+03  0.30258259038E+03  0.11990060489E+04  0.14155401036E+04  0.12699999809E+01 0.  1.
</event>
<event>
 5   0  0.2379743E-06  0.1998620E+04  0.7818609E-02  0.8607266E-01
        1   -1    0    0  501    0  0.00000000000E+00  0.00000000000E+00  0.12609081753E+04  0.12609081753E+04  0.50400001928E-02 0.  1.
       -1   -1    0    0    0  501  0.00000000000E+00  0.00000000000E+00 -0.79198483641E+03  0.79198483643E+03  0.50400001928E-02 0. -1.
    10030    2    1    2    0    0  0.00000000000E+00  0.00000000000E+00  0.46892333888E+03  0.20528930117E+04  0.19986196786E+04 0.  0.
        5    1    3    3  502    0 -0.16010614155E+03  0.23816141588E+03  0.12176609364E+04  0.12510296090E+04  0.46999998093E+01 0.  1.
       -5    1    3    3    0  502  0.16010614155E+03 -0.23816141588E+03 -0.74873759755E+03  0.80186340269E+03  0.46999998093E+01 0. -1.
</event>
<event>
 5   0  0.4956214E-06  0.2000745E+04  0.7818609E-02  0.8606272E-01
        2   -1    0    0  501    0  0.00000000000E+00  0.00000000000E+00  0.21923369930E+04  0.21923369930E+04  0.25500000920E-02 0. -1.
       -2   -1    0    0    0  501  0.00000000000E+00  0.00000000000E+00 -0.45647435448E+03  0.45647435449E+03  0.25500000920E-02 0.  1.
    10030    2    1    2    0    0  0.00000000000E+00  0.00000000000E+00  0.17358626385E+04  0.26488113475E+04  0.20007454748E+04 0.  0.
        1    1    3    3  502    0 -0.58091386386E+02 -0.81795559227E+03  0.16265222136E+04  0.18215379413E+04  0.50400001928E-02 0. -1.
       -1    1    3    3    0  502  0.58091386386E+02  0.81795559227E+03  0.10934042491E+03  0.82727340622E+03  0.50400001928E-02 0.  1.
</event>
<event>
 5   0  0.2379743E-06  0.2001263E+04  0.7818609E-02  0.8606030E-01
       -1   -1    0    0    0  501  0.00000000000E+00  0.00000000000E+00  0.86253384110E+03  0.86253384111E+03  0.50400001928E-02 0.  1.
        1   -1    0    0  501    0  0.00000000000E+00  0.00000000000E+00 -0.11608396922E+04  0.11608396922E+04  0.50400001928E-02 0. -1.
    10030    2    1    2    0    0  0.00000000000E+00  0.00000000000E+00 -0.29830585113E+03  0.20233735334E+04  0.20012631198E+04 0.  0.
        5    1    3    3  502    0 -0.93004509981E+03 -0.32632469625E+03  0.25292404186E+02  0.98596830110E+03  0.46999998093E+01 0.  1.
       -5    1    3    3    0  502  0.93004509981E+03  0.32632469625E+03 -0.32359825532E+03  0.10374052323E+04  0.46999998093E+01 0. -1.
</event>
<event>
 5   0  0.4956214E-06  0.1999759E+04  0.7818609E-02  0.8606734E-01
       -2   -1    0    0    0  501  0.00000000000E+00  0.00000000000E+00  0.69067480287E+03  0.69067480287E+03  0.25500000920E-02 0.  1.
        2   -1    0    0  501    0  0.00000000000E+00  0.00000000000E+00 -0.14475099293E+04  0.14475099293E+04  0.25500000920E-02 0. -1.
    10030    2    1    2    0    0  0.00000000000E+00  0.00000000000E+00 -0.75683512643E+03  0.21381847322E+04  0.19997586205E+04 0.  0.
        1    1    3    3  502    0 -0.33797030396E+03  0.25164873341E-01 -0.13845854229E+04  0.14252370751E+04  0.50400001928E-02 0. -1.
       -1    1    3    3    0  502  0.33797030396E+03 -0.25164873341E-01  0.62775029645E+03  0.71294765706E+03  0.50400001928E-02 0.  1.
</event>
<event>
 5   0  0.2311520E-06  0.1998762E+04  0.7818609E-02  0.8607200E-01
        1   -1    0    0  501    0  0.00000000000E+00  0.00000000000E+00  0.91967278513E+03  0.91967278514E+03  0.50400001928E-02 0.  1.
       -1   -1    0    0    0  501  0.00000000000E+00  0.00000000000E+00 -0.10859979482E+04  0.10859979483E+04  0.50400001928E-02 0. -1.
    10030    2    1    2    0    0  0.00000000000E+00  0.00000000000E+00 -0.16632516312E+03  0.20056707334E+04  0.19987623748E+04 0.  0.
        3    1    3    3  502    0 -0.82700930972E+03  0.52407705033E+03 -0.28425881909E+03  0.10195117652E+04  0.10100000352E+00 0. -1.
       -3    1    3    3    0  502  0.82700930972E+03 -0.52407705033E+03  0.11793365597E+03  0.98615896815E+03  0.10100000352E+00 0.  1.
</event>
<event>
 5   0  0.2379743E-06  0.1990890E+04  0.7818609E-02  0.8610892E-01
        1   -1    0    0  501    0  0.00000000000E+00  0.00000000000E+00  0.28126904848E+04  0.28126904848E+04  0.50400001928E-02 0. -1.
       -1   -1    0    0    0  501  0.00000000000E+00  0.00000000000E+00 -0.35230003745E+03  0.35230003749E+03  0.50400001928E-02 0.  1.
    10030    2    1    2    0    0  0.00000000000E+00  0.00000000000E+00  0.24603904473E+04  0.31649905223E+04  0.19908902162E+04 0.  0.
        5    1    3    3  502    0 -0.49347268915E+03 -0.59009770284E+03  0.22581611102E+03  0.80171416342E+03  0.46999998093E+01 0. -1.
       -5    1    3    3    0  502  0.49347268915E+03  0.59009770284E+03  0.22345743363E+04  0.23632763589E+04  0.46999998093E+01 0.  1.
</event>
<event>
 5   0  0.5118981E-06  0.1999991E+04  0.7818609E-02  0.8606625E-01
        2   -1    0    0  501    0  0.00000000000E+00  0.00000000000E+00  0.15335363964E+04  0.15335363964E+04  0.25500000920E-02 0.  1.
       -2   -1    0    0    0  501  0.00000000000E+00  0.00000000000E+00 -0.65208200578E+03  0.65208200578E+03  0.25500000920E-02 0. -1.
    10030    2    1    2    0    0  0.00000000000E+00  0.00000000000E+00  0.88145439058E+03  0.21856184021E+04  0.19999914893E+04 0.  0.
        4    1    3    3  502    0  0.41533127220E+03 -0.41770986393E+03 -0.44236396024E+03  0.73666076475E+03  0.12699999809E+01 0. -1.
       -4    1    3    3    0  502 -0.41533127220E+03  0.41770986393E+03  0.13238183508E+04  0.14489576374E+04  0.12699999809E+01 0.  1.
</event>
<event>
 5   0  0.5129100E-06  0.2000144E+04  0.7818609E-02  0.8606554E-01
        2   -1    0    0  501    0  0.00000000000E+00  0.00000000000E+00  0.14772837912E+04  0.14772837912E+04  0.25500000920E-02 0. -1.
       -2   -1    0    0    0  501  0.00000000000E+00  0.00000000000E+00 -0.67701518781E+03  0.67701518782E+03  0.25500000920E-02 0.  1.
    10030    2    1    2    0    0  0.00000000000E+00  0.00000000000E+00  0.80026860336E+03  0.21542989790E+04  0.20001435582E+04 0.  0.
        2    1    3    3  502    0 -0.98224480991E+03  0.15088515071E+03  0.27936589106E+03  0.10322870223E+04  0.25500000920E-02 0. -1.
       -2    1    3    3    0  502  0.98224480991E+03 -0.15088515071E+03  0.52090271230E+03  0.11220119567E+04  0.25500000920E-02 0.  1.
</event>
<event>
 5   0  0.2313821E-06  0.2000484E+04  0.7818609E-02  0.8606395E-01
        1   -1    0    0  501    0  0.00000000000E+00  0.00000000000E+00  0.66698250525E+03  0.66698250527E+03  0.50400001928E-02 0. -1.
       -1   -1    0    0    0  501  0.00000000000E+00  0.00000000000E+00 -0.15000151362E+04  0.15000151363E+04  0.50400001928E-02 0.  1.
    10030    2    1    2    0    0  0.00000000000E+00  0.00000000000E+00 -0.83303263100E+03  0.21669976415E+04  0.20004837950E+04 0.  0.
        1    1    3    3  502    0 -0.41400625677E+03  0.66244382057E+03  0.26018237163E+03  0.82336374865E+03  0.50400001928E-02 0. -1.
       -1    1    3    3    0  502  0.41400625677E+03 -0.66244382057E+03 -0.10932150026E+04  0.13436338929E+04  0.50400001928E-02 0.  1.
</event>
<event>
 5   0  0.5251252E-06  0.2000056E+04  0.7818609E-02  0.8606595E-01
       -2   -1    0    0    0  501  0.00000000000E+00  0.00000000000E+00  0.44735331137E+03  0.44735331138E+03  0.25500000920E-02 0. -1.
        2   -1    0    0  501    0  0.00000000000E+00  0.00000000000E+00 -0.22354938140E+04  0.22354938140E+04  0.25500000920E-02 0.  1.
    10030    2    1    2    0    0  0.00000000000E+00  0.00000000000E+00 -0.17881405026E+04  0.26828471254E+04  0.20000555595E+04 0.  0.
        5    1    3    3  502    0  0.99143690350E+03 -0.10301805710E+02 -0.71927670749E+03  0.12249221742E+04  0.46999998093E+01 0.  1.
       -5    1    3    3    0  502 -0.99143690350E+03  0.10301805710E+02 -0.10688637951E+04  0.14579249512E+04  0.46999998093E+01 0. -1.
</event>
<event>
 5   0  0.2313821E-06  0.1992257E+04  0.7818609E-02  0.8610249E-01
        1   -1    0    0  501    0  0.00000000000E+00  0.00000000000E+00  0.26160849602E+04  0.26160849602E+04  0.50400001928E-02 0. -1.
       -1   -1    0    0    0  501  0.00000000000E+00  0.00000000000E+00 -0.37929672948E+03  0.37929672951E+03  0.50400001928E-02 0.  1.
    10030    2    1    2    0    0  0.00000000000E+00  0.00000000000E+00  0.22367882307E+04  0.29953816897E+04  0.19922574828E+04 0.  0.
        1    1    3    3  502    0 -0.57497763647E+03 -0.10073748593E+03  0.23319849701E+04  0.24039345300E+04  0.50400001928E-02 0. -1.
       -1    1    3    3    0  502  0.57497763647E+03  0.10073748593E+03 -0.95196739417E+02  0.59144715972E+03  0.50400001928E-02 0.  1.
</event>
<event>
 5   0  0.5118981E-06  0.1999566E+04  0.7818609E-02  0.8606823E-01
        2   -1    0    0  501    0  0.00000000000E+00  0.00000000000E+00  0.83362682385E+03  0.83362682385E+03  0.25500000920E-02 0. -1.
       -2   -1    0    0    0  501  0.00000000000E+00  0.00000000000E+00 -0.11990573914E+04  0.11990573914E+04  0.25500000920E-02 0.  1.
    10030    2    1    2    0    0  0.00000000000E+00  0.00000000000E+00 -0.36543056758E+03  0.20326842153E+04  0.19995663578E+04 0.  0.
        4    1    3    3  502    0  0.93624242408E+03  0.32213196865E+03 -0.41687942156E+02  0.99098858686E+03  0.12699999809E+01 0. -1.
       -4    1    3    3    0  502 -0.93624242408E+03 -0.32213196865E+03 -0.32374262542E+03  0.10416956284E+04  0.12699999809E+01 0.  1.
</event>
<event>
 5   0  0.2356996E-06  0.1995690E+04  0.7818609E-02  0.8608639E-01
        1   -1    0    0  501    0  0.00000000000E+00  0.00000000000E+00  0.79075709549E+03  0.79075709551E+03  0.50400001928E-02 0.  1.
       -1   -1    0    0    0  501  0.00000000000E+00  0.00000000000E+00 -0.12591657844E+04  0.12591657845E+04  0.50400001928E-02 0. -1.
    10030    2    1    2    0    0  0.00000000000E+00  0.00000000000E+00 -0.46840868896E+03  0.20499228800E+04  0.19956896337E+04 0.  0.
        4    1    3    3  502    0 -0.33775789105E+02  0.37997188775E+03 -0.11813095712E+04  0.12413755899E+04  0.12699999809E+01 0. -1.
       -4    1    3    3    0  502  0.33775789105E+02 -0.37997188775E+03  0.71290088224E+03  0.80854729002E+03  0.12699999809E+01 0.  1.
</event>
<event>
 5   0  0.2386776E-06  0.2002632E+04  0.7818609E-02  0.8605391E-01
       -1   -1    0    0    0  501  0.00000000000E+00  0.00000000000E+00  0.82419054699E+03  0.82419054700E+03  0.50400001928E-02 0. -1.
        1   -1    0    0  501    0  0.00000000000E+00  0.00000000000E+00 -0.12165073150E+04  0.12165073150E+04  0.50400001928E-02 0.  1.
    10030    2    1    2    0    0  0.00000000000E+00  0.00000000000E+00 -0.39231676800E+03  0.20406978620E+04  0.20026320974E+04 0.  0.
        2    1    3    3  502    0 -0.84513490772E+03  0.22356435611E+03 -0.69370121898E+03  0.11159997378E+04  0.25500000920E-02 0.  1.
       -2    1    3    3    0  502  0.84513490772E+03 -0.22356435611E+03  0.30138445098E+03  0.92469812419E+03  0.25500000920E-02 0. -1.
</event>
<event>
 5   0  0.5129100E-06  0.1999581E+04  0.7818609E-02  0.8606817E-01
        2   -1    0    0  501    0  0.00000000000E+00  0.00000000000E+00  0.12262590006E+04  0.12262590006E+04  0.25500000920E-02 0.  1.
       -2   -1    0    0    0  501  0.00000000000E+00  0.00000000000E+00 -0.81514640354E+03  0.81514640354E+03  0.25500000920E-02 0. -1.
    10030    2    1    2    0    0  0.00000000000E+00  0.00000000000E+00  0.41111259710E+03  0.20414054042E+04  0.19995805702E+04 0.  0.
        2    1    3    3  502    0  0.48324428958E+02 -0.88245688205E+03 -0.27167749939E+03  0.92459399890E+03  0.25500000920E-02 0. -1.
       -2    1    3    3    0  502 -0.48324428958E+02  0.88245688205E+03  0.68279009648E+03  0.11168114053E+04  0.25500000920E-02 0.  1.
</event>
<event>
 5   0  0.2379743E-06  0.1998426E+04  0.7818609E-02  0.8607357E-01
       -1   -1    0    0    0  501  0.00000000000E+00  0.00000000000E+00  0.41390867894E+03  0.41390867897E+03  0.50400001928E-02 0. -1.
        1   -1    0    0  501    0  0.00000000000E+00  0.00000000000E+00 -0.24121908518E+04  0.24121908518E+04  0.50400001928E-02 0.  1.
    10030    2    1    2    0    0  0.00000000000E+00  0.00000000000E+00 -0.19982821729E+04  0.28260995308E+04  0.19984261096E+04 0.  0.
        5    1    3    3  502    0 -0.75482481171E+03 -0.65460463855E+03 -0.98259419320E+03  0.14013497664E+04  0.46999998093E+01 0. -1.
       -5    1    3    3    0  502  0.75482481171E+03  0.65460463855E+03 -0.10156879797E+04  0.14247497644E+04  0.46999998093E+01 0.  1.
</event>
<event>
 5   0  0.2313821E-06  0.1999393E+04  0.7818609E-02  0.8606905E-01
        1   -1    0    0  501    0  0.00000000000E+00  0.00000000000E+00  0.12679696587E+04  0.12679696587E+04  0.50400001928E-02 0. -1.
       -1   -1    0    0    0  501  0.00000000000E+00  0.00000000000E+00 -0.78818343314E+03  0.78818343316E+03  0.50400001928E-02 0.  1.
    10030    2    1    2    0    0  0.00000000000E+00  0.00000000000E+00  0.47978622558E+03  0.20561530919E+04  0.19993925865E+04 0.  0.
        1    1    3    3  502    0 -0.89069567927E+03 -0.55949651671E+02  0.70315179296E+03  0.11361741066E+04  0.50400001928E-02 0.  1.
       -1    1    3    3    0  502  0.89069567927E+03  0.55949651671E+02 -0.22336556739E+03  0.91997898526E+03  0.50400001928E-02 0. -1.
</event>
<event>
 5   0  0.2379743E-06  0.1999890E+04  0.7818609E-02  0.8606672E-01
        1   -1    0    0  501    0  0.00000000000E+00  0.00000000000E+00  0.11284090167E+04  0.11284090167E+04  0.50400001928E-02 0.  1.
       -1   -1    0    0    0  501  0.00000000000E+00  0.00000000000E+00 -0.88610557380E+03  0.88610557382E+03  0.50400001928E-02 0. -1.
    10030    2    1    2    0    0  0.00000000000E+00  0.00000000000E+00  0.24230344286E+03  0.20145145905E+04  0.19998895162E+04 0.  0.
        5    1    3    3  502    0 -0.25361826732E+03  0.31815831223E+02  0.10949336804E+04  0.11243826426E+04  0.46999998093E+01 0.  1.
       -5    1    3    3    0  502  0.25361826732E+03 -0.31815831223E+02 -0.85263023753E+03  0.89013194785E+03  0.46999998093E+01 0. -1.
</event>
<event>
 5   0  0.5129100E-06  0.2005157E+04  0.7818609E-02  0.8604213E-01
       -2   -1    0    0    0  501  0.00000000000E+00  0.00000000000E+00  0.69251762142E+03  0.69251762142E+03  0.25500000920E-02 0.  1.
        2   -1    0    0  501    0  0.00000000000E+00  0.00000000000E+00 -0.14514628434E+04  0.14514628434E+04  0.25500000920E-02 0. -1.
    10030    2    1    2    0    0  0.00000000000E+00  0.00000000000E+00 -0.75894522198E+03  0.21439804648E+04  0.20051569474E+04 0.  0.
        2    1    3    3  502    0  0.31135787154E+03  0.73039122852E+03  0.27507677330E+03  0.84028703553E+03  0.25500000920E-02 0.  1.
       -2    1    3    3    0  502 -0.31135787154E+03 -0.73039122852E+03 -0.10340219953E+04  0.13036934293E+04  0.25500000920E-02 0. -1.
</event>
<event>
 5   0  0.5129100E-06  0.2000409E+04  0.7818609E-02  0.8606430E-01
        2   -1    0    0  501    0  0.00000000000E+00  0.00000000000E+00  0.13833158984E+04  0.13833158984E+04  0.25500000920E-02 0.  1.
       -2   -1    0    0    0  501  0.00000000000E+00  0.00000000000E+00 -0.72319628752E+03  0.72319628752E+03  0.25500000920E-02 0. -1.
    10030    2    1    2    0    0  0.00000000000E+00  0.00000000000E+00  0.66011961092E+03  0.21065121860E+04  0.20004088804E+04 0.  0.
        2    1    3    3  502    0 -0.39174282089E+03 -0.50208852520E+03 -0.48211637463E+03  0.79874371581E+03  0.25500000920E-02 0. -1.
       -2    1    3    3    0  502  0.39174282089E+03  0.50208852520E+03  0.11422359855E+04  0.13077684702E+04  0.25500000920E-02 0.  1.
</event>
<event>
 5   0  0.2313821E-06  0.2000334E+04  0.7818609E-02  0.8606465E-01
       -1   -1    0    0    0  501  0.00000000000E+00  0.00000000000E+00  0.39449764522E+03  0.39449764525E+03  0.50400001928E-02 0. -1.
        1   -1    0    0  501    0  0.00000000000E+00  0.00000000000E+00 -0.25357156783E+04  0.25357156783E+04  0.50400001928E-02 0.  1.
    10030    2    1    2    0    0  0.00000000000E+00  0.00000000000E+00 -0.21412180331E+04  0.29302133236E+04  0.20003338362E+04 0.  0.
        1    1    3    3  502    0  0.56199169185E+03  0.41652094083E+03 -0.21177646851E+04  0.22303030326E+04  0.50400001928E-02 0.  1.
       -1    1    3    3    0  502 -0.56199169185E+03 -0.41652094083E+03 -0.23453348037E+02  0.69991029098E+03  0.50400001928E-02 0. -1.
</event>
<event>
 5   0  0.5030137E-06  0.1999630E+04  0.7818609E-02  0.8606794E-01
       -2   -1    0    0    0  501  0.00000000000E+00  0.00000000000E+00  0.52571282774E+03  0.52571282774E+03  0.25500000920E-02 0. -1.
        2   -1    0    0  501    0  0.00000000000E+00  0.00000000000E+00 -0.19014759615E+04  0.19014759615E+04  0.25500000920E-02 0.  1.
    10030    2    1    2    0    0  0.00000000000E+00  0.00000000000E+00 -0.13757631337E+04  0.24271887892E+04  0.19996302704E+04 0.  0.
        3    1    3    3  502    0  0.94396676270E+03  0.27784577525E+03 -0.90282954688E+03  0.13354297903E+04  0.10100000352E+00 0.  1.
       -3    1    3    3    0  502 -0.94396676270E+03 -0.27784577525E+03 -0.47293358683E+03  0.10917589989E+04  0.10100000352E+00 0. -1.
</event>
<event>
 5   0  0.5030137E-06  0.1999811E+04  0.7818609E-02  0.8606709E-01
        2   -1    0    0  501    0  0.00000000000E+00  0.00000000000E+00  0.99987924626E+03  0.99987924626E+03  0.25500000920E-02 0. -1.
       -2   -1    0    0    0  501  0.00000000000E+00  0.00000000000E+00 -0.99993143777E+03  0.99993143778E+03  0.25500000920E-02 0.  1.
    10030    2    1    2    0    0  0.00000000000E+00  0.00000000000E+00 -0.52191512569E-01  0.19998106840E+04  0.19998106834E+04 0.  0.
        3    1    3    3  502    0 -0.41699842362E+03 -0.65873112948E+03 -0.62612217157E+03  0.99992168202E+03  0.10100000352E+00 0.  1.
       -3    1    3    3    0  502  0.41699842362E+03  0.65873112948E+03  0.62606998005E+03  0.99988900202E+03  0.10100000352E+00 0. -1.
</event>
<event>
 5   0  0.5118981E-06  0.1999891E+04  0.7818609E-02  0.8606672E-01
        2   -1    0    0  501    0  0.00000000000E+00  0.00000000000E+00  0.13581190104E+04  0.13581190104E+04  0.25500000920E-02 0. -1.
       -2   -1    0    0    0  501  0.00000000000E+00  0.00000000000E+00 -0.73623217747E+03  0.73623217747E+03  0.25500000920E-02 0.  1.
    10030    2    1    2    0    0  0.00000000000E+00  0.00000000000E+00  0.62188683296E+03  0.20943511879E+04  0.19998909133E+04 0.  0.
        4    1    3    3  502    0  0.87724161146E+03  0.37425571465E+03  0.62558259624E+03  0.11406030784E+04  0.12699999809E+01 0. -1.
       -4    1    3    3    0  502 -0.87724161146E+03 -0.37425571465E+03 -0.36957632866E+01  0.95374810950E+03  0.12699999809E+01 0.  1.
</event>
<event>
 5   0  0.2356996E-06  0.1999718E+04  0.7818609E-02  0.8606753E-01
        1   -1    0    0  501    0  0.00000000000E+00  0.00000000000E+00  0.23172156973E+04  0.23172156973E+04  0.50400001928E-02 0. -1.
       -1   -1    0    0    0  501  0.00000000000E+00  0.00000000000E+00 -0.43143062812E+03  0.43143062815E+03  0.50400001928E-02 0.  1.
    10030    2    1    2    0    0  0.00000000000E+00  0.00000000000E+00  0.18857850692E+04  0.27486463255E+04  0.19997178039E+04 0.  0.
        4    1    3    3  502    0 -0.90413000844E+03 -0.36069188363E+03  0.62895299686E+03  0.11589362330E+04  0.12699999809E+01 0. -1.
       -4    1    3    3    0  502  0.90413000844E+03  0.36069188363E+03  0.12568320723E+04  0.15897100924E+04  0.12699999809E+01 0.  1.
</event>
<event>
 5   0  0.2356996E-06  0.2001492E+04  0.7818609E-02  0.8605924E-01
        1   -1    0    0  501    0  0.00000000000E+00  0.00000000000E+00  0.11114708684E+04  0.11114708684E+04  0.50400001928E-02 0. -1.
       -1   -1    0    0    0  501  0.00000000000E+00  0.00000000000E+00 -0.90105128533E+03  0.90105128534E+03  0.50400001928E-02 0.  1.
    10030    2    1    2    0    0  0.00000000000E+00  0.00000000000E+00  0.21041958305E+03  0.20125221537E+04  0.20014916983E+04 0.  0.
        4    1    3    3  502    0  0.22978894334E+03 -0.30962967321E+03 -0.82336061582E+03  0.90917424600E+03  0.12699999809E+01 0.  1.
       -4    1    3    3    0  502 -0.22978894334E+03  0.30962967321E+03  0.10337801989E+04  0.11033479077E+04  0.12699999809E+01 0. -1.
</event>
<event>
 5   0  0.5251252E-06  0.2000229E+04  0.7818609E-02  0.8606514E-01
        2   -1    0    0  501    0  0.00000000000E+00  0.00000000000E+00  0.16044332918E+04  0.16044332918E+04  0.25500000920E-02 0. -1.
       -2   -1    0    0    0  501  0.00000000000E+00  0.00000000000E+00 -0.62341552570E+03  0.62341552570E+03  0.25500000920E-02 0.  1.
    10030    2    1    2    0    0  0.00000000000E+00  0.00000000000E+00  0.98101776613E+03  0.22278488175E+04  0.20002286110E+04 0.  0.
        5    1    3    3  502    0  0.65955895905E+03 -0.35415495564E+02 -0.34590324097E+03  0.74561613442E+03  0.46999998093E+01 0.  1.
       -5    1    3    3    0  502 -0.65955895905E+03  0.35415495564E+02  0.13269210071E+04  0.14822326831E+04  0.46999998093E+01 0. -1.
</event>
<event>
 5   0  0.2356996E-06  0.2000182E+04  0.7818609E-02  0.8606535E-01
        1   -1    0    0  501    0  0.00000000000E+00  0.00000000000E+00  0.14324731738E+04  0.14324731738E+04  0.50400001928E-02 0.  1.
       -1   -1    0    0    0  501  0.00000000000E+00  0.00000000000E+00 -0.69822072459E+03  0.69822072461E+03  0.50400001928E-02 0. -1.
    10030    2    1    2    0    0  0.00000000000E+00  0.00000000000E+00  0.73425244917E+03  0.21306938984E+04  0.20001824490E+04 0.  0.
        4    1    3    3  502    0  0.24492116611E+03  0.87456030439E+03 -0.78930808875E+02  0.91163248577E+03  0.12699999809E+01 0. -1.
       -4    1    3    3    0  502 -0.24492116611E+03 -0.87456030439E+03  0.81318325804E+03  0.12190614126E+04  0.12699999809E+01 0.  1.
</event>
<event>
 5   0  0.5030137E-06  0.1998510E+04  0.7818609E-02  0.8607318E-01
       -2   -1    0    0    0  501  0.00000000000E+00  0.00000000000E+00  0.81036982234E+03  0.81036982234E+03  0.25500000920E-02 0.  1.
        2   -1    0    0  501    0  0.00000000000E+00  0.00000000000E+00 -0.12321666394E+04  0.12321666394E+04  0.25500000920E-02 0. -1.
    10030    2    1    2    0    0  0.00000000000E+00  0.00000000000E+00 -0.42179681702E+03  0.20425364617E+04  0.19985101057E+04 0.  0.
        3    1    3    3  502    0  0.28022335341E+03 -0.42409820716E+03 -0.10901564889E+04  0.12028406368E+04  0.10100000352E+00 0. -1.
       -3    1    3    3    0  502 -0.28022335341E+03  0.42409820716E+03  0.66835967188E+03  0.83969582488E+03  0.10100000352E+00 0.  1.
</event>
<event>
 5   0  0.5251252E-06  0.1999836E+04  0.7818609E-02  0.8606697E-01
        2   -1    0    0  501    0  0.00000000000E+00  0.00000000000E+00  0.17224390365E+04  0.17224390365E+04  0.25500000920E-02 0.  1.
       -2   -1    0    0    0  501  0.00000000000E+00  0.00000000000E+00 -0.58047710161E+03  0.58047710162E+03  0.25500000920E-02 0. -1.
    10030    2    1    2    0    0  0.00000000000E+00  0.00000000000E+00  0.11419619349E+04  0.23029161381E+04  0.19998364129E+04 0.  0.
        5    1    3    3  502    0 -0.80508438648E+03 -0.43615608734E+03  0.10336432638E+04  0.13808814173E+04  0.46999998093E+01 0.  1.
       -5    1    3    3    0  502  0.80508438648E+03  0.43615608734E+03  0.10831867111E+03  0.92203472082E+03  0.46999998093E+01 0. -1.
</event>
<event>
 5   0  0.2356996E-06  0.1999884E+04  0.7818609E-02  0.8606675E-01
       -1   -1    0    0    0  501  0.00000000000E+00  0.00000000000E+00  0.11571761286E+04  0.11571761286E+04  0.50400001928E-02 0. -1.
        1   -1    0    0  501    0  0.00000000000E+00  0.00000000000E+00 -0.86407273180E+03  0.86407273181E+03  0.50400001928E-02 0.  1.
    10030    2    1    2    0    0  0.00000000000E+00  0.00000000000E+00  0.29310339682E+03  0.20212488604E+04  0.19998843353E+04 0.  0.
        4    1    3    3  502    0 -0.25498038128E+03  0.12027691201E+03  0.11161760107E+04  0.11512306589E+04  0.12699999809E+01 0. -1.
       -4    1    3    3    0  502  0.25498038128E+03 -0.12027691201E+03 -0.82307261384E+03  0.87001820151E+03  0.12699999809E+01 0.  1.
</event>
<event>
 5   0  0.2311520E-06  0.1999695E+04  0.7818609E-02  0.8606763E-01
       -1   -1    0    0    0  501  0.00000000000E+00  0.00000000000E+00  0.89911391925E+03  0.89911391926E+03  0.50400001928E-02 0. -1.
        1   -1    0    0  501    0  0.00000000000E+00  0.00000000000E+00 -0.11118667848E+04  0.11118667848E+04  0.50400001928E-02 0.  1.
    10030    2    1    2    0    0  0.00000000000E+00  0.00000000000E+00 -0.21275286556E+03  0.20109807041E+04  0.19996948793E+04 0.  0.
        3    1    3    3  502    0 -0.57521420373E+02 -0.87639558415E+03 -0.58689840877E+03  0.10563274521E+04  0.10100000352E+00 0.  1.
       -3    1    3    3    0  502  0.57521420373E+02  0.87639558415E+03  0.37414554322E+03  0.95465325194E+03  0.10100000352E+00 0. -1.
</event>
<event>
 5   0  0.2356996E-06  0.2000067E+04  0.7818609E-02  0.8606589E-01
       -1   -1    0    0    0  501  0.00000000000E+00  0.00000000000E+00  0.81062132275E+03  0.81062132276E+03  0.50400001928E-02 0. -1.
        1   -1    0    0  501    0  0.00000000000E+00  0.00000000000E+00 -0.12337041487E+04  0.12337041487E+04  0.50400001928E-02 0.  1.
    10030    2    1    2    0    0  0.00000000000E+00  0.00000000000E+00 -0.42308282594E+03  0.20443254715E+04  0.20000668878E+04 0.  0.
        4    1    3    3  502    0  0.89021967196E+02 -0.23354663685E+03 -0.12012639737E+04  0.12269905010E+04  0.12699999809E+01 0.  1.
       -4    1    3    3    0  502 -0.89021967196E+02  0.23354663685E+03  0.77818114777E+03  0.81733497042E+03  0.12699999809E+01 0. -1.
</event>
<event>
 5   0  0.5251252E-06  0.2002746E+04  0.7818609E-02  0.8605338E-01
        2   -1    0    0  501    0  0.00000000000E+00  0.00000000000E+00  0.31790329866E+03  0.31790329868E+03  0.25500000920E-02 0.  1.
       -2   -1    0    0    0  501  0.00000000000E+00  0.00000000000E+00 -0.31542530783E+04  0.31542530783E+04  0.25500000920E-02 0. -1.
    10030    2    1    2    0    0  0.00000000000E+00  0.00000000000E+00 -0.28363497796E+04  0.34721563770E+04  0.20027455739E+04 0.  0.
        5    1    3    3  502    0  0.66901539651E+03  0.70618957217E+03 -0.18300515791E+04  0.20725337596E+04  0.46999998093E+01 0. -1.
       -5    1    3    3    0  502 -0.66901539651E+03 -0.70618957217E+03 -0.10062982005E+04  0.13996226173E+04  0.46999998093E+01 0.  1.
</event>
<event>
 5   0  0.2356996E-06  0.1999117E+04  0.7818609E-02  0.8607034E-01
        1   -1    0    0  501    0  0.00000000000E+00  0.00000000000E+00  0.14915895200E+04  0.14915895200E+04  0.50400001928E-02 0. -1.
       -1   -1    0    0    0  501  0.00000000000E+00  0.00000000000E+00 -0.66983363542E+03  0.66983363544E+03  0.50400001928E-02 0.  1.
    10030    2    1    2    0    0  0.00000000000E+00  0.00000000000E+00  0.82175588461E+03  0.21614231555E+04  0.19991166357E+04 0.  0.
        4    1    3    3  502    0  0.35819318786E+03 -0.88645629502E+03  0.95644845277E+02  0.96086246266E+03  0.12699999809E+01 0.  1.
       -4    1    3    3    0  502 -0.35819318786E+03  0.88645629502E+03  0.72611103933E+03  0.12005606928E+04  0.12699999809E+01 0. -1.
</event>
<event>
 5   0  0.2386776E-06  0.2000414E+04  0.7818609E-02  0.8606427E-01
       -1   -1    0    0    0  501  0.00000000000E+00  0.00000000000E+00  0.94727532777E+03  0.94727532779E+03  0.50400001928E-02 0. -1.
        1   -1    0    0  501    0  0.00000000000E+00  0.00000000000E+00 -0.10560959120E+04  0.10560959120E+04  0.50400001928E-02 0.  1.
    10030    2    1    2    0    0  0.00000000000E+00  0.00000000000E+00 -0.10882058423E+03  0.20033712398E+04  0.20004135585E+04 0.  0.
        2    1    3    3  502    0 -0.48852988878E+03  0.92924149682E+02 -0.92351668267E+03  0.10488943765E+04  0.25500000920E-02 0.  1.
       -2    1    3    3    0  502  0.48852988878E+03 -0.92924149682E+02  0.81469609844E+03  0.95447686333E+03  0.25500000920E-02 0. -1.
</event>
<event>
 5   0  0.2379743E-06  0.2000107E+04  0.7818609E-02  0.8606570E-01
       -1   -1    0    0    0  501  0.00000000000E+00  0.00000000000E+00  0.53661291893E+03  0.53661291895E+03  0.50400001928E-02 0.  1.
        1   -1    0    0  501    0  0.00000000000E+00  0.00000000000E+00 -0.18637408862E+04  0.18637408862E+04  0.50400001928E-02 0. -1.
    10030    2    1    2    0    0  0.00000000000E+00  0.00000000000E+00 -0.13271279672E+04  0.24003538051E+04  0.20001074342E+04 0.  0.
        5    1    3    3  502    0  0.13168204744E+03  0.91448308991E+03 -0.20427064715E+03  0.94623890780E+03  0.46999998093E+01 0.  1.
       -5    1    3    3    0  502 -0.13168204744E+03 -0.91448308991E+03 -0.11228573201E+04  0.14541148973E+04  0.46999998093E+01 0. -1.
</event>
<event>
 5   0  0.5129100E-06  0.2001777E+04  0.7818609E-02  0.8605790E-01
       -2   -1    0    0    0  501  0.00000000000E+00  0.00000000000E+00  0.97010984634E+03  0.97010984634E+03  0.25500000920E-02 0.  1.
        2   -1    0    0  501    0  0.00000000000E+00  0.00000000000E+00 -0.10326433895E+04  0.10326433895E+04  0.25500000920E-02 0. -1.
    10030    2    1    2    0    0  0.00000000000E+00  0.00000000000E+00 -0.62533543207E+02  0.20027532359E+04  0.20017767308E+04 0.  0.
        2    1    3    3  502    0  0.35109026924E+03 -0.38870831952E+03  0.82203789622E+03  0.97473321357E+03  0.25500000920E-02 0.  1.
       -2    1    3    3    0  502 -0.35109026924E+03  0.38870831952E+03 -0.88457143942E+03  0.10280200223E+04  0.25500000920E-02 0. -1.
</event>
<event>
 5   0  0.5118981E-06  0.2000509E+04  0.7818609E-02  0.8606383E-01
       -2   -1    0    0    0  501  0.00000000000E+00  0.00000000000E+00  0.80732474622E+03  0.80732474623E+03  0.25500000920E-02 0.  1.
        2   -1    0    0  501    0  0.00000000000E+00  0.00000000000E+00 -0.12392899628E+04  0.12392899628E+04  0.25500000920E-02 0. -1.
    10030    2    1    2    0    0  0.00000000000E+00  0.00000000000E+00 -0.43196521655E+03  0.20466147090E+04  0.20005093898E+04 0.  0.
        4    1    3    3  502    0  0.61569578476E+03 -0.24934110473E+03  0.54908647187E+03  0.86182936384E+03  0.12699999809E+01 0.  1.
       -4    1    3    3    0  502 -0.61569578476E+03  0.24934110473E+03 -0.98105168842E+03  0.11847853452E+04  0.12699999809E+01 0. -1.
</event>
<event>
 5   0  0.5030137E-06  0.2000030E+04  0.7818609E-02  0.8606606E-01
        2   -1    0    0  501    0  0.00000000000E+00  0.00000000000E+00  0.13183174656E+04  0.13183174656E+04  0.25500000920E-02 0. -1.
       -2   -1    0    0    0  501  0.00000000000E+00  0.00000000000E+00 -0.75856563458E+03  0.75856563458E+03  0.25500000920E-02 0.  1.
    10030    2    1    2    0    0  0.00000000000E+00  0.00000000000E+00  0.55975183103E+03  0.20768831002E+04  0.20000303247E+04 0.  0.
        3    1    3    3  502    0 -0.22992185296E+03  0.11108801385E+03 -0.72414045905E+03  0.76784374708E+03  0.10100000352E+00 0.  1.
       -3    1    3    3    0  502  0.22992185296E+03 -0.11108801385E+03  0.12838922901E+04  0.13090393531E+04  0.10100000352E+00 0. -1.
</event>
<event>
 5   0  0.2313821E-06  0.1998165E+04  0.7818609E-02  0.8607479E-01
        1   -1    0    0  501    0  0.00000000000E+00  0.00000000000E+00  0.14861669156E+04  0.14861669156E+04  0.50400001928E-02 0. -1.
       -1   -1    0    0    0  501  0.00000000000E+00  0.00000000000E+00 -0.67163745806E+03  0.67163745807E+03  0.50400001928E-02 0.  1.
    10030    2    1    2    0    0  0.00000000000E+00  0.00000000000E+00  0.81452945755E+03  0.21578043737E+04  0.19981645272E+04 0.  0.
        1    1    3    3  502    0 -0.84409096799E+03  0.18224760046E+03 -0.13533366772E+03  0.87408177636E+03  0.50400001928E-02 0.  1.
       -1    1    3    3    0  502  0.84409096799E+03 -0.18224760046E+03  0.94986312527E+03  0.12837225973E+04  0.50400001928E-02 0. -1.
</event>
<event>
 5   0  0.2311520E-06  0.2004100E+04  0.7818609E-02  0.8604706E-01
       -1   -1    0    0    0  501  0.00000000000E+00  0.00000000000E+00  0.82371489890E+03  0.82371489891E+03  0.50400001928E-02 0. -1.
        1   -1    0    0  501    0  0.00000000000E+00  0.00000000000E+00 -0.12189945408E+04  0.12189945408E+04  0.50400001928E-02 0.  1.
    10030    2    1    2    0    0  0.00000000000E+00  0.00000000000E+00 -0.39527964189E+03  0.20427094397E+04  0.20040997629E+04 0.  0.
        3    1    3    3  502    0 -0.48848730676E+03  0.79187666288E+03  0.18156998059E+03  0.94797477084E+03  0.10100000352E+00 0. -1.
       -3    1    3    3    0  502  0.48848730676E+03 -0.79187666288E+03 -0.57684962249E+03  0.10947346689E+04  0.10100000352E+00 0.  1.
</event>
<event>
 5   0  0.2379743E-06  0.2000475E+04  0.7818609E-02  0.8606399E-01
        1   -1    0    0  501    0  0.00000000000E+00  0.00000000000E+00  0.99218671122E+03  0.99218671124E+03  0.50400001928E-02 0. -1.
       -1   -1    0    0    0  501  0.00000000000E+00  0.00000000000E+00 -0.10083533629E+04  0.10083533629E+04  0.50400001928E-02 0.  1.
    10030    2    1    2    0    0  0.00000000000E+00  0.00000000000E+00 -0.16166651649E+02  0.20005400741E+04  0.20004747505E+04 0.  0.
        5    1    3    3  502    0 -0.29110756911E+03  0.95307591633E+03 -0.93849742241E+02  0.10009631278E+04  0.46999998093E+01 0.  1.
       -5    1    3    3    0  502  0.29110756911E+03 -0.95307591633E+03  0.77683090591E+02  0.99957694633E+03  0.46999998093E+01 0. -1.
</event>
<event>
 5   0  0.2379743E-06  0.1999286E+04  0.7818609E-02  0.8606954E-01
        1   -1    0    0  501    0  0.00000000000E+00  0.00000000000E+00  0.15294412710E+04  0.15294412710E+04  0.50400001928E-02 0. -1.
       -1   -1    0    0    0  501  0.00000000000E+00  0.00000000000E+00 -0.65336697913E+03  0.65336697915E+03  0.50400001928E-02 0.  1.
    10030    2    1    2    0    0  0.00000000000E+00  0.00000000000E+00  0.87607429183E+03  0.21828082501E+04  0.19992862956E+04 0.  0.
        5    1    3    3  502    0  0.60138062335E+03 -0.78687877448E+02  0.13055934412E+04  0.14395995137E+04  0.46999998093E+01 0. -1.
       -5    1    3    3    0  502 -0.60138062335E+03  0.78687877448E+02 -0.42951914936E+03  0.74320873640E+03  0.46999998093E+01 0.  1.
</event>
<event>
 5   0  0.5129100E-06  0.2000013E+04  0.7818609E-02  0.8606614E-01
        2   -1    0    0  501    0  0.00000000000E+00  0.00000000000E+00  0.87085183928E+03  0.87085183928E+03  0.25500000920E-02 0.  1.
       -2   -1    0    0    0  501  0.00000000000E+00  0.00000000000E+00 -0.11483164068E+04  0.11483164068E+04  0.25500000920E-02 0. -1.
    10030    2    1    2    0    0  0.00000000000E+00  0.00000000000E+00 -0.27746456751E+03  0.20191682461E+04  0.20000134549E+04 0.  0.
        2    1    3    3  502    0 -0.29747220180E+03 -0.49741908669E+03 -0.96145914227E+03  0.11226393637E+04  0.25500000920E-02 0. -1.
       -2    1    3    3    0  502  0.29747220180E+03  0.49741908669E+03  0.68399457476E+03  0.89652888239E+03  0.25500000920E-02 0.  1.
</event>
<event>
 5   0  0.5129100E-06  0.2007204E+04  0.7818609E-02  0.8603260E-01
        2   -1    0    0  501    0  0.00000000000E+00  0.00000000000E+00  0.72936801107E+03  0.72936801108E+03  0.25500000920E-02 0. -1.
       -2   -1    0    0    0  501  0.00000000000E+00  0.00000000000E+00 -0.13809443617E+04  0.13809443617E+04  0.25500000920E-02 0.  1.
    10030    2    1    2    0    0  0.00000000000E+00  0.00000000000E+00 -0.65157635060E+03  0.21103123728E+04  0.20072036693E+04 0.  0.
        2    1    3    3  502    0  0.45333690948E+03  0.89322906276E+03 -0.26060217123E+03  0.10350294700E+04  0.25500000920E-02 0. -1.
       -2    1    3    3    0  502 -0.45333690948E+03 -0.89322906276E+03 -0.39097417937E+03  0.10752829028E+04  0.25500000920E-02 0.  1.
</event>
<event>
 5   0  0.2311520E-06  0.2000307E+04  0.7818609E-02  0.8606477E-01
       -1   -1    0    0    0  501  0.00000000000E+00  0.00000000000E+00  0.47863157651E+03  0.47863157654E+03  0.50400001928E-02 0.  1.
        1   -1    0    0  501    0  0.00000000000E+00  0.00000000000E+00 -0.20899306389E+04  0.20899306389E+04  0.50400001928E-02 0. -1.
    10030    2    1    2    0    0  0.00000000000E+00  0.00000000000E+00 -0.16112990624E+04  0.25685622154E+04  0.20003067730E+04 0.  0.
        3    1    3    3  502    0 -0.52350188279E+03  0.85219226678E+03 -0.81152068713E+03  0.12879641752E+04  0.10100000352E+00 0. -1.
       -3    1    3    3    0  502  0.52350188279E+03 -0.85219226678E+03 -0.79977837524E+03  0.12805980402E+04  0.10100000352E+00 0.  1.
</event>
<event>
 5   0  0.2313821E-06  0.2000600E+04  0.7818609E-02  0.8606340E-01
        1   -1    0    0  501    0  0.00000000000E+00  0.00000000000E+00  0.13161437968E+04  0.13161437968E+04  0.50400001928E-02 0.  1.
       -1   -1    0    0    0  501  0.00000000000E+00  0.00000000000E+00 -0.76025164910E+03  0.76025164912E+03  0.50400001928E-02 0. -1.
    10030    2    1    2    0    0  0.00000000000E+00  0.00000000000E+00  0.55589214765E+03  0.20763954459E+04  0.20006004018E+04 0.  0.
        1    1    3    3  502    0  0.53602892266E+03  0.31882951498E+03  0.10896375598E+04  0.12555035951E+04  0.50400001928E-02 0.  1.
       -1    1    3    3    0  502 -0.53602892266E+03 -0.31882951498E+03 -0.53374541220E+03  0.82089185075E+03  0.50400001928E-02 0. -1.
</event>
<event>
 5   0  0.5030137E-06  0.1999850E+04  0.7818609E-02  0.8606691E-01
       -2   -1    0    0    0  501  0.00000000000E+00  0.00000000000E+00  0.16468517309E+04  0.16468517309E+04  0.25500000920E-02 0. -1.
        2   -1    0    0  501    0  0.00000000000E+00  0.00000000000E+00 -0.60712815217E+03  0.60712815217E+03  0.25500000920E-02 0.  1.
    10030    2    1    2    0    0  0.00000000000E+00  0.00000000000E+00  0.10397235788E+04  0.22539798831E+04  0.19998500427E+04 0.  0.
        3    1    3    3  502    0  0.56473462225E+03  0.42981143012E+03 -0.27405554727E+03  0.76076902685E+03  0.10100000352E+00 0.  1.
       -3    1    3    3    0  502 -0.56473462225E+03 -0.42981143012E+03  0.13137791260E+04  0.14932108563E+04  0.10100000352E+00 0. -1.
</event>
<event>
 5   0  0.5251252E-06  0.2012661E+04  0.7818609E-02  0.8600724E-01
        2   -1    0    0  501    0  0.00000000000E+00  0.00000000000E+00  0.58067359741E+03  0.58067359742E+03  0.25500000920E-02 0.  1.
       -2   -1    0    0    0  501  0.00000000000E+00  0.00000000000E+00 -0.17440114932E+04  0.17440114932E+04  0.25500000920E-02 0. -1.
    10030    2    1    2    0    0  0.00000000000E+00  0.00000000000E+00 -0.11633378958E+04  0.23246850906E+04  0.20126613503E+04 0.  0.
        5    1    3    3  502    0  0.30036168234E+03 -0.70026051773E+03  0.17758009381E+03  0.78239294004E+03  0.46999998093E+01 0.  1.
       -5    1    3    3    0  502 -0.30036168234E+03  0.70026051773E+03 -0.13409179896E+04  0.15422921506E+04  0.46999998093E+01 0. -1.
</event>
<event>
 5   0  0.2386776E-06  0.2000619E+04  0.7818609E-02  0.8606331E-01
        1   -1    0    0  501    0  0.00000000000E+00  0.00000000000E+00  0.15429634016E+04  0.15429634016E+04  0.50400001928E-02 0. -1.
       -1   -1    0    0    0  501  0.00000000000E+00  0.00000000000E+00 -0.64850488527E+03  0.64850488529E+03  0.50400001928E-02 0.  1.
    10030    2    1    2    0    0  0.00000000000E+00  0.00000000000E+00  0.89445851634E+03  0.21914682869E+04  0.20006192079E+04 0.  0.
        2    1    3    3  502    0 -0.72608193801E+03  0.68481628764E+03  0.37414929079E+03  0.10659061968E+04  0.25500000920E-02 0.  1.
       -2    1    3    3    0  502  0.72608193801E+03 -0.68481628764E+03  0.52030922556E+03  0.11255620901E+04  0.25500000920E-02 0. -1.
</event>
<event>
 5   0  0.2386776E-06  0.2000020E+04  0.7818609E-02  0.8606611E-01
       -1   -1    0    0    0  501  0.00000000000E+00  0.00000000000E+00  0.97534202324E+03  0.97534202325E+03  0.50400001928E-02 0. -1.
        1   -1    0    0  501    0  0.00000000000E+00  0.00000000000E+00 -0.10253017671E+04  0.10253017671E+04  0.50400001928E-02 0.  1.
    10030    2    1    2    0    0  0.00000000000E+00  0.00000000000E+00 -0.49959743892E+02  0.20006437904E+04  0.20000198999E+04 0.  0.
        2    1    3    3  502    0  0.69938833687E+03 -0.41606351892E+03 -0.60633842126E+03  0.10148394842E+04  0.25500000920E-02 0.  1.
       -2    1    3    3    0  502 -0.69938833687E+03  0.41606351892E+03  0.55637867737E+03  0.98580430622E+03  0.25500000920E-02 0. -1.
</event>
<event>
 5   0  0.2311520E-06  0.1997225E+04  0.7818609E-02  0.8607919E-01
       -1   -1    0    0    0  501  0.00000000000E+00  0.00000000000E+00  0.45241938135E+03  0.45241938138E+03  0.50400001928E-02 0. -1.
        1   -1    0    0  501    0  0.00000000000E+00  0.00000000000E+00 -0.22042090218E+04  0.22042090218E+04  0.50400001928E-02 0.  1.
    10030    2    1    2    0    0  0.00000000000E+00  0.00000000000E+00 -0.17517896404E+04  0.26566284032E+04  0.19972249568E+04 0.  0.
        3    1    3    3  502    0  0.15389291381E+03 -0.91282501631E+03 -0.13741179561E+04  0.16568442011E+04  0.10100000352E+00 0.  1.
       -3    1    3    3    0  502 -0.15389291381E+03  0.91282501631E+03 -0.37767168434E+03  0.99978420206E+03  0.10100000352E+00 0. -1.
</event>
<event>
 5   0  0.5030137E-06  0.1999973E+04  0.7818609E-02  0.8606633E-01
       -2   -1    0    0    0  501  0.00000000000E+00  0.00000000000E+00  0.85188954104E+03  0.85188954104E+03  0.25500000920E-02 0.  1.
        2   -1    0    0  501    0  0.00000000000E+00  0.00000000000E+00 -0.11738295862E+04  0.11738295862E+04  0.25500000920E-02 0. -1.
    10030    2    1    2    0    0  0.00000000000E+00  0.00000000000E+00 -0.32194004517E+03  0.20257191273E+04  0.19999731473E+04 0.  0.
        3    1    3    3  502    0  0.37153247563E+03 -0.10359531548E+03  0.77351444641E+03  0.86434540482E+03  0.10100000352E+00 0.  1.
       -3    1    3    3    0  502 -0.37153247563E+03  0.10359531548E+03 -0.10954544916E+04  0.11613737224E+04  0.10100000352E+00 0. -1.
</event>
<event>
 5   0  0.2379743E-06  0.1999815E+04  0.7818609E-02  0.8606707E-01
        1   -1    0    0  501    0  0.00000000000E+00  0.00000000000E+00  0.16145065887E+04  0.16145065887E+04  0.50400001928E-02 0.  1.
       -1   -1    0    0    0  501  0.00000000000E+00  0.00000000000E+00 -0.61926951151E+03  0.61926951153E+03  0.50400001928E-02 0. -1.
    10030    2    1    2    0    0  0.00000000000E+00  0.00000000000E+00  0.99523707721E+03  0.22337761003E+04  0.19998146980E+04 0.  0.
        5    1    3    3  502    0  0.31606584670E+03  0.59892958424E+03 -0.32409433535E+03  0.75078192209E+03  0.46999998093E+01 0. -1.
       -5    1    3    3    0  502 -0.31606584670E+03 -0.59892958424E+03  0.13193314126E+04  0.14829941782E+04  0.46999998093E+01 0.  1.
</event>
<event>
 5   0  0.2356996E-06  0.2000564E+04  0.7818609E-02  0.8606357E-01
        1   -1    0    0  501    0  0.00000000000E+00  0.00000000000E+00  0.19400565395E+04  0.19400565395E+04  0.50400001928E-02 0. -1.
       -1   -1    0    0    0  501  0.00000000000E+00  0.00000000000E+00 -0.51573974871E+03  0.51573974874E+03  0.50400001928E-02 0.  1.
    10030    2    1    2    0    0  0.00000000000E+00  0.00000000000E+00  0.14243167908E+04  0.24557962882E+04  0.20005641926E+04 0.  0.
        4    1    3    3  502    0  0.20834848711E+02  0.83065257193E+03  0.13957900290E+04  0.16243919490E+04  0.12699999809E+01 0. -1.
       -4    1    3    3    0  502 -0.20834848711E+02 -0.83065257193E+03  0.28526761777E+02  0.83140433918E+03  0.12699999809E+01 0.  1.
</event>
<event>
 5   0  0.5030137E-06  0.1998448E+04  0.7818609E-02  0.8607347E-01
       -2   -1    0    0    0  501  0.00000000000E+00  0.00000000000E+00  0.13236202534E+04  0.13236202534E+04  0.25500000920E-02 0.  1.
        2   -1    0    0  501    0  0.00000000000E+00  0.00000000000E+00 -0.75433162413E+03  0.75433162413E+03  0.25500000920E-02 0. -1.
    10030    2    1    2    0    0  0.00000000000E+00  0.00000000000E+00  0.56928862928E+03  0.20779518775E+04  0.19984480133E+04 0.  0.
        3    1    3    3  502    0 -0.29784028874E+03  0.16553700256E+03 -0.69205288432E+03  0.77139389530E+03  0.10100000352E+00 0. -1.
       -3    1    3    3    0  502  0.29784028874E+03 -0.16553700256E+03  0.12613415136E+04  0.13065579822E+04  0.10100000352E+00 0.  1.
</event>
<event>
 5   0  0.5251252E-06  0.2000661E+04  0.7818609E-02  0.8606312E-01
       -2   -1    0    0    0  501  0.00000000000E+00  0.00000000000E+00  0.78817185180E+03  0.78817185180E+03  0.25500000920E-02 0.  1.
        2   -1    0    0  501    0  0.00000000000E+00  0.00000000000E+00 -0.12695978914E+04  0.12695978914E+04  0.25500000920E-02 0. -1.
    10030    2    1    2    0    0  0.00000000000E+00  0.00000000000E+00 -0.48142603960E+03  0.20577697432E+04  0.20006612118E+04 0.  0.
        5    1    3    3  502    0 -0.21797953131E+03  0.23394938930E+03 -0.12156041607E+04  0.12569657745E+04  0.46999998093E+01 0. -1.
       -5    1    3    3    0  502  0.21797953131E+03 -0.23394938930E+03  0.73417812107E+03  0.80080396870E+03  0.46999998093E+01 0.  1.
</event>
<event>
 5   0  0.5251252E-06  0.2001626E+04  0.7818609E-02  0.8605861E-01
       -2   -1    0    0    0  501  0.00000000000E+00  0.00000000000E+00  0.53385958463E+03  0.53385958464E+03  0.25500000920E-02 0.  1.
        2   -1    0    0  501    0  0.00000000000E+00  0.00000000000E+00 -0.18761995787E+04  0.18761995787E+04  0.25500000920E-02 0. -1.
    10030    2    1    2    0    0  0.00000000000E+00  0.00000000000E+00 -0.13423399941E+04  0.24100591634E+04  0.20016264664E+04 0.  0.
        5    1    3    3  502    0  0.33218034872E+03 -0.25745927608E+03 -0.17647871660E+04  0.18141457754E+04  0.46999998093E+01 0. -1.
       -5    1    3    3    0  502 -0.33218034872E+03  0.25745927608E+03  0.42244717194E+03  0.59591338799E+03  0.46999998093E+01 0.  1.
</event>
<event>
 5   0  0.5251252E-06  0.2000086E+04  0.7818609E-02  0.8606580E-01
       -2   -1    0    0    0  501  0.00000000000E+00  0.00000000000E+00  0.74958161422E+03  0.74958161422E+03  0.25500000920E-02 0.  1.
        2   -1    0    0  501    0  0.00000000000E+00  0.00000000000E+00 -0.13341922245E+04  0.13341922245E+04  0.25500000920E-02 0. -1.
    10030    2    1    2    0    0  0.00000000000E+00  0.00000000000E+00 -0.58461061033E+03  0.20837738388E+04  0.20000859595E+04 0.  0.
        5    1    3    3  502    0 -0.59512084935E+03  0.80337047145E+03 -0.26922123279E+03  0.10354105958E+04  0.46999998093E+01 0. -1.
       -5    1    3    3    0  502  0.59512084935E+03 -0.80337047145E+03 -0.31538937754E+03  0.10483632430E+04  0.46999998093E+01 0.  1.
</event>
<event>
 5   0  0.5129100E-06  0.2004013E+04  0.7818609E-02  0.8604747E-01
       -2   -1    0    0    0  501  0.00000000000E+00  0.00000000000E+00  0.53342700774E+03  0.53342700774E+03  0.25500000920E-02 0. -1.
        2   -1    0    0  501    0  0.00000000000E+00  0.00000000000E+00 -0.18822019504E+04  0.18822019504E+04  0.25500000920E-02 0.  1.
    10030    2    1    2    0    0  0.00000000000E+00  0.00000000000E+00 -0.13487749426E+04  0.24156289581E+04  0.20040133276E+04 0.  0.
        2    1    3    3  502    0 -0.35706946094E+03  0.82302271121E+02  0.44976602287E+03  0.58013941350E+03  0.25500000920E-02 0. -1.
       -2    1    3    3    0  502  0.35706946094E+03 -0.82302271121E+02 -0.17985409655E+04  0.18354895446E+04  0.25500000920E-02 0.  1.
</event>
<event>
 5   0  0.5118981E-06  0.2006850E+04  0.7818609E-02  0.8603425E-01
       -2   -1    0    0    0  501  0.00000000000E+00  0.00000000000E+00  0.10768964877E+04  0.10768964877E+04  0.25500000920E-02 0.  1.
        2   -1    0    0  501    0  0.00000000000E+00  0.00000000000E+00 -0.93496617135E+03  0.93496617135E+03  0.25500000920E-02 0. -1.
    10030    2    1    2    0    0  0.00000000000E+00  0.00000000000E+00  0.14193031632E+03  0.20118626590E+04  0.20068500552E+04 0.  0.
        4    1    3    3  502    0 -0.72383887892E+03  0.60650235443E+03 -0.26910528408E+03  0.98194047446E+03  0.12699999809E+01 0. -1.
       -4    1    3    3    0  502  0.72383887892E+03 -0.60650235443E+03  0.41103560039E+03  0.10299221846E+04  0.12699999809E+01 0.  1.
</event>
<event>
 5   0  0.5251252E-06  0.2000185E+04  0.7818609E-02  0.8606534E-01
        2   -1    0    0  501    0  0.00000000000E+00  0.00000000000E+00  0.77297733701E+03  0.77297733702E+03  0.25500000920E-02 0. -1.
       -2   -1    0    0    0  501  0.00000000000E+00  0.00000000000E+00 -0.12939381837E+04  0.12939381837E+04  0.25500000920E-02 0.  1.
    10030    2    1    2    0    0  0.00000000000E+00  0.00000000000E+00 -0.52096084670E+03  0.20669155207E+04  0.20001848830E+04 0.  0.
        5    1    3    3  502    0 -0.56830819271E+03  0.12454636631E+03  0.58009277862E+03  0.82159340374E+03  0.46999998093E+01 0. -1.
       -5    1    3    3    0  502  0.56830819271E+03 -0.12454636631E+03 -0.11010536253E+04  0.12453221170E+04  0.46999998093E+01 0.  1.
</event>
<event>
 5   0  0.5251252E-06  0.2000396E+04  0.7818609E-02  0.8606435E-01
       -2   -1    0    0    0  501  0.00000000000E+00  0.00000000000E+00  0.66897929750E+03  0.66897929751E+03  0.25500000920E-02 0.  1.
        2   -1    0    0  501    0  0.00000000000E+00  0.00000000000E+00 -0.14954067853E+04  0.14954067853E+04  0.25500000920E-02 0. -1.
    10030    2    1    2    0    0  0.00000000000E+00  0.00000000000E+00 -0.82642748779E+03  0.21643860828E+04  0.20003961415E+04 0.  0.
        5    1    3    3  502    0 -0.75240304449E+03  0.64993871180E+03 -0.53096276207E+03  0.11271531463E+04  0.46999998093E+01 0. -1.
       -5    1    3    3    0  502  0.75240304449E+03 -0.64993871180E+03 -0.29546472571E+03  0.10372329365E+04  0.46999998093E+01 0.  1.
</event>
<event>
 5   0  0.4956214E-06  0.1999620E+04  0.7818609E-02  0.8606798E-01
        2   -1    0    0  501    0  0.00000000000E+00  0.00000000000E+00  0.17886747966E+04  0.17886747966E+04  0.25500000920E-02 0. -1.
       -2   -1    0    0    0  501  0.00000000000E+00  0.00000000000E+00 -0.55886081163E+03  0.55886081164E+03  0.25500000920E-02 0.  1.
    10030    2    1    2    0    0  0.00000000000E+00  0.00000000000E+00  0.12298139850E+04  0.23475356083E+04  0.19996202125E+04 0.  0.
        1    1    3    3  502    0  0.63061577698E+03  0.21081596417E+03  0.14914784953E+04  0.16329812402E+04  0.50400001928E-02 0. -1.
       -1    1    3    3    0  502 -0.63061577698E+03 -0.21081596417E+03 -0.26166451031E+03  0.71455436805E+03  0.50400001928E-02 0.  1.
</event>
<event>
 5   0  0.1777750E-06  0.2002217E+04  0.7818609E-02  0.8605585E-01
        3   -1    0    0  501    0  0.00000000000E+00  0.00000000000E+00  0.10254592289E+04  0.10254592338E+04  0.10100000352E+00 0.  1.
       -3   -1    0    0    0  501  0.00000000000E+00  0.00000000000E+00 -0.97733563359E+03  0.97733563881E+03  0.10100000352E+00 0. -1.
    10030    2    1    2    0    0  0.00000000000E+00  0.00000000000E+00  0.48123595264E+02  0.20027948726E+04  0.20022166270E+04 0.  0.
        5    1    3    3  502    0  0.36228664954E+03 -0.40460001082E+03 -0.81715847469E+03  0.98118441077E+03  0.46999998093E+01 0. -1.
       -5    1    3    3    0  502 -0.36228664954E+03  0.40460001082E+03  0.86528206996E+03  0.10216104619E+04  0.46999998093E+01 0.  1.
</event>
<event>
 5   0  0.4956214E-06  0.2000330E+04  0.7818609E-02  0.8606466E-01
       -2   -1    0    0    0  501  0.00000000000E+00  0.00000000000E+00  0.74771653278E+03  0.74771653279E+03  0.25500000920E-02 0.  1.
        2   -1    0    0  501    0  0.00000000000E+00  0.00000000000E+00 -0.13378469365E+04  0.13378469365E+04  0.25500000920E-02 0. -1.
    10030    2    1    2    0    0  0.00000000000E+00  0.00000000000E+00 -0.59013040374E+03  0.20855634693E+04  0.20003302455E+04 0.  0.
        1    1    3    3  502    0 -0.67567878493E+03 -0.58985867413E+03 -0.75647759953E+03  0.11733428461E+04  0.50400001928E-02 0. -1.
       -1    1    3    3    0  502  0.67567878493E+03  0.58985867413E+03  0.16634719579E+03  0.91222062322E+03  0.50400001928E-02 0.  1.
</event>
<event>
 5   0  0.2386776E-06  0.2000064E+04  0.7818609E-02  0.8606591E-01
       -1   -1    0    0    0  501  0.00000000000E+00  0.00000000000E+00  0.10938828723E+04  0.10938828723E+04  0.50400001928E-02 0. -1.
        1   -1    0    0  501    0  0.00000000000E+00  0.00000000000E+00 -0.91423270884E+03  0.91423270886E+03  0.50400001928E-02 0.  1.
    10030    2    1    2    0    0  0.00000000000E+00  0.00000000000E+00  0.17965016343E+03  0.20081155811E+04  0.20000635005E+04 0.  0.
        2    1    3    3  502    0 -0.67967134012E+03 -0.72161002724E+03  0.22222461818E+03  0.10159025263E+04  0.25500000920E-02 0. -1.
       -2    1    3    3    0  502  0.67967134012E+03  0.72161002724E+03 -0.42574454751E+02  0.99221305484E+03  0.25500000920E-02 0.  1.
</event>
<event>
 5   0  0.5030137E-06  0.2000076E+04  0.7818609E-02  0.8606585E-01
        2   -1    0    0  501    0  0.00000000000E+00  0.00000000000E+00  0.13253646398E+04  0.13253646398E+04  0.25500000920E-02 0. -1.
       -2   -1    0    0    0  501  0.00000000000E+00  0.00000000000E+00 -0.75456689704E+03  0.75456689705E+03  0.25500000920E-02 0.  1.
    10030    2    1    2    0    0  0.00000000000E+00  0.00000000000E+00  0.57079774277E+03  0.20799315369E+04  0.20000762823E+04 0.  0.
        3    1    3    3  502    0  0.36074338287E+03  0.84957186301E+03 -0.11489587201E+03  0.93011247186E+03  0.10100000352E+00 0.  1.
       -3    1    3    3    0  502 -0.36074338287E+03 -0.84957186301E+03  0.68569361479E+03  0.11498190650E+04  0.10100000352E+00 0. -1.
</event>
<event>
 5   0  0.2356996E-06  0.2000198E+04  0.7818609E-02  0.8606528E-01
        1   -1    0    0  501    0  0.00000000000E+00  0.00000000000E+00  0.18197888656E+04  0.18197888656E+04  0.50400001928E-02 0. -1.
       -1   -1    0    0    0  501  0.00000000000E+00  0.00000000000E+00 -0.54962331404E+03  0.54962331406E+03  0.50400001928E-02 0.  1.
    10030    2    1    2    0    0  0.00000000000E+00  0.00000000000E+00  0.12701655515E+04  0.23694121796E+04  0.20001983773E+04 0.  0.
        4    1    3    3  502    0 -0.51114193365E+03 -0.63887732960E+03 -0.46201359314E+02  0.81949160894E+03  0.12699999809E+01 0.  1.
       -4    1    3    3    0  502  0.51114193365E+03  0.63887732960E+03  0.13163669108E+04  0.15499205707E+04  0.12699999809E+01 0. -1.
</event>
<event>
 5   0  0.2313821E-06  0.1999450E+04  0.7818609E-02  0.8606878E-01
       -1   -1    0    0    0  501  0.00000000000E+00  0.00000000000E+00  0.51335538057E+03  0.51335538060E+03  0.50400001928E-02 0.  1.
        1   -1    0    0  501    0  0.00000000000E+00  0.00000000000E+00 -0.19468967350E+04  0.19468967350E+04  0.50400001928E-02 0. -1.
    10030    2    1    2    0    0  0.00000000000E+00  0.00000000000E+00 -0.14335413544E+04  0.24602521156E+04  0.19994498387E+04 0.  0.
        1    1    3    3  502    0 -0.73880402537E+03  0.13320662024E+02  0.11179995333E+03  0.74733396653E+03  0.50400001928E-02 0.  1.
       -1    1    3    3    0  502  0.73880402537E+03 -0.13320662024E+02 -0.15453413077E+04  0.17129181490E+04  0.50400001928E-02 0. -1.
</event>
<event>
 5   0  0.2379743E-06  0.1998858E+04  0.7818609E-02  0.8607155E-01
       -1   -1    0    0    0  501  0.00000000000E+00  0.00000000000E+00  0.18274972969E+04  0.18274972969E+04  0.50400001928E-02 0.  1.
        1   -1    0    0  501    0  0.00000000000E+00  0.00000000000E+00 -0.54657184006E+03  0.54657184008E+03  0.50400001928E-02 0. -1.
    10030    2    1    2    0    0  0.00000000000E+00  0.00000000000E+00  0.12809254569E+04  0.23740691370E+04  0.19988582344E+04 0.  0.
        5    1    3    3  502    0 -0.55546471860E+03 -0.80614950759E+03  0.87924433151E+03  0.13158688258E+04  0.46999998093E+01 0.  1.
       -5    1    3    3    0  502  0.55546471860E+03  0.80614950759E+03  0.40168112535E+03  0.10582003112E+04  0.46999998093E+01 0. -1.
</event>
<event>
 5   0  0.5118981E-06  0.2000040E+04  0.7818609E-02  0.8606602E-01
        2   -1    0    0  501    0  0.00000000000E+00  0.00000000000E+00  0.15352863472E+04  0.15352863472E+04  0.25500000920E-02 0.  1.
       -2   -1    0    0    0  501  0.00000000000E+00  0.00000000000E+00 -0.65137021682E+03  0.65137021682E+03  0.25500000920E-02 0. -1.
    10030    2    1    2    0    0  0.00000000000E+00  0.00000000000E+00  0.88391613035E+03  0.21866565640E+04  0.20000398004E+04 0.  0.
        4    1    3    3  502    0  0.24215881401E+03  0.14960846272E+02  0.15026194998E+04  0.15220813685E+04  0.12699999809E+01 0.  1.
       -4    1    3    3    0  502 -0.24215881401E+03 -0.14960846272E+02 -0.61870336950E+03  0.66457519549E+03  0.12699999809E+01 0. -1.
</event>
<event>
 5   0  0.2356996E-06  0.1999941E+04  0.7818609E-02  0.8606648E-01
        1   -1    0    0  501    0  0.00000000000E+00  0.00000000000E+00  0.10880654729E+04  0.10880654730E+04  0.50400001928E-02 0.  1.
       -1   -1    0    0    0  501  0.00000000000E+00  0.00000000000E+00 -0.91900837681E+03  0.91900837683E+03  0.50400001928E-02 0. -1.
    10030    2    1    2    0    0  0.00000000000E+00  0.00000000000E+00  0.16905709613E+03  0.20070738498E+04  0.19999412833E+04 0.  0.
        4    1    3    3  502    0 -0.92918904453E+03  0.31094085636E+03  0.28489824828E+03  0.10204141911E+04  0.12699999809E+01 0.  1.
       -4    1    3    3    0  502  0.92918904453E+03 -0.31094085636E+03 -0.11584115215E+03  0.98665965868E+03  0.12699999809E+01 0. -1.
</event>
<event>
 5   0  0.5129100E-06  0.2000648E+04  0.7818609E-02  0.8606318E-01
        2   -1    0    0  501    0  0.00000000000E+00  0.00000000000E+00  0.16394621007E+04  0.16394621007E+04  0.25500000920E-02 0.  1.
       -2   -1    0    0    0  501  0.00000000000E+00  0.00000000000E+00 -0.61035131498E+03  0.61035131499E+03  0.25500000920E-02 0. -1.
    10030    2    1    2    0    0  0.00000000000E+00  0.00000000000E+00  0.10291107857E+04  0.22498134157E+04  0.20006477441E+04 0.  0.
        2    1    3    3  502    0  0.83883756647E+03 -0.24238297819E+02 -0.97687404216E+02  0.84485429925E+03  0.25500000920E-02 0. -1.
       -2    1    3    3    0  502 -0.83883756647E+03  0.24238297819E+02  0.11267981899E+04  0.14049591164E+04  0.25500000920E-02 0.  1.
</event>
<event>
 5   0  0.4956214E-06  0.1998125E+04  0.7818609E-02  0.8607498E-01
        2   -1    0    0  501    0  0.00000000000E+00  0.00000000000E+00  0.70230899089E+03  0.70230899089E+03  0.25500000920E-02 0.  1.
       -2   -1    0    0    0  501  0.00000000000E+00  0.00000000000E+00 -0.14212057053E+04  0.14212057053E+04  0.25500000920E-02 0. -1.
    10030    2    1    2    0    0  0.00000000000E+00  0.00000000000E+00 -0.71889671437E+03  0.21235146961E+04  0.19981246655E+04 0.  0.
        1    1    3    3  502    0 -0.97770739936E+03  0.19573551000E+03 -0.29306752250E+03  0.10392847162E+04  0.50400001928E-02 0. -1.
       -1    1    3    3    0  502  0.97770739936E+03 -0.19573551000E+03 -0.42582919187E+03  0.10842299799E+04  0.50400001928E-02 0.  1.
</event>
<event>
 5   0  0.5251252E-06  0.2000733E+04  0.7818609E-02  0.8606278E-01
       -2   -1    0    0    0  501  0.00000000000E+00  0.00000000000E+00  0.85706215951E+03  0.85706215951E+03  0.25500000920E-02 0.  1.
        2   -1    0    0  501    0  0.00000000000E+00  0.00000000000E+00 -0.11676314540E+04  0.11676314540E+04  0.25500000920E-02 0. -1.
    10030    2    1    2    0    0  0.00000000000E+00  0.00000000000E+00 -0.31056929445E+03  0.20246936135E+04  0.20007326013E+04 0.  0.
        5    1    3    3  502    0 -0.54337723281E+03  0.39226687201E+03  0.59629314742E+03  0.89706171676E+03  0.46999998093E+01 0.  1.
       -5    1    3    3    0  502  0.54337723281E+03 -0.39226687201E+03 -0.90686244186E+03  0.11276318967E+04  0.46999998093E+01 0. -1.
</event>
<event>
 5   0  0.2386776E-06  0.2001652E+04  0.7818609E-02  0.8605849E-01
        1   -1    0    0  501    0  0.00000000000E+00  0.00000000000E+00  0.89187036691E+03  0.89187036692E+03  0.50400001928E-02 0. -1.
       -1   -1    0    0    0  501  0.00000000000E+00  0.00000000000E+00 -0.11230924837E+04  0.11230924837E+04  0.50400001928E-02 0.  1.
    10030    2    1    2    0    0  0.00000000000E+00  0.00000000000E+00 -0.23122211678E+03  0.20149628506E+04  0.20016522231E+04 0.  0.
        2    1    3    3  502    0 -0.18163795631E+03 -0.95774128747E+03  0.11259488976E+03  0.98129421180E+03  0.25500000920E-02 0.  1.
       -2    1    3    3    0  502  0.18163795631E+03  0.95774128747E+03 -0.34381700654E+03  0.10336686388E+04  0.25500000920E-02 0. -1.
</event>
<event>
 5   0  0.2356996E-06  0.1999437E+04  0.7818609E-02  0.8606884E-01
       -1   -1    0    0    0  501  0.00000000000E+00  0.00000000000E+00  0.89801089144E+03  0.89801089146E+03  0.50400001928E-02 0.  1.
        1   -1    0    0  501    0  0.00000000000E+00  0.00000000000E+00 -0.11129449548E+04  0.11129449548E+04  0.50400001928E-02 0. -1.
    10030    2    1    2    0    0  0.00000000000E+00  0.00000000000E+00 -0.21493406331E+03  0.20109558462E+04  0.19994366116E+04 0.  0.
        4    1    3    3  502    0  0.19356723047E+02 -0.98746478938E+03  0.48259385938E+02  0.98883364335E+03  0.12699999809E+01 0. -1.
       -4    1    3    3    0  502 -0.19356723047E+02  0.98746478938E+03 -0.26319344925E+03  0.10221222029E+04  0.12699999809E+01 0.  1.
</event>
<event>
 5   0  0.5118981E-06  0.2000639E+04  0.7818609E-02  0.8606322E-01
       -2   -1    0    0    0  501  0.00000000000E+00  0.00000000000E+00  0.57841268557E+03  0.57841268558E+03  0.25500000920E-02 0. -1.
        2   -1    0    0  501    0  0.00000000000E+00  0.00000000000E+00 -0.17299742643E+04  0.17299742643E+04  0.25500000920E-02 0.  1.
    10030    2    1    2    0    0  0.00000000000E+00  0.00000000000E+00 -0.11515615787E+04  0.23083869499E+04  0.20006389581E+04 0.  0.
        4    1    3    3  502    0 -0.95315188610E+03 -0.26684595356E+03 -0.40884595213E+03  0.10709163863E+04  0.12699999809E+01 0. -1.
       -4    1    3    3    0  502  0.95315188610E+03  0.26684595356E+03 -0.74271562659E+03  0.12374705636E+04  0.12699999809E+01 0.  1.
</event>
<event>
 5   0  0.5030137E-06  0.2000395E+04  0.7818609E-02  0.8606436E-01
        2   -1    0    0  501    0  0.00000000000E+00  0.00000000000E+00  0.91616907132E+03  0.91616907132E+03  0.25500000920E-02 0.  1.
       -2   -1    0    0    0  501  0.00000000000E+00  0.00000000000E+00 -0.10919324895E+04  0.10919324895E+04  0.25500000920E-02 0. -1.
    10030    2    1    2    0    0  0.00000000000E+00  0.00000000000E+00 -0.17576341815E+03  0.20081015608E+04  0.20003947359E+04 0.  0.
        3    1    3    3  502    0 -0.51187807455E+03  0.81714138294E+03  0.17895350793E+03  0.98069545279E+03  0.10100000352E+00 0.  1.
       -3    1    3    3    0  502  0.51187807455E+03 -0.81714138294E+03 -0.35471692608E+03  0.10274061080E+04  0.10100000352E+00 0. -1.
</event>
<event>
 5   0  0.2313821E-06  0.1999507E+04  0.7818609E-02  0.8606851E-01
       -1   -1    0    0    0  501  0.00000000000E+00  0.00000000000E+00  0.11973712957E+04  0.11973712957E+04  0.50400001928E-02 0. -1.
        1   -1    0    0  501    0  0.00000000000E+00  0.00000000000E+00 -0.83475107843E+03  0.83475107844E+03  0.50400001928E-02 0.  1.
    10030    2    1    2    0    0  0.00000000000E+00  0.00000000000E+00  0.36262021724E+03  0.20321223741E+04  0.19995069196E+04 0.  0.
        1    1    3    3  502    0  0.26342422643E+03  0.95158302299E+03  0.21893559811E+02  0.98761424691E+03  0.50400001928E-02 0.  1.
       -1    1    3    3    0  502 -0.26342422643E+03 -0.95158302299E+03  0.34072665743E+03  0.10445081272E+04  0.50400001928E-02 0. -1.
</event>
<event>
 5   0  0.2311520E-06  0.2006941E+04  0.7818609E-02  0.8603382E-01
       -1   -1    0    0    0  501  0.00000000000E+00  0.00000000000E+00  0.76671701996E+03  0.76671701997E+03  0.50400001928E-02 0.  1.
        1   -1    0    0  501    0  0.00000000000E+00  0.00000000000E+00 -0.13133304758E+04  0.13133304758E+04  0.50400001928E-02 0. -1.
    10030    2    1    2    0    0  0.00000000000E+00  0.00000000000E+00 -0.54661345580E+03  0.20800474957E+04  0.20069407850E+04 0.  0.
        3    1    3    3  502    0  0.37699931772E+03 -0.33124788327E+03 -0.11739248680E+04  0.12766962253E+04  0.10100000352E+00 0. -1.
       -3    1    3    3    0  502 -0.37699931772E+03  0.33124788327E+03  0.62731141218E+03  0.80335127048E+03  0.10100000352E+00 0.  1.
</event>
<event>
 5   0  0.2386776E-06  0.1998556E+04  0.7818609E-02  0.8607296E-01
        1   -1    0    0  501    0  0.00000000000E+00  0.00000000000E+00  0.83383532801E+03  0.83383532803E+03  0.50400001928E-02 0. -1.
       -1   -1    0    0    0  501  0.00000000000E+00  0.00000000000E+00 -0.11975466404E+04  0.11975466404E+04  0.50400001928E-02 0.  1.
    10030    2    1    2    0    0  0.00000000000E+00  0.00000000000E+00 -0.36371131238E+03  0.20313819684E+04  0.19985561746E+04 0.  0.
        2    1    3    3  502    0 -0.18159917962E+03 -0.16021573836E+03 -0.11672685000E+04  0.11921254531E+04  0.25500000920E-02 0.  1.
       -2    1    3    3    0  502  0.18159917962E+03  0.16021573836E+03  0.80355718758E+03  0.83925651536E+03  0.25500000920E-02 0. -1.
</event>
<event>
 5   0  0.2386776E-06  0.1999711E+04  0.7818609E-02  0.8606756E-01
        1   -1    0    0  501    0  0.00000000000E+00  0.00000000000E+00  0.17599170646E+04  0.17599170646E+04  0.50400001928E-02 0.  1.
       -1   -1    0    0    0  501  0.00000000000E+00  0.00000000000E+00 -0.56804423048E+03  0.56804423050E+03  0.50400001928E-02 0. -1.
    10030    2    1    2    0    0  0.00000000000E+00  0.00000000000E+00  0.11918728341E+04  0.23279612951E+04  0.19997107138E+04 0.  0.
        2    1    3    3  502    0 -0.83369460859E+03 -0.50741040510E+03  0.84885088273E+03  0.12934681445E+04  0.25500000920E-02 0. -1.
       -2    1    3    3    0  502  0.83369460859E+03  0.50741040510E+03  0.34302195139E+03  0.10344931506E+04  0.25500000920E-02 0.  1.
</event>
<event>
 5   0  0.5251252E-06  0.2000006E+04  0.7818609E-02  0.8606618E-01
       -2   -1    0    0    0  501  0.00000000000E+00  0.00000000000E+00  0.12667991901E+04  0.12667991901E+04  0.25500000920E-02 0. -1.
        2   -1    0    0  501    0  0.00000000000E+00  0.00000000000E+00 -0.78939549301E+03  0.78939549301E+03  0.25500000920E-02 0.  1.
    10030    2    1    2    0    0  0.00000000000E+00  0.00000000000E+00  0.47740369714E+03  0.20561946832E+04  0.20000055712E+04 0.  0.
        5    1    3    3  502    0 -0.37066021450E+03  0.64058527285E+03  0.93008678152E+03  0.11886218901E+04  0.46999998093E+01 0. -1.
       -5    1    3    3    0  502  0.37066021450E+03 -0.64058527285E+03 -0.45268308438E+03  0.86757279308E+03  0.46999998093E+01 0.  1.
</event>
<event>
 5   0  0.2379743E-06  0.1999030E+04  0.7818609E-02  0.8607074E-01
        1   -1    0    0  501    0  0.00000000000E+00  0.00000000000E+00  0.13873204258E+04  0.13873204258E+04  0.50400001928E-02 0.  1.
       -1   -1    0    0    0  501  0.00000000000E+00  0.00000000000E+00 -0.72011513220E+03  0.72011513222E+03  0.50400001928E-02 0. -1.
    10030    2    1    2    0    0  0.00000000000E+00  0.00000000000E+00  0.66720529357E+03  0.21074355580E+04  0.19990301967E+04 0.  0.
        5    1    3    3  502    0  0.63114861229E+03 -0.48887384721E+03  0.96759857460E+03  0.12544382411E+04  0.46999998093E+01 0.  1.
       -5    1    3    3    0  502 -0.63114861229E+03  0.48887384721E+03 -0.30039328103E+03  0.85299731685E+03  0.46999998093E+01 0. -1.
</event>
<event>
 5   0  0.2311520E-06  0.1999345E+04  0.7818609E-02  0.8606927E-01
       -1   -1    0    0    0  501  0.00000000000E+00  0.00000000000E+00  0.82011058339E+03  0.82011058341E+03  0.50400001928E-02 0. -1.
        1   -1    0    0  501    0  0.00000000000E+00  0.00000000000E+00 -0.12185490546E+04  0.12185490546E+04  0.50400001928E-02 0.  1.
    10030    2    1    2    0    0  0.00000000000E+00  0.00000000000E+00 -0.39843847118E+03  0.20386596380E+04  0.19993448688E+04 0.  0.
        3    1    3    3  502    0  0.88475498713E+03  0.39037052883E+03  0.59068734214E+02  0.96884965943E+03  0.10100000352E+00 0. -1.
       -3    1    3    3    0  502 -0.88475498713E+03 -0.39037052883E+03 -0.45750720539E+03  0.10698099785E+04  0.10100000352E+00 0.  1.
</event>
<event>
 5   0  0.2379743E-06  0.2000423E+04  0.7818609E-02  0.8606423E-01
       -1   -1    0    0    0  501  0.00000000000E+00  0.00000000000E+00  0.52420948217E+03  0.52420948219E+03  0.50400001928E-02 0. -1.
        1   -1    0    0  501    0  0.00000000000E+00  0.00000000000E+00 -0.19084419593E+04  0.19084419593E+04  0.50400001928E-02 0.  1.
    10030    2    1    2    0    0  0.00000000000E+00  0.00000000000E+00 -0.13842324771E+04  0.24326514415E+04  0.20004233265E+04 0.  0.
        5    1    3    3  502    0  0.96215400600E+03  0.18097321209E+03 -0.44316460803E+03  0.10746667365E+04  0.46999998093E+01 0. -1.
       -5    1    3    3    0  502 -0.96215400600E+03 -0.18097321209E+03 -0.94106786912E+03  0.13579847050E+04  0.46999998093E+01 0.  1.
</event>
<event>
 5   0  0.2313821E-06  0.1999299E+04  0.7818609E-02  0.8606948E-01
       -1   -1    0    0    0  501  0.00000000000E+00  0.00000000000E+00  0.62377780292E+03  0.62377780294E+03  0.50400001928E-02 0. -1.
        1   -1    0    0  501    0  0.00000000000E+00  0.00000000000E+00 -0.16020113604E+04  0.16020113604E+04  0.50400001928E-02 0.  1.
    10030    2    1    2    0    0  0.00000000000E+00  0.00000000000E+00 -0.97823355749E+03  0.22257891634E+04  0.19992990038E+04 0.  0.
        1    1    3    3  502    0  0.35447858645E+03 -0.91178254614E+03 -0.26015697495E+03  0.10122668281E+04  0.50400001928E-02 0.  1.
       -1    1    3    3    0  502 -0.35447858645E+03  0.91178254614E+03 -0.71807658254E+03  0.12135223352E+04  0.50400001928E-02 0. -1.
</event>
<event>
 5   0  0.5129100E-06  0.1999589E+04  0.7818609E-02  0.8606813E-01
        2   -1    0    0  501    0  0.00000000000E+00  0.00000000000E+00  0.24912874975E+04  0.24912874975E+04  0.25500000920E-02 0. -1.
       -2   -1    0    0    0  501  0.00000000000E+00  0.00000000000E+00 -0.40123400686E+03  0.40123400687E+03  0.25500000920E-02 0.  1.
    10030    2    1    2    0    0  0.00000000000E+00  0.00000000000E+00  0.20900534906E+04  0.28925215043E+04  0.19995892227E+04 0.  0.
        2    1    3    3  502    0 -0.61170454361E+02  0.39871961428E+03  0.23683466265E+04  0.24024539327E+04  0.25500000920E-02 0. -1.
       -2    1    3    3    0  502  0.61170454361E+02 -0.39871961428E+03 -0.27829313591E+03  0.49006757166E+03  0.25500000920E-02 0.  1.
</event>
<event>
 5   0  0.4956214E-06  0.2003355E+04  0.7818609E-02  0.8605054E-01
       -2   -1    0    0    0  501  0.00000000000E+00  0.00000000000E+00  0.70622980347E+03  0.70622980348E+03  0.25500000920E-02 0. -1.
        2   -1    0    0  501    0  0.00000000000E+00  0.00000000000E+00 -0.14207247873E+04  0.14207247873E+04  0.25500000920E-02 0.  1.
    10030    2    1    2    0    0  0.00000000000E+00  0.00000000000E+00 -0.71449498383E+03  0.21269545908E+04  0.20033553727E+04 0.  0.
        1    1    3    3  502    0  0.47704748268E+03  0.25995736933E+03  0.53622264235E+03  0.76333928027E+03  0.50400001928E-02 0. -1.
       -1    1    3    3    0  502 -0.47704748268E+03 -0.25995736933E+03 -0.12507176262E+04  0.13636153105E+04  0.50400001928E-02 0.  1.
</event>
<event>
 5   0  0.1777750E-06  0.2000465E+04  0.7818609E-02  0.8606403E-01
       -3   -1    0    0    0  501  0.00000000000E+00  0.00000000000E+00  0.53121420713E+03  0.53121421673E+03  0.10100000352E+00 0.  1.
        3   -1    0    0  501    0  0.00000000000E+00  0.00000000000E+00 -0.18833546210E+04  0.18833546237E+04  0.10100000352E+00 0. -1.
    10030    2    1    2    0    0  0.00000000000E+00  0.00000000000E+00 -0.13521404139E+04  0.24145688405E+04  0.20004646926E+04 0.  0.
        2    1    3    3  502    0 -0.64661102124E+03  0.26130161860E+03  0.18934440435E+03  0.72265873837E+03  0.25500000920E-02 0.  1.
       -2    1    3    3    0  502  0.64661102124E+03 -0.26130161860E+03 -0.15414848183E+04  0.16919101021E+04  0.25500000920E-02 0. -1.
</event>
<event>
 5   0  0.2386776E-06  0.2000321E+04  0.7818609E-02  0.8606470E-01
       -1   -1    0    0    0  501  0.00000000000E+00  0.00000000000E+00  0.92959469633E+03  0.92959469634E+03  0.50400001928E-02 0.  1.
        1   -1    0    0  501    0  0.00000000000E+00  0.00000000000E+00 -0.10760834770E+04  0.10760834770E+04  0.50400001928E-02 0. -1.
    10030    2    1    2    0    0  0.00000000000E+00  0.00000000000E+00 -0.14648878065E+03  0.20056781733E+04  0.20003214672E+04 0.  0.
        2    1    3    3  502    0  0.20195633956E+03  0.87703622386E+03 -0.51069541896E+03  0.10347892114E+04  0.25500000920E-02 0. -1.
       -2    1    3    3    0  502 -0.20195633956E+03 -0.87703622386E+03  0.36420663831E+03  0.97088896195E+03  0.25500000920E-02 0.  1.
</event>
<event>
 5   0  0.2311520E-06  0.2000262E+04  0.7818609E-02  0.8606498E-01
       -1   -1    0    0    0  501  0.00000000000E+00  0.00000000000E+00  0.12163900188E+04  0.12163900189E+04  0.50400001928E-02 0. -1.
        1   -1    0    0  501    0  0.00000000000E+00  0.00000000000E+00 -0.82232025869E+03  0.82232025870E+03  0.50400001928E-02 0.  1.
    10030    2    1    2    0    0  0.00000000000E+00  0.00000000000E+00  0.39406976016E+03  0.20387102776E+04  0.20002621378E+04 0.  0.
        3    1    3    3  502    0  0.18797120171E+03 -0.34594663267E+03 -0.74001166069E+03  0.83822998841E+03  0.10100000352E+00 0.  1.
       -3    1    3    3    0  502 -0.18797120171E+03  0.34594663267E+03  0.11340814208E+04  0.12004802891E+04  0.10100000352E+00 0. -1.
</event>
<event>
 5   0  0.5129100E-06  0.2004678E+04  0.7818609E-02  0.8604437E-01
       -2   -1    0    0    0  501  0.00000000000E+00  0.00000000000E+00  0.61982083101E+03  0.61982083101E+03  0.25500000920E-02 0.  1.
        2   -1    0    0  501    0  0.00000000000E+00  0.00000000000E+00 -0.16209253192E+04  0.16209253192E+04  0.25500000920E-02 0. -1.
    10030    2    1    2    0    0  0.00000000000E+00  0.00000000000E+00 -0.10011044882E+04  0.22407461502E+04  0.20046778079E+04 0.  0.
        2    1    3    3  502    0  0.29141813390E+03 -0.64935386790E+03 -0.12894225477E+04  0.14728188894E+04  0.25500000920E-02 0. -1.
       -2    1    3    3    0  502 -0.29141813390E+03  0.64935386790E+03  0.28831805946E+03  0.76792726083E+03  0.25500000920E-02 0.  1.
</event>
<event>
 5   0  0.5030137E-06  0.1998746E+04  0.7818609E-02  0.8607207E-01
        2   -1    0    0  501    0  0.00000000000E+00  0.00000000000E+00  0.13112414403E+04  0.13112414403E+04  0.25500000920E-02 0. -1.
       -2   -1    0    0    0  501  0.00000000000E+00  0.00000000000E+00 -0.76167977387E+03  0.76167977388E+03  0.25500000920E-02 0.  1.
    10030    2    1    2    0    0  0.00000000000E+00  0.00000000000E+00  0.54956166643E+03  0.20729212142E+04  0.19987456904E+04 0.  0.
        3    1    3    3  502    0  0.40033097042E+03 -0.45102360208E+03 -0.55169899542E+03  0.81734874274E+03  0.10100000352E+00 0.  1.
       -3    1    3    3    0  502 -0.40033097042E+03  0.45102360208E+03  0.11012606619E+04  0.12555724714E+04  0.10100000352E+00 0. -1.
</event>
<event>
 5   0  0.2313821E-06  0.2003134E+04  0.7818609E-02  0.8605157E-01
        1   -1    0    0  501    0  0.00000000000E+00  0.00000000000E+00  0.11701247682E+04  0.11701247682E+04  0.50400001928E-02 0.  1.
       -1   -1    0    0    0  501  0.00000000000E+00  0.00000000000E+00 -0.85729017067E+03  0.85729017068E+03  0.50400001928E-02 0. -1.
    10030    2    1    2    0    0  0.00000000000E+00  0.00000000000E+00  0.31283459753E+03  0.20274149389E+04  0.20031340068E+04 0.  0.
        1    1    3    3  502    0  0.46646281526E+03  0.46627920212E+03 -0.60646492827E+03  0.89599305890E+03  0.50400001928E-02 0. -1.
       -1    1    3    3    0  502 -0.46646281526E+03 -0.46627920212E+03  0.91929952580E+03  0.11314218800E+04  0.50400001928E-02 0.  1.
</event>
<event>
 5   0  0.5129100E-06  0.1998239E+04  0.7818609E-02  0.8607444E-01
        2   -1    0    0  501    0  0.00000000000E+00  0.00000000000E+00  0.11317348741E+04  0.11317348741E+04  0.25500000920E-02 0.  1.
       -2   -1    0    0    0  501  0.00000000000E+00  0.00000000000E+00 -0.88204406787E+03  0.88204406787E+03  0.25500000920E-02 0. -1.
    10030    2    1    2    0    0  0.00000000000E+00  0.00000000000E+00  0.24969080623E+03  0.20137789420E+04  0.19982392571E+04 0.  0.
        2    1    3    3  502    0 -0.11807078848E+03 -0.16745215571E+02 -0.87484617284E+03  0.88293654329E+03  0.25500000920E-02 0. -1.
       -2    1    3    3    0  502  0.11807078848E+03  0.16745215571E+02  0.11245369791E+04  0.11308423987E+04  0.25500000920E-02 0.  1.
</event>
<event>
 5   0  0.2356996E-06  0.1998050E+04  0.7818609E-02  0.8607533E-01
       -1   -1    0    0    0  501  0.00000000000E+00  0.00000000000E+00  0.71162612325E+03  0.71162612327E+03  0.50400001928E-02 0. -1.
        1   -1    0    0  501    0  0.00000000000E+00  0.00000000000E+00 -0.14024927864E+04  0.14024927864E+04  0.50400001928E-02 0.  1.
    10030    2    1    2    0    0  0.00000000000E+00  0.00000000000E+00 -0.69086666315E+03  0.21141189097E+04  0.19980495534E+04 0.  0.
        4    1    3    3  502    0 -0.38916190741E+03  0.61141314426E+03  0.38209650097E+03  0.81931213351E+03  0.12699999809E+01 0. -1.
       -4    1    3    3    0  502  0.38916190741E+03 -0.61141314426E+03 -0.10729631641E+04  0.12948067762E+04  0.12699999809E+01 0.  1.
</event>
<event>
 5   0  0.2311520E-06  0.1999621E+04  0.7818609E-02  0.8606798E-01
       -1   -1    0    0    0  501  0.00000000000E+00  0.00000000000E+00  0.41561324392E+03  0.41561324395E+03  0.50400001928E-02 0. -1.
        1   -1    0    0  501    0  0.00000000000E+00  0.00000000000E+00 -0.24051711655E+04  0.24051711655E+04  0.50400001928E-02 0.  1.
    10030    2    1    2    0    0  0.00000000000E+00  0.00000000000E+00 -0.19895579216E+04  0.28207844095E+04  0.19996209544E+04 0.  0.
        3    1    3    3  502    0 -0.23468051992E+03 -0.79422778808E+03 -0.20462290208E+03  0.85307869980E+03  0.10100000352E+00 0. -1.
       -3    1    3    3    0  502  0.23468051992E+03  0.79422778808E+03 -0.17849350195E+04  0.19677057097E+04  0.10100000352E+00 0.  1.
</event>
<event>
 5   0  0.5251252E-06  0.1999792E+04  0.7818609E-02  0.8606718E-01
       -2   -1    0    0    0  501  0.00000000000E+00  0.00000000000E+00  0.50628509017E+03  0.50628509017E+03  0.25500000920E-02 0.  1.
        2   -1    0    0  501    0  0.00000000000E+00  0.00000000000E+00 -0.19747610572E+04  0.19747610572E+04  0.25500000920E-02 0. -1.
    10030    2    1    2    0    0  0.00000000000E+00  0.00000000000E+00 -0.14684759670E+04  0.24810461474E+04  0.19997920691E+04 0.  0.
        5    1    3    3  502    0 -0.64086817655E+03  0.68654384812E+03 -0.11599019167E+04  0.14924640771E+04  0.46999998093E+01 0. -1.
       -5    1    3    3    0  502  0.64086817655E+03 -0.68654384812E+03 -0.30857405033E+03  0.98858207026E+03  0.46999998093E+01 0.  1.
</event>
<event>
 5   0  0.5129100E-06  0.1999554E+04  0.7818609E-02  0.8606829E-01
        2   -1    0    0  501    0  0.00000000000E+00  0.00000000000E+00  0.17979030952E+04  0.17979030952E+04  0.25500000920E-02 0. -1.
       -2   -1    0    0    0  501  0.00000000000E+00  0.00000000000E+00 -0.55595552599E+03  0.55595552600E+03  0.25500000920E-02 0.  1.
    10030    2    1    2    0    0  0.00000000000E+00  0.00000000000E+00  0.12419475692E+04  0.23538586212E+04  0.19995541113E+04 0.  0.
        2    1    3    3  502    0  0.79282266713E+03 -0.57988845774E+03  0.40163747755E+03  0.10612026519E+04  0.25500000920E-02 0.  1.
       -2    1    3    3    0  502 -0.79282266713E+03  0.57988845774E+03  0.84031009165E+03  0.12926559693E+04  0.25500000920E-02 0. -1.
</event>
<event>
 5   0  0.1777750E-06  0.2000377E+04  0.7818609E-02  0.8606445E-01
       -3   -1    0    0    0  501  0.00000000000E+00  0.00000000000E+00  0.13540206230E+04  0.13540206267E+04  0.10100000352E+00 0. -1.
        3   -1    0    0  501    0  0.00000000000E+00  0.00000000000E+00 -0.73881933825E+03  0.73881934516E+03  0.10100000352E+00 0.  1.
    10030    2    1    2    0    0  0.00000000000E+00  0.00000000000E+00  0.61520128472E+03  0.20928399719E+04  0.20003765964E+04 0.  0.
        3    1    3    3  502    0 -0.47080192651E+03  0.38778354577E+03 -0.52172236684E+03  0.80263613837E+03  0.10100000352E+00 0.  1.
       -3    1    3    3    0  502  0.47080192651E+03 -0.38778354577E+03  0.11369236516E+04  0.12902038335E+04  0.10100000352E+00 0. -1.
</event>
<event>
 5   0  0.2379743E-06  0.2000686E+04  0.7818609E-02  0.8606300E-01
       -1   -1    0    0    0  501  0.00000000000E+00  0.00000000000E+00  0.12460114440E+04  0.12460114440E+04  0.50400001928E-02 0.  1.
        1   -1    0    0  501    0  0.00000000000E+00  0.00000000000E+00 -0.80311186802E+03  0.80311186803E+03  0.50400001928E-02 0. -1.
    10030    2    1    2    0    0  0.00000000000E+00  0.00000000000E+00  0.44289957596E+03  0.20491233120E+04  0.20006864606E+04 0.  0.
        5    1    3    3  502    0 -0.93897895256E+03 -0.28212436808E+03  0.18178637791E+02  0.98062642493E+03  0.46999998093E+01 0.  1.
       -5    1    3    3    0  502  0.93897895256E+03  0.28212436808E+03  0.42472093817E+03  0.10684968871E+04  0.46999998093E+01 0. -1.
</event>
<event>
 5   0  0.2386776E-06  0.1999507E+04  0.7818609E-02  0.8606851E-01
       -1   -1    0    0    0  501  0.00000000000E+00  0.00000000000E+00  0.11926079774E+04  0.11926079774E+04  0.50400001928E-02 0. -1.
        1   -1    0    0  501    0  0.00000000000E+00  0.00000000000E+00 -0.83808510053E+03  0.83808510055E+03  0.50400001928E-02 0.  1.
    10030    2    1    2    0    0  0.00000000000E+00  0.00000000000E+00  0.35452287685E+03  0.20306930779E+04  0.19995069159E+04 0.  0.
        2    1    3    3  502    0 -0.49514004965E+03  0.13893471413E+03 -0.69345551079E+03  0.86333485335E+03  0.25500000920E-02 0.  1.
       -2    1    3    3    0  502  0.49514004965E+03 -0.13893471413E+03  0.10479783876E+04  0.11673582246E+04  0.25500000920E-02 0. -1.
</event>
<event>
 5   0  0.2313821E-06  0.1999383E+04  0.7818609E-02  0.8606909E-01
       -1   -1    0    0    0  501  0.00000000000E+00  0.00000000000E+00  0.60274798168E+03  0.60274798171E+03  0.50400001928E-02 0. -1.
        1   -1    0    0  501    0  0.00000000000E+00  0.00000000000E+00 -0.16580448600E+04  0.16580448601E+04  0.50400001928E-02 0.  1.
    10030    2    1    2    0    0  0.00000000000E+00  0.00000000000E+00 -0.10552968784E+04  0.22607928418E+04  0.19993830978E+04 0.  0.
        1    1    3    3  502    0  0.14300447054E+03  0.93003627348E+03 -0.14592278581E+03  0.95221384574E+03  0.50400001928E-02 0. -1.
       -1    1    3    3    0  502 -0.14300447054E+03 -0.93003627348E+03 -0.90937409255E+03  0.13085789960E+04  0.50400001928E-02 0.  1.
</event>
<event>
 5   0  0.5129100E-06  0.1999607E+04  0.7818609E-02  0.8606804E-01
        2   -1    0    0  501    0  0.00000000000E+00  0.00000000000E+00  0.10608173268E+04  0.10608173268E+04  0.25500000920E-02 0. -1.
       -2   -1    0    0    0  501  0.00000000000E+00  0.00000000000E+00 -0.94229883219E+03  0.94229883219E+03  0.25500000920E-02 0.  1.
    10030    2    1    2    0    0  0.00000000000E+00  0.00000000000E+00  0.11851849465E+03  0.20031161590E+04  0.19996068896E+04 0.  0.
        2    1    3    3  502    0 -0.81546407597E+03  0.40332854256E+03  0.47465716219E+03  0.10261359530E+04  0.25500000920E-02 0.  1.
       -2    1    3    3    0  502  0.81546407597E+03 -0.40332854256E+03 -0.35613866754E+03  0.97698020602E+03  0.25500000920E-02 0. -1.
</event>
<event>
 5   0  0.2313821E-06  0.2000894E+04  0.7818609E-02  0.8606203E-01
       -1   -1    0    0    0  501  0.00000000000E+00  0.00000000000E+00  0.64562458100E+03  0.64562458102E+03  0.50400001928E-02 0. -1.
        1   -1    0    0  501    0  0.00000000000E+00  0.00000000000E+00 -0.15502723611E+04  0.15502723611E+04  0.50400001928E-02 0.  1.
    10030    2    1    2    0    0  0.00000000000E+00  0.00000000000E+00 -0.90464778006E+03  0.21958969421E+04  0.20008937439E+04 0.  0.
        1    1    3    3  502    0  0.31224041270E+03  0.25307038854E+03 -0.14577747093E+04  0.15121659301E+04  0.50400001928E-02 0.  1.
       -1    1    3    3    0  502 -0.31224041270E+03 -0.25307038854E+03  0.55312692928E+03  0.68373101202E+03  0.50400001928E-02 0. -1.
</event>
<event>
 5   0  0.1777750E-06  0.2000231E+04  0.7818609E-02  0.8606513E-01
       -4   -1    0    0    0  501  0.00000000000E+00  0.00000000000E+00  0.11306296471E+04  0.11306303604E+04  0.12699999809E+01 0. -1.
        4   -1    0    0  501    0  0.00000000000E+00  0.00000000000E+00 -0.88466582703E+03  0.88466673862E+03  0.12699999809E+01 0.  1.
    10030    2    1    2    0    0  0.00000000000E+00  0.00000000000E+00  0.24596382011E+03  0.20152970990E+04  0.20002310358E+04 0.  0.
        3    1    3    3  502    0  0.79153004468E+03  0.47389474215E+03 -0.26610687089E+03  0.96016087985E+03  0.10100000352E+00 0.  1.
       -3    1    3    3    0  502 -0.79153004468E+03 -0.47389474215E+03  0.51207069100E+03  0.10551362192E+04  0.10100000352E+00 0. -1.
</event>
<event>
 5   0  0.2311520E-06  0.1999711E+04  0.7818609E-02  0.8606756E-01
        1   -1    0    0  501    0  0.00000000000E+00  0.00000000000E+00  0.15747187287E+04  0.15747187287E+04  0.50400001928E-02 0.  1.
       -1   -1    0    0    0  501  0.00000000000E+00  0.00000000000E+00 -0.63485068108E+03  0.63485068110E+03  0.50400001928E-02 0. -1.
    10030    2    1    2    0    0  0.00000000000E+00  0.00000000000E+00  0.93986804762E+03  0.22095694098E+04  0.19997112366E+04 0.  0.
        3    1    3    3  502    0  0.11603369980E+03 -0.39813301060E+03  0.14752131991E+04  0.15323928043E+04  0.10100000352E+00 0.  1.
       -3    1    3    3    0  502 -0.11603369980E+03  0.39813301060E+03 -0.53534515149E+03  0.67717660551E+03  0.10100000352E+00 0. -1.
</event>
<event>
 5   0  0.1777750E-06  0.2000126E+04  0.7818609E-02  0.8606562E-01
        3   -1    0    0  501    0  0.00000000000E+00  0.00000000000E+00  0.66290811567E+03  0.66290812337E+03  0.10100000352E+00 0. -1.
       -3   -1    0    0    0  501  0.00000000000E+00  0.00000000000E+00 -0.15086942426E+04  0.15086942460E+04  0.10100000352E+00 0.  1.
    10030    2    1    2    0    0  0.00000000000E+00  0.00000000000E+00 -0.84578612692E+03  0.21716023693E+04  0.20001256656E+04 0.  0.
        1    1    3    3  502    0  0.16225335963E+03  0.68815162415E+03 -0.11908117030E+04  0.13848867544E+04  0.50400001928E-02 0.  1.
       -1    1    3    3    0  502 -0.16225335963E+03 -0.68815162415E+03  0.34502557611E+03  0.78671561490E+03  0.50400001928E-02 0. -1.
</event>
<event>
 5   0  0.2379743E-06  0.1999507E+04  0.7818609E-02  0.8606851E-01
        1   -1    0    0  501    0  0.00000000000E+00  0.00000000000E+00  0.93318577296E+03  0.93318577297E+03  0.50400001928E-02 0. -1.
       -1   -1    0    0    0  501  0.00000000000E+00  0.00000000000E+00 -0.10710693811E+04  0.10710693811E+04  0.50400001928E-02 0.  1.
    10030    2    1    2    0    0  0.00000000000E+00  0.00000000000E+00 -0.13788360817E+03  0.20042551541E+04  0.19995066475E+04 0.  0.
        5    1    3    3  502    0  0.64758299857E+03  0.17103320450E+02 -0.83221477165E+03  0.10546372740E+04  0.46999998093E+01 0.  1.
       -5    1    3    3    0  502 -0.64758299857E+03 -0.17103320450E+02  0.69433116348E+03  0.94961788009E+03  0.46999998093E+01 0. -1.
</event>
<event>
 5   0  0.5129100E-06  0.2000409E+04  0.7818609E-02  0.8606430E-01
        2   -1    0    0  501    0  0.00000000000E+00  0.00000000000E+00  0.20135264831E+04  0.20135264831E+04  0.25500000920E-02 0. -1.
       -2   -1    0    0    0  501  0.00000000000E+00  0.00000000000E+00 -0.49684406262E+03  0.49684406263E+03  0.25500000920E-02 0.  1.
    10030    2    1    2    0    0  0.00000000000E+00  0.00000000000E+00  0.15166824204E+04  0.25103705457E+04  0.20004086363E+04 0.  0.
        2    1    3    3  502    0 -0.66014983507E+03 -0.67417188606E+03  0.11747491146E+04  0.15067650842E+04  0.25500000920E-02 0. -1.
       -2    1    3    3    0  502  0.66014983507E+03  0.67417188606E+03  0.34193330587E+03  0.10036054615E+04  0.25500000920E-02 0.  1.
</event>
<event>
 5   0  0.1777750E-06  0.2000202E+04  0.7818609E-02  0.8606526E-01
        3   -1    0    0  501    0  0.00000000000E+00  0.00000000000E+00  0.10860541959E+04  0.10860542006E+04  0.10100000352E+00 0. -1.
       -3   -1    0    0    0  501  0.00000000000E+00  0.00000000000E+00 -0.92095024621E+03  0.92095025175E+03  0.10100000352E+00 0.  1.
    10030    2    1    2    0    0  0.00000000000E+00  0.00000000000E+00  0.16510394971E+03  0.20070044524E+04  0.20002018792E+04 0.  0.
        1    1    3    3  502    0 -0.62384758197E+03 -0.36253096439E+03  0.77742968338E+03  0.10606655544E+04  0.50400001928E-02 0. -1.
       -1    1    3    3    0  502  0.62384758197E+03  0.36253096439E+03 -0.61232573366E+03  0.94633889797E+03  0.50400001928E-02 0.  1.
</event>
<event>
 5   0  0.2313821E-06  0.1992415E+04  0.7818609E-02  0.8610175E-01
        1   -1    0    0  501    0  0.00000000000E+00  0.00000000000E+00  0.17658589199E+04  0.17658589199E+04  0.50400001928E-02 0.  1.
       -1   -1    0    0    0  501  0.00000000000E+00  0.00000000000E+00 -0.56200964374E+03  0.56200964376E+03  0.50400001928E-02 0. -1.
    10030    2    1    2    0    0  0.00000000000E+00  0.00000000000E+00  0.12038492761E+04  0.23278685636E+04  0.19924153608E+04 0.  0.
        1    1    3    3  502    0 -0.98616016202E+01 -0.90510278292E+03  0.11579286546E+03  0.91253289615E+03  0.50400001928E-02 0. -1.
       -1    1    3    3    0  502  0.98616016202E+01  0.90510278292E+03  0.10880564107E+04  0.14153356675E+04  0.50400001928E-02 0.  1.
</event>
<event>
 5   0  0.5129100E-06  0.2000079E+04  0.7818609E-02  0.8606584E-01
        2   -1    0    0  501    0  0.00000000000E+00  0.00000000000E+00  0.22221392827E+04  0.22221392827E+04  0.25500000920E-02 0.  1.
       -2   -1    0    0    0  501  0.00000000000E+00  0.00000000000E+00 -0.45005214548E+03  0.45005214549E+03  0.25500000920E-02 0. -1.
    10030    2    1    2    0    0  0.00000000000E+00  0.00000000000E+00  0.17720871372E+04  0.26721914282E+04  0.20000785502E+04 0.  0.
        2    1    3    3  502    0 -0.70955365113E+03  0.25561214495E+01 -0.55469462897E+02  0.71172310551E+03  0.25500000920E-02 0. -1.
       -2    1    3    3    0  502  0.70955365113E+03 -0.25561214495E+01  0.18275566001E+04  0.19604683227E+04  0.25500000920E-02 0.  1.
</event>
<event>
 5   0  0.2386776E-06  0.1995405E+04  0.7818609E-02  0.8608772E-01
        1   -1    0    0  501    0  0.00000000000E+00  0.00000000000E+00  0.17648886258E+04  0.17648886258E+04  0.50400001928E-02 0. -1.
       -1   -1    0    0    0  501  0.00000000000E+00  0.00000000000E+00 -0.56400716026E+03  0.56400716028E+03  0.50400001928E-02 0.  1.
    10030    2    1    2    0    0  0.00000000000E+00  0.00000000000E+00  0.12008814655E+04  0.23288957860E+04  0.19954045425E+04 0.  0.
        2    1    3    3  502    0  0.85412583068E+03  0.82470114166E+02  0.63756809852E+01  0.85812173011E+03  0.25500000920E-02 0.  1.
       -2    1    3    3    0  502 -0.85412583068E+03 -0.82470114166E+02  0.11945057845E+04  0.14707740559E+04  0.25500000920E-02 0. -1.
</event>
<event>
 5   0  0.2386776E-06  0.2000295E+04  0.7818609E-02  0.8606483E-01
        1   -1    0    0  501    0  0.00000000000E+00  0.00000000000E+00  0.17042215589E+04  0.17042215589E+04  0.50400001928E-02 0.  1.
       -1   -1    0    0    0  501  0.00000000000E+00  0.00000000000E+00 -0.58695154088E+03  0.58695154090E+03  0.50400001928E-02 0. -1.
    10030    2    1    2    0    0  0.00000000000E+00  0.00000000000E+00  0.11172700180E+04  0.22911730998E+04  0.20002954482E+04 0.  0.
        2    1    3    3  502    0 -0.69070421690E+03 -0.50640384296E+03 -0.32979760495E+02  0.85709091235E+03  0.25500000920E-02 0. -1.
       -2    1    3    3    0  502  0.69070421690E+03  0.50640384296E+03  0.11502497785E+04  0.14340821875E+04  0.25500000920E-02 0.  1.
</event>
<event>
 5   0  0.2356996E-06  0.1997215E+04  0.7818609E-02  0.8607924E-01
        1   -1    0    0  501    0  0.00000000000E+00  0.00000000000E+00  0.10067756149E+04  0.10067756149E+04  0.50400001928E-02 0. -1.
       -1   -1    0    0    0  501  0.00000000000E+00  0.00000000000E+00 -0.99050528207E+03  0.99050528209E+03  0.50400001928E-02 0.  1.
    10030    2    1    2    0    0  0.00000000000E+00  0.00000000000E+00  0.16270332799E+02  0.19972808970E+04  0.19972146248E+04 0.  0.
        4    1    3    3  502    0  0.29967920157E+03  0.81308410374E+03  0.50443942174E+03  0.10026834629E+04  0.12699999809E+01 0. -1.
       -4    1    3    3    0  502 -0.29967920157E+03 -0.81308410374E+03 -0.48816908894E+03  0.99459743410E+03  0.12699999809E+01 0.  1.
</event>
<event>
 5   0  0.2356996E-06  0.1999806E+04  0.7818609E-02  0.8606712E-01
       -1   -1    0    0    0  501  0.00000000000E+00  0.00000000000E+00  0.60260892257E+03  0.60260892260E+03  0.50400001928E-02 0. -1.
        1   -1    0    0  501    0  0.00000000000E+00  0.00000000000E+00 -0.16591284747E+04  0.16591284747E+04  0.50400001928E-02 0.  1.
    10030    2    1    2    0    0  0.00000000000E+00  0.00000000000E+00 -0.10565195521E+04  0.22617373973E+04  0.19998056131E+04 0.  0.
        4    1    3    3  502    0 -0.91804646018E+03 -0.12534737105E+03 -0.10315209175E+03  0.93228924342E+03  0.12699999809E+01 0.  1.
       -4    1    3    3    0  502  0.91804646018E+03  0.12534737105E+03 -0.95336746039E+03  0.13294481539E+04  0.12699999809E+01 0. -1.
</event>
<event>
 5   0  0.2379743E-06  0.2000334E+04  0.7818609E-02  0.8606465E-01
       -1   -1    0    0    0  501  0.00000000000E+00  0.00000000000E+00  0.23956459369E+04  0.23956459369E+04  0.50400001928E-02 0. -1.
        1   -1    0    0  501    0  0.00000000000E+00  0.00000000000E+00 -0.41756334055E+03  0.41756334058E+03  0.50400001928E-02 0.  1.
    10030    2    1    2    0    0  0.00000000000E+00  0.00000000000E+00  0.19780825964E+04  0.28132092775E+04  0.20003338924E+04 0.  0.
        5    1    3    3  502    0 -0.36409217096E+03 -0.79816188235E+03  0.31356443440E+03  0.93164920647E+03  0.46999998093E+01 0.  1.
       -5    1    3    3    0  502  0.36409217096E+03  0.79816188235E+03  0.16645181620E+04  0.18815600710E+04  0.46999998093E+01 0. -1.
</event>
<event>
 5   0  0.2311520E-06  0.2000236E+04  0.7818609E-02  0.8606511E-01
       -1   -1    0    0    0  501  0.00000000000E+00  0.00000000000E+00  0.79355243894E+03  0.79355243896E+03  0.50400001928E-02 0. -1.
        1   -1    0    0  501    0  0.00000000000E+00  0.00000000000E+00 -0.12604530940E+04  0.12604530940E+04  0.50400001928E-02 0.  1.
    10030    2    1    2    0    0  0.00000000000E+00  0.00000000000E+00 -0.46690065502E+03  0.20540055329E+04  0.20002356130E+04 0.  0.
        3    1    3    3  502    0 -0.50204407835E+03  0.82035641766E+03  0.48152618464E+02  0.96299096230E+03  0.10100000352E+00 0. -1.
       -3    1    3    3    0  502  0.50204407835E+03 -0.82035641766E+03 -0.51505327348E+03  0.10910145706E+04  0.10100000352E+00 0.  1.
</event>
<event>
 5   0  0.5251252E-06  0.1999732E+04  0.7818609E-02  0.8606746E-01
        2   -1    0    0  501    0  0.00000000000E+00  0.00000000000E+00  0.99161588337E+03  0.99161588338E+03  0.25500000920E-02 0.  1.
       -2   -1    0    0    0  501  0.00000000000E+00  0.00000000000E+00 -0.10081852294E+04  0.10081852294E+04  0.25500000920E-02 0. -1.
    10030    2    1    2    0    0  0.00000000000E+00  0.00000000000E+00 -0.16569345995E+02  0.19998011127E+04  0.19997324689E+04 0.  0.
        5    1    3    3  502    0 -0.23384095032E+03 -0.50194230485E+02 -0.97914720354E+03  0.10079446349E+04  0.46999998093E+01 0. -1.
       -5    1    3    3    0  502  0.23384095032E+03  0.50194230485E+02  0.96257785755E+03  0.99185647785E+03  0.46999998093E+01 0.  1.
</event>
<event>
 5   0  0.2379743E-06  0.2000557E+04  0.7818609E-02  0.8606360E-01
        1   -1    0    0  501    0  0.00000000000E+00  0.00000000000E+00  0.12485878327E+04  0.12485878328E+04  0.50400001928E-02 0. -1.
       -1   -1    0    0    0  501  0.00000000000E+00  0.00000000000E+00 -0.80135122314E+03  0.80135122315E+03  0.50400001928E-02 0.  1.
    10030    2    1    2    0    0  0.00000000000E+00  0.00000000000E+00  0.44723660961E+03  0.20499390559E+04  0.20005573093E+04 0.  0.
        5    1    3    3  502    0  0.79939627150E+03  0.31105750562E+03  0.75085195335E+03  0.11399964546E+04  0.46999998093E+01 0. -1.
       -5    1    3    3    0  502 -0.79939627150E+03 -0.31105750562E+03 -0.30361534374E+03  0.90994260129E+03  0.46999998093E+01 0.  1.
</event>
<event>
 5   0  0.4956214E-06  0.1999921E+04  0.7818609E-02  0.8606658E-01
       -2   -1    0    0    0  501  0.00000000000E+00  0.00000000000E+00  0.41258381151E+03  0.41258381152E+03  0.25500000920E-02 0.  1.
        2   -1    0    0  501    0  0.00000000000E+00  0.00000000000E+00 -0.24235581473E+04  0.24235581473E+04  0.25500000920E-02 0. -1.
    10030    2    1    2    0    0  0.00000000000E+00  0.00000000000E+00 -0.20109743358E+04  0.28361419588E+04  0.19999208563E+04 0.  0.
        1    1    3    3  502    0 -0.81668028016E+03  0.19546789830E+03 -0.23557804085E+03  0.87216477378E+03  0.50400001928E-02 0.  1.
       -1    1    3    3    0  502  0.81668028016E+03 -0.19546789830E+03 -0.17753962949E+04  0.19639771850E+04  0.50400001928E-02 0. -1.
</event>
<event>
 5   0  0.2311520E-06  0.1999139E+04  0.7818609E-02  0.8607023E-01
        1   -1    0    0  501    0  0.00000000000E+00  0.00000000000E+00  0.58574470765E+03  0.58574470767E+03  0.50400001928E-02 0. -1.
       -1   -1    0    0    0  501  0.00000000000E+00  0.00000000000E+00 -0.17057591391E+04  0.17057591391E+04  0.50400001928E-02 0.  1.
    10030    2    1    2    0    0  0.00000000000E+00  0.00000000000E+00 -0.11200144314E+04  0.22915038467E+04  0.19991392030E+04 0.  0.
        3    1    3    3  502    0 -0.23031187842E+03  0.79070981948E+03  0.89291707071E+02  0.82839519501E+03  0.10100000352E+00 0. -1.
       -3    1    3    3    0  502  0.23031187842E+03 -0.79070981948E+03 -0.12093061385E+04  0.14631086517E+04  0.10100000352E+00 0.  1.
</event>
<event>
 5   0  0.2356996E-06  0.1999296E+04  0.7818609E-02  0.8606950E-01
       -1   -1    0    0    0  501  0.00000000000E+00  0.00000000000E+00  0.26339983327E+04  0.26339983327E+04  0.50400001928E-02 0.  1.
        1   -1    0    0  501    0  0.00000000000E+00  0.00000000000E+00 -0.37938375999E+03  0.37938376003E+03  0.50400001928E-02 0. -1.
    10030    2    1    2    0    0  0.00000000000E+00  0.00000000000E+00  0.22546145727E+04  0.30133820928E+04  0.19992960675E+04 0.  0.
        4    1    3    3  502    0  0.32373231651E+03  0.36510855545E+03 -0.18768430188E+03  0.52281342761E+03  0.12699999809E+01 0. -1.
       -4    1    3    3    0  502 -0.32373231651E+03 -0.36510855545E+03  0.24422988746E+04  0.24905686651E+04  0.12699999809E+01 0.  1.
</event>
<event>
 5   0  0.4956214E-06  0.2000099E+04  0.7818609E-02  0.8606575E-01
       -2   -1    0    0    0  501  0.00000000000E+00  0.00000000000E+00  0.58720238546E+03  0.58720238547E+03  0.25500000920E-02 0. -1.
        2   -1    0    0  501    0  0.00000000000E+00  0.00000000000E+00 -0.17031582809E+04  0.17031582809E+04  0.25500000920E-02 0.  1.
    10030    2    1    2    0    0  0.00000000000E+00  0.00000000000E+00 -0.11159558955E+04  0.22903606664E+04  0.20000986030E+04 0.  0.
        1    1    3    3  502    0 -0.89248983005E+03  0.35241552442E+03 -0.88057746689E+03  0.13023638024E+04  0.50400001928E-02 0. -1.
       -1    1    3    3    0  502  0.89248983005E+03 -0.35241552442E+03 -0.23537842857E+03  0.98799686399E+03  0.50400001928E-02 0.  1.
</event>
<event>
 5   0  0.5030137E-06  0.1999326E+04  0.7818609E-02  0.8606936E-01
        2   -1    0    0  501    0  0.00000000000E+00  0.00000000000E+00  0.12083043547E+04  0.12083043547E+04  0.25500000920E-02 0. -1.
       -2   -1    0    0    0  501  0.00000000000E+00  0.00000000000E+00 -0.82704815861E+03  0.82704815862E+03  0.25500000920E-02 0.  1.
    10030    2    1    2    0    0  0.00000000000E+00  0.00000000000E+00  0.38125619609E+03  0.20353525133E+04  0.19993257780E+04 0.  0.
        3    1    3    3  502    0  0.13123316359E+03 -0.45217389143E+03  0.10883587812E+04  0.11858365056E+04  0.10100000352E+00 0. -1.
       -3    1    3    3    0  502 -0.13123316359E+03  0.45217389143E+03 -0.70710258507E+03  0.84951600770E+03  0.10100000352E+00 0.  1.
</event>
<event>
 5   0  0.4956214E-06  0.2000607E+04  0.7818609E-02  0.8606337E-01
        2   -1    0    0  501    0  0.00000000000E+00  0.00000000000E+00  0.21188576009E+04  0.21188576009E+04  0.25500000920E-02 0.  1.
       -2   -1    0    0    0  501  0.00000000000E+00  0.00000000000E+00 -0.47223917249E+03  0.47223917250E+03  0.25500000920E-02 0. -1.
    10030    2    1    2    0    0  0.00000000000E+00  0.00000000000E+00  0.16466184284E+04  0.25910967734E+04  0.20006074678E+04 0.  0.
        1    1    3    3  502    0  0.31396031425E+03  0.80381983998E+03  0.16812186953E+03  0.87918278936E+03  0.50400001928E-02 0. -1.
       -1    1    3    3    0  502 -0.31396031425E+03 -0.80381983998E+03  0.14784965588E+04  0.17119139840E+04  0.50400001928E-02 0.  1.
</event>
<event>
 5   0  0.5030137E-06  0.1996881E+04  0.7818609E-02  0.8608080E-01
       -2   -1    0    0    0  501  0.00000000000E+00  0.00000000000E+00  0.10347899436E+04  0.10347899436E+04  0.25500000920E-02 0. -1.
        2   -1    0    0  501    0  0.00000000000E+00  0.00000000000E+00 -0.96336821650E+03  0.96336821650E+03  0.25500000920E-02 0.  1.
    10030    2    1    2    0    0  0.00000000000E+00  0.00000000000E+00  0.71421727119E+02  0.19981581601E+04  0.19968813109E+04 0.  0.
        3    1    3    3  502    0  0.48642207255E+03  0.87123344114E+03  0.70798804043E+02  0.10003332557E+04  0.10100000352E+00 0.  1.
       -3    1    3    3    0  502 -0.48642207255E+03 -0.87123344114E+03  0.62292307670E+00  0.99782490441E+03  0.10100000352E+00 0. -1.
</event>
<event>
 5   0  0.5129100E-06  0.1993879E+04  0.7818609E-02  0.8609488E-01
       -2   -1    0    0    0  501  0.00000000000E+00  0.00000000000E+00  0.10549754046E+04  0.10549754046E+04  0.25500000920E-02 0. -1.
        2   -1    0    0  501    0  0.00000000000E+00  0.00000000000E+00 -0.94209585120E+03  0.94209585120E+03  0.25500000920E-02 0.  1.
    10030    2    1    2    0    0  0.00000000000E+00  0.00000000000E+00  0.11287955337E+03  0.19970712558E+04  0.19938785838E+04 0.  0.
        2    1    3    3  502    0  0.27133270771E+03 -0.38989356199E+03 -0.82146214980E+03  0.94891437523E+03  0.25500000920E-02 0.  1.
       -2    1    3    3    0  502 -0.27133270771E+03  0.38989356199E+03  0.93434170317E+03  0.10481568806E+04  0.25500000920E-02 0. -1.
</event>
<event>
 5   0  0.4956214E-06  0.2000128E+04  0.7818609E-02  0.8606561E-01
       -2   -1    0    0    0  501  0.00000000000E+00  0.00000000000E+00  0.67150811080E+03  0.67150811080E+03  0.25500000920E-02 0.  1.
        2   -1    0    0  501    0  0.00000000000E+00  0.00000000000E+00 -0.14893762110E+04  0.14893762110E+04  0.25500000920E-02 0. -1.
    10030    2    1    2    0    0  0.00000000000E+00  0.00000000000E+00 -0.81786810017E+03  0.21608843218E+04  0.20001282016E+04 0.  0.
        1    1    3    3  502    0  0.88086675484E+03 -0.40332609938E+03 -0.14094489136E+03  0.97901156513E+03  0.50400001928E-02 0.  1.
       -1    1    3    3    0  502 -0.88086675484E+03  0.40332609938E+03 -0.67692320881E+03  0.11818727566E+04  0.50400001928E-02 0. -1.
</event>
<event>
 5   0  0.2379743E-06  0.1998614E+04  0.7818609E-02  0.8607269E-01
        1   -1    0    0  501    0  0.00000000000E+00  0.00000000000E+00  0.24123426442E+04  0.24123426442E+04  0.50400001928E-02 0. -1.
       -1   -1    0    0    0  501  0.00000000000E+00  0.00000000000E+00 -0.41396052804E+03  0.41396052807E+03  0.50400001928E-02 0.  1.
    10030    2    1    2    0    0  0.00000000000E+00  0.00000000000E+00  0.19983821161E+04  0.28263031722E+04  0.19986141547E+04 0.  0.
        5    1    3    3  502    0  0.21677575586E+03 -0.15026949046E+03 -0.36382915018E+03  0.44940670735E+03  0.46999998093E+01 0.  1.
       -5    1    3    3    0  502 -0.21677575586E+03  0.15026949046E+03  0.23622112663E+04  0.23768964649E+04  0.46999998093E+01 0. -1.
</event>
<event>
 5   0  0.2379743E-06  0.1998860E+04  0.7818609E-02  0.8607154E-01
        1   -1    0    0  501    0  0.00000000000E+00  0.00000000000E+00  0.72460155927E+03  0.72460155928E+03  0.50400001928E-02 0.  1.
       -1   -1    0    0    0  501  0.00000000000E+00  0.00000000000E+00 -0.13784952922E+04  0.13784952922E+04  0.50400001928E-02 0. -1.
    10030    2    1    2    0    0  0.00000000000E+00  0.00000000000E+00 -0.65389373290E+03  0.21030968515E+04  0.19988595130E+04 0.  0.
        5    1    3    3  502    0  0.74500804560E+03 -0.23384164792E+02  0.37354533489E+03  0.83375177025E+03  0.46999998093E+01 0.  1.
       -5    1    3    3    0  502 -0.74500804560E+03  0.23384164792E+02 -0.10274390678E+04  0.12693450812E+04  0.46999998093E+01 0. -1.
</event>
<event>
 5   0  0.5129100E-06  0.1999725E+04  0.7818609E-02  0.8606749E-01
        2   -1    0    0  501    0  0.00000000000E+00  0.00000000000E+00  0.19712366400E+04  0.19712366400E+04  0.25500000920E-02 0. -1.
       -2   -1    0    0    0  501  0.00000000000E+00  0.00000000000E+00 -0.50715623528E+03  0.50715623529E+03  0.25500000920E-02 0.  1.
    10030    2    1    2    0    0  0.00000000000E+00  0.00000000000E+00  0.14640804048E+04  0.24783928753E+04  0.19997249343E+04 0.  0.
        2    1    3    3  502    0  0.97177260867E+02  0.75563509463E+03  0.15345693940E+04  0.17132807830E+04  0.25500000920E-02 0. -1.
       -2    1    3    3    0  502 -0.97177260867E+02 -0.75563509463E+03 -0.70488989250E+02  0.76511209236E+03  0.25500000920E-02 0.  1.
</event>
<event>
 5   0  0.2311520E-06  0.1998603E+04  0.7818609E-02  0.8607274E-01
       -1   -1    0    0    0  501  0.00000000000E+00  0.00000000000E+00  0.71242624559E+03  0.71242624560E+03  0.50400001928E-02 0.  1.
        1   -1    0    0  501    0  0.00000000000E+00  0.00000000000E+00 -0.14016938423E+04  0.14016938423E+04  0.50400001928E-02 0. -1.
    10030    2    1    2    0    0  0.00000000000E+00  0.00000000000E+00 -0.68926759675E+03  0.21141200880E+04  0.19986029937E+04 0.  0.
        3    1    3    3  502    0  0.27314271984E+03 -0.24974928227E+03  0.63725309752E+03  0.73693498350E+03  0.10100000352E+00 0.  1.
       -3    1    3    3    0  502 -0.27314271984E+03  0.24974928227E+03 -0.13265206943E+04  0.13771851045E+04  0.10100000352E+00 0. -1.
</event>
<event>
 5   0  0.2379743E-06  0.2000467E+04  0.7818609E-02  0.8606402E-01
       -1   -1    0    0    0  501  0.00000000000E+00  0.00000000000E+00  0.78603311019E+03  0.78603311021E+03  0.50400001928E-02 0.  1.
        1   -1    0    0  501    0  0.00000000000E+00  0.00000000000E+00 -0.12728056342E+04  0.12728056342E+04  0.50400001928E-02 0. -1.
    10030    2    1    2    0    0  0.00000000000E+00  0.00000000000E+00 -0.48677252396E+03  0.20588387444E+04  0.20004673167E+04 0.  0.
        5    1    3    3  502    0  0.76544023023E+03 -0.52140559518E+03 -0.63214180403E+03  0.11213330866E+04  0.46999998093E+01 0. -1.
       -5    1    3    3    0  502 -0.76544023023E+03  0.52140559518E+03  0.14536928006E+03  0.93750565775E+03  0.46999998093E+01 0.  1.
</event>
<event>
 5   0  0.2386776E-06  0.2000486E+04  0.7818609E-02  0.8606393E-01
        1   -1    0    0  501    0  0.00000000000E+00  0.00000000000E+00  0.99246662455E+03  0.99246662456E+03  0.50400001928E-02 0. -1.
       -1   -1    0    0    0  501  0.00000000000E+00  0.00000000000E+00 -0.10080803071E+04  0.10080803072E+04  0.50400001928E-02 0.  1.
    10030    2    1    2    0    0  0.00000000000E+00  0.00000000000E+00 -0.15613682596E+02  0.20005469317E+04  0.20004860007E+04 0.  0.
        2    1    3    3  502    0  0.61913001958E+03  0.27992272539E+03 -0.74186417490E+03  0.10060025683E+04  0.25500000920E-02 0.  1.
       -2    1    3    3    0  502 -0.61913001958E+03 -0.27992272539E+03  0.72625049230E+03  0.99454436347E+03  0.25500000920E-02 0. -1.
</event>
<event>
 5   0  0.5030137E-06  0.1999994E+04  0.7818609E-02  0.8606624E-01
       -2   -1    0    0    0  501  0.00000000000E+00  0.00000000000E+00  0.43509099508E+03  0.43509099509E+03  0.25500000920E-02 0. -1.
        2   -1    0    0  501    0  0.00000000000E+00  0.00000000000E+00 -0.22983550228E+04  0.22983550228E+04  0.25500000920E-02 0.  1.
    10030    2    1    2    0    0  0.00000000000E+00  0.00000000000E+00 -0.18632640277E+04  0.27334460179E+04  0.19999935739E+04 0.  0.
        3    1    3    3  502    0  0.47400386874E+03  0.46520131959E+02  0.27011684325E+03  0.54754626240E+03  0.10100000352E+00 0. -1.
       -3    1    3    3    0  502 -0.47400386874E+03 -0.46520131959E+02 -0.21333808710E+04  0.21858997555E+04  0.10100000352E+00 0.  1.
</event>
<event>
 5   0  0.2379743E-06  0.1999322E+04  0.7818609E-02  0.8606938E-01
        1   -1    0    0  501    0  0.00000000000E+00  0.00000000000E+00  0.12930956577E+04  0.12930956577E+04  0.50400001928E-02 0. -1.
       -1   -1    0    0    0  501  0.00000000000E+00  0.00000000000E+00 -0.77281400604E+03  0.77281400606E+03  0.50400001928E-02 0.  1.
    10030    2    1    2    0    0  0.00000000000E+00  0.00000000000E+00  0.52028165166E+03  0.20659096638E+04  0.19993223206E+04 0.  0.
        5    1    3    3  502    0  0.58079584026E+03 -0.10611555811E+03  0.10936766385E+04  0.12428736860E+04  0.46999998093E+01 0. -1.
       -5    1    3    3    0  502 -0.58079584026E+03  0.10611555811E+03 -0.57339498685E+03  0.82303597776E+03  0.46999998093E+01 0.  1.
</event>
<event>
 5   0  0.5129100E-06  0.1999629E+04  0.7818609E-02  0.8606794E-01
        2   -1    0    0  501    0  0.00000000000E+00  0.00000000000E+00  0.16606380247E+04  0.16606380247E+04  0.25500000920E-02 0. -1.
       -2   -1    0    0    0  501  0.00000000000E+00  0.00000000000E+00 -0.60195494442E+03  0.60195494443E+03  0.25500000920E-02 0.  1.
    10030    2    1    2    0    0  0.00000000000E+00  0.00000000000E+00  0.10586830803E+04  0.22625929692E+04  0.19996292355E+04 0.  0.
        2    1    3    3  502    0  0.67843882244E+03  0.26904453233E+03 -0.24387147386E+03  0.76950470560E+03  0.25500000920E-02 0.  1.
       -2    1    3    3    0  502 -0.67843882244E+03 -0.26904453233E+03  0.13025545542E+04  0.14930882636E+04  0.25500000920E-02 0. -1.
</event>
<event>
 5   0  0.2313821E-06  0.2001003E+04  0.7818609E-02  0.8606152E-01
        1   -1    0    0  501    0  0.00000000000E+00  0.00000000000E+00  0.11251560881E+04  0.11251560881E+04  0.50400001928E-02 0.  1.
       -1   -1    0    0    0  501  0.00000000000E+00  0.00000000000E+00 -0.88965763928E+03  0.88965763929E+03  0.50400001928E-02 0. -1.
    10030    2    1    2    0    0  0.00000000000E+00  0.00000000000E+00  0.23549844883E+03  0.20148137274E+04  0.20010034575E+04 0.  0.
        1    1    3    3  502    0 -0.19176256834E+03 -0.51368912024E+03  0.96039678190E+03  0.11058984463E+04  0.50400001928E-02 0.  1.
       -1    1    3    3    0  502  0.19176256834E+03  0.51368912024E+03 -0.72489833307E+03  0.90891528109E+03  0.50400001928E-02 0. -1.
</event>
<event>
 5   0  0.5030137E-06  0.1999304E+04  0.7818609E-02  0.8606946E-01
       -2   -1    0    0    0  501  0.00000000000E+00  0.00000000000E+00  0.12341376631E+04  0.12341376631E+04  0.25500000920E-02 0. -1.
        2   -1    0    0  501    0  0.00000000000E+00  0.00000000000E+00 -0.80971878518E+03  0.80971878519E+03  0.25500000920E-02 0.  1.
    10030    2    1    2    0    0  0.00000000000E+00  0.00000000000E+00  0.42441887788E+03  0.20438564482E+04  0.19993043283E+04 0.  0.
        3    1    3    3  502    0 -0.98332022120E+03  0.10992053791E+03  0.35787414590E+03  0.10521763619E+04  0.10100000352E+00 0. -1.
       -3    1    3    3    0  502  0.98332022120E+03 -0.10992053791E+03  0.66544731981E+02  0.99168008633E+03  0.10100000352E+00 0.  1.
</event>
<event>
 5   0  0.2386776E-06  0.2004996E+04  0.7818609E-02  0.8604288E-01
       -1   -1    0    0    0  501  0.00000000000E+00  0.00000000000E+00  0.10017273728E+04  0.10017273728E+04  0.50400001928E-02 0.  1.
        1   -1    0    0  501    0  0.00000000000E+00  0.00000000000E+00 -0.10032694899E+04  0.10032694899E+04  0.50400001928E-02 0. -1.
    10030    2    1    2    0    0  0.00000000000E+00  0.00000000000E+00 -0.15421171143E+01  0.20049968627E+04  0.20049962697E+04 0.  0.
        2    1    3    3  502    0 -0.27657139287E+03  0.89520878859E+03  0.35575674545E+03  0.10022242127E+04  0.25500000920E-02 0.  1.
       -2    1    3    3    0  502  0.27657139287E+03 -0.89520878859E+03 -0.35729886256E+03  0.10027726501E+04  0.25500000920E-02 0. -1.
</event>
<event>
 5   0  0.2311520E-06  0.2000833E+04  0.7818609E-02  0.8606232E-01
        1   -1    0    0  501    0  0.00000000000E+00  0.00000000000E+00  0.16967899256E+04  0.16967899256E+04  0.50400001928E-02 0.  1.
       -1   -1    0    0    0  501  0.00000000000E+00  0.00000000000E+00 -0.58983890650E+03  0.58983890652E+03  0.50400001928E-02 0. -1.
    10030    2    1    2    0    0  0.00000000000E+00  0.00000000000E+00  0.11069510191E+04  0.22866288322E+04  0.20008325410E+04 0.  0.
        3    1    3    3  502    0 -0.81199862004E+03  0.53944424199E+03  0.81027330760E+03  0.12676295564E+04  0.10100000352E+00 0. -1.
       -3    1    3    3    0  502  0.81199862004E+03 -0.53944424199E+03  0.29667771152E+03  0.10189992757E+04  0.10100000352E+00 0.  1.
</event>
<event>
 5   0  0.2379743E-06  0.2000989E+04  0.7818609E-02  0.8606158E-01
       -1   -1    0    0    0  501  0.00000000000E+00  0.00000000000E+00  0.63084941126E+03  0.63084941128E+03  0.50400001928E-02 0.  1.
        1   -1    0    0  501    0  0.00000000000E+00  0.00000000000E+00 -0.15867330384E+04  0.15867330384E+04  0.50400001928E-02 0. -1.
    10030    2    1    2    0    0  0.00000000000E+00  0.00000000000E+00 -0.95588362714E+03  0.22175824497E+04  0.20009893584E+04 0.  0.
        5    1    3    3  502    0  0.65174406751E+02  0.59858361937E+03 -0.13634393862E+04  0.14904828421E+04  0.46999998093E+01 0. -1.
       -5    1    3    3    0  502 -0.65174406751E+02 -0.59858361937E+03  0.40755575906E+03  0.72709960763E+03  0.46999998093E+01 0.  1.
</event>
<event>
 5   0  0.2386776E-06  0.1999982E+04  0.7818609E-02  0.8606629E-01
       -1   -1    0    0    0  501  0.00000000000E+00  0.00000000000E+00  0.38941954051E+03  0.38941954054E+03  0.50400001928E-02 0. -1.
        1   -1    0    0  501    0  0.00000000000E+00  0.00000000000E+00 -0.25678784074E+04  0.25678784074E+04  0.50400001928E-02 0.  1.
    10030    2    1    2    0    0  0.00000000000E+00  0.00000000000E+00 -0.21784588669E+04  0.29572979480E+04  0.19999820295E+04 0.  0.
        2    1    3    3  502    0 -0.11900533908E+03  0.64408356307E+02  0.37581919637E+03  0.39943807462E+03  0.25500000920E-02 0. -1.
       -2    1    3    3    0  502  0.11900533908E+03 -0.64408356307E+02 -0.25542780633E+04  0.25578598733E+04  0.25500000920E-02 0.  1.
</event>
<event>
 5   0  0.5118981E-06  0.1999323E+04  0.7818609E-02  0.8606937E-01
        2   -1    0    0  501    0  0.00000000000E+00  0.00000000000E+00  0.94560441193E+03  0.94560441193E+03  0.25500000920E-02 0.  1.
       -2   -1    0    0    0  501  0.00000000000E+00  0.00000000000E+00 -0.10568091726E+04  0.10568091726E+04  0.25500000920E-02 0. -1.
    10030    2    1    2    0    0  0.00000000000E+00  0.00000000000E+00 -0.11120476066E+03  0.20024135845E+04  0.19993233017E+04 0.  0.
        4    1    3    3  502    0 -0.62202233588E+03  0.58057448096E+03  0.46994031388E+03  0.97202058918E+03  0.12699999809E+01 0.  1.
       -4    1    3    3    0  502  0.62202233588E+03 -0.58057448096E+03 -0.58114507455E+03  0.10303929953E+04  0.12699999809E+01 0. -1.
</event>
<event>
 5   0  0.2356996E-06  0.2000476E+04  0.7818609E-02  0.8606398E-01
       -1   -1    0    0    0  501  0.00000000000E+00  0.00000000000E+00  0.69309419311E+03  0.69309419313E+03  0.50400001928E-02 0.  1.
        1   -1    0    0  501    0  0.00000000000E+00  0.00000000000E+00 -0.14434926614E+04  0.14434926614E+04  0.50400001928E-02 0. -1.
    10030    2    1    2    0    0  0.00000000000E+00  0.00000000000E+00 -0.75039846832E+03  0.21365868546E+04  0.20004763247E+04 0.  0.
        4    1    3    3  502    0  0.90635587527E+02 -0.10155742208E+03  0.68315475133E+03  0.69658506076E+03  0.12699999809E+01 0.  1.
       -4    1    3    3    0  502 -0.90635587527E+02  0.10155742208E+03 -0.14335532197E+04  0.14400017938E+04  0.12699999809E+01 0. -1.
</event>
<event>
 5   0  0.2379743E-06  0.2000503E+04  0.7818609E-02  0.8606386E-01
        1   -1    0    0  501    0  0.00000000000E+00  0.00000000000E+00  0.20259662651E+04  0.20259662651E+04  0.50400001928E-02 0. -1.
       -1   -1    0    0    0  501  0.00000000000E+00  0.00000000000E+00 -0.49383981079E+03  0.49383981082E+03  0.50400001928E-02 0.  1.
    10030    2    1    2    0    0  0.00000000000E+00  0.00000000000E+00  0.15321264543E+04  0.25198060759E+04  0.20005027339E+04 0.  0.
        5    1    3    3  502    0  0.28204430200E+03 -0.95879878386E+03  0.81701985532E+03  0.12908863739E+04  0.46999998093E+01 0. -1.
       -5    1    3    3    0  502 -0.28204430200E+03  0.95879878386E+03  0.71510659896E+03  0.12289197021E+04  0.46999998093E+01 0.  1.
</event>
<event>
 5   0  0.2386776E-06  0.1998465E+04  0.7818609E-02  0.8607338E-01
       -1   -1    0    0    0  501  0.00000000000E+00  0.00000000000E+00  0.74501164652E+03  0.74501164654E+03  0.50400001928E-02 0.  1.
        1   -1    0    0  501    0  0.00000000000E+00  0.00000000000E+00 -0.13402017994E+04  0.13402017994E+04  0.50400001928E-02 0. -1.
    10030    2    1    2    0    0  0.00000000000E+00  0.00000000000E+00 -0.59519015288E+03  0.20852134460E+04  0.19984653605E+04 0.  0.
        2    1    3    3  502    0  0.58399200165E+03 -0.57205856657E+03  0.30194962666E+03  0.87147647049E+03  0.25500000920E-02 0.  1.
       -2    1    3    3    0  502 -0.58399200165E+03  0.57205856657E+03 -0.89713977954E+03  0.12137369755E+04  0.25500000920E-02 0. -1.
</event>
<event>
 5   0  0.4956214E-06  0.2002382E+04  0.7818609E-02  0.8605508E-01
       -2   -1    0    0    0  501  0.00000000000E+00  0.00000000000E+00  0.96885983726E+03  0.96885983726E+03  0.25500000920E-02 0. -1.
        2   -1    0    0  501    0  0.00000000000E+00  0.00000000000E+00 -0.10346014657E+04  0.10346014657E+04  0.25500000920E-02 0.  1.
    10030    2    1    2    0    0  0.00000000000E+00  0.00000000000E+00 -0.65741628467E+02  0.20034613030E+04  0.20023823888E+04 0.  0.
        1    1    3    3  502    0 -0.22336130968E+00  0.95152535585E+03 -0.34445995918E+03  0.10119551454E+04  0.50400001928E-02 0. -1.
       -1    1    3    3    0  502  0.22336130968E+00 -0.95152535585E+03  0.27871833071E+03  0.99150615763E+03  0.50400001928E-02 0.  1.
</event>
<event>
 5   0  0.5030137E-06  0.2000183E+04  0.7818609E-02  0.8606535E-01
       -2   -1    0    0    0  501  0.00000000000E+00  0.00000000000E+00  0.47831956815E+03  0.47831956816E+03  0.25500000920E-02 0. -1.
        2   -1    0    0  501    0  0.00000000000E+00  0.00000000000E+00 -0.20910340950E+04  0.20910340950E+04  0.25500000920E-02 0.  1.
    10030    2    1    2    0    0  0.00000000000E+00  0.00000000000E+00 -0.16127145269E+04  0.25693536632E+04  0.20001825170E+04 0.  0.
        3    1    3    3  502    0  0.30706191656E+03 -0.78036064716E+03 -0.15063335291E+04  0.17240331990E+04  0.10100000352E+00 0.  1.
       -3    1    3    3    0  502 -0.30706191656E+03  0.78036064716E+03 -0.10638099776E+03  0.84532046416E+03  0.10100000352E+00 0. -1.
</event>
<event>
 5   0  0.5030137E-06  0.1999600E+04  0.7818609E-02  0.8606808E-01
        2   -1    0    0  501    0  0.00000000000E+00  0.00000000000E+00  0.10688176140E+04  0.10688176140E+04  0.25500000920E-02 0. -1.
       -2   -1    0    0    0  501  0.00000000000E+00  0.00000000000E+00 -0.93523945327E+03  0.93523945327E+03  0.25500000920E-02 0.  1.
    10030    2    1    2    0    0  0.00000000000E+00  0.00000000000E+00  0.13357816069E+03  0.20040570672E+04  0.19996003610E+04 0.  0.
        3    1    3    3  502    0  0.97448252189E+03  0.21761587447E+03  0.11816282847E+03  0.10054527928E+04  0.10100000352E+00 0. -1.
       -3    1    3    3    0  502 -0.97448252189E+03 -0.21761587447E+03  0.15415332223E+02  0.99860427445E+03  0.10100000352E+00 0.  1.
</event>
<event>
 5   0  0.2356996E-06  0.2000867E+04  0.7818609E-02  0.8606215E-01
       -1   -1    0    0    0  501  0.00000000000E+00  0.00000000000E+00  0.88957391940E+03  0.88957391941E+03  0.50400001928E-02 0.  1.
        1   -1    0    0  501    0  0.00000000000E+00  0.00000000000E+00 -0.11251086909E+04  0.11251086909E+04  0.50400001928E-02 0. -1.
    10030    2    1    2    0    0  0.00000000000E+00  0.00000000000E+00 -0.23553477154E+03  0.20146826104E+04  0.20008671600E+04 0.  0.
        4    1    3    3  502    0  0.67690354641E+02 -0.11113267265E+03  0.88101576360E+03  0.89057444588E+03  0.12699999809E+01 0.  1.
       -4    1    3    3    0  502 -0.67690354641E+02  0.11113267265E+03 -0.11165505351E+04  0.11241081645E+04  0.12699999809E+01 0. -1.
</event>
<event>
 5   0  0.4956214E-06  0.1999389E+04  0.7818609E-02  0.8606906E-01
        2   -1    0    0  501    0  0.00000000000E+00  0.00000000000E+00  0.10693096955E+04  0.10693096955E+04  0.25500000920E-02 0.  1.
       -2   -1    0    0    0  501  0.00000000000E+00  0.00000000000E+00 -0.93461140659E+03  0.93461140660E+03  0.25500000920E-02 0. -1.
    10030    2    1    2    0    0  0.00000000000E+00  0.00000000000E+00  0.13469828891E+03  0.20039211021E+04  0.19993889453E+04 0.  0.
        1    1    3    3  502    0 -0.42808211159E+03 -0.57663282214E+03  0.76436017136E+03  0.10488117931E+04  0.50400001928E-02 0.  1.
       -1    1    3    3    0  502  0.42808211159E+03  0.57663282214E+03 -0.62966188246E+03  0.95510930897E+03  0.50400001928E-02 0. -1.
</event>
<event>
 5   0  0.2386776E-06  0.2001439E+04  0.7818609E-02  0.8605948E-01
        1   -1    0    0  501    0  0.00000000000E+00  0.00000000000E+00  0.14475331633E+04  0.14475331633E+04  0.50400001928E-02 0. -1.
       -1   -1    0    0    0  501  0.00000000000E+00  0.00000000000E+00 -0.69182460381E+03  0.69182460383E+03  0.50400001928E-02 0.  1.
    10030    2    1    2    0    0  0.00000000000E+00  0.00000000000E+00  0.75570855949E+03  0.21393577671E+04  0.20014385399E+04 0.  0.
        2    1    3    3  502    0  0.35676571358E+03  0.63575111540E+03  0.11106447837E+04  0.13285304252E+04  0.25500000920E-02 0. -1.
       -2    1    3    3    0  502 -0.35676571358E+03 -0.63575111540E+03 -0.35493622423E+03  0.81082734192E+03  0.25500000920E-02 0.  1.
</event>
<event>
 5   0  0.2311520E-06  0.2000264E+04  0.7818609E-02  0.8606497E-01
       -1   -1    0    0    0  501  0.00000000000E+00  0.00000000000E+00  0.11127287359E+04  0.11127287359E+04  0.50400001928E-02 0. -1.
        1   -1    0    0  501    0  0.00000000000E+00  0.00000000000E+00 -0.89892891873E+03  0.89892891874E+03  0.50400001928E-02 0.  1.
    10030    2    1    2    0    0  0.00000000000E+00  0.00000000000E+00  0.21379981716E+03  0.20116576546E+04  0.20002640220E+04 0.  0.
        3    1    3    3  502    0 -0.64913667685E+03 -0.34833051673E+02 -0.65747691077E+03  0.92459053917E+03  0.10100000352E+00 0.  1.
       -3    1    3    3    0  502  0.64913667685E+03  0.34833051673E+02  0.87127672793E+03  0.10870671155E+04  0.10100000352E+00 0. -1.
</event>
<event>
 5   0  0.2379743E-06  0.1999986E+04  0.7818609E-02  0.8606627E-01
       -1   -1    0    0    0  501  0.00000000000E+00  0.00000000000E+00  0.15649928881E+04  0.15649928881E+04  0.50400001928E-02 0. -1.
        1   -1    0    0  501    0  0.00000000000E+00  0.00000000000E+00 -0.63897135167E+03  0.63897135169E+03  0.50400001928E-02 0.  1.
    10030    2    1    2    0    0  0.00000000000E+00  0.00000000000E+00  0.92602153638E+03  0.22039642398E+04  0.19999856210E+04 0.  0.
        5    1    3    3  502    0 -0.78383772532E+03  0.60400707832E+03  0.30431884228E+03  0.10353058379E+04  0.46999998093E+01 0.  1.
       -5    1    3    3    0  502  0.78383772532E+03 -0.60400707832E+03  0.62170269410E+03  0.11686584018E+04  0.46999998093E+01 0. -1.
</event>
<event>
 5   0  0.5129100E-06  0.1999753E+04  0.7818609E-02  0.8606736E-01
       -2   -1    0    0    0  501  0.00000000000E+00  0.00000000000E+00  0.59595385157E+03  0.59595385157E+03  0.25500000920E-02 0. -1.
        2   -1    0    0  501    0  0.00000000000E+00  0.00000000000E+00 -0.16775678135E+04  0.16775678135E+04  0.25500000920E-02 0.  1.
    10030    2    1    2    0    0  0.00000000000E+00  0.00000000000E+00 -0.10816139620E+04  0.22735216651E+04  0.19997529845E+04 0.  0.
        2    1    3    3  502    0 -0.26010451640E+03  0.96543734033E+03 -0.54696959267E+03  0.11396926572E+04  0.25500000920E-02 0.  1.
       -2    1    3    3    0  502  0.26010451640E+03 -0.96543734033E+03 -0.53464436930E+03  0.11338290079E+04  0.25500000920E-02 0. -1.
</event>
<event>
 5   0  0.4956214E-06  0.1999185E+04  0.7818609E-02  0.8607002E-01
        2   -1    0    0  501    0  0.00000000000E+00  0.00000000000E+00  0.16103597252E+04  0.16103597252E+04  0.25500000920E-02 0. -1.
       -2   -1    0    0    0  501  0.00000000000E+00  0.00000000000E+00 -0.62047338384E+03  0.62047338384E+03  0.25500000920E-02 0.  1.
    10030    2    1    2    0    0  0.00000000000E+00  0.00000000000E+00  0.98988634135E+03  0.22308331090E+04  0.19991851819E+04 0.  0.
        1    1    3    3  502    0  0.25735249773E+03 -0.66373353719E+02  0.15702109076E+04  0.15925445126E+04  0.50400001928E-02 0. -1.
       -1    1    3    3    0  502 -0.25735249773E+03  0.66373353719E+02 -0.58032456624E+03  0.63828859646E+03  0.50400001928E-02 0.  1.
</event>
<event>
 5   0  0.5251252E-06  0.1999655E+04  0.7818609E-02  0.8606782E-01
       -2   -1    0    0    0  501  0.00000000000E+00  0.00000000000E+00  0.51396746087E+03  0.51396746087E+03  0.25500000920E-02 0. -1.
        2   -1    0    0  501    0  0.00000000000E+00  0.00000000000E+00 -0.19449765073E+04  0.19449765073E+04  0.25500000920E-02 0.  1.
    10030    2    1    2    0    0  0.00000000000E+00  0.00000000000E+00 -0.14310090465E+04  0.24589439682E+04  0.19996546071E+04 0.  0.
        5    1    3    3  502    0  0.44270082356E+03 -0.21823715760E+03  0.35369952497E+03  0.60723712016E+03  0.46999998093E+01 0. -1.
       -5    1    3    3    0  502 -0.44270082356E+03  0.21823715760E+03 -0.17847085714E+04  0.18517068480E+04  0.46999998093E+01 0.  1.
</event>
<event>
 5   0  0.1777750E-06  0.1999907E+04  0.7818609E-02  0.8606664E-01
       -3   -1    0    0    0  501  0.00000000000E+00  0.00000000000E+00  0.22704762448E+04  0.22704762471E+04  0.10100000352E+00 0.  1.
        3   -1    0    0  501    0  0.00000000000E+00  0.00000000000E+00 -0.44039506517E+03  0.44039507675E+03  0.10100000352E+00 0. -1.
    10030    2    1    2    0    0  0.00000000000E+00  0.00000000000E+00  0.18300811796E+04  0.27108713238E+04  0.19999065504E+04 0.  0.
        5    1    3    3  502    0  0.26084025201E+03 -0.58810225671E+03  0.19526682648E+04  0.20559273683E+04  0.46999998093E+01 0.  1.
       -5    1    3    3    0  502 -0.26084025201E+03  0.58810225671E+03 -0.12258708515E+03  0.65494395551E+03  0.46999998093E+01 0. -1.
</event>
<event>
 5   0  0.2386776E-06  0.2000364E+04  0.7818609E-02  0.8606450E-01
        1   -1    0    0  501    0  0.00000000000E+00  0.00000000000E+00  0.78570955172E+03  0.78570955174E+03  0.50400001928E-02 0. -1.
       -1   -1    0    0    0  501  0.00000000000E+00  0.00000000000E+00 -0.12731983156E+04  0.12731983156E+04  0.50400001928E-02 0.  1.
    10030    2    1    2    0    0  0.00000000000E+00  0.00000000000E+00 -0.48748876386E+03  0.20589078673E+04  0.20003640447E+04 0.  0.
        2    1    3    3  502    0 -0.35080981649E+03 -0.90016078754E+03 -0.51017756138E+03  0.10925374661E+04  0.25500000920E-02 0. -1.
       -2    1    3    3    0  502  0.35080981649E+03  0.90016078754E+03  0.22688797521E+02  0.96637040120E+03  0.25500000920E-02 0.  1.
</event>
<event>
 5   0  0.5118981E-06  0.1998787E+04  0.7818609E-02  0.8607188E-01
        2   -1    0    0  501    0  0.00000000000E+00  0.00000000000E+00  0.10159947315E+04  0.10159947315E+04  0.25500000920E-02 0. -1.
       -2   -1    0    0    0  501  0.00000000000E+00  0.00000000000E+00 -0.98306368732E+03  0.98306368732E+03  0.25500000920E-02 0.  1.
    10030    2    1    2    0    0  0.00000000000E+00  0.00000000000E+00  0.32931044161E+02  0.19990584188E+04  0.19987871593E+04 0.  0.
        4    1    3    3  502    0 -0.15377338423E+03 -0.98593190525E+03  0.71952224352E+02  0.10004432572E+04  0.12699999809E+01 0. -1.
       -4    1    3    3    0  502  0.15377338423E+03  0.98593190525E+03 -0.39021180191E+02  0.99861516156E+03  0.12699999809E+01 0.  1.
</event>
<event>
 5   0  0.4956214E-06  0.1999720E+04  0.7818609E-02  0.8606752E-01
       -2   -1    0    0    0  501  0.00000000000E+00  0.00000000000E+00  0.86887772621E+03  0.86887772622E+03  0.25500000920E-02 0. -1.
        2   -1    0    0  501    0  0.00000000000E+00  0.00000000000E+00 -0.11505874067E+04  0.11505874067E+04  0.25500000920E-02 0.  1.
    10030    2    1    2    0    0  0.00000000000E+00  0.00000000000E+00 -0.28170968051E+03  0.20194651329E+04  0.19997197501E+04 0.  0.
        1    1    3    3  502    0 -0.27057884036E+03  0.80325891344E+03 -0.67645189200E+03  0.10844468420E+04  0.50400001928E-02 0.  1.
       -1    1    3    3    0  502  0.27057884036E+03 -0.80325891344E+03  0.39474221150E+03  0.93501829096E+03  0.50400001928E-02 0. -1.
</event>
<event>
 5   0  0.2313821E-06  0.1998729E+04  0.7818609E-02  0.8607215E-01
       -1   -1    0    0    0  501  0.00000000000E+00  0.00000000000E+00  0.67708071863E+03  0.67708071864E+03  0.50400001928E-02 0. -1.
        1   -1    0    0  501    0  0.00000000000E+00  0.00000000000E+00 -0.14750522489E+04  0.14750522489E+04  0.50400001928E-02 0.  1.
    10030    2    1    2    0    0  0.00000000000E+00  0.00000000000E+00 -0.79797153025E+03  0.21521329675E+04  0.19987290329E+04 0.  0.
        1    1    3    3  502    0 -0.13649321197E+03  0.38037407430E+03  0.58517537022E+03  0.71115754039E+03  0.50400001928E-02 0. -1.
       -1    1    3    3    0  502  0.13649321197E+03 -0.38037407430E+03 -0.13831469005E+04  0.14409754271E+04  0.50400001928E-02 0.  1.
</event>
<event>
 5   0  0.2379743E-06  0.2000011E+04  0.7818609E-02  0.8606615E-01
        1   -1    0    0  501    0  0.00000000000E+00  0.00000000000E+00  0.18839545197E+04  0.18839545197E+04  0.50400001928E-02 0. -1.
       -1   -1    0    0    0  501  0.00000000000E+00  0.00000000000E+00 -0.53080447941E+03  0.53080447943E+03  0.50400001928E-02 0.  1.
    10030    2    1    2    0    0  0.00000000000E+00  0.00000000000E+00  0.13531500403E+04  0.24147589992E+04  0.20000114981E+04 0.  0.
        5    1    3    3  502    0 -0.43119680031E+03  0.74946725836E+03  0.12831010687E+04  0.15472563765E+04  0.46999998093E+01 0. -1.
       -5    1    3    3    0  502  0.43119680031E+03 -0.74946725836E+03  0.70048971584E+02  0.86750262269E+03  0.46999998093E+01 0.  1.
</event>
<event>
 5   0  0.5251252E-06  0.2000131E+04  0.7818609E-02  0.8606559E-01
        2   -1    0    0  501    0  0.00000000000E+00  0.00000000000E+00  0.14660932944E+04  0.14660932944E+04  0.25500000920E-02 0. -1.
       -2   -1    0    0    0  501  0.00000000000E+00  0.00000000000E+00 -0.68217447316E+03  0.68217447317E+03  0.25500000920E-02 0.  1.
    10030    2    1    2    0    0  0.00000000000E+00  0.00000000000E+00  0.78391882123E+03  0.21482677676E+04  0.20001314164E+04 0.  0.
        5    1    3    3  502    0 -0.41838256151E+03  0.83774650239E+03  0.76902472179E+03  0.12117278089E+04  0.46999998093E+01 0. -1.
       -5    1    3    3    0  502  0.41838256151E+03 -0.83774650239E+03  0.14894099439E+02  0.93653995870E+03  0.46999998093E+01 0.  1.
</event>
<event>
 5   0  0.5251252E-06  0.2000037E+04  0.7818609E-02  0.8606603E-01
       -2   -1    0    0    0  501  0.00000000000E+00  0.00000000000E+00  0.31142142464E+03  0.31142142465E+03  0.25500000920E-02 0.  1.
        2   -1    0    0  501    0  0.00000000000E+00  0.00000000000E+00 -0.32112027787E+04  0.32112027787E+04  0.25500000920E-02 0. -1.
    10030    2    1    2    0    0  0.00000000000E+00  0.00000000000E+00 -0.28997813541E+04  0.35226242034E+04  0.20000373438E+04 0.  0.
        5    1    3    3  502    0 -0.21710279058E+03 -0.88742858131E+03 -0.21660887157E+04  0.23508776070E+04  0.46999998093E+01 0. -1.
       -5    1    3    3    0  502  0.21710279058E+03  0.88742858131E+03 -0.73369263837E+03  0.11717465964E+04  0.46999998093E+01 0.  1.
</event>
<event>
 5   0  0.5251252E-06  0.2000674E+04  0.7818609E-02  0.8606306E-01
       -2   -1    0    0    0  501  0.00000000000E+00  0.00000000000E+00  0.10681930567E+04  0.10681930567E+04  0.25500000920E-02 0. -1.
        2   -1    0    0  501    0  0.00000000000E+00  0.00000000000E+00 -0.93679105584E+03  0.93679105585E+03  0.25500000920E-02 0.  1.
    10030    2    1    2    0    0  0.00000000000E+00  0.00000000000E+00  0.13140200082E+03  0.20049841125E+04  0.20006735880E+04 0.  0.
        5    1    3    3  502    0 -0.13175961784E+02 -0.56670836713E+03  0.89168527602E+03  0.10566251468E+04  0.46999998093E+01 0. -1.
       -5    1    3    3    0  502  0.13175961784E+02  0.56670836713E+03 -0.76028327520E+03  0.94835896573E+03  0.46999998093E+01 0.  1.
</event>
<event>
 5   0  0.5118981E-06  0.2000175E+04  0.7818609E-02  0.8606539E-01
        2   -1    0    0  501    0  0.00000000000E+00  0.00000000000E+00  0.15211949576E+04  0.15211949577E+04  0.25500000920E-02 0.  1.
       -2   -1    0    0    0  501  0.00000000000E+00  0.00000000000E+00 -0.65749273757E+03  0.65749273757E+03  0.25500000920E-02 0. -1.
    10030    2    1    2    0    0  0.00000000000E+00  0.00000000000E+00  0.86370222008E+03  0.21786876952E+04  0.20001746295E+04 0.  0.
        4    1    3    3  502    0  0.51332909748E+03 -0.23256789706E+03 -0.46806773830E+03  0.73258692972E+03  0.12699999809E+01 0. -1.
       -4    1    3    3    0  502 -0.51332909748E+03  0.23256789706E+03  0.13317699584E+04  0.14461007655E+04  0.12699999809E+01 0.  1.
</event>
<event>
 5   0  0.5118981E-06  0.2001112E+04  0.7818609E-02  0.8606101E-01
       -2   -1    0    0    0  501  0.00000000000E+00  0.00000000000E+00  0.12704217553E+04  0.12704217553E+04  0.25500000920E-02 0.  1.
        2   -1    0    0  501    0  0.00000000000E+00  0.00000000000E+00 -0.78801537350E+03  0.78801537351E+03  0.25500000920E-02 0. -1.
    10030    2    1    2    0    0  0.00000000000E+00  0.00000000000E+00  0.48240638178E+03  0.20584371288E+04  0.20011115651E+04 0.  0.
        4    1    3    3  502    0  0.82115139177E+03 -0.39583820727E+02  0.82785103251E+03  0.11667028036E+04  0.12699999809E+01 0.  1.
       -4    1    3    3    0  502 -0.82115139177E+03  0.39583820727E+02 -0.34544465073E+03  0.89173432517E+03  0.12699999809E+01 0. -1.
</event>
<event>
 5   0  0.2379743E-06  0.1999451E+04  0.7818609E-02  0.8606877E-01
        1   -1    0    0  501    0  0.00000000000E+00  0.00000000000E+00  0.13534157053E+04  0.13534157053E+04  0.50400001928E-02 0.  1.
       -1   -1    0    0    0  501  0.00000000000E+00  0.00000000000E+00 -0.73846601517E+03  0.73846601518E+03  0.50400001928E-02 0. -1.
    10030    2    1    2    0    0  0.00000000000E+00  0.00000000000E+00  0.61494969009E+03  0.20918817204E+04  0.19994514275E+04 0.  0.
        5    1    3    3  502    0 -0.93508442302E+02  0.23062483260E+03 -0.70552968718E+03  0.74814829525E+03  0.46999998093E+01 0. -1.
       -5    1    3    3    0  502  0.93508442302E+02 -0.23062483260E+03  0.13204793773E+04  0.13437334252E+04  0.46999998093E+01 0.  1.
</event>
<event>
 5   0  0.5030137E-06  0.1997155E+04  0.7818609E-02  0.8607952E-01
        2   -1    0    0  501    0  0.00000000000E+00  0.00000000000E+00  0.21871183791E+04  0.21871183791E+04  0.25500000920E-02 0.  1.
       -2   -1    0    0    0  501  0.00000000000E+00  0.00000000000E+00 -0.45592294183E+03  0.45592294184E+03  0.25500000920E-02 0. -1.
    10030    2    1    2    0    0  0.00000000000E+00  0.00000000000E+00  0.17311954372E+04  0.26430413209E+04  0.19971554226E+04 0.  0.
        3    1    3    3  502    0  0.80806435879E+03  0.45833892512E+03  0.38094513234E+03  0.10040725981E+04  0.10100000352E+00 0. -1.
       -3    1    3    3    0  502 -0.80806435879E+03 -0.45833892512E+03  0.13502503049E+04  0.16389687228E+04  0.10100000352E+00 0.  1.
</event>
<event>
 5   0  0.5129100E-06  0.2001247E+04  0.7818609E-02  0.8606038E-01
        2   -1    0    0  501    0  0.00000000000E+00  0.00000000000E+00  0.77288531869E+03  0.77288531870E+03  0.25500000920E-02 0. -1.
       -2   -1    0    0    0  501  0.00000000000E+00  0.00000000000E+00 -0.12954675248E+04  0.12954675248E+04  0.25500000920E-02 0.  1.
    10030    2    1    2    0    0  0.00000000000E+00  0.00000000000E+00 -0.52258220611E+03  0.20683528435E+04  0.20012474417E+04 0.  0.
        2    1    3    3  502    0  0.70079439330E+03  0.68093583007E+03 -0.48406802112E+03  0.10904623952E+04  0.25500000920E-02 0.  1.
       -2    1    3    3    0  502 -0.70079439330E+03 -0.68093583007E+03 -0.38514184995E+02  0.97789044827E+03  0.25500000920E-02 0. -1.
</event>
<event>
 5   0  0.2311520E-06  0.2001290E+04  0.7818609E-02  0.8606018E-01
        1   -1    0    0  501    0  0.00000000000E+00  0.00000000000E+00  0.16816294001E+04  0.16816294001E+04  0.50400001928E-02 0. -1.
       -1   -1    0    0    0  501  0.00000000000E+00  0.00000000000E+00 -0.59542852092E+03  0.59542852094E+03  0.50400001928E-02 0.  1.
    10030    2    1    2    0    0  0.00000000000E+00  0.00000000000E+00  0.10862008792E+04  0.22770579211E+04  0.20012896907E+04 0.  0.
        3    1    3    3  502    0  0.28212314976E+03  0.95932849932E+03  0.58545111475E+03  0.11587310556E+04  0.10100000352E+00 0. -1.
       -3    1    3    3    0  502 -0.28212314976E+03 -0.95932849932E+03  0.50074976445E+03  0.11183268655E+04  0.10100000352E+00 0.  1.
</event>
<event>
 5   0  0.5251252E-06  0.2000440E+04  0.7818609E-02  0.8606415E-01
       -2   -1    0    0    0  501  0.00000000000E+00  0.00000000000E+00  0.53388817995E+03  0.53388817996E+03  0.25500000920E-02 0.  1.
        2   -1    0    0  501    0  0.00000000000E+00  0.00000000000E+00 -0.18738756205E+04  0.18738756205E+04  0.25500000920E-02 0. -1.
    10030    2    1    2    0    0  0.00000000000E+00  0.00000000000E+00 -0.13399874406E+04  0.24077638005E+04  0.20004399961E+04 0.  0.
        5    1    3    3  502    0 -0.21751881686E+02 -0.26445687240E+03  0.49073718348E+03  0.55790290819E+03  0.46999998093E+01 0.  1.
       -5    1    3    3    0  502  0.21751881686E+02  0.26445687240E+03 -0.18307246240E+04  0.18498608923E+04  0.46999998093E+01 0. -1.
</event>
<event>
 5   0  0.5129100E-06  0.2000956E+04  0.7818609E-02  0.8606174E-01
       -2   -1    0    0    0  501  0.00000000000E+00  0.00000000000E+00  0.98095053659E+03  0.98095053660E+03  0.25500000920E-02 0. -1.
        2   -1    0    0  501    0  0.00000000000E+00  0.00000000000E+00 -0.10203944954E+04  0.10203944954E+04  0.25500000920E-02 0.  1.
    10030    2    1    2    0    0  0.00000000000E+00  0.00000000000E+00 -0.39443958766E+02  0.20013450320E+04  0.20009562991E+04 0.  0.
        2    1    3    3  502    0  0.26209291546E+03  0.73549564113E+03 -0.64539126136E+03  0.10130036598E+04  0.25500000920E-02 0.  1.
       -2    1    3    3    0  502 -0.26209291546E+03 -0.73549564113E+03  0.60594730259E+03  0.98834137219E+03  0.25500000920E-02 0. -1.
</event>
<event>
 5   0  0.2313821E-06  0.2000647E+04  0.7818609E-02  0.8606318E-01
        1   -1    0    0  501    0  0.00000000000E+00  0.00000000000E+00  0.10637665450E+04  0.10637665450E+04  0.50400001928E-02 0. -1.
       -1   -1    0    0    0  501  0.00000000000E+00  0.00000000000E+00 -0.94066446364E+03  0.94066446366E+03  0.50400001928E-02 0.  1.
    10030    2    1    2    0    0  0.00000000000E+00  0.00000000000E+00  0.12310208135E+03  0.20044310087E+04  0.20006472818E+04 0.  0.
        1    1    3    3  502    0 -0.95225942691E+03  0.17606901248E+02  0.36797152768E+03  0.10210343110E+04  0.50400001928E-02 0. -1.
       -1    1    3    3    0  502  0.95225942691E+03 -0.17606901248E+02 -0.24486944633E+03  0.98339669762E+03  0.50400001928E-02 0.  1.
</event>
<event>
 5   0  0.5251252E-06  0.1999992E+04  0.7818609E-02  0.8606625E-01
       -2   -1    0    0    0  501  0.00000000000E+00  0.00000000000E+00  0.79391331772E+03  0.79391331773E+03  0.25500000920E-02 0. -1.
        2   -1    0    0  501    0  0.00000000000E+00  0.00000000000E+00 -0.12595729459E+04  0.12595729459E+04  0.25500000920E-02 0.  1.
    10030    2    1    2    0    0  0.00000000000E+00  0.00000000000E+00 -0.46565962814E+03  0.20534862636E+04  0.19999917364E+04 0.  0.
        5    1    3    3  502    0  0.79567776353E+03  0.25172453517E+03 -0.79847471913E+03  0.11550118233E+04  0.46999998093E+01 0.  1.
       -5    1    3    3    0  502 -0.79567776353E+03 -0.25172453517E+03  0.33281509099E+03  0.89847444025E+03  0.46999998093E+01 0. -1.
</event>
<event>
 5   0  0.2386776E-06  0.1993060E+04  0.7818609E-02  0.8609872E-01
        1   -1    0    0  501    0  0.00000000000E+00  0.00000000000E+00  0.70139701506E+03  0.70139701508E+03  0.50400001928E-02 0. -1.
       -1   -1    0    0    0  501  0.00000000000E+00  0.00000000000E+00 -0.14158482859E+04  0.14158482859E+04  0.50400001928E-02 0.  1.
    10030    2    1    2    0    0  0.00000000000E+00  0.00000000000E+00 -0.71445127081E+03  0.21172453009E+04  0.19930597196E+04 0.  0.
        2    1    3    3  502    0 -0.83468055393E+02  0.20830842974E+03 -0.13886573605E+04  0.14066728771E+04  0.25500000920E-02 0.  1.
       -2    1    3    3    0  502  0.83468055393E+02 -0.20830842974E+03  0.67420608971E+03  0.71057242388E+03  0.25500000920E-02 0. -1.
</event>
<event>
 5   0  0.5030137E-06  0.1999697E+04  0.7818609E-02  0.8606762E-01
        2   -1    0    0  501    0  0.00000000000E+00  0.00000000000E+00  0.56018202819E+03  0.56018202820E+03  0.25500000920E-02 0.  1.
       -2   -1    0    0    0  501  0.00000000000E+00  0.00000000000E+00 -0.17845936909E+04  0.17845936909E+04  0.25500000920E-02 0. -1.
    10030    2    1    2    0    0  0.00000000000E+00  0.00000000000E+00 -0.12244116627E+04  0.23447757191E+04  0.19996972903E+04 0.  0.
        3    1    3    3  502    0  0.91257093645E+01 -0.10831029169E+03  0.55323380750E+03  0.56381029950E+03  0.10100000352E+00 0.  1.
       -3    1    3    3    0  502 -0.91257093645E+01  0.10831029169E+03 -0.17776454702E+04  0.17809654196E+04  0.10100000352E+00 0. -1.
</event>
<event>
 5   0  0.2386776E-06  0.2000990E+04  0.7818609E-02  0.8606158E-01
       -1   -1    0    0    0  501  0.00000000000E+00  0.00000000000E+00  0.45083946049E+03  0.45083946052E+03  0.50400001928E-02 0. -1.
        1   -1    0    0  501    0  0.00000000000E+00  0.00000000000E+00 -0.22202810300E+04  0.22202810300E+04  0.50400001928E-02 0.  1.
    10030    2    1    2    0    0  0.00000000000E+00  0.00000000000E+00 -0.17694415695E+04  0.26711204905E+04  0.20009900567E+04 0.  0.
        2    1    3    3  502    0 -0.59025049488E+03 -0.63766936286E+03 -0.15467722817E+04  0.17741258000E+04  0.25500000920E-02 0.  1.
       -2    1    3    3    0  502  0.59025049488E+03  0.63766936286E+03 -0.22266928787E+03  0.89699469051E+03  0.25500000920E-02 0. -1.
</event>
<event>
 5   0  0.2379743E-06  0.2001443E+04  0.7818609E-02  0.8605946E-01
        1   -1    0    0  501    0  0.00000000000E+00  0.00000000000E+00  0.11614552840E+04  0.11614552840E+04  0.50400001928E-02 0.  1.
       -1   -1    0    0    0  501  0.00000000000E+00  0.00000000000E+00 -0.86223148502E+03  0.86223148504E+03  0.50400001928E-02 0. -1.
    10030    2    1    2    0    0  0.00000000000E+00  0.00000000000E+00  0.29922379893E+03  0.20236867690E+04  0.20014427939E+04 0.  0.
        5    1    3    3  502    0 -0.61670864661E+03  0.76411256141E+03 -0.45466716026E+02  0.98299891839E+03  0.46999998093E+01 0. -1.
       -5    1    3    3    0  502  0.61670864661E+03 -0.76411256141E+03  0.34469051496E+03  0.10406878506E+04  0.46999998093E+01 0.  1.
</event>
<event>
 5   0  0.5129100E-06  0.1999706E+04  0.7818609E-02  0.8606758E-01
       -2   -1    0    0    0  501  0.00000000000E+00  0.00000000000E+00  0.11369991549E+04  0.11369991549E+04  0.25500000920E-02 0.  1.
        2   -1    0    0  501    0  0.00000000000E+00  0.00000000000E+00 -0.87924993774E+03  0.87924993775E+03  0.25500000920E-02 0. -1.
    10030    2    1    2    0    0  0.00000000000E+00  0.00000000000E+00  0.25774921717E+03  0.20162490927E+04  0.19997064146E+04 0.  0.
        2    1    3    3  502    0  0.60122500995E+02  0.99685814044E+03  0.79835141286E+02  0.10018555370E+04  0.25500000920E-02 0.  1.
       -2    1    3    3    0  502 -0.60122500995E+02 -0.99685814044E+03  0.17791407589E+03  0.10143935556E+04  0.25500000920E-02 0. -1.
</event>
<event>
 5   0  0.4956214E-06  0.2001714E+04  0.7818609E-02  0.8605820E-01
        2   -1    0    0  501    0  0.00000000000E+00  0.00000000000E+00  0.50775541990E+03  0.50775541990E+03  0.25500000920E-02 0.  1.
       -2   -1    0    0    0  501  0.00000000000E+00  0.00000000000E+00 -0.19728300672E+04  0.19728300672E+04  0.25500000920E-02 0. -1.
    10030    2    1    2    0    0  0.00000000000E+00  0.00000000000E+00 -0.14650746473E+04  0.24805854871E+04  0.20017144243E+04 0.  0.
        1    1    3    3  502    0 -0.98931252839E+03 -0.61575308603E+02 -0.56089445804E+03  0.11389176399E+04  0.50400001928E-02 0.  1.
       -1    1    3    3    0  502  0.98931252839E+03  0.61575308603E+02 -0.90418018925E+03  0.13416678472E+04  0.50400001928E-02 0. -1.
</event>
<event>
 5   0  0.2356996E-06  0.2001095E+04  0.7818609E-02  0.8606109E-01
       -1   -1    0    0    0  501  0.00000000000E+00  0.00000000000E+00  0.72661012653E+03  0.72661012655E+03  0.50400001928E-02 0.  1.
        1   -1    0    0  501    0  0.00000000000E+00  0.00000000000E+00 -0.13777612918E+04  0.13777612918E+04  0.50400001928E-02 0. -1.
    10030    2    1    2    0    0  0.00000000000E+00  0.00000000000E+00 -0.65115116525E+03  0.21043714183E+04  0.20010950068E+04 0.  0.
        4    1    3    3  502    0 -0.66695168296E+03 -0.65353944245E+03 -0.70350515455E+03  0.11691276515E+04  0.12699999809E+01 0. -1.
       -4    1    3    3    0  502  0.66695168296E+03  0.65353944245E+03  0.52353989292E+02  0.93524376679E+03  0.12699999809E+01 0.  1.
</event>
<event>
 5   0  0.2311520E-06  0.2000748E+04  0.7818609E-02  0.8606271E-01
        1   -1    0    0  501    0  0.00000000000E+00  0.00000000000E+00  0.13550998703E+04  0.13550998703E+04  0.50400001928E-02 0. -1.
       -1   -1    0    0    0  501  0.00000000000E+00  0.00000000000E+00 -0.73850534940E+03  0.73850534942E+03  0.50400001928E-02 0.  1.
    10030    2    1    2    0    0  0.00000000000E+00  0.00000000000E+00  0.61659452093E+03  0.20936052198E+04  0.20007483632E+04 0.  0.
        3    1    3    3  502    0  0.10602619227E+03 -0.31681142537E+03 -0.67840648351E+03  0.75620526298E+03  0.10100000352E+00 0.  1.
       -3    1    3    3    0  502 -0.10602619227E+03  0.31681142537E+03  0.12950010044E+04  0.13373999568E+04  0.10100000352E+00 0. -1.
</event>
<event>
 5   0  0.5129100E-06  0.1999914E+04  0.7818609E-02  0.8606661E-01
       -2   -1    0    0    0  501  0.00000000000E+00  0.00000000000E+00  0.78780312443E+03  0.78780312444E+03  0.25500000920E-02 0.  1.
        2   -1    0    0  501    0  0.00000000000E+00  0.00000000000E+00 -0.12692436456E+04  0.12692436456E+04  0.25500000920E-02 0. -1.
    10030    2    1    2    0    0  0.00000000000E+00  0.00000000000E+00 -0.48144052120E+03  0.20570467701E+04  0.19999141079E+04 0.  0.
        2    1    3    3  502    0 -0.24477733243E+03  0.64235598478E+02  0.75432088322E+03  0.79563945946E+03  0.25500000920E-02 0.  1.
       -2    1    3    3    0  502  0.24477733243E+03 -0.64235598478E+02 -0.12357614044E+04  0.12614073106E+04  0.25500000920E-02 0. -1.
</event>
<event>
 5   0  0.2311520E-06  0.1999149E+04  0.7818609E-02  0.8607019E-01
        1   -1    0    0  501    0  0.00000000000E+00  0.00000000000E+00  0.21343054101E+04  0.21343054101E+04  0.50400001928E-02 0.  1.
       -1   -1    0    0    0  501  0.00000000000E+00  0.00000000000E+00 -0.46813771010E+03  0.46813771013E+03  0.50400001928E-02 0. -1.
    10030    2    1    2    0    0  0.00000000000E+00  0.00000000000E+00  0.16661677000E+04  0.26024431202E+04  0.19991486662E+04 0.  0.
        3    1    3    3  502    0 -0.80383034736E+03 -0.32529237681E+03  0.18586370767E+03  0.88685043033E+03  0.10100000352E+00 0. -1.
       -3    1    3    3    0  502  0.80383034736E+03  0.32529237681E+03  0.14803039923E+04  0.17155926899E+04  0.10100000352E+00 0.  1.
</event>
<event>
 5   0  0.2313821E-06  0.2000789E+04  0.7818609E-02  0.8606252E-01
       -1   -1    0    0    0  501  0.00000000000E+00  0.00000000000E+00  0.53596243689E+03  0.53596243691E+03  0.50400001928E-02 0. -1.
        1   -1    0    0  501    0  0.00000000000E+00  0.00000000000E+00 -0.18672750302E+04  0.18672750302E+04  0.50400001928E-02 0.  1.
    10030    2    1    2    0    0  0.00000000000E+00  0.00000000000E+00 -0.13313125933E+04  0.24032374671E+04  0.20007891199E+04 0.  0.
        1    1    3    3  502    0  0.15992260255E+02 -0.99656393358E+03 -0.76893973075E+03  0.12588342765E+04  0.50400001928E-02 0.  1.
       -1    1    3    3    0  502 -0.15992260255E+02  0.99656393358E+03 -0.56237286251E+03  0.11444031906E+04  0.50400001928E-02 0. -1.
</event>
<event>
 5   0  0.2386776E-06  0.1999566E+04  0.7818609E-02  0.8606824E-01
       -1   -1    0    0    0  501  0.00000000000E+00  0.00000000000E+00  0.60074688859E+03  0.60074688862E+03  0.50400001928E-02 0. -1.
        1   -1    0    0  501    0  0.00000000000E+00  0.00000000000E+00 -0.16638714489E+04  0.16638714489E+04  0.50400001928E-02 0.  1.
    10030    2    1    2    0    0  0.00000000000E+00  0.00000000000E+00 -0.10631245603E+04  0.22646183375E+04  0.19995655488E+04 0.  0.
        2    1    3    3  502    0  0.75665772292E+03  0.48880092366E+02 -0.12695898706E+04  0.14787760522E+04  0.25500000920E-02 0.  1.
       -2    1    3    3    0  502 -0.75665772292E+03 -0.48880092366E+02  0.20646531025E+03  0.78584228534E+03  0.25500000920E-02 0. -1.
</event>
<event>
 5   0  0.5118981E-06  0.1999766E+04  0.7818609E-02  0.8606730E-01
        2   -1    0    0  501    0  0.00000000000E+00  0.00000000000E+00  0.89089841743E+03  0.89089841743E+03  0.25500000920E-02 0.  1.
       -2   -1    0    0    0  501  0.00000000000E+00  0.00000000000E+00 -0.11222002884E+04  0.11222002884E+04  0.25500000920E-02 0. -1.
    10030    2    1    2    0    0  0.00000000000E+00  0.00000000000E+00 -0.23130187095E+03  0.20130987058E+04  0.19997664473E+04 0.  0.
        4    1    3    3  502    0  0.55960515909E+03  0.21981667015E+03 -0.91990632048E+03  0.10989570301E+04  0.12699999809E+01 0. -1.
       -4    1    3    3    0  502 -0.55960515909E+03 -0.21981667015E+03  0.68860444953E+03  0.91414167576E+03  0.12699999809E+01 0.  1.
</event>
<event>
 5   0  0.2386776E-06  0.2000002E+04  0.7818609E-02  0.8606620E-01
        1   -1    0    0  501    0  0.00000000000E+00  0.00000000000E+00  0.15187938180E+04  0.15187938180E+04  0.50400001928E-02 0. -1.
       -1   -1    0    0    0  501  0.00000000000E+00  0.00000000000E+00 -0.65841884649E+03  0.65841884651E+03  0.50400001928E-02 0.  1.
    10030    2    1    2    0    0  0.00000000000E+00  0.00000000000E+00  0.86037497146E+03  0.21772126645E+04  0.20000024737E+04 0.  0.
        2    1    3    3  502    0 -0.18013618713E+03  0.43513939654E+03 -0.53013682395E+03  0.70911239762E+03  0.25500000920E-02 0.  1.
       -2    1    3    3    0  502  0.18013618713E+03 -0.43513939654E+03  0.13905117954E+04  0.14681002669E+04  0.25500000920E-02 0. -1.
</event>
<event>
 5   0  0.5118981E-06  0.1997720E+04  0.7818609E-02  0.8607687E-01
        2   -1    0    0  501    0  0.00000000000E+00  0.00000000000E+00  0.98098071170E+03  0.98098071170E+03  0.25500000920E-02 0. -1.
       -2   -1    0    0    0  501  0.00000000000E+00  0.00000000000E+00 -0.10170655113E+04  0.10170655113E+04  0.25500000920E-02 0.  1.
    10030    2    1    2    0    0  0.00000000000E+00  0.00000000000E+00 -0.36084799590E+02  0.19980462230E+04  0.19977203499E+04 0.  0.
        4    1    3    3  502    0 -0.19970332588E+03 -0.95922984027E+03 -0.21228203861E+03  0.10025310876E+04  0.12699999809E+01 0.  1.
       -4    1    3    3    0  502  0.19970332588E+03  0.95922984027E+03  0.17619723902E+03  0.99551513538E+03  0.12699999809E+01 0. -1.
</event>
<event>
 5   0  0.4956214E-06  0.2000683E+04  0.7818609E-02  0.8606302E-01
       -2   -1    0    0    0  501  0.00000000000E+00  0.00000000000E+00  0.98841097888E+03  0.98841097888E+03  0.25500000920E-02 0.  1.
        2   -1    0    0  501    0  0.00000000000E+00  0.00000000000E+00 -0.10124157119E+04  0.10124157119E+04  0.25500000920E-02 0. -1.
    10030    2    1    2    0    0  0.00000000000E+00  0.00000000000E+00 -0.24004732971E+02  0.20008266907E+04  0.20006826883E+04 0.  0.
        1    1    3    3  502    0  0.76110971347E+02 -0.90570075041E+03 -0.42987939398E+03  0.10054267863E+04  0.50400001928E-02 0. -1.
       -1    1    3    3    0  502 -0.76110971347E+02  0.90570075041E+03  0.40587466101E+03  0.99539990442E+03  0.50400001928E-02 0.  1.
</event>
<event>
 5   0  0.1777750E-06  0.2000312E+04  0.7818609E-02  0.8606475E-01
       -4   -1    0    0    0  501  0.00000000000E+00  0.00000000000E+00  0.68386136851E+03  0.68386254777E+03  0.12699999809E+01 0. -1.
        4   -1    0    0  501    0  0.00000000000E+00  0.00000000000E+00 -0.14627379021E+04  0.14627384534E+04  0.12699999809E+01 0.  1.
    10030    2    1    2    0    0  0.00000000000E+00  0.00000000000E+00 -0.77887653356E+03  0.21466010012E+04  0.20003117766E+04 0.  0.
        5    1    3    3  502    0  0.53237735751E+03  0.41571821461E+03 -0.11809730789E+04  0.13605024027E+04  0.46999998093E+01 0.  1.
       -5    1    3    3    0  502 -0.53237735751E+03 -0.41571821461E+03  0.40209654532E+03  0.78609859846E+03  0.46999998093E+01 0. -1.
</event>
<event>
 5   0  0.5030137E-06  0.2001687E+04  0.7818609E-02  0.8605832E-01
       -2   -1    0    0    0  501  0.00000000000E+00  0.00000000000E+00  0.79769432821E+03  0.79769432821E+03  0.25500000920E-02 0.  1.
        2   -1    0    0  501    0  0.00000000000E+00  0.00000000000E+00 -0.12557284189E+04  0.12557284189E+04  0.25500000920E-02 0. -1.
    10030    2    1    2    0    0  0.00000000000E+00  0.00000000000E+00 -0.45803409065E+03  0.20534227471E+04  0.20016867262E+04 0.  0.
        3    1    3    3  502    0 -0.55981793645E+03  0.23245783966E+03  0.58796797212E+03  0.84447564538E+03  0.10100000352E+00 0.  1.
       -3    1    3    3    0  502  0.55981793645E+03 -0.23245783966E+03 -0.10460020628E+04  0.12089471017E+04  0.10100000352E+00 0. -1.
</event>
<event>
 5   0  0.5118981E-06  0.2000013E+04  0.7818609E-02  0.8606614E-01
        2   -1    0    0  501    0  0.00000000000E+00  0.00000000000E+00  0.18840278553E+04  0.18840278553E+04  0.25500000920E-02 0. -1.
       -2   -1    0    0    0  501  0.00000000000E+00  0.00000000000E+00 -0.53078474589E+03  0.53078474589E+03  0.25500000920E-02 0.  1.
    10030    2    1    2    0    0  0.00000000000E+00  0.00000000000E+00  0.13532431094E+04  0.24148126012E+04  0.20000132464E+04 0.  0.
        4    1    3    3  502    0 -0.50357396890E+03 -0.55642636830E+03 -0.12137153085E+03  0.76021688148E+03  0.12699999809E+01 0.  1.
       -4    1    3    3    0  502  0.50357396890E+03  0.55642636830E+03  0.14746146403E+04  0.16545957197E+04  0.12699999809E+01 0. -1.
</event>
<event>
 5   0  0.2311520E-06  0.1998010E+04  0.7818609E-02  0.8607552E-01
       -1   -1    0    0    0  501  0.00000000000E+00  0.00000000000E+00  0.13199789512E+04  0.13199789512E+04  0.50400001928E-02 0.  1.
        1   -1    0    0  501    0  0.00000000000E+00  0.00000000000E+00 -0.75608076944E+03  0.75608076946E+03  0.50400001928E-02 0. -1.
    10030    2    1    2    0    0  0.00000000000E+00  0.00000000000E+00  0.56389818174E+03  0.20760597207E+04  0.19980097108E+04 0.  0.
        3    1    3    3  502    0  0.14027233238E+02  0.65336615933E+03 -0.50316429610E+03  0.82477780068E+03  0.10100000352E+00 0. -1.
       -3    1    3    3    0  502 -0.14027233238E+02 -0.65336615933E+03  0.10670624778E+04  0.12512819200E+04  0.10100000352E+00 0.  1.
</event>
<event>
 5   0  0.2386776E-06  0.1998797E+04  0.7818609E-02  0.8607183E-01
       -1   -1    0    0    0  501  0.00000000000E+00  0.00000000000E+00  0.79115733504E+03  0.79115733506E+03  0.50400001928E-02 0. -1.
        1   -1    0    0  501    0  0.00000000000E+00  0.00000000000E+00 -0.12624507570E+04  0.12624507571E+04  0.50400001928E-02 0.  1.
    10030    2    1    2    0    0  0.00000000000E+00  0.00000000000E+00 -0.47129342200E+03  0.20536080921E+04  0.19987968147E+04 0.  0.
        2    1    3    3  502    0 -0.75639943588E+03  0.59600029176E+03  0.38966759365E+02  0.96378154304E+03  0.25500000920E-02 0. -1.
       -2    1    3    3    0  502  0.75639943588E+03 -0.59600029176E+03 -0.51026018137E+03  0.10898265491E+04  0.25500000920E-02 0.  1.
</event>
<event>
 5   0  0.2379743E-06  0.2001092E+04  0.7818609E-02  0.8606111E-01
        1   -1    0    0  501    0  0.00000000000E+00  0.00000000000E+00  0.14051983558E+04  0.14051983558E+04  0.50400001928E-02 0.  1.
       -1   -1    0    0    0  501  0.00000000000E+00  0.00000000000E+00 -0.71242027433E+03  0.71242027434E+03  0.50400001928E-02 0. -1.
    10030    2    1    2    0    0  0.00000000000E+00  0.00000000000E+00  0.69277808146E+03  0.21176186301E+04  0.20010915003E+04 0.  0.
        5    1    3    3  502    0 -0.87517797775E+03 -0.47227440296E+03  0.23003115671E+03  0.10207428802E+04  0.46999998093E+01 0. -1.
       -5    1    3    3    0  502  0.87517797775E+03  0.47227440296E+03  0.46274692476E+03  0.10968757499E+04  0.46999998093E+01 0.  1.
</event>
<event>
 5   0  0.5118981E-06  0.1998781E+04  0.7818609E-02  0.8607191E-01
        2   -1    0    0  501    0  0.00000000000E+00  0.00000000000E+00  0.16697027991E+04  0.16697027991E+04  0.25500000920E-02 0. -1.
       -2   -1    0    0    0  501  0.00000000000E+00  0.00000000000E+00 -0.59817891492E+03  0.59817891492E+03  0.25500000920E-02 0.  1.
    10030    2    1    2    0    0  0.00000000000E+00  0.00000000000E+00  0.10715238842E+04  0.22678817140E+04  0.19987806369E+04 0.  0.
        4    1    3    3  502    0  0.12359058472E+03  0.95374951348E+03  0.84413711393E+03  0.12796412963E+04  0.12699999809E+01 0. -1.
       -4    1    3    3    0  502 -0.12359058472E+03 -0.95374951348E+03  0.22738677025E+03  0.98824041775E+03  0.12699999809E+01 0.  1.
</event>
<event>
 5   0  0.2313821E-06  0.1998669E+04  0.7818609E-02  0.8607243E-01
       -1   -1    0    0    0  501  0.00000000000E+00  0.00000000000E+00  0.12813191306E+04  0.12813191307E+04  0.50400001928E-02 0. -1.
        1   -1    0    0  501    0  0.00000000000E+00  0.00000000000E+00 -0.77940752108E+03  0.77940752109E+03  0.50400001928E-02 0.  1.
    10030    2    1    2    0    0  0.00000000000E+00  0.00000000000E+00  0.50191160957E+03  0.20607266517E+04  0.19986693247E+04 0.  0.
        1    1    3    3  502    0 -0.18236194173E+03  0.34903199406E+03 -0.69603398304E+03  0.79971402154E+03  0.50400001928E-02 0.  1.
       -1    1    3    3    0  502  0.18236194173E+03 -0.34903199406E+03  0.11979455926E+04  0.12610126302E+04  0.50400001928E-02 0. -1.
</event>
<event>
 5   0  0.2379743E-06  0.1997401E+04  0.7818609E-02  0.8607837E-01
       -1   -1    0    0    0  501  0.00000000000E+00  0.00000000000E+00  0.79698456367E+03  0.79698456369E+03  0.50400001928E-02 0. -1.
        1   -1    0    0  501    0  0.00000000000E+00  0.00000000000E+00 -0.12514700467E+04  0.12514700467E+04  0.50400001928E-02 0.  1.
    10030    2    1    2    0    0  0.00000000000E+00  0.00000000000E+00 -0.45448548299E+03  0.20484546104E+04  0.19974006199E+04 0.  0.
        5    1    3    3  502    0 -0.28764378936E+03  0.94568056596E+03 -0.81016638573E+02  0.99178448673E+03  0.46999998093E+01 0.  1.
       -5    1    3    3    0  502  0.28764378936E+03 -0.94568056596E+03 -0.37346884441E+03  0.10566701236E+04  0.46999998093E+01 0. -1.
</event>
<event>
 5   0  0.2313821E-06  0.1999143E+04  0.7818609E-02  0.8607021E-01
       -1   -1    0    0    0  501  0.00000000000E+00  0.00000000000E+00  0.46791977520E+03  0.46791977522E+03  0.50400001928E-02 0.  1.
        1   -1    0    0  501    0  0.00000000000E+00  0.00000000000E+00 -0.21352882840E+04  0.21352882840E+04  0.50400001928E-02 0. -1.
    10030    2    1    2    0    0  0.00000000000E+00  0.00000000000E+00 -0.16673685088E+04  0.26032080592E+04  0.19991434304E+04 0.  0.
        1    1    3    3  502    0  0.36782698693E+03 -0.54171848787E+03 -0.18171293449E+04  0.19315058034E+04  0.50400001928E-02 0. -1.
       -1    1    3    3    0  502 -0.36782698693E+03  0.54171848787E+03  0.14976083611E+03  0.67170225582E+03  0.50400001928E-02 0.  1.
</event>
<event>
 5   0  0.2386776E-06  0.1999721E+04  0.7818609E-02  0.8606751E-01
        1   -1    0    0  501    0  0.00000000000E+00  0.00000000000E+00  0.98673439504E+03  0.98673439506E+03  0.50400001928E-02 0. -1.
       -1   -1    0    0    0  501  0.00000000000E+00  0.00000000000E+00 -0.10131615089E+04  0.10131615089E+04  0.50400001928E-02 0.  1.
    10030    2    1    2    0    0  0.00000000000E+00  0.00000000000E+00 -0.26427113821E+02  0.19998959039E+04  0.19997212891E+04 0.  0.
        2    1    3    3  502    0 -0.22429668112E+03 -0.44600136505E+03 -0.87960039966E+03  0.10113965997E+04  0.25500000920E-02 0.  1.
       -2    1    3    3    0  502  0.22429668112E+03  0.44600136505E+03  0.85317328584E+03  0.98849930423E+03  0.25500000920E-02 0. -1.
</event>
<event>
 5   0  0.5251252E-06  0.2001990E+04  0.7818609E-02  0.8605691E-01
        2   -1    0    0  501    0  0.00000000000E+00  0.00000000000E+00  0.32878304729E+04  0.32878304729E+04  0.25500000920E-02 0.  1.
       -2   -1    0    0    0  501  0.00000000000E+00  0.00000000000E+00 -0.30475757341E+03  0.30475757342E+03  0.25500000920E-02 0. -1.
    10030    2    1    2    0    0  0.00000000000E+00  0.00000000000E+00  0.29830728995E+04  0.35925880463E+04  0.20019902465E+04 0.  0.
        5    1    3    3  502    0 -0.65607797822E+03  0.25822267280E+03  0.27665871499E+04  0.28550208074E+04  0.46999998093E+01 0.  1.
       -5    1    3    3    0  502  0.65607797822E+03 -0.25822267280E+03  0.21648574957E+03  0.73756723898E+03  0.46999998093E+01 0. -1.
</event>
<event>
 5   0  0.5118981E-06  0.2000580E+04  0.7818609E-02  0.8606349E-01
        2   -1    0    0  501    0  0.00000000000E+00  0.00000000000E+00  0.20319729921E+04  0.20319729921E+04  0.25500000920E-02 0.  1.
       -2   -1    0    0    0  501  0.00000000000E+00  0.00000000000E+00 -0.49241811992E+03  0.49241811993E+03  0.25500000920E-02 0. -1.
    10030    2    1    2    0    0  0.00000000000E+00  0.00000000000E+00  0.15395548721E+04  0.25243911120E+04  0.20005802363E+04 0.  0.
        4    1    3    3  502    0  0.57680665757E+03  0.49754658844E+03  0.15878480431E+04  0.17611137239E+04  0.12699999809E+01 0. -1.
       -4    1    3    3    0  502 -0.57680665757E+03 -0.49754658844E+03 -0.48293170911E+02  0.76327738807E+03  0.12699999809E+01 0.  1.
</event>
<event>
 5   0  0.2311520E-06  0.2000329E+04  0.7818609E-02  0.8606467E-01
       -1   -1    0    0    0  501  0.00000000000E+00  0.00000000000E+00  0.40843774510E+03  0.40843774513E+03  0.50400001928E-02 0. -1.
        1   -1    0    0  501    0  0.00000000000E+00  0.00000000000E+00 -0.24491598336E+04  0.24491598336E+04  0.50400001928E-02 0.  1.
    10030    2    1    2    0    0  0.00000000000E+00  0.00000000000E+00 -0.20407220885E+04  0.28575975787E+04  0.20003292928E+04 0.  0.
        3    1    3    3  502    0  0.20606368441E+03 -0.27967589223E+03 -0.23602047751E+04  0.23856335505E+04  0.10100000352E+00 0.  1.
       -3    1    3    3    0  502 -0.20606368441E+03  0.27967589223E+03  0.31948268658E+03  0.47196402824E+03  0.10100000352E+00 0. -1.
</event>
<event>
 5   0  0.2386776E-06  0.1999394E+04  0.7818609E-02  0.8606904E-01
       -1   -1    0    0    0  501  0.00000000000E+00  0.00000000000E+00  0.57745099082E+03  0.57745099084E+03  0.50400001928E-02 0. -1.
        1   -1    0    0  501    0  0.00000000000E+00  0.00000000000E+00 -0.17306997982E+04  0.17306997982E+04  0.50400001928E-02 0.  1.
    10030    2    1    2    0    0  0.00000000000E+00  0.00000000000E+00 -0.11532488074E+04  0.23081507891E+04  0.19993942216E+04 0.  0.
        2    1    3    3  502    0 -0.76298675770E+02 -0.36615939875E+03  0.49363417011E+03  0.61932938500E+03  0.25500000920E-02 0. -1.
       -2    1    3    3    0  502  0.76298675770E+02  0.36615939875E+03 -0.16468829775E+04  0.16888214041E+04  0.25500000920E-02 0.  1.
</event>
<event>
 5   0  0.5118981E-06  0.2000141E+04  0.7818609E-02  0.8606555E-01
        2   -1    0    0  501    0  0.00000000000E+00  0.00000000000E+00  0.14561949948E+04  0.14561949948E+04  0.25500000920E-02 0. -1.
       -2   -1    0    0    0  501  0.00000000000E+00  0.00000000000E+00 -0.68681775353E+03  0.68681775354E+03  0.25500000920E-02 0.  1.
    10030    2    1    2    0    0  0.00000000000E+00  0.00000000000E+00  0.76937724123E+03  0.21430127483E+04  0.20001405701E+04 0.  0.
        4    1    3    3  502    0 -0.91675257295E+03  0.13191139211E+03 -0.19488164716E+02  0.92640018180E+03  0.12699999809E+01 0. -1.
       -4    1    3    3    0  502  0.91675257295E+03 -0.13191139211E+03  0.78886540594E+03  0.12166125665E+04  0.12699999809E+01 0.  1.
</event>
<event>
 5   0  0.2313821E-06  0.1999951E+04  0.7818609E-02  0.8606644E-01
       -1   -1    0    0    0  501  0.00000000000E+00  0.00000000000E+00  0.58516923147E+03  0.58516923149E+03  0.50400001928E-02 0.  1.
        1   -1    0    0  501    0  0.00000000000E+00  0.00000000000E+00 -0.17088233499E+04  0.17088233499E+04  0.50400001928E-02 0. -1.
    10030    2    1    2    0    0  0.00000000000E+00  0.00000000000E+00 -0.11236541185E+04  0.22939925814E+04  0.19999508458E+04 0.  0.
        1    1    3    3  502    0  0.76987369270E+03 -0.39739765117E+03 -0.11345593096E+04  0.14275346661E+04  0.50400001928E-02 0. -1.
       -1    1    3    3    0  502 -0.76987369270E+03  0.39739765117E+03  0.10905191116E+02  0.86645791536E+03  0.50400001928E-02 0.  1.
</event>
<event>
 5   0  0.4956214E-06  0.2000001E+04  0.7818609E-02  0.8606620E-01
       -2   -1    0    0    0  501  0.00000000000E+00  0.00000000000E+00  0.62688581392E+03  0.62688581393E+03  0.25500000920E-02 0. -1.
        2   -1    0    0  501    0  0.00000000000E+00  0.00000000000E+00 -0.15951880454E+04  0.15951880454E+04  0.25500000920E-02 0.  1.
    10030    2    1    2    0    0  0.00000000000E+00  0.00000000000E+00 -0.96830223146E+03  0.22220738593E+04  0.20000007562E+04 0.  0.
        1    1    3    3  502    0  0.69217149674E+03 -0.20484194417E+02 -0.12857004518E+04  0.14603241541E+04  0.50400001928E-02 0.  1.
       -1    1    3    3    0  502 -0.69217149674E+03  0.20484194417E+02  0.31739822036E+03  0.76174970524E+03  0.50400001928E-02 0. -1.
</event>
<event>
 5   0  0.2313821E-06  0.2001305E+04  0.7818609E-02  0.8606011E-01
       -1   -1    0    0    0  501  0.00000000000E+00  0.00000000000E+00  0.65961283929E+03  0.65961283930E+03  0.50400001928E-02 0. -1.
        1   -1    0    0  501    0  0.00000000000E+00  0.00000000000E+00 -0.15180202226E+04  0.15180202226E+04  0.50400001928E-02 0.  1.
    10030    2    1    2    0    0  0.00000000000E+00  0.00000000000E+00 -0.85840738328E+03  0.21776330619E+04  0.20013052032E+04 0.  0.
        1    1    3    3  502    0 -0.61157060161E+03  0.11507198659E+03 -0.12818553511E+04  0.14249257188E+04  0.50400001928E-02 0.  1.
       -1    1    3    3    0  502  0.61157060161E+03 -0.11507198659E+03  0.42344796784E+03  0.75270734309E+03  0.50400001928E-02 0. -1.
</event>
<event>
 5   0  0.2313821E-06  0.2000585E+04  0.7818609E-02  0.8606347E-01
        1   -1    0    0  501    0  0.00000000000E+00  0.00000000000E+00  0.10295731412E+04  0.10295731412E+04  0.50400001928E-02 0.  1.
       -1   -1    0    0    0  501  0.00000000000E+00  0.00000000000E+00 -0.97184432050E+03  0.97184432051E+03  0.50400001928E-02 0. -1.
    10030    2    1    2    0    0  0.00000000000E+00  0.00000000000E+00  0.57728820701E+02  0.20014174617E+04  0.20005847244E+04 0.  0.
        1    1    3    3  502    0  0.69156011094E+03  0.44892859569E+03 -0.53775684956E+03  0.98436512552E+03  0.50400001928E-02 0. -1.
       -1    1    3    3    0  502 -0.69156011094E+03 -0.44892859569E+03  0.59548567026E+03  0.10170523362E+04  0.50400001928E-02 0.  1.
</event>
<event>
 5   0  0.5251252E-06  0.2001373E+04  0.7818609E-02  0.8605979E-01
        2   -1    0    0  501    0  0.00000000000E+00  0.00000000000E+00  0.18838565204E+04  0.18838565204E+04  0.25500000920E-02 0. -1.
       -2   -1    0    0    0  501  0.00000000000E+00  0.00000000000E+00 -0.53155492144E+03  0.53155492145E+03  0.25500000920E-02 0.  1.
    10030    2    1    2    0    0  0.00000000000E+00  0.00000000000E+00  0.13523015990E+04  0.24154114419E+04  0.20013727336E+04 0.  0.
        5    1    3    3  502    0 -0.66921874735E+02  0.40003092946E+02  0.18801719210E+04  0.18817936464E+04  0.46999998093E+01 0. -1.
       -5    1    3    3    0  502  0.66921874735E+02 -0.40003092946E+02 -0.52787032207E+03  0.53361779551E+03  0.46999998093E+01 0.  1.
</event>
<event>
 5   0  0.2379743E-06  0.2000367E+04  0.7818609E-02  0.8606449E-01
        1   -1    0    0  501    0  0.00000000000E+00  0.00000000000E+00  0.17151268122E+04  0.17151268122E+04  0.50400001928E-02 0. -1.
       -1   -1    0    0    0  501  0.00000000000E+00  0.00000000000E+00 -0.58326129790E+03  0.58326129792E+03  0.50400001928E-02 0.  1.
    10030    2    1    2    0    0  0.00000000000E+00  0.00000000000E+00  0.11318655143E+04  0.22983881101E+04  0.20003670569E+04 0.  0.
        5    1    3    3  502    0 -0.37082765457E+02  0.34320643957E+03  0.16444964416E+04  0.16803441398E+04  0.46999998093E+01 0. -1.
       -5    1    3    3    0  502  0.37082765457E+02 -0.34320643957E+03 -0.51263092730E+03  0.61804397035E+03  0.46999998093E+01 0.  1.
</event>
<event>
 5   0  0.5030137E-06  0.1998301E+04  0.7818609E-02  0.8607415E-01
       -2   -1    0    0    0  501  0.00000000000E+00  0.00000000000E+00  0.13450262075E+04  0.13450262075E+04  0.25500000920E-02 0.  1.
        2   -1    0    0  501    0  0.00000000000E+00  0.00000000000E+00 -0.74221762110E+03  0.74221762110E+03  0.25500000920E-02 0. -1.
    10030    2    1    2    0    0  0.00000000000E+00  0.00000000000E+00  0.60280858638E+03  0.20872438286E+04  0.19983014307E+04 0.  0.
        3    1    3    3  502    0 -0.24238139012E+03 -0.24699804222E+03 -0.67762183785E+03  0.76087327228E+03  0.10100000352E+00 0. -1.
       -3    1    3    3    0  502  0.24238139012E+03  0.24699804222E+03  0.12804304242E+04  0.13263705563E+04  0.10100000352E+00 0.  1.
</event>
<event>
 5   0  0.5118981E-06  0.2000851E+04  0.7818609E-02  0.8606223E-01
       -2   -1    0    0    0  501  0.00000000000E+00  0.00000000000E+00  0.43635167284E+03  0.43635167285E+03  0.25500000920E-02 0. -1.
        2   -1    0    0  501    0  0.00000000000E+00  0.00000000000E+00 -0.22936793625E+04  0.22936793625E+04  0.25500000920E-02 0.  1.
    10030    2    1    2    0    0  0.00000000000E+00  0.00000000000E+00 -0.18573276896E+04  0.27300310353E+04  0.20008506459E+04 0.  0.
        4    1    3    3  502    0 -0.33896377351E+03 -0.88856229046E+03 -0.13523200494E+04  0.16532424241E+04  0.12699999809E+01 0.  1.
       -4    1    3    3    0  502  0.33896377351E+03  0.88856229046E+03 -0.50500764025E+03  0.10767886113E+04  0.12699999809E+01 0. -1.
</event>
<event>
 5   0  0.5030137E-06  0.2006065E+04  0.7818609E-02  0.8603790E-01
       -2   -1    0    0    0  501  0.00000000000E+00  0.00000000000E+00  0.84373489700E+03  0.84373489701E+03  0.25500000920E-02 0.  1.
        2   -1    0    0  501    0  0.00000000000E+00  0.00000000000E+00 -0.11924055272E+04  0.11924055272E+04  0.25500000920E-02 0. -1.
    10030    2    1    2    0    0  0.00000000000E+00  0.00000000000E+00 -0.34867063015E+03  0.20361404242E+04  0.20060649587E+04 0.  0.
        3    1    3    3  502    0  0.19572283355E+03 -0.98217089006E+03 -0.23091200379E+03  0.10277584583E+04  0.10100000352E+00 0.  1.
       -3    1    3    3    0  502 -0.19572283355E+03  0.98217089006E+03 -0.11775862636E+03  0.10083819659E+04  0.10100000352E+00 0. -1.
</event>
<event>
 5   0  0.4956214E-06  0.1999175E+04  0.7818609E-02  0.8607006E-01
       -2   -1    0    0    0  501  0.00000000000E+00  0.00000000000E+00  0.55214998080E+03  0.55214998081E+03  0.25500000920E-02 0.  1.
        2   -1    0    0  501    0  0.00000000000E+00  0.00000000000E+00 -0.18096082152E+04  0.18096082152E+04  0.25500000920E-02 0. -1.
    10030    2    1    2    0    0  0.00000000000E+00  0.00000000000E+00 -0.12574582344E+04  0.23617581960E+04  0.19991749711E+04 0.  0.
        1    1    3    3  502    0  0.20615838317E+03 -0.84694996980E+03 -0.12066933835E+04  0.14886015088E+04  0.50400001928E-02 0. -1.
       -1    1    3    3    0  502 -0.20615838317E+03  0.84694996980E+03 -0.50764850927E+02  0.87315668720E+03  0.50400001928E-02 0.  1.
</event>
<event>
 5   0  0.2386776E-06  0.2000455E+04  0.7818609E-02  0.8606408E-01
        1   -1    0    0  501    0  0.00000000000E+00  0.00000000000E+00  0.14964035265E+04  0.14964035265E+04  0.50400001928E-02 0. -1.
       -1   -1    0    0    0  501  0.00000000000E+00  0.00000000000E+00 -0.66857306438E+03  0.66857306440E+03  0.50400001928E-02 0.  1.
    10030    2    1    2    0    0  0.00000000000E+00  0.00000000000E+00  0.82783046208E+03  0.21649765909E+04  0.20004550395E+04 0.  0.
        2    1    3    3  502    0 -0.71368867319E+03 -0.10857756316E+03 -0.33534845624E+03  0.79598944502E+03  0.25500000920E-02 0.  1.
       -2    1    3    3    0  502  0.71368867319E+03  0.10857756316E+03  0.11631789183E+04  0.13689871458E+04  0.25500000920E-02 0. -1.
</event>
<event>
 5   0  0.2356996E-06  0.1992431E+04  0.7818609E-02  0.8610168E-01
        1   -1    0    0  501    0  0.00000000000E+00  0.00000000000E+00  0.14551685854E+04  0.14551685854E+04  0.50400001928E-02 0.  1.
       -1   -1    0    0    0  501  0.00000000000E+00  0.00000000000E+00 -0.68201380903E+03  0.68201380905E+03  0.50400001928E-02 0. -1.
    10030    2    1    2    0    0  0.00000000000E+00  0.00000000000E+00  0.77315477638E+03  0.21371823945E+04  0.19924307463E+04 0.  0.
        4    1    3    3  502    0 -0.76660594559E+03 -0.53872386282E+03  0.74959540908E+03  0.11999178999E+04  0.12699999809E+01 0.  1.
       -4    1    3    3    0  502  0.76660594559E+03  0.53872386282E+03  0.23559367299E+02  0.93726449462E+03  0.12699999809E+01 0. -1.
</event>
<event>
 5   0  0.5251252E-06  0.1999297E+04  0.7818609E-02  0.8606949E-01
       -2   -1    0    0    0  501  0.00000000000E+00  0.00000000000E+00  0.83033934713E+03  0.83033934713E+03  0.25500000920E-02 0. -1.
        2   -1    0    0  501    0  0.00000000000E+00  0.00000000000E+00 -0.12034808295E+04  0.12034808295E+04  0.25500000920E-02 0.  1.
    10030    2    1    2    0    0  0.00000000000E+00  0.00000000000E+00 -0.37314148234E+03  0.20338201766E+04  0.19992973628E+04 0.  0.
        5    1    3    3  502    0  0.12436371761E+01  0.54171732368E+03  0.66806483344E+03  0.86011157246E+03  0.46999998093E+01 0. -1.
       -5    1    3    3    0  502 -0.12436371761E+01 -0.54171732368E+03 -0.10412063158E+04  0.11737086041E+04  0.46999998093E+01 0.  1.
</event>
<event>
 5   0  0.2313821E-06  0.2001497E+04  0.7818609E-02  0.8605921E-01
       -1   -1    0    0    0  501  0.00000000000E+00  0.00000000000E+00  0.34485344077E+03  0.34485344081E+03  0.50400001928E-02 0.  1.
        1   -1    0    0  501    0  0.00000000000E+00  0.00000000000E+00 -0.29041248987E+04  0.29041248987E+04  0.50400001928E-02 0. -1.
    10030    2    1    2    0    0  0.00000000000E+00  0.00000000000E+00 -0.25592714579E+04  0.32489783395E+04  0.20014969036E+04 0.  0.
        1    1    3    3  502    0 -0.96497166711E+03 -0.26037791512E+03 -0.11979786332E+04  0.15601665881E+04  0.50400001928E-02 0.  1.
       -1    1    3    3    0  502  0.96497166711E+03  0.26037791512E+03 -0.13612928248E+04  0.16888117514E+04  0.50400001928E-02 0. -1.
</event>
<event>
 5   0  0.2356996E-06  0.1999911E+04  0.7818609E-02  0.8606662E-01
       -1   -1    0    0    0  501  0.00000000000E+00  0.00000000000E+00  0.82542401389E+03  0.82542401390E+03  0.50400001928E-02 0. -1.
        1   -1    0    0  501    0  0.00000000000E+00  0.00000000000E+00 -0.12113905364E+04  0.12113905364E+04  0.50400001928E-02 0.  1.
    10030    2    1    2    0    0  0.00000000000E+00  0.00000000000E+00 -0.38596652254E+03  0.20368145503E+04  0.19999108370E+04 0.  0.
        4    1    3    3  502    0 -0.27350549126E+03 -0.21041897851E+03  0.76285930721E+03  0.83727972373E+03  0.12699999809E+01 0. -1.
       -4    1    3    3    0  502  0.27350549126E+03  0.21041897851E+03 -0.11488258298E+04  0.11995348266E+04  0.12699999809E+01 0.  1.
</event>
<event>
 5   0  0.2379743E-06  0.2001268E+04  0.7818609E-02  0.8606028E-01
        1   -1    0    0  501    0  0.00000000000E+00  0.00000000000E+00  0.22960946688E+04  0.22960946689E+04  0.50400001928E-02 0.  1.
       -1   -1    0    0    0  501  0.00000000000E+00  0.00000000000E+00 -0.43607454176E+03  0.43607454179E+03  0.50400001928E-02 0. -1.
    10030    2    1    2    0    0  0.00000000000E+00  0.00000000000E+00  0.18600201271E+04  0.27321692106E+04  0.20012680286E+04 0.  0.
        5    1    3    3  502    0  0.75912559262E+03  0.55541530608E+03  0.46405516021E+03  0.10488694434E+04  0.46999998093E+01 0. -1.
       -5    1    3    3    0  502 -0.75912559262E+03 -0.55541530608E+03  0.13959649669E+04  0.16832997672E+04  0.46999998093E+01 0.  1.
</event>
<event>
 5   0  0.5118981E-06  0.2000190E+04  0.7818609E-02  0.8606532E-01
       -2   -1    0    0    0  501  0.00000000000E+00  0.00000000000E+00  0.17476325655E+04  0.17476325655E+04  0.25500000920E-02 0.  1.
        2   -1    0    0  501    0  0.00000000000E+00  0.00000000000E+00 -0.57231128312E+03  0.57231128312E+03  0.25500000920E-02 0. -1.
    10030    2    1    2    0    0  0.00000000000E+00  0.00000000000E+00  0.11753212824E+04  0.23199438486E+04  0.20001898270E+04 0.  0.
        4    1    3    3  502    0 -0.84854596030E+02 -0.83401930400E+03 -0.44862673060E+02  0.83952532674E+03  0.12699999809E+01 0. -1.
       -4    1    3    3    0  502  0.84854596030E+02  0.83401930400E+03  0.12201839554E+04  0.14804185219E+04  0.12699999809E+01 0.  1.
</event>
<event>
 5   0  0.2313821E-06  0.1999695E+04  0.7818609E-02  0.8606763E-01
        1   -1    0    0  501    0  0.00000000000E+00  0.00000000000E+00  0.54558372961E+03  0.54558372963E+03  0.50400001928E-02 0. -1.
       -1   -1    0    0    0  501  0.00000000000E+00  0.00000000000E+00 -0.18323407452E+04  0.18323407452E+04  0.50400001928E-02 0.  1.
    10030    2    1    2    0    0  0.00000000000E+00  0.00000000000E+00 -0.12867570155E+04  0.23779244748E+04  0.19996952745E+04 0.  0.
        1    1    3    3  502    0 -0.66847690220E+02  0.14904645565E+03  0.52960876145E+03  0.55422820197E+03  0.50400001928E-02 0. -1.
       -1    1    3    3    0  502  0.66847690220E+02 -0.14904645565E+03 -0.18163657770E+04  0.18236962728E+04  0.50400001928E-02 0.  1.
</event>
<event>
 5   0  0.5129100E-06  0.1999844E+04  0.7818609E-02  0.8606694E-01
       -2   -1    0    0    0  501  0.00000000000E+00  0.00000000000E+00  0.49165435434E+03  0.49165435435E+03  0.25500000920E-02 0.  1.
        2   -1    0    0  501    0  0.00000000000E+00  0.00000000000E+00 -0.20336323681E+04  0.20336323681E+04  0.25500000920E-02 0. -1.
    10030    2    1    2    0    0  0.00000000000E+00  0.00000000000E+00 -0.15419780137E+04  0.25252867224E+04  0.19998442028E+04 0.  0.
        2    1    3    3  502    0  0.17869278868E+03 -0.81752547345E+03 -0.14621197465E+04  0.16846581747E+04  0.25500000920E-02 0. -1.
       -2    1    3    3    0  502 -0.17869278868E+03  0.81752547345E+03 -0.79858267281E+02  0.84062854777E+03  0.25500000920E-02 0.  1.
</event>
<event>
 5   0  0.5251252E-06  0.2000092E+04  0.7818609E-02  0.8606578E-01
        2   -1    0    0  501    0  0.00000000000E+00  0.00000000000E+00  0.16295891808E+04  0.16295891808E+04  0.25500000920E-02 0. -1.
       -2   -1    0    0    0  501  0.00000000000E+00  0.00000000000E+00 -0.61370797543E+03  0.61370797543E+03  0.25500000920E-02 0.  1.
    10030    2    1    2    0    0  0.00000000000E+00  0.00000000000E+00  0.10158812053E+04  0.22432971562E+04  0.20000918748E+04 0.  0.
        5    1    3    3  502    0 -0.98082503415E+03  0.15605426669E+03  0.63921588465E+03  0.11810968288E+04  0.46999998093E+01 0. -1.
       -5    1    3    3    0  502  0.98082503415E+03 -0.15605426669E+03  0.37666532070E+03  0.10622003274E+04  0.46999998093E+01 0.  1.
</event>
<event>
 5   0  0.2311520E-06  0.1993779E+04  0.7818609E-02  0.8609535E-01
        1   -1    0    0  501    0  0.00000000000E+00  0.00000000000E+00  0.57088985123E+03  0.57088985125E+03  0.50400001928E-02 0. -1.
       -1   -1    0    0    0  501  0.00000000000E+00  0.00000000000E+00 -0.17407713043E+04  0.17407713043E+04  0.50400001928E-02 0.  1.
    10030    2    1    2    0    0  0.00000000000E+00  0.00000000000E+00 -0.11698814531E+04  0.23116611556E+04  0.19937789957E+04 0.  0.
        3    1    3    3  502    0 -0.50608399862E+03 -0.79101035039E+03 -0.97291106774E+03  0.13521739326E+04  0.10100000352E+00 0.  1.
       -3    1    3    3    0  502  0.50608399862E+03  0.79101035039E+03 -0.19697038533E+03  0.95948722294E+03  0.10100000352E+00 0. -1.
</event>
<event>
 5   0  0.2379743E-06  0.1998009E+04  0.7818609E-02  0.8607552E-01
        1   -1    0    0  501    0  0.00000000000E+00  0.00000000000E+00  0.13876123625E+04  0.13876123626E+04  0.50400001928E-02 0.  1.
       -1   -1    0    0    0  501  0.00000000000E+00  0.00000000000E+00 -0.71922828258E+03  0.71922828260E+03  0.50400001928E-02 0. -1.
    10030    2    1    2    0    0  0.00000000000E+00  0.00000000000E+00  0.66838407996E+03  0.21068406451E+04  0.19980090655E+04 0.  0.
        5    1    3    3  502    0  0.32358099865E+03 -0.43579899585E+03 -0.55015728940E+03  0.77286516324E+03  0.46999998093E+01 0. -1.
       -5    1    3    3    0  502 -0.32358099865E+03  0.43579899585E+03  0.12185413694E+04  0.13339754819E+04  0.46999998093E+01 0.  1.
</event>
<event>
 5   0  0.5129100E-06  0.2000350E+04  0.7818609E-02  0.8606457E-01
        2   -1    0    0  501    0  0.00000000000E+00  0.00000000000E+00  0.14491221675E+04  0.14491221675E+04  0.25500000920E-02 0. -1.
       -2   -1    0    0    0  501  0.00000000000E+00  0.00000000000E+00 -0.69031476811E+03  0.69031476811E+03  0.25500000920E-02 0.  1.
    10030    2    1    2    0    0  0.00000000000E+00  0.00000000000E+00  0.75880739941E+03  0.21394369356E+04  0.20003504023E+04 0.  0.
        2    1    3    3  502    0 -0.88716649579E+03  0.28720292005E+03  0.76621411024E+03  0.12069109210E+04  0.25500000920E-02 0. -1.
       -2    1    3    3    0  502  0.88716649579E+03 -0.28720292005E+03 -0.74067108288E+01  0.93252601461E+03  0.25500000920E-02 0.  1.
</event>
<event>
 5   0  0.2356996E-06  0.1999645E+04  0.7818609E-02  0.8606787E-01
        1   -1    0    0  501    0  0.00000000000E+00  0.00000000000E+00  0.88865561373E+03  0.88865561375E+03  0.50400001928E-02 0.  1.
       -1   -1    0    0    0  501  0.00000000000E+00  0.00000000000E+00 -0.11248958337E+04  0.11248958337E+04  0.50400001928E-02 0. -1.
    10030    2    1    2    0    0  0.00000000000E+00  0.00000000000E+00 -0.23624022000E+03  0.20135514475E+04  0.19996449660E+04 0.  0.
        4    1    3    3  502    0  0.29517747433E+03 -0.42409467243E+03 -0.98002688091E+03  0.11078990625E+04  0.12699999809E+01 0. -1.
       -4    1    3    3    0  502 -0.29517747433E+03  0.42409467243E+03  0.74378666092E+03  0.90565238496E+03  0.12699999809E+01 0.  1.
</event>
<event>
 5   0  0.5030137E-06  0.2000502E+04  0.7818609E-02  0.8606386E-01
        2   -1    0    0  501    0  0.00000000000E+00  0.00000000000E+00  0.94015731015E+03  0.94015731015E+03  0.25500000920E-02 0. -1.
       -2   -1    0    0    0  501  0.00000000000E+00  0.00000000000E+00 -0.10641856883E+04  0.10641856883E+04  0.25500000920E-02 0.  1.
    10030    2    1    2    0    0  0.00000000000E+00  0.00000000000E+00 -0.12402837815E+03  0.20043429984E+04  0.20005018912E+04 0.  0.
        3    1    3    3  502    0  0.63429285634E+03  0.15354601906E+02 -0.83676390844E+03  0.10501128702E+04  0.10100000352E+00 0.  1.
       -3    1    3    3    0  502 -0.63429285634E+03 -0.15354601906E+02  0.71273553029E+03  0.95423012829E+03  0.10100000352E+00 0. -1.
</event>
<event>
 5   0  0.5251252E-06  0.1999757E+04  0.7818609E-02  0.8606734E-01
        2   -1    0    0  501    0  0.00000000000E+00  0.00000000000E+00  0.10306578920E+04  0.10306578920E+04  0.25500000920E-02 0. -1.
       -2   -1    0    0    0  501  0.00000000000E+00  0.00000000000E+00 -0.97001789272E+03  0.97001789272E+03  0.25500000920E-02 0.  1.
    10030    2    1    2    0    0  0.00000000000E+00  0.00000000000E+00  0.60639999270E+02  0.20006757847E+04  0.19997565817E+04 0.  0.
        5    1    3    3  502    0 -0.30864629307E+03  0.10757791715E+03  0.97568765722E+03  0.10289917575E+04  0.46999998093E+01 0. -1.
       -5    1    3    3    0  502  0.30864629307E+03 -0.10757791715E+03 -0.91504765795E+03  0.97168402725E+03  0.46999998093E+01 0.  1.
</event>
<event>
 5   0  0.4956214E-06  0.2007402E+04  0.7818609E-02  0.8603168E-01
       -2   -1    0    0    0  501  0.00000000000E+00  0.00000000000E+00  0.13936290484E+04  0.13936290484E+04  0.25500000920E-02 0. -1.
        2   -1    0    0  501    0  0.00000000000E+00  0.00000000000E+00 -0.72287232299E+03  0.72287232299E+03  0.25500000920E-02 0.  1.
    10030    2    1    2    0    0  0.00000000000E+00  0.00000000000E+00  0.67075672545E+03  0.21165013714E+04  0.20074021696E+04 0.  0.
        1    1    3    3  502    0 -0.78781726520E+03 -0.16845683841E+03  0.96656432401E+03  0.12582846825E+04  0.50400001928E-02 0. -1.
       -1    1    3    3    0  502  0.78781726520E+03  0.16845683841E+03 -0.29580759856E+03  0.85821668893E+03  0.50400001928E-02 0.  1.
</event>
<event>
 5   0  0.2313821E-06  0.2000192E+04  0.7818609E-02  0.8606531E-01
       -1   -1    0    0    0  501  0.00000000000E+00  0.00000000000E+00  0.11293749038E+04  0.11293749038E+04  0.50400001928E-02 0.  1.
        1   -1    0    0  501    0  0.00000000000E+00  0.00000000000E+00 -0.88561521808E+03  0.88561521809E+03  0.50400001928E-02 0. -1.
    10030    2    1    2    0    0  0.00000000000E+00  0.00000000000E+00  0.24375968574E+03  0.20149901219E+04  0.20001915926E+04 0.  0.
        1    1    3    3  502    0  0.64338351896E+03  0.94447173186E+02 -0.64356341723E+03  0.91489698492E+03  0.50400001928E-02 0. -1.
       -1    1    3    3    0  502 -0.64338351896E+03 -0.94447173186E+02  0.88732310296E+03  0.11000931370E+04  0.50400001928E-02 0.  1.
</event>
<event>
 5   0  0.4956214E-06  0.1999665E+04  0.7818609E-02  0.8606777E-01
        2   -1    0    0  501    0  0.00000000000E+00  0.00000000000E+00  0.13166978375E+04  0.13166978375E+04  0.25500000920E-02 0. -1.
       -2   -1    0    0    0  501  0.00000000000E+00  0.00000000000E+00 -0.75922103405E+03  0.75922103406E+03  0.25500000920E-02 0.  1.
    10030    2    1    2    0    0  0.00000000000E+00  0.00000000000E+00  0.55747680350E+03  0.20759188716E+04  0.19996646657E+04 0.  0.
        1    1    3    3  502    0  0.74658652685E+03  0.20397985977E+03  0.93585760878E+03  0.12144252506E+04  0.50400001928E-02 0. -1.
       -1    1    3    3    0  502 -0.74658652685E+03 -0.20397985977E+03 -0.37838080529E+03  0.86149362104E+03  0.50400001928E-02 0.  1.
</event>
<event>
 5   0  0.2313821E-06  0.2001041E+04  0.7818609E-02  0.8606134E-01
        1   -1    0    0  501    0  0.00000000000E+00  0.00000000000E+00  0.11686063748E+04  0.11686063748E+04  0.50400001928E-02 0. -1.
       -1   -1    0    0    0  501  0.00000000000E+00  0.00000000000E+00 -0.85661081771E+03  0.85661081772E+03  0.50400001928E-02 0.  1.
    10030    2    1    2    0    0  0.00000000000E+00  0.00000000000E+00  0.31199555709E+03  0.20252171925E+04  0.20010405916E+04 0.  0.
        1    1    3    3  502    0 -0.72169361634E+03 -0.22908718684E+03  0.81790115469E+03  0.11145783570E+04  0.50400001928E-02 0. -1.
       -1    1    3    3    0  502  0.72169361634E+03  0.22908718684E+03 -0.50590559760E+03  0.91063883552E+03  0.50400001928E-02 0.  1.
</event>
<event>
 5   0  0.5118981E-06  0.2001215E+04  0.7818609E-02  0.8606053E-01
        2   -1    0    0  501    0  0.00000000000E+00  0.00000000000E+00  0.94138276964E+03  0.94138276965E+03  0.25500000920E-02 0.  1.
       -2   -1    0    0    0  501  0.00000000000E+00  0.00000000000E+00 -0.10635582229E+04  0.10635582229E+04  0.25500000920E-02 0. -1.
    10030    2    1    2    0    0  0.00000000000E+00  0.00000000000E+00 -0.12217545325E+03  0.20049409925E+04  0.20012150165E+04 0.  0.
        4    1    3    3  502    0 -0.46516563058E+03  0.44100041521E+03  0.70868736777E+03  0.95556257159E+03  0.12699999809E+01 0.  1.
       -4    1    3    3    0  502  0.46516563058E+03 -0.44100041521E+03 -0.83086282102E+03  0.10493784209E+04  0.12699999809E+01 0. -1.
</event>
<event>
 5   0  0.2313821E-06  0.2000323E+04  0.7818609E-02  0.8606470E-01
       -1   -1    0    0    0  501  0.00000000000E+00  0.00000000000E+00  0.10994719138E+04  0.10994719138E+04  0.50400001928E-02 0.  1.
        1   -1    0    0  501    0  0.00000000000E+00  0.00000000000E+00 -0.90982124634E+03  0.90982124635E+03  0.50400001928E-02 0. -1.
    10030    2    1    2    0    0  0.00000000000E+00  0.00000000000E+00  0.18965066750E+03  0.20092931602E+04  0.20003228809E+04 0.  0.
        1    1    3    3  502    0  0.10336181400E+03 -0.98798326499E+03 -0.22007519724E+02  0.99361910582E+03  0.50400001928E-02 0. -1.
       -1    1    3    3    0  502 -0.10336181400E+03  0.98798326499E+03  0.21165818722E+03  0.10156740544E+04  0.50400001928E-02 0.  1.
</event>
<event>
 5   0  0.5251252E-06  0.2000069E+04  0.7818609E-02  0.8606588E-01
       -2   -1    0    0    0  501  0.00000000000E+00  0.00000000000E+00  0.58765836233E+03  0.58765836234E+03  0.25500000920E-02 0. -1.
        2   -1    0    0  501    0  0.00000000000E+00  0.00000000000E+00 -0.17017872010E+04  0.17017872010E+04  0.25500000920E-02 0.  1.
    10030    2    1    2    0    0  0.00000000000E+00  0.00000000000E+00 -0.11141288387E+04  0.22894455634E+04  0.20000694784E+04 0.  0.
        5    1    3    3  502    0  0.88060179856E+03 -0.24512738820E+03 -0.92796417810E+02  0.91879281083E+03  0.46999998093E+01 0. -1.
       -5    1    3    3    0  502 -0.88060179856E+03  0.24512738820E+03 -0.10213324209E+04  0.13706527525E+04  0.46999998093E+01 0.  1.
</event>
<event>
 5   0  0.5251252E-06  0.2001299E+04  0.7818609E-02  0.8606013E-01
       -2   -1    0    0    0  501  0.00000000000E+00  0.00000000000E+00  0.72629786269E+03  0.72629786270E+03  0.25500000920E-02 0.  1.
        2   -1    0    0  501    0  0.00000000000E+00  0.00000000000E+00 -0.13786352918E+04  0.13786352918E+04  0.25500000920E-02 0. -1.
    10030    2    1    2    0    0  0.00000000000E+00  0.00000000000E+00 -0.65233742912E+03  0.21049331545E+04  0.20012994437E+04 0.  0.
        5    1    3    3  502    0 -0.30297241651E+03  0.16409015478E+03  0.66192544531E+03  0.74624744503E+03  0.46999998093E+01 0.  1.
       -5    1    3    3    0  502  0.30297241651E+03 -0.16409015478E+03 -0.13142628744E+04  0.13586857095E+04  0.46999998093E+01 0. -1.
</event>
<event>
 5   0  0.5129100E-06  0.1999721E+04  0.7818609E-02  0.8606751E-01
        2   -1    0    0  501    0  0.00000000000E+00  0.00000000000E+00  0.24632700290E+04  0.24632700290E+04  0.25500000920E-02 0.  1.
       -2   -1    0    0    0  501  0.00000000000E+00  0.00000000000E+00 -0.40585100092E+03  0.40585100093E+03  0.25500000920E-02 0. -1.
    10030    2    1    2    0    0  0.00000000000E+00  0.00000000000E+00  0.20574190281E+04  0.28691210299E+04  0.19997205873E+04 0.  0.
        2    1    3    3  502    0  0.52522188093E+03  0.43966747698E+03 -0.16359075068E+02  0.68515190569E+03  0.25500000920E-02 0. -1.
       -2    1    3    3    0  502 -0.52522188093E+03 -0.43966747698E+03  0.20737781031E+04  0.21839691242E+04  0.25500000920E-02 0.  1.
</event>
<event>
 5   0  0.5129100E-06  0.1999892E+04  0.7818609E-02  0.8606671E-01
       -2   -1    0    0    0  501  0.00000000000E+00  0.00000000000E+00  0.39011765965E+03  0.39011765966E+03  0.25500000920E-02 0.  1.
        2   -1    0    0  501    0  0.00000000000E+00  0.00000000000E+00 -0.25630534350E+04  0.25630534350E+04  0.25500000920E-02 0. -1.
    10030    2    1    2    0    0  0.00000000000E+00  0.00000000000E+00 -0.21729357753E+04  0.29531710946E+04  0.19998924047E+04 0.  0.
        2    1    3    3  502    0 -0.60406498259E+03 -0.78530486188E+03 -0.12861956480E+04  0.16235447250E+04  0.25500000920E-02 0. -1.
       -2    1    3    3    0  502  0.60406498259E+03  0.78530486188E+03 -0.88674012733E+03  0.13296263696E+04  0.25500000920E-02 0.  1.
</event>
<event>
 5   0  0.4956214E-06  0.2001256E+04  0.7818609E-02  0.8606034E-01
        2   -1    0    0  501    0  0.00000000000E+00  0.00000000000E+00  0.11984074007E+04  0.11984074007E+04  0.25500000920E-02 0. -1.
       -2   -1    0    0    0  501  0.00000000000E+00  0.00000000000E+00 -0.83548914827E+03  0.83548914828E+03  0.25500000920E-02 0.  1.
    10030    2    1    2    0    0  0.00000000000E+00  0.00000000000E+00  0.36291825238E+03  0.20338965489E+04  0.20012559841E+04 0.  0.
        1    1    3    3  502    0  0.85344554718E+03 -0.18815782009E+01  0.71236176374E+03  0.11116798662E+04  0.50400001928E-02 0. -1.
       -1    1    3    3    0  502 -0.85344554718E+03  0.18815782009E+01 -0.34944351136E+03  0.92221668278E+03  0.50400001928E-02 0.  1.
</event>
<event>
 5   0  0.2379743E-06  0.1999942E+04  0.7818609E-02  0.8606648E-01
       -1   -1    0    0    0  501  0.00000000000E+00  0.00000000000E+00  0.17342917974E+04  0.17342917974E+04  0.50400001928E-02 0. -1.
        1   -1    0    0  501    0  0.00000000000E+00  0.00000000000E+00 -0.57657102323E+03  0.57657102325E+03  0.50400001928E-02 0.  1.
    10030    2    1    2    0    0  0.00000000000E+00  0.00000000000E+00  0.11577207742E+04  0.23108628207E+04  0.19999423954E+04 0.  0.
        5    1    3    3  502    0 -0.20363283222E+03 -0.94334305823E+03  0.88140210908E+03  0.13070019984E+04  0.46999998093E+01 0.  1.
       -5    1    3    3    0  502  0.20363283222E+03  0.94334305823E+03  0.27631866510E+03  0.10038608223E+04  0.46999998093E+01 0. -1.
</event>
<event>
 5   0  0.2311520E-06  0.2000176E+04  0.7818609E-02  0.8606538E-01
        1   -1    0    0  501    0  0.00000000000E+00  0.00000000000E+00  0.60297302050E+03  0.60297302052E+03  0.50400001928E-02 0. -1.
       -1   -1    0    0    0  501  0.00000000000E+00  0.00000000000E+00 -0.16587417017E+04  0.16587417017E+04  0.50400001928E-02 0.  1.
    10030    2    1    2    0    0  0.00000000000E+00  0.00000000000E+00 -0.10557686812E+04  0.22617147223E+04  0.20001764864E+04 0.  0.
        3    1    3    3  502    0  0.43993280011E+03  0.80670645726E+03 -0.97429779102E+03  0.13392432089E+04  0.10100000352E+00 0. -1.
       -3    1    3    3    0  502 -0.43993280011E+03 -0.80670645726E+03 -0.81470890210E+02  0.92247151335E+03  0.10100000352E+00 0.  1.
</event>
<event>
 5   0  0.5030137E-06  0.1999681E+04  0.7818609E-02  0.8606770E-01
       -2   -1    0    0    0  501  0.00000000000E+00  0.00000000000E+00  0.62898129081E+03  0.62898129082E+03  0.25500000920E-02 0. -1.
        2   -1    0    0  501    0  0.00000000000E+00  0.00000000000E+00 -0.15893654797E+04  0.15893654797E+04  0.25500000920E-02 0.  1.
    10030    2    1    2    0    0  0.00000000000E+00  0.00000000000E+00 -0.96038418887E+03  0.22183467705E+04  0.19996811256E+04 0.  0.
        3    1    3    3  502    0 -0.29571891295E+03  0.20184869039E+03 -0.15158099660E+04  0.15575212463E+04  0.10100000352E+00 0.  1.
       -3    1    3    3    0  502  0.29571891295E+03 -0.20184869039E+03  0.55542577718E+03  0.66082552421E+03  0.10100000352E+00 0. -1.
</event>
<event>
 5   0  0.2313821E-06  0.1987702E+04  0.7818609E-02  0.8612392E-01
        1   -1    0    0  501    0  0.00000000000E+00  0.00000000000E+00  0.13543623722E+04  0.13543623722E+04  0.50400001928E-02 0.  1.
       -1   -1    0    0    0  501  0.00000000000E+00  0.00000000000E+00 -0.72930258414E+03  0.72930258416E+03  0.50400001928E-02 0. -1.
    10030    2    1    2    0    0  0.00000000000E+00  0.00000000000E+00  0.62505978807E+03  0.20836649564E+04  0.19877021688E+04 0.  0.
        1    1    3    3  502    0  0.48665738958E+03  0.49954304482E+03 -0.42972314450E+03  0.81917070834E+03  0.50400001928E-02 0. -1.
       -1    1    3    3    0  502 -0.48665738958E+03 -0.49954304482E+03  0.10547829326E+04  0.12644942480E+04  0.50400001928E-02 0.  1.
</event>
<event>
 5   0  0.5129100E-06  0.1999192E+04  0.7818609E-02  0.8606999E-01
       -2   -1    0    0    0  501  0.00000000000E+00  0.00000000000E+00  0.74805397865E+03  0.74805397865E+03  0.25500000920E-02 0. -1.
        2   -1    0    0  501    0  0.00000000000E+00  0.00000000000E+00 -0.13357218093E+04  0.13357218093E+04  0.25500000920E-02 0.  1.
    10030    2    1    2    0    0  0.00000000000E+00  0.00000000000E+00 -0.58766783063E+03  0.20837757879E+04  0.19991918505E+04 0.  0.
        2    1    3    3  502    0 -0.50480593497E+03  0.60336318474E+03  0.34895551515E+03  0.86060799220E+03  0.25500000920E-02 0. -1.
       -2    1    3    3    0  502  0.50480593497E+03 -0.60336318474E+03 -0.93662334578E+03  0.12231677957E+04  0.25500000920E-02 0.  1.
</event>
<event>
 5   0  0.2356996E-06  0.1998953E+04  0.7818609E-02  0.8607110E-01
        1   -1    0    0  501    0  0.00000000000E+00  0.00000000000E+00  0.20613310923E+04  0.20613310923E+04  0.50400001928E-02 0. -1.
       -1   -1    0    0    0  501  0.00000000000E+00  0.00000000000E+00 -0.48461568923E+03  0.48461568926E+03  0.50400001928E-02 0.  1.
    10030    2    1    2    0    0  0.00000000000E+00  0.00000000000E+00  0.15767154031E+04  0.25459467816E+04  0.19989531141E+04 0.  0.
        4    1    3    3  502    0 -0.54003979963E+03 -0.79669702402E+03  0.11314911852E+04  0.14854773807E+04  0.12699999809E+01 0. -1.
       -4    1    3    3    0  502  0.54003979963E+03  0.79669702402E+03  0.44522421787E+03  0.10604694009E+04  0.12699999809E+01 0.  1.
</event>
<event>
 5   0  0.2313821E-06  0.1999543E+04  0.7818609E-02  0.8606835E-01
       -1   -1    0    0    0  501  0.00000000000E+00  0.00000000000E+00  0.71394269053E+03  0.71394269055E+03  0.50400001928E-02 0.  1.
        1   -1    0    0  501    0  0.00000000000E+00  0.00000000000E+00 -0.14000320480E+04  0.14000320480E+04  0.50400001928E-02 0. -1.
    10030    2    1    2    0    0  0.00000000000E+00  0.00000000000E+00 -0.68608935747E+03  0.21139747386E+04  0.19995425949E+04 0.  0.
        1    1    3    3  502    0  0.11027310039E+03 -0.91145222702E+03 -0.76146885212E+03  0.11927867083E+04  0.50400001928E-02 0.  1.
       -1    1    3    3    0  502 -0.11027310039E+03  0.91145222702E+03  0.75379494646E+02  0.92118803023E+03  0.50400001928E-02 0. -1.
</event>
<event>
 5   0  0.2386776E-06  0.1996077E+04  0.7818609E-02  0.8608457E-01
       -1   -1    0    0    0  501  0.00000000000E+00  0.00000000000E+00  0.52126450199E+03  0.52126450202E+03  0.50400001928E-02 0.  1.
        1   -1    0    0  501    0  0.00000000000E+00  0.00000000000E+00 -0.19108929380E+04  0.19108929380E+04  0.50400001928E-02 0. -1.
    10030    2    1    2    0    0  0.00000000000E+00  0.00000000000E+00 -0.13896284360E+04  0.24321574401E+04  0.19960768079E+04 0.  0.
        2    1    3    3  502    0  0.23053745183E+03  0.67168379390E+03  0.15965658321E+03  0.72787145860E+03  0.25500000920E-02 0.  1.
       -2    1    3    3    0  502 -0.23053745183E+03 -0.67168379390E+03 -0.15492850193E+04  0.17042859815E+04  0.25500000920E-02 0. -1.
</event>
<event>
 5   0  0.2379743E-06  0.1997365E+04  0.7818609E-02  0.8607854E-01
        1   -1    0    0  501    0  0.00000000000E+00  0.00000000000E+00  0.66053093453E+03  0.66053093455E+03  0.50400001928E-02 0.  1.
       -1   -1    0    0    0  501  0.00000000000E+00  0.00000000000E+00 -0.15099465532E+04  0.15099465532E+04  0.50400001928E-02 0. -1.
    10030    2    1    2    0    0  0.00000000000E+00  0.00000000000E+00 -0.84941561867E+03  0.21704774878E+04  0.19973646717E+04 0.  0.
        5    1    3    3  502    0 -0.38193284037E+03 -0.70456016700E+03 -0.10722272755E+04  0.13386452644E+04  0.46999998093E+01 0. -1.
       -5    1    3    3    0  502  0.38193284037E+03  0.70456016700E+03  0.22281165682E+03  0.83183222340E+03  0.46999998093E+01 0.  1.
</event>
<event>
 5   0  0.5118981E-06  0.1999876E+04  0.7818609E-02  0.8606679E-01
        2   -1    0    0  501    0  0.00000000000E+00  0.00000000000E+00  0.10269640302E+04  0.10269640302E+04  0.25500000920E-02 0.  1.
       -2   -1    0    0    0  501  0.00000000000E+00  0.00000000000E+00 -0.97362319263E+03  0.97362319263E+03  0.25500000920E-02 0. -1.
    10030    2    1    2    0    0  0.00000000000E+00  0.00000000000E+00  0.53340837560E+02  0.20005872228E+04  0.19998759939E+04 0.  0.
        4    1    3    3  502    0  0.76912635931E+03 -0.53238881428E+03  0.38018140749E+03  0.10097191301E+04  0.12699999809E+01 0.  1.
       -4    1    3    3    0  502 -0.76912635931E+03  0.53238881428E+03 -0.32684056993E+03  0.99086809274E+03  0.12699999809E+01 0. -1.
</event>
<event>
 5   0  0.5118981E-06  0.1999346E+04  0.7818609E-02  0.8606927E-01
       -2   -1    0    0    0  501  0.00000000000E+00  0.00000000000E+00  0.41227388067E+03  0.41227388068E+03  0.25500000920E-02 0. -1.
        2   -1    0    0  501    0  0.00000000000E+00  0.00000000000E+00 -0.24239856804E+04  0.24239856804E+04  0.25500000920E-02 0.  1.
    10030    2    1    2    0    0  0.00000000000E+00  0.00000000000E+00 -0.20117117997E+04  0.28362595610E+04  0.19993458762E+04 0.  0.
        4    1    3    3  502    0 -0.16709280193E+03 -0.93381730317E+03 -0.55858336905E+03  0.11008868031E+04  0.12699999809E+01 0. -1.
       -4    1    3    3    0  502  0.16709280193E+03  0.93381730317E+03 -0.14531284306E+04  0.17353727579E+04  0.12699999809E+01 0.  1.
</event>
<event>
 5   0  0.2386776E-06  0.2000251E+04  0.7818609E-02  0.8606503E-01
        1   -1    0    0  501    0  0.00000000000E+00  0.00000000000E+00  0.14938239989E+04  0.14938239989E+04  0.50400001928E-02 0.  1.
       -1   -1    0    0    0  501  0.00000000000E+00  0.00000000000E+00 -0.66959068758E+03  0.66959068760E+03  0.50400001928E-02 0. -1.
    10030    2    1    2    0    0  0.00000000000E+00  0.00000000000E+00  0.82423331134E+03  0.21634146865E+04  0.20002506229E+04 0.  0.
        2    1    3    3  502    0  0.30333595676E+02 -0.49285997069E+03  0.13527854453E+04  0.14400901148E+04  0.25500000920E-02 0.  1.
       -2    1    3    3    0  502 -0.30333595676E+02  0.49285997069E+03 -0.52855213396E+03  0.72332457172E+03  0.25500000920E-02 0. -1.
</event>
<event>
 5   0  0.5118981E-06  0.1999888E+04  0.7818609E-02  0.8606673E-01
       -2   -1    0    0    0  501  0.00000000000E+00  0.00000000000E+00  0.74068260774E+03  0.74068260775E+03  0.25500000920E-02 0.  1.
        2   -1    0    0  501    0  0.00000000000E+00  0.00000000000E+00 -0.13499549012E+04  0.13499549012E+04  0.25500000920E-02 0. -1.
    10030    2    1    2    0    0  0.00000000000E+00  0.00000000000E+00 -0.60927229346E+03  0.20906375090E+04  0.19998881134E+04 0.  0.
        4    1    3    3  502    0  0.10642236205E+03 -0.73537673016E+02 -0.13411702421E+04  0.13473947972E+04  0.12699999809E+01 0. -1.
       -4    1    3    3    0  502 -0.10642236205E+03  0.73537673016E+02  0.73189794859E+03  0.74324271174E+03  0.12699999809E+01 0.  1.
</event>
<event>
 5   0  0.4956214E-06  0.2001084E+04  0.7818609E-02  0.8606114E-01
        2   -1    0    0  501    0  0.00000000000E+00  0.00000000000E+00  0.18648201755E+04  0.18648201755E+04  0.25500000920E-02 0. -1.
       -2   -1    0    0    0  501  0.00000000000E+00  0.00000000000E+00 -0.53682631850E+03  0.53682631850E+03  0.25500000920E-02 0.  1.
    10030    2    1    2    0    0  0.00000000000E+00  0.00000000000E+00  0.13279938570E+04  0.24016464940E+04  0.20010842556E+04 0.  0.
        1    1    3    3  502    0  0.47593891125E+03  0.53600824628E+03 -0.17377329026E+03  0.73757700869E+03  0.50400001928E-02 0. -1.
       -1    1    3    3    0  502 -0.47593891125E+03 -0.53600824628E+03  0.15017671472E+04  0.16640694853E+04  0.50400001928E-02 0.  1.
</event>
<event>
 5   0  0.5118981E-06  0.1999459E+04  0.7818609E-02  0.8606874E-01
        2   -1    0    0  501    0  0.00000000000E+00  0.00000000000E+00  0.10647953931E+04  0.10647953931E+04  0.25500000920E-02 0. -1.
       -2   -1    0    0    0  501  0.00000000000E+00  0.00000000000E+00 -0.93863967601E+03  0.93863967602E+03  0.25500000920E-02 0.  1.
    10030    2    1    2    0    0  0.00000000000E+00  0.00000000000E+00  0.12615571710E+03  0.20034350691E+04  0.19994591297E+04 0.  0.
        4    1    3    3  502    0 -0.40632913827E+03 -0.64321991065E+03  0.71292157246E+03  0.10426380021E+04  0.12699999809E+01 0. -1.
       -4    1    3    3    0  502  0.40632913827E+03  0.64321991065E+03 -0.58676585536E+03  0.96079706702E+03  0.12699999809E+01 0.  1.
</event>
<event>
 5   0  0.2379743E-06  0.2005670E+04  0.7818609E-02  0.8603974E-01
        1   -1    0    0  501    0  0.00000000000E+00  0.00000000000E+00  0.16099529738E+04  0.16099529738E+04  0.50400001928E-02 0. -1.
       -1   -1    0    0    0  501  0.00000000000E+00  0.00000000000E+00 -0.62466278421E+03  0.62466278423E+03  0.50400001928E-02 0.  1.
    10030    2    1    2    0    0  0.00000000000E+00  0.00000000000E+00  0.98529018958E+03  0.22346157580E+04  0.20056696708E+04 0.  0.
        5    1    3    3  502    0  0.38802598298E+02  0.43529195595E+03 -0.51297640188E+03  0.67390771433E+03  0.46999998093E+01 0.  1.
       -5    1    3    3    0  502 -0.38802598298E+02 -0.43529195595E+03  0.14982665915E+04  0.15607080437E+04  0.46999998093E+01 0. -1.
</event>
<event>
 5   0  0.5251252E-06  0.1999266E+04  0.7818609E-02  0.8606964E-01
        2   -1    0    0  501    0  0.00000000000E+00  0.00000000000E+00  0.21181690227E+04  0.21181690227E+04  0.25500000920E-02 0. -1.
       -2   -1    0    0    0  501  0.00000000000E+00  0.00000000000E+00 -0.47175950701E+03  0.47175950701E+03  0.25500000920E-02 0.  1.
    10030    2    1    2    0    0  0.00000000000E+00  0.00000000000E+00  0.16464095157E+04  0.25899285297E+04  0.19992662393E+04 0.  0.
        5    1    3    3  502    0  0.22942929883E+03  0.31110178756E+03 -0.37100653250E+03  0.53580785972E+03  0.46999998093E+01 0.  1.
       -5    1    3    3    0  502 -0.22942929883E+03 -0.31110178756E+03  0.20174160482E+04  0.20541206700E+04  0.46999998093E+01 0. -1.
</event>
<event>
 5   0  0.2379743E-06  0.1995644E+04  0.7818609E-02  0.8608660E-01
        1   -1    0    0  501    0  0.00000000000E+00  0.00000000000E+00  0.72295630821E+03  0.72295630823E+03  0.50400001928E-02 0.  1.
       -1   -1    0    0    0  501  0.00000000000E+00  0.00000000000E+00 -0.13771906744E+04  0.13771906745E+04  0.50400001928E-02 0. -1.
    10030    2    1    2    0    0  0.00000000000E+00  0.00000000000E+00 -0.65423436624E+03  0.21001469827E+04  0.19956439419E+04 0.  0.
        5    1    3    3  502    0 -0.53816756299E+03 -0.49062881362E+03 -0.10449552016E+04  0.12736932213E+04  0.46999998093E+01 0. -1.
       -5    1    3    3    0  502  0.53816756299E+03  0.49062881362E+03  0.39072083534E+03  0.82645376142E+03  0.46999998093E+01 0.  1.
</event>
<event>
 5   0  0.2311520E-06  0.1999630E+04  0.7818609E-02  0.8606794E-01
        1   -1    0    0  501    0  0.00000000000E+00  0.00000000000E+00  0.15554312463E+04  0.15554312463E+04  0.50400001928E-02 0. -1.
       -1   -1    0    0    0  501  0.00000000000E+00  0.00000000000E+00 -0.64267065928E+03  0.64267065930E+03  0.50400001928E-02 0.  1.
    10030    2    1    2    0    0  0.00000000000E+00  0.00000000000E+00  0.91276058698E+03  0.21981019056E+04  0.19996299903E+04 0.  0.
        3    1    3    3  502    0 -0.98332927864E+03  0.86395633462E+02  0.28177752966E+03  0.10265472528E+04  0.10100000352E+00 0.  1.
       -3    1    3    3    0  502  0.98332927864E+03 -0.86395633462E+02  0.63098305732E+03  0.11715546528E+04  0.10100000352E+00 0. -1.
</event>
<event>
 5   0  0.5251252E-06  0.1998818E+04  0.7818609E-02  0.8607173E-01
        2   -1    0    0  501    0  0.00000000000E+00  0.00000000000E+00  0.21542717161E+04  0.21542717161E+04  0.25500000920E-02 0.  1.
       -2   -1    0    0    0  501  0.00000000000E+00  0.00000000000E+00 -0.46364559571E+03  0.46364559572E+03  0.25500000920E-02 0. -1.
    10030    2    1    2    0    0  0.00000000000E+00  0.00000000000E+00  0.16906261204E+04  0.26179173118E+04  0.19988182440E+04 0.  0.
        5    1    3    3  502    0 -0.33578202281E+03  0.91891652326E+02 -0.38165041696E+03  0.51659730291E+03  0.46999998093E+01 0. -1.
       -5    1    3    3    0  502  0.33578202281E+03 -0.91891652326E+02  0.20722765374E+04  0.21013200089E+04  0.46999998093E+01 0.  1.
</event>
<event>
 5   0  0.2313821E-06  0.1998969E+04  0.7818609E-02  0.8607103E-01
        1   -1    0    0  501    0  0.00000000000E+00  0.00000000000E+00  0.18943107220E+04  0.18943107220E+04  0.50400001928E-02 0.  1.
       -1   -1    0    0    0  501  0.00000000000E+00  0.00000000000E+00 -0.52735216465E+03  0.52735216467E+03  0.50400001928E-02 0. -1.
    10030    2    1    2    0    0  0.00000000000E+00  0.00000000000E+00  0.13669585574E+04  0.24216628867E+04  0.19989685939E+04 0.  0.
        1    1    3    3  502    0  0.61123244366E+03 -0.29734413812E+03 -0.20423811359E+03  0.70974068767E+03  0.50400001928E-02 0. -1.
       -1    1    3    3    0  502 -0.61123244366E+03  0.29734413812E+03  0.15711966710E+04  0.17119221990E+04  0.50400001928E-02 0.  1.
</event>
<event>
 5   0  0.2356996E-06  0.2004634E+04  0.7818609E-02  0.8604457E-01
        1   -1    0    0  501    0  0.00000000000E+00  0.00000000000E+00  0.74457741030E+03  0.74457741032E+03  0.50400001928E-02 0.  1.
       -1   -1    0    0    0  501  0.00000000000E+00  0.00000000000E+00 -0.13492749553E+04  0.13492749553E+04  0.50400001928E-02 0. -1.
    10030    2    1    2    0    0  0.00000000000E+00  0.00000000000E+00 -0.60469754500E+03  0.20938523656E+04  0.20046342829E+04 0.  0.
        4    1    3    3  502    0 -0.55982162854E+03  0.46312687536E+03 -0.10235506320E+04  0.12552068625E+04  0.12699999809E+01 0. -1.
       -4    1    3    3    0  502  0.55982162854E+03 -0.46312687536E+03  0.41885308704E+03  0.83864550311E+03  0.12699999809E+01 0.  1.
</event>
<event>
 5   0  0.2379743E-06  0.2002118E+04  0.7818609E-02  0.8605631E-01
        1   -1    0    0  501    0  0.00000000000E+00  0.00000000000E+00  0.65928290592E+03  0.65928290594E+03  0.50400001928E-02 0.  1.
       -1   -1    0    0    0  501  0.00000000000E+00  0.00000000000E+00 -0.15200133786E+04  0.15200133786E+04  0.50400001928E-02 0. -1.
    10030    2    1    2    0    0  0.00000000000E+00  0.00000000000E+00 -0.86073047266E+03  0.21792962845E+04  0.20021177161E+04 0.  0.
        5    1    3    3  502    0  0.51854896047E+03 -0.85481045336E+03 -0.48482061211E+03  0.11111557278E+04  0.46999998093E+01 0.  1.
       -5    1    3    3    0  502 -0.51854896047E+03  0.85481045336E+03 -0.37590986055E+03  0.10681405567E+04  0.46999998093E+01 0. -1.
</event>
<event>
 5   0  0.2313821E-06  0.1999446E+04  0.7818609E-02  0.8606880E-01
       -1   -1    0    0    0  501  0.00000000000E+00  0.00000000000E+00  0.34293912598E+03  0.34293912602E+03  0.50400001928E-02 0.  1.
        1   -1    0    0  501    0  0.00000000000E+00  0.00000000000E+00 -0.29143528472E+04  0.29143528472E+04  0.50400001928E-02 0. -1.
    10030    2    1    2    0    0  0.00000000000E+00  0.00000000000E+00 -0.25714137212E+04  0.32572919732E+04  0.19994455414E+04 0.  0.
        1    1    3    3  502    0  0.12470867732E+03  0.80045203184E+03 -0.22400437441E+04  0.23820310000E+04  0.50400001928E-02 0.  1.
       -1    1    3    3    0  502 -0.12470867732E+03 -0.80045203184E+03 -0.33136997712E+03  0.87526097322E+03  0.50400001928E-02 0. -1.
</event>
<event>
 5   0  0.2313821E-06  0.1999563E+04  0.7818609E-02  0.8606825E-01
        1   -1    0    0  501    0  0.00000000000E+00  0.00000000000E+00  0.16993712990E+04  0.16993712990E+04  0.50400001928E-02 0. -1.
       -1   -1    0    0    0  501  0.00000000000E+00  0.00000000000E+00 -0.58819568870E+03  0.58819568872E+03  0.50400001928E-02 0.  1.
    10030    2    1    2    0    0  0.00000000000E+00  0.00000000000E+00  0.11111756103E+04  0.22875669877E+04  0.19995628238E+04 0.  0.
        1    1    3    3  502    0  0.71310873907E+03  0.68403013581E+03  0.38155337026E+03  0.10592470320E+04  0.50400001928E-02 0.  1.
       -1    1    3    3    0  502 -0.71310873907E+03 -0.68403013581E+03  0.72962224006E+03  0.12283199557E+04  0.50400001928E-02 0. -1.
</event>
<event>
 5   0  0.5118981E-06  0.2000511E+04  0.7818609E-02  0.8606382E-01
       -2   -1    0    0    0  501  0.00000000000E+00  0.00000000000E+00  0.11903345948E+04  0.11903345948E+04  0.25500000920E-02 0.  1.
        2   -1    0    0  501    0  0.00000000000E+00  0.00000000000E+00 -0.84052947434E+03  0.84052947435E+03  0.25500000920E-02 0. -1.
    10030    2    1    2    0    0  0.00000000000E+00  0.00000000000E+00  0.34980512044E+03  0.20308640691E+04  0.20005112459E+04 0.  0.
        4    1    3    3  502    0  0.76781003601E+03 -0.64075905658E+03  0.15446558721E+03  0.10119118788E+04  0.12699999809E+01 0.  1.
       -4    1    3    3    0  502 -0.76781003601E+03  0.64075905658E+03  0.19533953324E+03  0.10189521903E+04  0.12699999809E+01 0. -1.
</event>
<event>
 5   0  0.2356996E-06  0.1997616E+04  0.7818609E-02  0.8607736E-01
       -1   -1    0    0    0  501  0.00000000000E+00  0.00000000000E+00  0.87825639024E+03  0.87825639026E+03  0.50400001928E-02 0. -1.
        1   -1    0    0  501    0  0.00000000000E+00  0.00000000000E+00 -0.11359064050E+04  0.11359064050E+04  0.50400001928E-02 0.  1.
    10030    2    1    2    0    0  0.00000000000E+00  0.00000000000E+00 -0.25765001477E+03  0.20141627953E+04  0.19976156377E+04 0.  0.
        4    1    3    3  502    0 -0.52538611040E+03  0.56835220984E+03  0.50772107250E+03  0.92565495720E+03  0.12699999809E+01 0. -1.
       -4    1    3    3    0  502  0.52538611040E+03 -0.56835220984E+03 -0.76537108728E+03  0.10885078381E+04  0.12699999809E+01 0.  1.
</event>
<event>
 5   0  0.2313821E-06  0.2003608E+04  0.7818609E-02  0.8604936E-01
        1   -1    0    0  501    0  0.00000000000E+00  0.00000000000E+00  0.13405029671E+04  0.13405029671E+04  0.50400001928E-02 0. -1.
       -1   -1    0    0    0  501  0.00000000000E+00  0.00000000000E+00 -0.74868233289E+03  0.74868233290E+03  0.50400001928E-02 0.  1.
    10030    2    1    2    0    0  0.00000000000E+00  0.00000000000E+00  0.59182063425E+03  0.20891853000E+04  0.20036076349E+04 0.  0.
        1    1    3    3  502    0  0.81182843545E+03  0.19273672029E+03  0.87402610286E+03  0.12083602445E+04  0.50400001928E-02 0. -1.
       -1    1    3    3    0  502 -0.81182843545E+03 -0.19273672029E+03 -0.28220546861E+03  0.88082505556E+03  0.50400001928E-02 0.  1.
</event>
<event>
 5   0  0.2311520E-06  0.2000630E+04  0.7818609E-02  0.8606326E-01
       -1   -1    0    0    0  501  0.00000000000E+00  0.00000000000E+00  0.58250242156E+03  0.58250242158E+03  0.50400001928E-02 0.  1.
        1   -1    0    0  501    0  0.00000000000E+00  0.00000000000E+00 -0.17178134422E+04  0.17178134422E+04  0.50400001928E-02 0. -1.
    10030    2    1    2    0    0  0.00000000000E+00  0.00000000000E+00 -0.11353110206E+04  0.23003158638E+04  0.20006303906E+04 0.  0.
        3    1    3    3  502    0 -0.35239689932E+03  0.31725667409E+03  0.44507555276E+03  0.65032886278E+03  0.10100000352E+00 0.  1.
       -3    1    3    3    0  502  0.35239689932E+03 -0.31725667409E+03 -0.15803865734E+04  0.16499870010E+04  0.10100000352E+00 0. -1.
</event>
<event>
 5   0  0.2311520E-06  0.2000990E+04  0.7818609E-02  0.8606158E-01
       -1   -1    0    0    0  501  0.00000000000E+00  0.00000000000E+00  0.13109484262E+04  0.13109484262E+04  0.50400001928E-02 0.  1.
        1   -1    0    0  501    0  0.00000000000E+00  0.00000000000E+00 -0.76356206124E+03  0.76356206126E+03  0.50400001928E-02 0. -1.
    10030    2    1    2    0    0  0.00000000000E+00  0.00000000000E+00  0.54738636492E+03  0.20745104874E+04  0.20009902374E+04 0.  0.
        3    1    3    3  502    0 -0.39084587149E+03  0.49495437530E+03 -0.53153577009E+03  0.82478519262E+03  0.10100000352E+00 0. -1.
       -3    1    3    3    0  502  0.39084587149E+03 -0.49495437530E+03  0.10789221350E+04  0.12497252948E+04  0.10100000352E+00 0.  1.
</event>
<event>
 5   0  0.5118981E-06  0.2002062E+04  0.7818609E-02  0.8605657E-01
        2   -1    0    0  501    0  0.00000000000E+00  0.00000000000E+00  0.24521501430E+04  0.24521501430E+04  0.25500000920E-02 0. -1.
       -2   -1    0    0    0  501  0.00000000000E+00  0.00000000000E+00 -0.40864677260E+03  0.40864677261E+03  0.25500000920E-02 0.  1.
    10030    2    1    2    0    0  0.00000000000E+00  0.00000000000E+00  0.20435033704E+04  0.28607969156E+04  0.20020621787E+04 0.  0.
        4    1    3    3  502    0 -0.72566785039E+03  0.68951846952E+03  0.10136583575E+04  0.14246172916E+04  0.12699999809E+01 0. -1.
       -4    1    3    3    0  502  0.72566785039E+03 -0.68951846952E+03  0.10298450128E+04  0.14361796239E+04  0.12699999809E+01 0.  1.
</event>
<event>
 5   0  0.2386776E-06  0.1999458E+04  0.7818609E-02  0.8606874E-01
       -1   -1    0    0    0  501  0.00000000000E+00  0.00000000000E+00  0.52250304475E+03  0.52250304477E+03  0.50400001928E-02 0. -1.
        1   -1    0    0  501    0  0.00000000000E+00  0.00000000000E+00 -0.19128267512E+04  0.19128267512E+04  0.50400001928E-02 0.  1.
    10030    2    1    2    0    0  0.00000000000E+00  0.00000000000E+00 -0.13903237064E+04  0.24353297960E+04  0.19994577281E+04 0.  0.
        2    1    3    3  502    0 -0.80033975397E+03 -0.14835584526E+03 -0.14021286880E+04  0.16212705007E+04  0.25500000920E-02 0.  1.
       -2    1    3    3    0  502  0.80033975397E+03  0.14835584526E+03  0.11804981603E+02  0.81405929527E+03  0.25500000920E-02 0. -1.
</event>
<event>
 5   0  0.2356996E-06  0.1999644E+04  0.7818609E-02  0.8606787E-01
        1   -1    0    0  501    0  0.00000000000E+00  0.00000000000E+00  0.10112510875E+04  0.10112510875E+04  0.50400001928E-02 0.  1.
       -1   -1    0    0    0  501  0.00000000000E+00  0.00000000000E+00 -0.98852171951E+03  0.98852171953E+03  0.50400001928E-02 0. -1.
    10030    2    1    2    0    0  0.00000000000E+00  0.00000000000E+00  0.22729367992E+02  0.19997728070E+04  0.19996436322E+04 0.  0.
        4    1    3    3  502    0  0.57876023981E+03 -0.12974023207E+02 -0.80386299381E+03  0.99062054601E+03  0.12699999809E+01 0. -1.
       -4    1    3    3    0  502 -0.57876023981E+03  0.12974023207E+02  0.82659236180E+03  0.10091522610E+04  0.12699999809E+01 0.  1.
</event>
<event>
 5   0  0.5118981E-06  0.2000382E+04  0.7818609E-02  0.8606442E-01
       -2   -1    0    0    0  501  0.00000000000E+00  0.00000000000E+00  0.52683664446E+03  0.52683664447E+03  0.25500000920E-02 0. -1.
        2   -1    0    0  501    0  0.00000000000E+00  0.00000000000E+00 -0.18988474143E+04  0.18988474143E+04  0.25500000920E-02 0.  1.
    10030    2    1    2    0    0  0.00000000000E+00  0.00000000000E+00 -0.13720107698E+04  0.24256840588E+04  0.20003823636E+04 0.  0.
        4    1    3    3  502    0  0.46158610267E+03 -0.51989595706E+03 -0.15579279840E+04  0.17060172193E+04  0.12699999809E+01 0.  1.
       -4    1    3    3    0  502 -0.46158610267E+03  0.51989595706E+03  0.18591721420E+03  0.71966683943E+03  0.12699999809E+01 0. -1.
</event>
<event>
 5   0  0.5251252E-06  0.2000547E+04  0.7818609E-02  0.8606365E-01
        2   -1    0    0  501    0  0.00000000000E+00  0.00000000000E+00  0.72275211706E+03  0.72275211706E+03  0.25500000920E-02 0.  1.
       -2   -1    0    0    0  501  0.00000000000E+00  0.00000000000E+00 -0.13843566207E+04  0.13843566207E+04  0.25500000920E-02 0. -1.
    10030    2    1    2    0    0  0.00000000000E+00  0.00000000000E+00 -0.66160450365E+03  0.21071087378E+04  0.20005466037E+04 0.  0.
        5    1    3    3  502    0  0.65891299368E+03  0.23351238964E+03  0.42272894448E+03  0.81695545769E+03  0.46999998093E+01 0.  1.
       -5    1    3    3    0  502 -0.65891299368E+03 -0.23351238964E+03 -0.10843334481E+04  0.12901532801E+04  0.46999998093E+01 0. -1.
</event>
<event>
 5   0  0.2356996E-06  0.1999630E+04  0.7818609E-02  0.8606794E-01
        1   -1    0    0  501    0  0.00000000000E+00  0.00000000000E+00  0.80467832976E+03  0.80467832978E+03  0.50400001928E-02 0.  1.
       -1   -1    0    0    0  501  0.00000000000E+00  0.00000000000E+00 -0.12422725778E+04  0.12422725778E+04  0.50400001928E-02 0. -1.
    10030    2    1    2    0    0  0.00000000000E+00  0.00000000000E+00 -0.43759424804E+03  0.20469509076E+04  0.19996297888E+04 0.  0.
        4    1    3    3  502    0  0.68360900334E+03  0.34434721564E+03 -0.87723886072E+03  0.11642361900E+04  0.12699999809E+01 0. -1.
       -4    1    3    3    0  502 -0.68360900334E+03 -0.34434721564E+03  0.43964461268E+03  0.88271471763E+03  0.12699999809E+01 0.  1.
</event>
<event>
 5   0  0.5118981E-06  0.1999758E+04  0.7818609E-02  0.8606734E-01
       -2   -1    0    0    0  501  0.00000000000E+00  0.00000000000E+00  0.90341101248E+03  0.90341101248E+03  0.25500000920E-02 0. -1.
        2   -1    0    0  501    0  0.00000000000E+00  0.00000000000E+00 -0.11066481995E+04  0.11066481995E+04  0.25500000920E-02 0.  1.
    10030    2    1    2    0    0  0.00000000000E+00  0.00000000000E+00 -0.20323718699E+03  0.20100592120E+04  0.19997581557E+04 0.  0.
        4    1    3    3  502    0 -0.92378356055E+03  0.26596942706E+03 -0.37806395075E+03  0.10329810098E+04  0.12699999809E+01 0.  1.
       -4    1    3    3    0  502  0.92378356055E+03 -0.26596942706E+03  0.17482676377E+03  0.97707820214E+03  0.12699999809E+01 0. -1.
</event>
<event>
 5   0  0.5030137E-06  0.1999799E+04  0.7818609E-02  0.8606714E-01
       -2   -1    0    0    0  501  0.00000000000E+00  0.00000000000E+00  0.49865081791E+03  0.49865081792E+03  0.25500000920E-02 0. -1.
        2   -1    0    0  501    0  0.00000000000E+00  0.00000000000E+00 -0.20050092577E+04  0.20050092577E+04  0.25500000920E-02 0.  1.
    10030    2    1    2    0    0  0.00000000000E+00  0.00000000000E+00 -0.15063584398E+04  0.25036600757E+04  0.19997994963E+04 0.  0.
        3    1    3    3  502    0 -0.83253922949E+03 -0.74881161332E+02 -0.14401261447E+04  0.16651402583E+04  0.10100000352E+00 0.  1.
       -3    1    3    3    0  502  0.83253922949E+03  0.74881161332E+02 -0.66232295110E+02  0.83851981734E+03  0.10100000352E+00 0. -1.
</event>
<event>
 5   0  0.2379743E-06  0.1999631E+04  0.7818609E-02  0.8606793E-01
       -1   -1    0    0    0  501  0.00000000000E+00  0.00000000000E+00  0.49145595783E+03  0.49145595786E+03  0.50400001928E-02 0.  1.
        1   -1    0    0  501    0  0.00000000000E+00  0.00000000000E+00 -0.20340191809E+04  0.20340191809E+04  0.50400001928E-02 0. -1.
    10030    2    1    2    0    0  0.00000000000E+00  0.00000000000E+00 -0.15425632231E+04  0.25254751387E+04  0.19996308108E+04 0.  0.
        5    1    3    3  502    0 -0.57497370994E+03 -0.33081923434E+03  0.17347840830E+03  0.68567702388E+03  0.46999998093E+01 0.  1.
       -5    1    3    3    0  502  0.57497370994E+03  0.33081923434E+03 -0.17160416314E+04  0.18397981149E+04  0.46999998093E+01 0. -1.
</event>
<event>
 5   0  0.5129100E-06  0.1999514E+04  0.7818609E-02  0.8606848E-01
       -2   -1    0    0    0  501  0.00000000000E+00  0.00000000000E+00  0.55284518411E+03  0.55284518412E+03  0.25500000920E-02 0.  1.
        2   -1    0    0  501    0  0.00000000000E+00  0.00000000000E+00 -0.18079461964E+04  0.18079461964E+04  0.25500000920E-02 0. -1.
    10030    2    1    2    0    0  0.00000000000E+00  0.00000000000E+00 -0.12551010123E+04  0.23607913805E+04  0.19995142889E+04 0.  0.
        2    1    3    3  502    0 -0.72812597452E+03 -0.51614601356E+03 -0.11594347766E+04  0.14631688704E+04  0.25500000920E-02 0. -1.
       -2    1    3    3    0  502  0.72812597452E+03  0.51614601356E+03 -0.95666235727E+02  0.89762251016E+03  0.25500000920E-02 0.  1.
</event>
<event>
 5   0  0.1777750E-06  0.1999912E+04  0.7818609E-02  0.8606662E-01
        3   -1    0    0  501    0  0.00000000000E+00  0.00000000000E+00  0.52765642052E+03  0.52765643019E+03  0.10100000352E+00 0. -1.
       -3   -1    0    0    0  501  0.00000000000E+00  0.00000000000E+00 -0.18950066679E+04  0.18950066706E+04  0.10100000352E+00 0.  1.
    10030    2    1    2    0    0  0.00000000000E+00  0.00000000000E+00 -0.13673502474E+04  0.24226631008E+04  0.19999124483E+04 0.  0.
        4    1    3    3  502    0  0.37052753887E+03  0.84593954875E+03 -0.11481371912E+04  0.14734737866E+04  0.12699999809E+01 0. -1.
       -4    1    3    3    0  502 -0.37052753887E+03 -0.84593954875E+03 -0.21921305619E+03  0.94918931415E+03  0.12699999809E+01 0.  1.
</event>
<event>
 5   0  0.5129100E-06  0.1999388E+04  0.7818609E-02  0.8606907E-01
        2   -1    0    0  501    0  0.00000000000E+00  0.00000000000E+00  0.95466630673E+03  0.95466630673E+03  0.25500000920E-02 0. -1.
       -2   -1    0    0    0  501  0.00000000000E+00  0.00000000000E+00 -0.10468451834E+04  0.10468451834E+04  0.25500000920E-02 0.  1.
    10030    2    1    2    0    0  0.00000000000E+00  0.00000000000E+00 -0.92178876710E+02  0.20015114902E+04  0.19993877313E+04 0.  0.
        2    1    3    3  502    0 -0.64823650964E+02  0.84887285864E+03  0.47849064418E+03  0.97659640202E+03  0.25500000920E-02 0. -1.
       -2    1    3    3    0  502  0.64823650964E+02 -0.84887285864E+03 -0.57066952089E+03  0.10249150882E+04  0.25500000920E-02 0.  1.
</event>
<event>
 5   0  0.2311520E-06  0.2002585E+04  0.7818609E-02  0.8605413E-01
        1   -1    0    0  501    0  0.00000000000E+00  0.00000000000E+00  0.68434642099E+03  0.68434642101E+03  0.50400001928E-02 0.  1.
       -1   -1    0    0    0  501  0.00000000000E+00  0.00000000000E+00 -0.14650285553E+04  0.14650285553E+04  0.50400001928E-02 0. -1.
    10030    2    1    2    0    0  0.00000000000E+00  0.00000000000E+00 -0.78068213427E+03  0.21493749763E+04  0.20025853774E+04 0.  0.
        3    1    3    3  502    0  0.76488779795E+02  0.10415412229E+03  0.67535909353E+03  0.68761074020E+03  0.10100000352E+00 0.  1.
       -3    1    3    3    0  502 -0.76488779795E+02 -0.10415412229E+03 -0.14560412278E+04  0.14617642361E+04  0.10100000352E+00 0. -1.
</event>
<event>
 5   0  0.5030137E-06  0.2003022E+04  0.7818609E-02  0.8605209E-01
       -2   -1    0    0    0  501  0.00000000000E+00  0.00000000000E+00  0.62528684346E+03  0.62528684346E+03  0.25500000920E-02 0.  1.
        2   -1    0    0  501    0  0.00000000000E+00  0.00000000000E+00 -0.16041027373E+04  0.16041027373E+04  0.25500000920E-02 0. -1.
    10030    2    1    2    0    0  0.00000000000E+00  0.00000000000E+00 -0.97881589384E+03  0.22293895808E+04  0.20030220540E+04 0.  0.
        3    1    3    3  502    0 -0.96874448757E+03 -0.23345049135E+03 -0.60103883877E+03  0.11637064535E+04  0.10100000352E+00 0.  1.
       -3    1    3    3    0  502  0.96874448757E+03  0.23345049135E+03 -0.37777705507E+03  0.10656831272E+04  0.10100000352E+00 0. -1.
</event>
<event>
 5   0  0.2356996E-06  0.2000346E+04  0.7818609E-02  0.8606459E-01
       -1   -1    0    0    0  501  0.00000000000E+00  0.00000000000E+00  0.35675655516E+03  0.35675655519E+03  0.50400001928E-02 0. -1.
        1   -1    0    0  501    0  0.00000000000E+00  0.00000000000E+00 -0.28040020105E+04  0.28040020105E+04  0.50400001928E-02 0.  1.
    10030    2    1    2    0    0  0.00000000000E+00  0.00000000000E+00 -0.24472454554E+04  0.31607585657E+04  0.20003460680E+04 0.  0.
        4    1    3    3  502    0  0.31538828620E+02  0.88063500284E+02  0.34982842453E+03  0.36212072200E+03  0.12699999809E+01 0. -1.
       -4    1    3    3    0  502 -0.31538828620E+02 -0.88063500284E+02 -0.27970738799E+04  0.27986378437E+04  0.12699999809E+01 0.  1.
</event>
<event>
 5   0  0.2313821E-06  0.2000557E+04  0.7818609E-02  0.8606360E-01
       -1   -1    0    0    0  501  0.00000000000E+00  0.00000000000E+00  0.40931449654E+03  0.40931449657E+03  0.50400001928E-02 0. -1.
        1   -1    0    0  501    0  0.00000000000E+00  0.00000000000E+00 -0.24444692430E+04  0.24444692430E+04  0.50400001928E-02 0.  1.
    10030    2    1    2    0    0  0.00000000000E+00  0.00000000000E+00 -0.20351547465E+04  0.28537837396E+04  0.20005566201E+04 0.  0.
        1    1    3    3  502    0  0.61576048668E+03  0.67372646335E+02 -0.21379496045E+04  0.22258770321E+04  0.50400001928E-02 0.  1.
       -1    1    3    3    0  502 -0.61576048668E+03 -0.67372646335E+02  0.10279485807E+03  0.62790670748E+03  0.50400001928E-02 0. -1.
</event>
<event>
 5   0  0.5129100E-06  0.1999476E+04  0.7818609E-02  0.8606866E-01
        2   -1    0    0  501    0  0.00000000000E+00  0.00000000000E+00  0.15645052834E+04  0.15645052834E+04  0.25500000920E-02 0. -1.
       -2   -1    0    0    0  501  0.00000000000E+00  0.00000000000E+00 -0.63884483374E+03  0.63884483374E+03  0.25500000920E-02 0.  1.
    10030    2    1    2    0    0  0.00000000000E+00  0.00000000000E+00  0.92566044965E+03  0.22033501171E+04  0.19994760490E+04 0.  0.
        2    1    3    3  502    0  0.16307971492E+03  0.89160042325E+03  0.92765756413E+03  0.12969559994E+04  0.25500000920E-02 0. -1.
       -2    1    3    3    0  502 -0.16307971492E+03 -0.89160042325E+03 -0.19971144743E+01  0.90639411771E+03  0.25500000920E-02 0.  1.
</event>
<event>
 5   0  0.2311520E-06  0.2000226E+04  0.7818609E-02  0.8606515E-01
        1   -1    0    0  501    0  0.00000000000E+00  0.00000000000E+00  0.11992750659E+04  0.11992750659E+04  0.50400001928E-02 0. -1.
       -1   -1    0    0    0  501  0.00000000000E+00  0.00000000000E+00 -0.83402513818E+03  0.83402513820E+03  0.50400001928E-02 0.  1.
    10030    2    1    2    0    0  0.00000000000E+00  0.00000000000E+00  0.36524992775E+03  0.20333002041E+04  0.20002255399E+04 0.  0.
        3    1    3    3  502    0  0.74496441981E+03  0.30471656328E+02  0.86022423049E+03  0.11383699950E+04  0.10100000352E+00 0. -1.
       -3    1    3    3    0  502 -0.74496441981E+03 -0.30471656328E+02 -0.49497430274E+03  0.89493020913E+03  0.10100000352E+00 0.  1.
</event>
<event>
 5   0  0.5118981E-06  0.1999557E+04  0.7818609E-02  0.8606828E-01
       -2   -1    0    0    0  501  0.00000000000E+00  0.00000000000E+00  0.45554157530E+03  0.45554157530E+03  0.25500000920E-02 0. -1.
        2   -1    0    0  501    0  0.00000000000E+00  0.00000000000E+00 -0.21942171128E+04  0.21942171128E+04  0.25500000920E-02 0.  1.
    10030    2    1    2    0    0  0.00000000000E+00  0.00000000000E+00 -0.17386755375E+04  0.26497586881E+04  0.19995570711E+04 0.  0.
        4    1    3    3  502    0 -0.67868600881E+03 -0.22451408915E+02 -0.18417263825E+04  0.19629254813E+04  0.12699999809E+01 0.  1.
       -4    1    3    3    0  502  0.67868600881E+03  0.22451408915E+02  0.10305084504E+03  0.68683320674E+03  0.12699999809E+01 0. -1.
</event>
<event>
 5   0  0.5030137E-06  0.2002474E+04  0.7818609E-02  0.8605465E-01
       -2   -1    0    0    0  501  0.00000000000E+00  0.00000000000E+00  0.10923733361E+04  0.10923733361E+04  0.25500000920E-02 0.  1.
        2   -1    0    0  501    0  0.00000000000E+00  0.00000000000E+00 -0.91770369331E+03  0.91770369331E+03  0.25500000920E-02 0. -1.
    10030    2    1    2    0    0  0.00000000000E+00  0.00000000000E+00  0.17466964277E+03  0.20100770294E+04  0.20024735154E+04 0.  0.
        3    1    3    3  502    0  0.95158141666E+02  0.99440934596E+03  0.19476242893E+02  0.99914180850E+03  0.10100000352E+00 0. -1.
       -3    1    3    3    0  502 -0.95158141666E+02 -0.99440934596E+03  0.15519339987E+03  0.10109352209E+04  0.10100000352E+00 0.  1.
</event>
<event>
 5   0  0.1777750E-06  0.2000023E+04  0.7818609E-02  0.8606610E-01
       -4   -1    0    0    0  501  0.00000000000E+00  0.00000000000E+00  0.95046501279E+03  0.95046586127E+03  0.12699999809E+01 0.  1.
        4   -1    0    0  501    0  0.00000000000E+00  0.00000000000E+00 -0.10521389378E+04  0.10521397043E+04  0.12699999809E+01 0. -1.
    10030    2    1    2    0    0  0.00000000000E+00  0.00000000000E+00 -0.10167392500E+03  0.20026055655E+04  0.20000228659E+04 0.  0.
        3    1    3    3  502    0  0.63668571303E+03 -0.56786566563E+03 -0.57322202790E+03  0.10278247005E+04  0.10100000352E+00 0. -1.
       -3    1    3    3    0  502 -0.63668571303E+03  0.56786566563E+03  0.47154810290E+03  0.97478086509E+03  0.10100000352E+00 0.  1.
</event>
<event>
 5   0  0.2356996E-06  0.2011308E+04  0.7818609E-02  0.8601352E-01
       -1   -1    0    0    0  501  0.00000000000E+00  0.00000000000E+00  0.10939200641E+04  0.10939200641E+04  0.50400001928E-02 0.  1.
        1   -1    0    0  501    0  0.00000000000E+00  0.00000000000E+00 -0.92451013883E+03  0.92451013884E+03  0.50400001928E-02 0. -1.
    10030    2    1    2    0    0  0.00000000000E+00  0.00000000000E+00  0.16940992529E+03  0.20184302030E+04  0.20113082214E+04 0.  0.
        4    1    3    3  502    0 -0.23458001276E+03 -0.28327880294E+03 -0.85459218471E+03  0.93037845936E+03  0.12699999809E+01 0. -1.
       -4    1    3    3    0  502  0.23458001276E+03  0.28327880294E+03  0.10240021100E+04  0.10880517436E+04  0.12699999809E+01 0.  1.
</event>
<event>
 5   0  0.2311520E-06  0.2006875E+04  0.7818609E-02  0.8603413E-01
        1   -1    0    0  501    0  0.00000000000E+00  0.00000000000E+00  0.18702402820E+04  0.18702402820E+04  0.50400001928E-02 0.  1.
       -1   -1    0    0    0  501  0.00000000000E+00  0.00000000000E+00 -0.53837316167E+03  0.53837316169E+03  0.50400001928E-02 0. -1.
    10030    2    1    2    0    0  0.00000000000E+00  0.00000000000E+00  0.13318671203E+04  0.24086134436E+04  0.20068753561E+04 0.  0.
        3    1    3    3  502    0 -0.90612583145E+03 -0.59875341641E+02  0.15358410691E+03  0.92099791914E+03  0.10100000352E+00 0. -1.
       -3    1    3    3    0  502  0.90612583145E+03  0.59875341641E+02  0.11782830134E+04  0.14876155245E+04  0.10100000352E+00 0.  1.
</event>
<event>
 5   0  0.2379743E-06  0.1999717E+04  0.7818609E-02  0.8606753E-01
        1   -1    0    0  501    0  0.00000000000E+00  0.00000000000E+00  0.91714045090E+03  0.91714045092E+03  0.50400001928E-02 0. -1.
       -1   -1    0    0    0  501  0.00000000000E+00  0.00000000000E+00 -0.10900369729E+04  0.10900369729E+04  0.50400001928E-02 0.  1.
    10030    2    1    2    0    0  0.00000000000E+00  0.00000000000E+00 -0.17289652200E+03  0.20071774238E+04  0.19997169808E+04 0.  0.
        5    1    3    3  502    0 -0.59622120483E+03 -0.11622741141E+03 -0.88358135402E+03  0.10722530650E+04  0.46999998093E+01 0.  1.
       -5    1    3    3    0  502  0.59622120483E+03  0.11622741141E+03  0.71068483202E+03  0.93492435882E+03  0.46999998093E+01 0. -1.
</event>
<event>
 5   0  0.5118981E-06  0.1999201E+04  0.7818609E-02  0.8606994E-01
        2   -1    0    0  501    0  0.00000000000E+00  0.00000000000E+00  0.12575245761E+04  0.12575245761E+04  0.25500000920E-02 0.  1.
       -2   -1    0    0    0  501  0.00000000000E+00  0.00000000000E+00 -0.79457756907E+03  0.79457756907E+03  0.25500000920E-02 0. -1.
    10030    2    1    2    0    0  0.00000000000E+00  0.00000000000E+00  0.46294700701E+03  0.20521021451E+04  0.19992006610E+04 0.  0.
        4    1    3    3  502    0 -0.86532814247E+03  0.48072077065E+03  0.37412560948E+03  0.10582328846E+04  0.12699999809E+01 0. -1.
       -4    1    3    3    0  502  0.86532814247E+03 -0.48072077065E+03  0.88821397531E+02  0.99386926054E+03  0.12699999809E+01 0.  1.
</event>
<event>
 5   0  0.4956214E-06  0.2000057E+04  0.7818609E-02  0.8606594E-01
        2   -1    0    0  501    0  0.00000000000E+00  0.00000000000E+00  0.16318362727E+04  0.16318362727E+04  0.25500000920E-02 0. -1.
       -2   -1    0    0    0  501  0.00000000000E+00  0.00000000000E+00 -0.61284138361E+03  0.61284138362E+03  0.25500000920E-02 0.  1.
    10030    2    1    2    0    0  0.00000000000E+00  0.00000000000E+00  0.10189948891E+04  0.22446776563E+04  0.20000567984E+04 0.  0.
        1    1    3    3  502    0  0.13524127050E+03  0.96033505165E+03  0.78331087147E+03  0.12466392959E+04  0.50400001928E-02 0. -1.
       -1    1    3    3    0  502 -0.13524127050E+03 -0.96033505165E+03  0.23568401758E+03  0.99803836040E+03  0.50400001928E-02 0.  1.
</event>
<event>
 5   0  0.5251252E-06  0.1999735E+04  0.7818609E-02  0.8606744E-01
       -2   -1    0    0    0  501  0.00000000000E+00  0.00000000000E+00  0.79412650185E+03  0.79412650186E+03  0.25500000920E-02 0.  1.
        2   -1    0    0  501    0  0.00000000000E+00  0.00000000000E+00 -0.12589120061E+04  0.12589120061E+04  0.25500000920E-02 0. -1.
    10030    2    1    2    0    0  0.00000000000E+00  0.00000000000E+00 -0.46478550428E+03  0.20530385080E+04  0.19997353701E+04 0.  0.
        5    1    3    3  502    0 -0.38590884111E+03 -0.87257351574E+03 -0.53936627154E+03  0.10960147074E+04  0.46999998093E+01 0. -1.
       -5    1    3    3    0  502  0.38590884111E+03  0.87257351574E+03  0.74580767252E+02  0.95702380057E+03  0.46999998093E+01 0.  1.
</event>
<event>
 5   0  0.5118981E-06  0.1998332E+04  0.7818609E-02  0.8607401E-01
        2   -1    0    0  501    0  0.00000000000E+00  0.00000000000E+00  0.14536088060E+04  0.14536088060E+04  0.25500000920E-02 0. -1.
       -2   -1    0    0    0  501  0.00000000000E+00  0.00000000000E+00 -0.68679609124E+03  0.68679609124E+03  0.25500000920E-02 0.  1.
    10030    2    1    2    0    0  0.00000000000E+00  0.00000000000E+00  0.76681271477E+03  0.21404048973E+04  0.19983321507E+04 0.  0.
        4    1    3    3  502    0  0.73959725318E+03  0.35975643178E+03 -0.22429526911E+03  0.85248974643E+03  0.12699999809E+01 0.  1.
       -4    1    3    3    0  502 -0.73959725318E+03 -0.35975643178E+03  0.99110798388E+03  0.12879151508E+04  0.12699999809E+01 0. -1.
</event>
<event>
 5   0  0.5129100E-06  0.1999949E+04  0.7818609E-02  0.8606644E-01
       -2   -1    0    0    0  501  0.00000000000E+00  0.00000000000E+00  0.13138920064E+04  0.13138920064E+04  0.25500000920E-02 0.  1.
        2   -1    0    0  501    0  0.00000000000E+00  0.00000000000E+00 -0.76105896528E+03  0.76105896528E+03  0.25500000920E-02 0. -1.
    10030    2    1    2    0    0  0.00000000000E+00  0.00000000000E+00  0.55283304108E+03  0.20749509716E+04  0.19999492902E+04 0.  0.
        2    1    3    3  502    0  0.31223169835E+03  0.47635188927E+03 -0.57632508921E+03  0.81027795498E+03  0.25500000920E-02 0. -1.
       -2    1    3    3    0  502 -0.31223169835E+03 -0.47635188927E+03  0.11291581303E+04  0.12646730167E+04  0.25500000920E-02 0.  1.
</event>
<event>
 5   0  0.5251252E-06  0.1998164E+04  0.7818609E-02  0.8607479E-01
       -2   -1    0    0    0  501  0.00000000000E+00  0.00000000000E+00  0.41738735168E+03  0.41738735169E+03  0.25500000920E-02 0.  1.
        2   -1    0    0  501    0  0.00000000000E+00  0.00000000000E+00 -0.23914603290E+04  0.23914603290E+04  0.25500000920E-02 0. -1.
    10030    2    1    2    0    0  0.00000000000E+00  0.00000000000E+00 -0.19740729774E+04  0.28088476807E+04  0.19981644511E+04 0.  0.
        5    1    3    3  502    0  0.41324192420E+03  0.30010936236E+03  0.22000343695E+03  0.55610980891E+03  0.46999998093E+01 0.  1.
       -5    1    3    3    0  502 -0.41324192420E+03 -0.30010936236E+03 -0.21940764143E+04  0.22527378718E+04  0.46999998093E+01 0. -1.
</event>
<event>
 5   0  0.5251252E-06  0.2000886E+04  0.7818609E-02  0.8606207E-01
       -2   -1    0    0    0  501  0.00000000000E+00  0.00000000000E+00  0.81726735166E+03  0.81726735166E+03  0.25500000920E-02 0. -1.
        2   -1    0    0  501    0  0.00000000000E+00  0.00000000000E+00 -0.12246739897E+04  0.12246739897E+04  0.25500000920E-02 0.  1.
    10030    2    1    2    0    0  0.00000000000E+00  0.00000000000E+00 -0.40740663805E+03  0.20419413414E+04  0.20008858720E+04 0.  0.
        5    1    3    3  502    0 -0.76685707812E+03 -0.15318972008E+03  0.43306033616E+03  0.89392405346E+03  0.46999998093E+01 0. -1.
       -5    1    3    3    0  502  0.76685707812E+03  0.15318972008E+03 -0.84046697421E+03  0.11480172879E+04  0.46999998093E+01 0.  1.
</event>
<event>
 5   0  0.2386776E-06  0.2001190E+04  0.7818609E-02  0.8606065E-01
        1   -1    0    0  501    0  0.00000000000E+00  0.00000000000E+00  0.24852205737E+04  0.24852205737E+04  0.50400001928E-02 0. -1.
       -1   -1    0    0    0  501  0.00000000000E+00  0.00000000000E+00 -0.40285773601E+03  0.40285773604E+03  0.50400001928E-02 0.  1.
    10030    2    1    2    0    0  0.00000000000E+00  0.00000000000E+00  0.20823628377E+04  0.28880783097E+04  0.20011899798E+04 0.  0.
        2    1    3    3  502    0  0.91210862774E+03  0.55959401394E+02  0.45297828704E+03  0.10199328076E+04  0.25500000920E-02 0.  1.
       -2    1    3    3    0  502 -0.91210862774E+03 -0.55959401394E+02  0.16293845506E+04  0.18681455022E+04  0.25500000920E-02 0. -1.
</event>
<event>
 5   0  0.2386776E-06  0.1998964E+04  0.7818609E-02  0.8607105E-01
       -1   -1    0    0    0  501  0.00000000000E+00  0.00000000000E+00  0.69637281514E+03  0.69637281516E+03  0.50400001928E-02 0. -1.
        1   -1    0    0  501    0  0.00000000000E+00  0.00000000000E+00 -0.14345245055E+04  0.14345245055E+04  0.50400001928E-02 0.  1.
    10030    2    1    2    0    0  0.00000000000E+00  0.00000000000E+00 -0.73815169037E+03  0.21308973207E+04  0.19989635998E+04 0.  0.
        2    1    3    3  502    0  0.21331532079E+02 -0.25074235355E+03 -0.14002009386E+04  0.14226346793E+04  0.25500000920E-02 0.  1.
       -2    1    3    3    0  502 -0.21331532079E+02  0.25074235355E+03  0.66204924825E+03  0.70826264142E+03  0.25500000920E-02 0. -1.
</event>
<event>
 5   0  0.2386776E-06  0.2000791E+04  0.7818609E-02  0.8606251E-01
       -1   -1    0    0    0  501  0.00000000000E+00  0.00000000000E+00  0.81489904017E+03  0.81489904018E+03  0.50400001928E-02 0.  1.
        1   -1    0    0  501    0  0.00000000000E+00  0.00000000000E+00 -0.12281171356E+04  0.12281171356E+04  0.50400001928E-02 0. -1.
    10030    2    1    2    0    0  0.00000000000E+00  0.00000000000E+00 -0.41321809538E+03  0.20430161757E+04  0.20007913185E+04 0.  0.
        2    1    3    3  502    0  0.11240305896E+03 -0.85948802272E+03  0.30336816027E+03  0.91836068597E+03  0.25500000920E-02 0.  1.
       -2    1    3    3    0  502 -0.11240305896E+03  0.85948802272E+03 -0.71658625565E+03  0.11246554898E+04  0.25500000920E-02 0. -1.
</event>
<event>
 5   0  0.2379743E-06  0.2000013E+04  0.7818609E-02  0.8606615E-01
        1   -1    0    0  501    0  0.00000000000E+00  0.00000000000E+00  0.10502319515E+04  0.10502319515E+04  0.50400001928E-02 0. -1.
       -1   -1    0    0    0  501  0.00000000000E+00  0.00000000000E+00 -0.95218257872E+03  0.95218257874E+03  0.50400001928E-02 0.  1.
    10030    2    1    2    0    0  0.00000000000E+00  0.00000000000E+00  0.98049372791E+02  0.20024145303E+04  0.20000125678E+04 0.  0.
        5    1    3    3  502    0  0.17646749935E+03 -0.18231323181E+03  0.10174565241E+04  0.10486270840E+04  0.46999998093E+01 0. -1.
       -5    1    3    3    0  502 -0.17646749935E+03  0.18231323181E+03 -0.91940715131E+03  0.95378744629E+03  0.46999998093E+01 0.  1.
</event>
<event>
 5   0  0.5030137E-06  0.2000203E+04  0.7818609E-02  0.8606526E-01
       -2   -1    0    0    0  501  0.00000000000E+00  0.00000000000E+00  0.35907454609E+03  0.35907454610E+03  0.25500000920E-02 0.  1.
        2   -1    0    0  501    0  0.00000000000E+00  0.00000000000E+00 -0.27855024054E+04  0.27855024054E+04  0.25500000920E-02 0. -1.
    10030    2    1    2    0    0  0.00000000000E+00  0.00000000000E+00 -0.24264278593E+04  0.31445769515E+04  0.20002030016E+04 0.  0.
        3    1    3    3  502    0  0.34772808801E+03 -0.38475141567E+03  0.13116728693E+03  0.53493302610E+03  0.10100000352E+00 0.  1.
       -3    1    3    3    0  502 -0.34772808801E+03  0.38475141567E+03 -0.25575951462E+04  0.26096439254E+04  0.10100000352E+00 0. -1.
</event>
<event>
 5   0  0.2311520E-06  0.2000079E+04  0.7818609E-02  0.8606584E-01
        1   -1    0    0  501    0  0.00000000000E+00  0.00000000000E+00  0.18922460378E+04  0.18922460378E+04  0.50400001928E-02 0. -1.
       -1   -1    0    0    0  501  0.00000000000E+00  0.00000000000E+00 -0.52851405785E+03  0.52851405788E+03  0.50400001928E-02 0.  1.
    10030    2    1    2    0    0  0.00000000000E+00  0.00000000000E+00  0.13637319799E+04  0.24207600957E+04  0.20000786304E+04 0.  0.
        3    1    3    3  502    0 -0.98979388701E+03 -0.37186896081E+01  0.50911099163E+03  0.11130587493E+04  0.10100000352E+00 0. -1.
       -3    1    3    3    0  502  0.98979388701E+03  0.37186896081E+01  0.85462098831E+03  0.13077013464E+04  0.10100000352E+00 0.  1.
</event>
<event>
 5   0  0.2386776E-06  0.2002998E+04  0.7818609E-02  0.8605220E-01
       -1   -1    0    0    0  501  0.00000000000E+00  0.00000000000E+00  0.83855426507E+03  0.83855426508E+03  0.50400001928E-02 0. -1.
        1   -1    0    0  501    0  0.00000000000E+00  0.00000000000E+00 -0.11961069269E+04  0.11961069269E+04  0.50400001928E-02 0.  1.
    10030    2    1    2    0    0  0.00000000000E+00  0.00000000000E+00 -0.35755266179E+03  0.20346611919E+04  0.20029983175E+04 0.  0.
        2    1    3    3  502    0 -0.26023884652E+03 -0.92317817659E+02  0.79912196224E+03  0.84548373564E+03  0.25500000920E-02 0. -1.
       -2    1    3    3    0  502  0.26023884652E+03  0.92317817659E+02 -0.11566746240E+04  0.11891774563E+04  0.25500000920E-02 0.  1.
</event>
<event>
 5   0  0.2379743E-06  0.2000944E+04  0.7818609E-02  0.8606179E-01
        1   -1    0    0  501    0  0.00000000000E+00  0.00000000000E+00  0.55632637170E+03  0.55632637172E+03  0.50400001928E-02 0. -1.
       -1   -1    0    0    0  501  0.00000000000E+00  0.00000000000E+00 -0.17992040754E+04  0.17992040754E+04  0.50400001928E-02 0.  1.
    10030    2    1    2    0    0  0.00000000000E+00  0.00000000000E+00 -0.12428777037E+04  0.23555304471E+04  0.20009444522E+04 0.  0.
        5    1    3    3  502    0 -0.68074725145E+03  0.40146111583E+03  0.10073347660E+03  0.79671649360E+03  0.46999998093E+01 0. -1.
       -5    1    3    3    0  502  0.68074725145E+03 -0.40146111583E+03 -0.13436111803E+04  0.15588139535E+04  0.46999998093E+01 0.  1.
</event>
<event>
 5   0  0.5129100E-06  0.1999849E+04  0.7818609E-02  0.8606691E-01
        2   -1    0    0  501    0  0.00000000000E+00  0.00000000000E+00  0.18024042004E+04  0.18024042004E+04  0.25500000920E-02 0. -1.
       -2   -1    0    0    0  501  0.00000000000E+00  0.00000000000E+00 -0.55473085167E+03  0.55473085167E+03  0.25500000920E-02 0.  1.
    10030    2    1    2    0    0  0.00000000000E+00  0.00000000000E+00  0.12476733488E+04  0.23571350521E+04  0.19998492115E+04 0.  0.
        2    1    3    3  502    0 -0.34138275932E+03 -0.20413011391E+03  0.17051457886E+04  0.17509235997E+04  0.25500000920E-02 0. -1.
       -2    1    3    3    0  502  0.34138275932E+03  0.20413011391E+03 -0.45747243983E+03  0.60621145237E+03  0.25500000920E-02 0.  1.
</event>
<event>
 5   0  0.5118981E-06  0.1998933E+04  0.7818609E-02  0.8607120E-01
       -2   -1    0    0    0  501  0.00000000000E+00  0.00000000000E+00  0.91390185685E+03  0.91390185685E+03  0.25500000920E-02 0. -1.
        2   -1    0    0  501    0  0.00000000000E+00  0.00000000000E+00 -0.10930425844E+04  0.10930425844E+04  0.25500000920E-02 0.  1.
    10030    2    1    2    0    0  0.00000000000E+00  0.00000000000E+00 -0.17914072750E+03  0.20069444412E+04  0.19989333630E+04 0.  0.
        4    1    3    3  502    0 -0.99866366758E+03  0.34953767196E+02 -0.10917161170E+03  0.10052218365E+04  0.12699999809E+01 0.  1.
       -4    1    3    3    0  502  0.99866366758E+03 -0.34953767196E+02 -0.69969115802E+02  0.10017226047E+04  0.12699999809E+01 0. -1.
</event>
<event>
 5   0  0.2311520E-06  0.2000218E+04  0.7818609E-02  0.8606519E-01
        1   -1    0    0  501    0  0.00000000000E+00  0.00000000000E+00  0.16289692805E+04  0.16289692805E+04  0.50400001928E-02 0.  1.
       -1   -1    0    0    0  501  0.00000000000E+00  0.00000000000E+00 -0.61401871956E+03  0.61401871958E+03  0.50400001928E-02 0. -1.
    10030    2    1    2    0    0  0.00000000000E+00  0.00000000000E+00  0.10149505609E+04  0.22429880001E+04  0.20002176200E+04 0.  0.
        3    1    3    3  502    0 -0.70179477415E+03  0.22480912843E+02  0.13060908092E+04  0.14828669895E+04  0.10100000352E+00 0.  1.
       -3    1    3    3    0  502  0.70179477415E+03 -0.22480912843E+02 -0.29114024822E+03  0.76012101063E+03  0.10100000352E+00 0. -1.
</event>
<event>
 5   0  0.5129100E-06  0.2000843E+04  0.7818609E-02  0.8606227E-01
        2   -1    0    0  501    0  0.00000000000E+00  0.00000000000E+00  0.15961110084E+04  0.15961110084E+04  0.25500000920E-02 0.  1.
       -2   -1    0    0    0  501  0.00000000000E+00  0.00000000000E+00 -0.62705091459E+03  0.62705091460E+03  0.25500000920E-02 0. -1.
    10030    2    1    2    0    0  0.00000000000E+00  0.00000000000E+00  0.96906009381E+03  0.22231619230E+04  0.20008426901E+04 0.  0.
        2    1    3    3  502    0  0.53906454203E+03 -0.77890423427E+03  0.84209519374E+03  0.12674410053E+04  0.25500000920E-02 0.  1.
       -2    1    3    3    0  502 -0.53906454203E+03  0.77890423427E+03  0.12696490007E+03  0.95572091768E+03  0.25500000920E-02 0. -1.
</event>
<event>
 5   0  0.2379743E-06  0.2000309E+04  0.7818609E-02  0.8606476E-01
        1   -1    0    0  501    0  0.00000000000E+00  0.00000000000E+00  0.76892527728E+03  0.76892527730E+03  0.50400001928E-02 0. -1.
       -1   -1    0    0    0  501  0.00000000000E+00  0.00000000000E+00 -0.13009184630E+04  0.13009184630E+04  0.50400001928E-02 0.  1.
    10030    2    1    2    0    0  0.00000000000E+00  0.00000000000E+00 -0.53199318574E+03  0.20698437403E+04  0.20003090660E+04 0.  0.
        5    1    3    3  502    0 -0.60159164600E+03 -0.71990994207E+03 -0.62460419683E+03  0.11270915340E+04  0.46999998093E+01 0.  1.
       -5    1    3    3    0  502  0.60159164600E+03  0.71990994207E+03  0.92611011094E+02  0.94275220636E+03  0.46999998093E+01 0. -1.
</event>
<event>
 5   0  0.2313821E-06  0.1999385E+04  0.7818609E-02  0.8606908E-01
       -1   -1    0    0    0  501  0.00000000000E+00  0.00000000000E+00  0.72264520665E+03  0.72264520667E+03  0.50400001928E-02 0.  1.
        1   -1    0    0  501    0  0.00000000000E+00  0.00000000000E+00 -0.13829542165E+04  0.13829542165E+04  0.50400001928E-02 0. -1.
    10030    2    1    2    0    0  0.00000000000E+00  0.00000000000E+00 -0.66030900982E+03  0.21055994232E+04  0.19993851411E+04 0.  0.
        1    1    3    3  502    0 -0.68296864462E+03  0.72155919037E+03 -0.21339829642E+03  0.10161853510E+04  0.50400001928E-02 0.  1.
       -1    1    3    3    0  502  0.68296864462E+03 -0.72155919037E+03 -0.44691071341E+03  0.10894140721E+04  0.50400001928E-02 0. -1.
</event>
<event>
 5   0  0.2356996E-06  0.2000724E+04  0.7818609E-02  0.8606282E-01
        1   -1    0    0  501    0  0.00000000000E+00  0.00000000000E+00  0.68205301616E+03  0.68205301618E+03  0.50400001928E-02 0.  1.
       -1   -1    0    0    0  501  0.00000000000E+00  0.00000000000E+00 -0.14672231261E+04  0.14672231261E+04  0.50400001928E-02 0. -1.
    10030    2    1    2    0    0  0.00000000000E+00  0.00000000000E+00 -0.78517010989E+03  0.21492761422E+04  0.20007238276E+04 0.  0.
        4    1    3    3  502    0 -0.58706989555E+03  0.16020782549E+03 -0.12455178379E+04  0.13862301061E+04  0.12699999809E+01 0. -1.
       -4    1    3    3    0  502  0.58706989555E+03 -0.16020782549E+03  0.46034772805E+03  0.76304603611E+03  0.12699999809E+01 0.  1.
</event>
<event>
 5   0  0.2379743E-06  0.2000104E+04  0.7818609E-02  0.8606572E-01
       -1   -1    0    0    0  501  0.00000000000E+00  0.00000000000E+00  0.11949825958E+04  0.11949825958E+04  0.50400001928E-02 0. -1.
        1   -1    0    0  501    0  0.00000000000E+00  0.00000000000E+00 -0.83691929299E+03  0.83691929300E+03  0.50400001928E-02 0.  1.
    10030    2    1    2    0    0  0.00000000000E+00  0.00000000000E+00  0.35806330278E+03  0.20319018888E+04  0.20001039865E+04 0.  0.
        5    1    3    3  502    0  0.15790954944E+03 -0.27438062208E+02  0.11818386951E+04  0.11926663676E+04  0.46999998093E+01 0. -1.
       -5    1    3    3    0  502 -0.15790954944E+03  0.27438062208E+02 -0.82377539233E+03  0.83923552122E+03  0.46999998093E+01 0.  1.
</event>
<event>
 5   0  0.2313821E-06  0.1999940E+04  0.7818609E-02  0.8606649E-01
       -1   -1    0    0    0  501  0.00000000000E+00  0.00000000000E+00  0.51028433974E+03  0.51028433977E+03  0.50400001928E-02 0. -1.
        1   -1    0    0  501    0  0.00000000000E+00  0.00000000000E+00 -0.19595744167E+04  0.19595744167E+04  0.50400001928E-02 0.  1.
    10030    2    1    2    0    0  0.00000000000E+00  0.00000000000E+00 -0.14492900770E+04  0.24698587565E+04  0.19999401366E+04 0.  0.
        1    1    3    3  502    0  0.92348344447E+03 -0.36687128684E+03 -0.58643953562E+03  0.11538316785E+04  0.50400001928E-02 0.  1.
       -1    1    3    3    0  502 -0.92348344447E+03  0.36687128684E+03 -0.86285054137E+03  0.13160270780E+04  0.50400001928E-02 0. -1.
</event>
<event>
 5   0  0.5030137E-06  0.2007664E+04  0.7818609E-02  0.8603046E-01
       -2   -1    0    0    0  501  0.00000000000E+00  0.00000000000E+00  0.79169206233E+03  0.79169206233E+03  0.25500000920E-02 0. -1.
        2   -1    0    0  501    0  0.00000000000E+00  0.00000000000E+00 -0.12728164816E+04  0.12728164816E+04  0.25500000920E-02 0.  1.
    10030    2    1    2    0    0  0.00000000000E+00  0.00000000000E+00 -0.48112441926E+03  0.20645085439E+04  0.20076640210E+04 0.  0.
        3    1    3    3  502    0  0.52085912705E+03  0.69624875362E+03  0.27526004146E+03  0.91204421920E+03  0.10100000352E+00 0. -1.
       -3    1    3    3    0  502 -0.52085912705E+03 -0.69624875362E+03 -0.75638446072E+03  0.11524643247E+04  0.10100000352E+00 0.  1.
</event>
<event>
 5   0  0.5030137E-06  0.2000341E+04  0.7818609E-02  0.8606461E-01
        2   -1    0    0  501    0  0.00000000000E+00  0.00000000000E+00  0.17280862261E+04  0.17280862261E+04  0.25500000920E-02 0. -1.
       -2   -1    0    0    0  501  0.00000000000E+00  0.00000000000E+00 -0.57887246185E+03  0.57887246185E+03  0.25500000920E-02 0.  1.
    10030    2    1    2    0    0  0.00000000000E+00  0.00000000000E+00  0.11492137643E+04  0.23069586880E+04  0.20003414989E+04 0.  0.
        3    1    3    3  502    0 -0.49247356474E+03 -0.24527383286E+03 -0.38867881245E+03  0.67361761742E+03  0.10100000352E+00 0.  1.
       -3    1    3    3    0  502  0.49247356474E+03  0.24527383286E+03  0.15378925767E+04  0.16333410706E+04  0.10100000352E+00 0. -1.
</event>
<event>
 5   0  0.2379743E-06  0.2000701E+04  0.7818609E-02  0.8606293E-01
        1   -1    0    0  501    0  0.00000000000E+00  0.00000000000E+00  0.16837833199E+04  0.16837833199E+04  0.50400001928E-02 0. -1.
       -1   -1    0    0    0  501  0.00000000000E+00  0.00000000000E+00 -0.59431702506E+03  0.59431702509E+03  0.50400001928E-02 0.  1.
    10030    2    1    2    0    0  0.00000000000E+00  0.00000000000E+00  0.10894662948E+04  0.22781003450E+04  0.20007009707E+04 0.  0.
        5    1    3    3  502    0 -0.37913014915E+03 -0.42717014746E+03 -0.39039337634E+03  0.69184035960E+03  0.46999998093E+01 0.  1.
       -5    1    3    3    0  502  0.37913014915E+03  0.42717014746E+03  0.14798596712E+04  0.15862599854E+04  0.46999998093E+01 0. -1.
</event>
<event>
 5   0  0.2311520E-06  0.2001501E+04  0.7818609E-02  0.8605919E-01
        1   -1    0    0  501    0  0.00000000000E+00  0.00000000000E+00  0.62621707002E+03  0.62621707004E+03  0.50400001928E-02 0.  1.
       -1   -1    0    0    0  501  0.00000000000E+00  0.00000000000E+00 -0.15992884025E+04  0.15992884025E+04  0.50400001928E-02 0. -1.
    10030    2    1    2    0    0  0.00000000000E+00  0.00000000000E+00 -0.97307133250E+03  0.22255054726E+04  0.20015011342E+04 0.  0.
        3    1    3    3  502    0  0.45850286831E+02  0.83107593061E+03 -0.11043382892E+04  0.13828783455E+04  0.10100000352E+00 0. -1.
       -3    1    3    3    0  502 -0.45850286831E+02 -0.83107593061E+03  0.13126695666E+03  0.84262712712E+03  0.10100000352E+00 0.  1.
</event>
<event>
 5   0  0.2311520E-06  0.2000859E+04  0.7818609E-02  0.8606219E-01
       -1   -1    0    0    0  501  0.00000000000E+00  0.00000000000E+00  0.24567520390E+04  0.24567520390E+04  0.50400001928E-02 0.  1.
        1   -1    0    0  501    0  0.00000000000E+00  0.00000000000E+00 -0.40739111985E+03  0.40739111988E+03  0.50400001928E-02 0. -1.
    10030    2    1    2    0    0  0.00000000000E+00  0.00000000000E+00  0.20493609192E+04  0.28641431589E+04  0.20008587801E+04 0.  0.
        3    1    3    3  502    0 -0.69195236093E+03  0.29335436311E+03  0.19698801525E+04  0.21083839019E+04  0.10100000352E+00 0.  1.
       -3    1    3    3    0  502  0.69195236093E+03 -0.29335436311E+03  0.79480766666E+02  0.75575925706E+03  0.10100000352E+00 0. -1.
</event>
<event>
 5   0  0.5129100E-06  0.1997288E+04  0.7818609E-02  0.8607890E-01
       -2   -1    0    0    0  501  0.00000000000E+00  0.00000000000E+00  0.53508334891E+03  0.53508334892E+03  0.25500000920E-02 0. -1.
        2   -1    0    0  501    0  0.00000000000E+00  0.00000000000E+00 -0.18638024401E+04  0.18638024401E+04  0.25500000920E-02 0.  1.
    10030    2    1    2    0    0  0.00000000000E+00  0.00000000000E+00 -0.13287190911E+04  0.23988857890E+04  0.19972878124E+04 0.  0.
        2    1    3    3  502    0 -0.87644871589E+02 -0.83335391992E+03 -0.13168513529E+04  0.15608516473E+04  0.25500000920E-02 0. -1.
       -2    1    3    3    0  502  0.87644871589E+02  0.83335391992E+03 -0.11867738267E+02  0.83803414165E+03  0.25500000920E-02 0.  1.
</event>
<event>
 5   0  0.5129100E-06  0.1996770E+04  0.7818609E-02  0.8608132E-01
        2   -1    0    0  501    0  0.00000000000E+00  0.00000000000E+00  0.15438450178E+04  0.15438450178E+04  0.25500000920E-02 0. -1.
       -2   -1    0    0    0  501  0.00000000000E+00  0.00000000000E+00 -0.64564317184E+03  0.64564317185E+03  0.25500000920E-02 0.  1.
    10030    2    1    2    0    0  0.00000000000E+00  0.00000000000E+00  0.89820184600E+03  0.21894881897E+04  0.19967703866E+04 0.  0.
        2    1    3    3  502    0  0.87353127930E+03  0.46456456201E+03  0.59578765693E+03  0.11549199368E+04  0.25500000920E-02 0.  1.
       -2    1    3    3    0  502 -0.87353127930E+03 -0.46456456201E+03  0.30241418906E+03  0.10345682529E+04  0.25500000920E-02 0. -1.
</event>
<event>
 5   0  0.2356996E-06  0.1999715E+04  0.7818609E-02  0.8606754E-01
       -1   -1    0    0    0  501  0.00000000000E+00  0.00000000000E+00  0.11497515345E+04  0.11497515345E+04  0.50400001928E-02 0.  1.
        1   -1    0    0  501    0  0.00000000000E+00  0.00000000000E+00 -0.86950530347E+03  0.86950530349E+03  0.50400001928E-02 0. -1.
    10030    2    1    2    0    0  0.00000000000E+00  0.00000000000E+00  0.28024623099E+03  0.20192568380E+04  0.19997150366E+04 0.  0.
        4    1    3    3  502    0 -0.48067953102E+03  0.13772105955E+03  0.10144328925E+04  0.11309710908E+04  0.12699999809E+01 0.  1.
       -4    1    3    3    0  502  0.48067953102E+03 -0.13772105955E+03 -0.73418666154E+03  0.88828574720E+03  0.12699999809E+01 0. -1.
</event>
<event>
 5   0  0.4956214E-06  0.1999338E+04  0.7818609E-02  0.8606930E-01
        2   -1    0    0  501    0  0.00000000000E+00  0.00000000000E+00  0.10500518586E+04  0.10500518586E+04  0.25500000920E-02 0. -1.
       -2   -1    0    0    0  501  0.00000000000E+00  0.00000000000E+00 -0.95170343617E+03  0.95170343618E+03  0.25500000920E-02 0.  1.
    10030    2    1    2    0    0  0.00000000000E+00  0.00000000000E+00  0.98348422467E+02  0.20017552948E+04  0.19993378524E+04 0.  0.
        1    1    3    3  502    0 -0.36269248414E+03 -0.26061260581E+03  0.94461189796E+03  0.10448714783E+04  0.50400001928E-02 0. -1.
       -1    1    3    3    0  502  0.36269248414E+03  0.26061260581E+03 -0.84626347549E+03  0.95688381653E+03  0.50400001928E-02 0.  1.
</event>
<event>
 5   0  0.1777750E-06  0.2000555E+04  0.7818609E-02  0.8606361E-01
       -4   -1    0    0    0  501  0.00000000000E+00  0.00000000000E+00  0.53895280670E+03  0.53895430302E+03  0.12699999809E+01 0. -1.
        4   -1    0    0  501    0  0.00000000000E+00  0.00000000000E+00 -0.18564755065E+04  0.18564759409E+04  0.12699999809E+01 0.  1.
    10030    2    1    2    0    0  0.00000000000E+00  0.00000000000E+00 -0.13175226998E+04  0.23954302439E+04  0.20005549203E+04 0.  0.
        1    1    3    3  502    0 -0.72287836201E+03  0.66892334914E+03 -0.86802409124E+03  0.13128127804E+04  0.50400001928E-02 0.  1.
       -1    1    3    3    0  502  0.72287836201E+03 -0.66892334914E+03 -0.44949860857E+03  0.10826174636E+04  0.50400001928E-02 0. -1.
</event>
<event>
 5   0  0.1777750E-06  0.2001930E+04  0.7818609E-02  0.8605719E-01
        4   -1    0    0  501    0  0.00000000000E+00  0.00000000000E+00  0.77148560100E+03  0.77148664632E+03  0.12699999809E+01 0.  1.
       -4   -1    0    0    0  501  0.00000000000E+00  0.00000000000E+00 -0.12987014557E+04  0.12987020767E+04  0.12699999809E+01 0. -1.
    10030    2    1    2    0    0  0.00000000000E+00  0.00000000000E+00 -0.52721585472E+03  0.20701887230E+04  0.20019302664E+04 0.  0.
        1    1    3    3  502    0  0.55677786698E+03 -0.34755503507E+02  0.59582607185E+03  0.81622193435E+03  0.50400001928E-02 0.  1.
       -1    1    3    3    0  502 -0.55677786698E+03  0.34755503507E+02 -0.11230419266E+04  0.12539667887E+04  0.50400001928E-02 0. -1.
</event>
<event>
 5   0  0.5129100E-06  0.1996782E+04  0.7818609E-02  0.8608126E-01
        2   -1    0    0  501    0  0.00000000000E+00  0.00000000000E+00  0.15374663646E+04  0.15374663646E+04  0.25500000920E-02 0.  1.
       -2   -1    0    0    0  501  0.00000000000E+00  0.00000000000E+00 -0.64832960002E+03  0.64832960002E+03  0.25500000920E-02 0. -1.
    10030    2    1    2    0    0  0.00000000000E+00  0.00000000000E+00  0.88913676457E+03  0.21857959646E+04  0.19967823649E+04 0.  0.
        2    1    3    3  502    0  0.40176791102E+03 -0.58718638338E+03  0.12112828387E+04  0.14047816266E+04  0.25500000920E-02 0.  1.
       -2    1    3    3    0  502 -0.40176791102E+03  0.58718638338E+03 -0.32214607408E+03  0.78101433803E+03  0.25500000920E-02 0. -1.
</event>
<event>
 5   0  0.2379743E-06  0.2009905E+04  0.7818609E-02  0.8602004E-01
       -1   -1    0    0    0  501  0.00000000000E+00  0.00000000000E+00  0.10429176474E+04  0.10429176474E+04  0.50400001928E-02 0.  1.
        1   -1    0    0  501    0  0.00000000000E+00  0.00000000000E+00 -0.96836962046E+03  0.96836962048E+03  0.50400001928E-02 0. -1.
    10030    2    1    2    0    0  0.00000000000E+00  0.00000000000E+00  0.74548026960E+02  0.20112872679E+04  0.20099052380E+04 0.  0.
        5    1    3    3  502    0 -0.28227232508E+03 -0.94693052679E+03  0.22057362174E+03  0.10124376033E+04  0.46999998093E+01 0. -1.
       -5    1    3    3    0  502  0.28227232508E+03  0.94693052679E+03 -0.14602559478E+03  0.99884966456E+03  0.46999998093E+01 0.  1.
</event>
<event>
 5   0  0.5030137E-06  0.1999729E+04  0.7818609E-02  0.8606748E-01
       -2   -1    0    0    0  501  0.00000000000E+00  0.00000000000E+00  0.67120078135E+03  0.67120078135E+03  0.25500000920E-02 0.  1.
        2   -1    0    0  501    0  0.00000000000E+00  0.00000000000E+00 -0.14894627720E+04  0.14894627720E+04  0.25500000920E-02 0. -1.
    10030    2    1    2    0    0  0.00000000000E+00  0.00000000000E+00 -0.81826199070E+03  0.21606635534E+04  0.19997285580E+04 0.  0.
        3    1    3    3  502    0 -0.18513531462E+03  0.64183464792E+03  0.39472009087E+03  0.77590641210E+03  0.10100000352E+00 0.  1.
       -3    1    3    3    0  502  0.18513531462E+03 -0.64183464792E+03 -0.12129820816E+04  0.13847571413E+04  0.10100000352E+00 0. -1.
</event>
<event>
 5   0  0.2311520E-06  0.2002367E+04  0.7818609E-02  0.8605515E-01
       -1   -1    0    0    0  501  0.00000000000E+00  0.00000000000E+00  0.77924797380E+03  0.77924797381E+03  0.50400001928E-02 0. -1.
        1   -1    0    0  501    0  0.00000000000E+00  0.00000000000E+00 -0.12863275002E+04  0.12863275002E+04  0.50400001928E-02 0.  1.
    10030    2    1    2    0    0  0.00000000000E+00  0.00000000000E+00 -0.50707952639E+03  0.20655754740E+04  0.20023666979E+04 0.  0.
        3    1    3    3  502    0 -0.44104092549E+03 -0.82594545194E+03 -0.61922278403E+03  0.11225595102E+04  0.10100000352E+00 0.  1.
       -3    1    3    3    0  502  0.44104092549E+03  0.82594545194E+03  0.11214325764E+03  0.94301596379E+03  0.10100000352E+00 0. -1.
</event>
<event>
 5   0  0.5118981E-06  0.1999314E+04  0.7818609E-02  0.8606942E-01
       -2   -1    0    0    0  501  0.00000000000E+00  0.00000000000E+00  0.16291268981E+04  0.16291268981E+04  0.25500000920E-02 0.  1.
        2   -1    0    0  501    0  0.00000000000E+00  0.00000000000E+00 -0.61340447131E+03  0.61340447131E+03  0.25500000920E-02 0. -1.
    10030    2    1    2    0    0  0.00000000000E+00  0.00000000000E+00  0.10157224268E+04  0.22425313694E+04  0.19993136058E+04 0.  0.
        4    1    3    3  502    0 -0.71976064233E+03  0.47877255728E+03  0.10709628612E+04  0.13763145014E+04  0.12699999809E+01 0.  1.
       -4    1    3    3    0  502  0.71976064233E+03 -0.47877255728E+03 -0.55240434436E+02  0.86621686796E+03  0.12699999809E+01 0. -1.
</event>
<event>
 5   0  0.2356996E-06  0.2001509E+04  0.7818609E-02  0.8605915E-01
        1   -1    0    0  501    0  0.00000000000E+00  0.00000000000E+00  0.97310527194E+03  0.97310527195E+03  0.50400001928E-02 0.  1.
       -1   -1    0    0    0  501  0.00000000000E+00  0.00000000000E+00 -0.10291898213E+04  0.10291898213E+04  0.50400001928E-02 0. -1.
    10030    2    1    2    0    0  0.00000000000E+00  0.00000000000E+00 -0.56084549330E+02  0.20022950932E+04  0.20015094713E+04 0.  0.
        4    1    3    3  502    0 -0.41730204252E+03  0.51083837827E+03 -0.78094088780E+03  0.10222363360E+04  0.12699999809E+01 0. -1.
       -4    1    3    3    0  502  0.41730204252E+03 -0.51083837827E+03  0.72485633847E+03  0.98005875728E+03  0.12699999809E+01 0.  1.
</event>
<event>
 5   0  0.2313821E-06  0.2000184E+04  0.7818609E-02  0.8606535E-01
        1   -1    0    0  501    0  0.00000000000E+00  0.00000000000E+00  0.10316986007E+04  0.10316986007E+04  0.50400001928E-02 0. -1.
       -1   -1    0    0    0  501  0.00000000000E+00  0.00000000000E+00 -0.96945325567E+03  0.96945325568E+03  0.50400001928E-02 0.  1.
    10030    2    1    2    0    0  0.00000000000E+00  0.00000000000E+00  0.62245345050E+02  0.20011518564E+04  0.20001835589E+04 0.  0.
        1    1    3    3  502    0 -0.70152014628E+03 -0.57687242781E+03 -0.38773409768E+03  0.98754748956E+03  0.50400001928E-02 0.  1.
       -1    1    3    3    0  502  0.70152014628E+03  0.57687242781E+03  0.44997944273E+03  0.10136043669E+04  0.50400001928E-02 0. -1.
</event>
<event>
 5   0  0.5251252E-06  0.1999865E+04  0.7818609E-02  0.8606684E-01
        2   -1    0    0  501    0  0.00000000000E+00  0.00000000000E+00  0.16803094558E+04  0.16803094558E+04  0.25500000920E-02 0. -1.
       -2   -1    0    0    0  501  0.00000000000E+00  0.00000000000E+00 -0.59504803994E+03  0.59504803994E+03  0.25500000920E-02 0.  1.
    10030    2    1    2    0    0  0.00000000000E+00  0.00000000000E+00  0.10852614159E+04  0.22753574957E+04  0.19998648436E+04 0.  0.
        5    1    3    3  502    0  0.89049556245E+03 -0.40034636441E+03  0.29706729862E+03  0.10205540790E+04  0.46999998093E+01 0.  1.
       -5    1    3    3    0  502 -0.89049556245E+03  0.40034636441E+03  0.78819411723E+03  0.12548034167E+04  0.46999998093E+01 0. -1.
</event>
<event>
 5   0  0.2379743E-06  0.2002245E+04  0.7818609E-02  0.8605572E-01
        1   -1    0    0  501    0  0.00000000000E+00  0.00000000000E+00  0.10520527524E+04  0.10520527524E+04  0.50400001928E-02 0.  1.
       -1   -1    0    0    0  501  0.00000000000E+00  0.00000000000E+00 -0.95265747332E+03  0.95265747333E+03  0.50400001928E-02 0. -1.
    10030    2    1    2    0    0  0.00000000000E+00  0.00000000000E+00  0.99395279067E+02  0.20047102257E+04  0.20022446573E+04 0.  0.
        5    1    3    3  502    0  0.23241834720E+03 -0.46998511192E+03  0.90357812412E+03  0.10446912510E+04  0.46999998093E+01 0.  1.
       -5    1    3    3    0  502 -0.23241834720E+03  0.46998511192E+03 -0.80418284506E+03  0.96001897472E+03  0.46999998093E+01 0. -1.
</event>
<event>
 5   0  0.5030137E-06  0.1999449E+04  0.7818609E-02  0.8606878E-01
       -2   -1    0    0    0  501  0.00000000000E+00  0.00000000000E+00  0.43073311916E+03  0.43073311917E+03  0.25500000920E-02 0.  1.
        2   -1    0    0  501    0  0.00000000000E+00  0.00000000000E+00 -0.23203441363E+04  0.23203441363E+04  0.25500000920E-02 0. -1.
    10030    2    1    2    0    0  0.00000000000E+00  0.00000000000E+00 -0.18896110171E+04  0.27510772554E+04  0.19994489915E+04 0.  0.
        3    1    3    3  502    0 -0.94379335419E+03 -0.32032716500E+03 -0.83739868057E+03  0.13017649360E+04  0.10100000352E+00 0.  1.
       -3    1    3    3    0  502  0.94379335419E+03  0.32032716500E+03 -0.10522123365E+04  0.14493123195E+04  0.10100000352E+00 0. -1.
</event>
<event>
 5   0  0.4956214E-06  0.2000357E+04  0.7818609E-02  0.8606454E-01
        2   -1    0    0  501    0  0.00000000000E+00  0.00000000000E+00  0.11673631909E+04  0.11673631909E+04  0.25500000920E-02 0. -1.
       -2   -1    0    0    0  501  0.00000000000E+00  0.00000000000E+00 -0.85693695414E+03  0.85693695414E+03  0.25500000920E-02 0.  1.
    10030    2    1    2    0    0  0.00000000000E+00  0.00000000000E+00  0.31042623678E+03  0.20243001451E+04  0.20003566254E+04 0.  0.
        1    1    3    3  502    0 -0.92632185424E+03  0.23232877714E+03 -0.14551016624E+03  0.96603418513E+03  0.50400001928E-02 0.  1.
       -1    1    3    3    0  502  0.92632185424E+03 -0.23232877714E+03  0.45593640302E+03  0.10582659599E+04  0.50400001928E-02 0. -1.
</event>
<event>
 5   0  0.2386776E-06  0.1999910E+04  0.7818609E-02  0.8606663E-01
       -1   -1    0    0    0  501  0.00000000000E+00  0.00000000000E+00  0.95334771593E+03  0.95334771594E+03  0.50400001928E-02 0. -1.
        1   -1    0    0  501    0  0.00000000000E+00  0.00000000000E+00 -0.10488411458E+04  0.10488411458E+04  0.50400001928E-02 0.  1.
    10030    2    1    2    0    0  0.00000000000E+00  0.00000000000E+00 -0.95493429901E+02  0.20021888618E+04  0.19999103088E+04 0.  0.
        2    1    3    3  502    0  0.35285793976E+03  0.16826663223E+03 -0.96916911889E+03  0.10450412270E+04  0.25500000920E-02 0.  1.
       -2    1    3    3    0  502 -0.35285793976E+03 -0.16826663223E+03  0.87367568899E+03  0.95714763475E+03  0.25500000920E-02 0. -1.
</event>
<event>
 5   0  0.2386776E-06  0.2000692E+04  0.7818609E-02  0.8606297E-01
        1   -1    0    0  501    0  0.00000000000E+00  0.00000000000E+00  0.14204918182E+04  0.14204918182E+04  0.50400001928E-02 0.  1.
       -1   -1    0    0    0  501  0.00000000000E+00  0.00000000000E+00 -0.70446867571E+03  0.70446867573E+03  0.50400001928E-02 0. -1.
    10030    2    1    2    0    0  0.00000000000E+00  0.00000000000E+00  0.71602314251E+03  0.21249604940E+04  0.20006918704E+04 0.  0.
        2    1    3    3  502    0  0.11237188209E+02 -0.54761659147E+03 -0.53104841920E+03  0.76290407601E+03  0.25500000920E-02 0. -1.
       -2    1    3    3    0  502 -0.11237188209E+02  0.54761659147E+03  0.12470715617E+04  0.13620564180E+04  0.25500000920E-02 0.  1.
</event>
<event>
 5   0  0.5030137E-06  0.2001012E+04  0.7818609E-02  0.8606148E-01
       -2   -1    0    0    0  501  0.00000000000E+00  0.00000000000E+00  0.68373800407E+03  0.68373800408E+03  0.25500000920E-02 0. -1.
        2   -1    0    0  501    0  0.00000000000E+00  0.00000000000E+00 -0.14640290166E+04  0.14640290166E+04  0.25500000920E-02 0.  1.
    10030    2    1    2    0    0  0.00000000000E+00  0.00000000000E+00 -0.78029101249E+03  0.21477670206E+04  0.20010120216E+04 0.  0.
        3    1    3    3  502    0  0.94908544966E+03  0.22182239789E+03 -0.14764681534E+03  0.98578291690E+03  0.10100000352E+00 0. -1.
       -3    1    3    3    0  502 -0.94908544966E+03 -0.22182239789E+03 -0.63264419715E+03  0.11619841037E+04  0.10100000352E+00 0.  1.
</event>
<event>
 5   0  0.5251252E-06  0.1999743E+04  0.7818609E-02  0.8606741E-01
       -2   -1    0    0    0  501  0.00000000000E+00  0.00000000000E+00  0.51529813776E+03  0.51529813777E+03  0.25500000920E-02 0. -1.
        2   -1    0    0  501    0  0.00000000000E+00  0.00000000000E+00 -0.19401250285E+04  0.19401250285E+04  0.25500000920E-02 0.  1.
    10030    2    1    2    0    0  0.00000000000E+00  0.00000000000E+00 -0.14248268908E+04  0.24554231663E+04  0.19997427977E+04 0.  0.
        5    1    3    3  502    0 -0.93036100432E+03  0.36612191532E+03 -0.69989947384E+03  0.12204500066E+04  0.46999998093E+01 0. -1.
       -5    1    3    3    0  502  0.93036100432E+03 -0.36612191532E+03 -0.72492741692E+03  0.12349731596E+04  0.46999998093E+01 0.  1.
</event>
<event>
 5   0  0.2356996E-06  0.1999904E+04  0.7818609E-02  0.8606666E-01
       -1   -1    0    0    0  501  0.00000000000E+00  0.00000000000E+00  0.10515356801E+04  0.10515356801E+04  0.50400001928E-02 0.  1.
        1   -1    0    0  501    0  0.00000000000E+00  0.00000000000E+00 -0.95089836554E+03  0.95089836555E+03  0.50400001928E-02 0. -1.
    10030    2    1    2    0    0  0.00000000000E+00  0.00000000000E+00  0.10063731452E+03  0.20024340456E+04  0.19999035572E+04 0.  0.
        4    1    3    3  502    0 -0.16890730149E+03 -0.56832120784E+03 -0.75592269518E+03  0.96069735389E+03  0.12699999809E+01 0. -1.
       -4    1    3    3    0  502  0.16890730149E+03  0.56832120784E+03  0.85656000970E+03  0.10417366917E+04  0.12699999809E+01 0.  1.
</event>
<event>
 5   0  0.2356996E-06  0.2000160E+04  0.7818609E-02  0.8606546E-01
        1   -1    0    0  501    0  0.00000000000E+00  0.00000000000E+00  0.12428917762E+04  0.12428917762E+04  0.50400001928E-02 0. -1.
       -1   -1    0    0    0  501  0.00000000000E+00  0.00000000000E+00 -0.80470431370E+03  0.80470431371E+03  0.50400001928E-02 0.  1.
    10030    2    1    2    0    0  0.00000000000E+00  0.00000000000E+00  0.43818746247E+03  0.20475960899E+04  0.20001603673E+04 0.  0.
        4    1    3    3  502    0 -0.85876770424E+03 -0.39643938666E+03  0.55162435277E+03  0.10949599064E+04  0.12699999809E+01 0. -1.
       -4    1    3    3    0  502  0.85876770424E+03  0.39643938666E+03 -0.11343689030E+03  0.95263618350E+03  0.12699999809E+01 0.  1.
</event>
<event>
 5   0  0.2313821E-06  0.1991538E+04  0.7818609E-02  0.8610587E-01
       -1   -1    0    0    0  501  0.00000000000E+00  0.00000000000E+00  0.64180716623E+03  0.64180716625E+03  0.50400001928E-02 0.  1.
        1   -1    0    0  501    0  0.00000000000E+00  0.00000000000E+00 -0.15449435060E+04  0.15449435060E+04  0.50400001928E-02 0. -1.
    10030    2    1    2    0    0  0.00000000000E+00  0.00000000000E+00 -0.90313633981E+03  0.21867506723E+04  0.19915379119E+04 0.  0.
        1    1    3    3  502    0  0.31085958279E+03  0.77377889500E+03  0.14600994005E+03  0.84657330526E+03  0.50400001928E-02 0.  1.
       -1    1    3    3    0  502 -0.31085958279E+03 -0.77377889500E+03 -0.10491462799E+04  0.13401773670E+04  0.50400001928E-02 0. -1.
</event>
<event>
 5   0  0.2313821E-06  0.2000623E+04  0.7818609E-02  0.8606330E-01
        1   -1    0    0  501    0  0.00000000000E+00  0.00000000000E+00  0.13714157878E+04  0.13714157878E+04  0.50400001928E-02 0.  1.
       -1   -1    0    0    0  501  0.00000000000E+00  0.00000000000E+00 -0.72962762899E+03  0.72962762900E+03  0.50400001928E-02 0. -1.
    10030    2    1    2    0    0  0.00000000000E+00  0.00000000000E+00  0.64178815880E+03  0.21010434168E+04  0.20006227527E+04 0.  0.
        1    1    3    3  502    0  0.75554564478E+03 -0.84113055017E+02 -0.36189291385E+03  0.84195647660E+03  0.50400001928E-02 0. -1.
       -1    1    3    3    0  502 -0.75554564478E+03  0.84113055017E+02  0.10036810726E+04  0.12590869402E+04  0.50400001928E-02 0.  1.
</event>
<event>
 5   0  0.2386776E-06  0.1998270E+04  0.7818609E-02  0.8607430E-01
        1   -1    0    0  501    0  0.00000000000E+00  0.00000000000E+00  0.88261271925E+03  0.88261271926E+03  0.50400001928E-02 0.  1.
       -1   -1    0    0    0  501  0.00000000000E+00  0.00000000000E+00 -0.11310402404E+04  0.11310402405E+04  0.50400001928E-02 0. -1.
    10030    2    1    2    0    0  0.00000000000E+00  0.00000000000E+00 -0.24842752120E+03  0.20136529597E+04  0.19982697538E+04 0.  0.
        2    1    3    3  502    0  0.78373321722E+03 -0.37413361401E+01 -0.74867677923E+03  0.10838674611E+04  0.25500000920E-02 0. -1.
       -2    1    3    3    0  502 -0.78373321722E+03  0.37413361401E+01  0.50024925803E+03  0.92978549867E+03  0.25500000920E-02 0.  1.
</event>
<event>
 5   0  0.2379743E-06  0.1999816E+04  0.7818609E-02  0.8606707E-01
        1   -1    0    0  501    0  0.00000000000E+00  0.00000000000E+00  0.13275846114E+04  0.13275846114E+04  0.50400001928E-02 0.  1.
       -1   -1    0    0    0  501  0.00000000000E+00  0.00000000000E+00 -0.75310927524E+03  0.75310927526E+03  0.50400001928E-02 0. -1.
    10030    2    1    2    0    0  0.00000000000E+00  0.00000000000E+00  0.57447533618E+03  0.20806938867E+04  0.19998162761E+04 0.  0.
        5    1    3    3  502    0 -0.88553486676E+03  0.44518420197E+03  0.14986292105E+03  0.10024180560E+04  0.46999998093E+01 0.  1.
       -5    1    3    3    0  502  0.88553486676E+03 -0.44518420197E+03  0.42461241513E+03  0.10782758307E+04  0.46999998093E+01 0. -1.
</event>
<event>
 5   0  0.2386776E-06  0.1999979E+04  0.7818609E-02  0.8606630E-01
        1   -1    0    0  501    0  0.00000000000E+00  0.00000000000E+00  0.77126195807E+03  0.77126195808E+03  0.50400001928E-02 0.  1.
       -1   -1    0    0    0  501  0.00000000000E+00  0.00000000000E+00 -0.12965494575E+04  0.12965494575E+04  0.50400001928E-02 0. -1.
    10030    2    1    2    0    0  0.00000000000E+00  0.00000000000E+00 -0.52528749939E+03  0.20678114156E+04  0.19999792732E+04 0.  0.
        2    1    3    3  502    0  0.96655078386E+03  0.24145405944E+03 -0.17335027922E+03  0.10112224285E+04  0.25500000920E-02 0. -1.
       -2    1    3    3    0  502 -0.96655078386E+03 -0.24145405944E+03 -0.35193722017E+03  0.10565889870E+04  0.25500000920E-02 0.  1.
</event>
<event>
 5   0  0.4956214E-06  0.1999811E+04  0.7818609E-02  0.8606709E-01
       -2   -1    0    0    0  501  0.00000000000E+00  0.00000000000E+00  0.38914696152E+03  0.38914696153E+03  0.25500000920E-02 0.  1.
        2   -1    0    0  501    0  0.00000000000E+00  0.00000000000E+00 -0.25692367375E+04  0.25692367375E+04  0.25500000920E-02 0. -1.
    10030    2    1    2    0    0  0.00000000000E+00  0.00000000000E+00 -0.21800897760E+04  0.29583836990E+04  0.19998106609E+04 0.  0.
        1    1    3    3  502    0  0.45837425824E+03 -0.76454809796E+03 -0.41997136005E+03  0.98540179521E+03  0.50400001928E-02 0.  1.
       -1    1    3    3    0  502 -0.45837425824E+03  0.76454809796E+03 -0.17601184159E+04  0.19729819038E+04  0.50400001928E-02 0. -1.
</event>
<event>
 5   0  0.4956214E-06  0.1996148E+04  0.7818609E-02  0.8608423E-01
       -2   -1    0    0    0  501  0.00000000000E+00  0.00000000000E+00  0.11736357371E+04  0.11736357371E+04  0.25500000920E-02 0. -1.
        2   -1    0    0  501    0  0.00000000000E+00  0.00000000000E+00 -0.84877457695E+03  0.84877457696E+03  0.25500000920E-02 0.  1.
    10030    2    1    2    0    0  0.00000000000E+00  0.00000000000E+00  0.32486116016E+03  0.20224103141E+04  0.19961484677E+04 0.  0.
        1    1    3    3  502    0  0.72518196826E+03  0.58276177836E+03 -0.20378301347E+03  0.95238001555E+03  0.50400001928E-02 0.  1.
       -1    1    3    3    0  502 -0.72518196826E+03 -0.58276177836E+03  0.52864417362E+03  0.10700302985E+04  0.50400001928E-02 0. -1.
</event>
<event>
 5   0  0.5129100E-06  0.1999868E+04  0.7818609E-02  0.8606683E-01
       -2   -1    0    0    0  501  0.00000000000E+00  0.00000000000E+00  0.91846218008E+03  0.91846218008E+03  0.25500000920E-02 0. -1.
        2   -1    0    0  501    0  0.00000000000E+00  0.00000000000E+00 -0.10886323478E+04  0.10886323478E+04  0.25500000920E-02 0.  1.
    10030    2    1    2    0    0  0.00000000000E+00  0.00000000000E+00 -0.17017016773E+03  0.20070945279E+04  0.19998676351E+04 0.  0.
        2    1    3    3  502    0  0.10427743315E+03 -0.50516385684E+03 -0.94480386678E+03  0.10764379462E+04  0.25500000920E-02 0.  1.
       -2    1    3    3    0  502 -0.10427743315E+03  0.50516385684E+03  0.77463369906E+03  0.93065658169E+03  0.25500000920E-02 0. -1.
</event>
<event>
 5   0  0.2356996E-06  0.2003464E+04  0.7818609E-02  0.8605003E-01
        1   -1    0    0  501    0  0.00000000000E+00  0.00000000000E+00  0.12188883657E+04  0.12188883657E+04  0.50400001928E-02 0.  1.
       -1   -1    0    0    0  501  0.00000000000E+00  0.00000000000E+00 -0.82326368445E+03  0.82326368447E+03  0.50400001928E-02 0. -1.
    10030    2    1    2    0    0  0.00000000000E+00  0.00000000000E+00  0.39562468128E+03  0.20421520502E+04  0.20034635279E+04 0.  0.
        4    1    3    3  502    0  0.37944943920E+03 -0.39041149766E+03 -0.65929527088E+03  0.85502916998E+03  0.12699999809E+01 0. -1.
       -4    1    3    3    0  502 -0.37944943920E+03  0.39041149766E+03  0.10549199522E+04  0.11871228802E+04  0.12699999809E+01 0.  1.
</event>
<event>
 5   0  0.2356996E-06  0.2000206E+04  0.7818609E-02  0.8606525E-01
       -1   -1    0    0    0  501  0.00000000000E+00  0.00000000000E+00  0.83950861015E+03  0.83950861017E+03  0.50400001928E-02 0.  1.
        1   -1    0    0  501    0  0.00000000000E+00  0.00000000000E+00 -0.11914179713E+04  0.11914179713E+04  0.50400001928E-02 0. -1.
    10030    2    1    2    0    0  0.00000000000E+00  0.00000000000E+00 -0.35190936117E+03  0.20309265815E+04  0.20002056347E+04 0.  0.
        4    1    3    3  502    0 -0.61533209531E+03 -0.67201486690E+03  0.24264722064E+03  0.94292993135E+03  0.12699999809E+01 0.  1.
       -4    1    3    3    0  502  0.61533209531E+03  0.67201486690E+03 -0.59455658180E+03  0.10879966501E+04  0.12699999809E+01 0. -1.
</event>
<event>
 5   0  0.2313821E-06  0.1999928E+04  0.7818609E-02  0.8606654E-01
       -1   -1    0    0    0  501  0.00000000000E+00  0.00000000000E+00  0.75891379762E+03  0.75891379764E+03  0.50400001928E-02 0. -1.
        1   -1    0    0  501    0  0.00000000000E+00  0.00000000000E+00 -0.13175775615E+04  0.13175775615E+04  0.50400001928E-02 0.  1.
    10030    2    1    2    0    0  0.00000000000E+00  0.00000000000E+00 -0.55866376392E+03  0.20764913592E+04  0.19999277896E+04 0.  0.
        1    1    3    3  502    0 -0.40602781956E+03  0.30550227071E+03  0.61488105714E+03  0.79766468026E+03  0.50400001928E-02 0. -1.
       -1    1    3    3    0  502  0.40602781956E+03 -0.30550227071E+03 -0.11735448211E+04  0.12788266789E+04  0.50400001928E-02 0.  1.
</event>
<event>
 5   0  0.2386776E-06  0.2002390E+04  0.7818609E-02  0.8605504E-01
        1   -1    0    0  501    0  0.00000000000E+00  0.00000000000E+00  0.16026082466E+04  0.16026082466E+04  0.50400001928E-02 0. -1.
       -1   -1    0    0    0  501  0.00000000000E+00  0.00000000000E+00 -0.62547512724E+03  0.62547512727E+03  0.50400001928E-02 0.  1.
    10030    2    1    2    0    0  0.00000000000E+00  0.00000000000E+00  0.97713311936E+03  0.22280833739E+04  0.20023901688E+04 0.  0.
        2    1    3    3  502    0  0.91977589438E+03  0.74799425235E+02  0.92067852028E+03  0.13035457750E+04  0.25500000920E-02 0. -1.
       -2    1    3    3    0  502 -0.91977589438E+03 -0.74799425235E+02  0.56454599082E+02  0.92453759884E+03  0.25500000920E-02 0.  1.
</event>
<event>
 5   0  0.2386776E-06  0.1999643E+04  0.7818609E-02  0.8606788E-01
       -1   -1    0    0    0  501  0.00000000000E+00  0.00000000000E+00  0.12343255905E+04  0.12343255905E+04  0.50400001928E-02 0. -1.
        1   -1    0    0  501    0  0.00000000000E+00  0.00000000000E+00 -0.80986951217E+03  0.80986951219E+03  0.50400001928E-02 0.  1.
    10030    2    1    2    0    0  0.00000000000E+00  0.00000000000E+00  0.42445607832E+03  0.20441951027E+04  0.19996426319E+04 0.  0.
        2    1    3    3  502    0  0.77945910168E+03  0.49726408754E+03 -0.17679572400E+03  0.94132076998E+03  0.25500000920E-02 0.  1.
       -2    1    3    3    0  502 -0.77945910168E+03 -0.49726408754E+03  0.60125180232E+03  0.11028743327E+04  0.25500000920E-02 0. -1.
</event>
<event>
 5   0  0.5030137E-06  0.2000016E+04  0.7818609E-02  0.8606613E-01
       -2   -1    0    0    0  501  0.00000000000E+00  0.00000000000E+00  0.13750661368E+04  0.13750661368E+04  0.25500000920E-02 0. -1.
        2   -1    0    0  501    0  0.00000000000E+00  0.00000000000E+00 -0.72724921672E+03  0.72724921672E+03  0.25500000920E-02 0.  1.
    10030    2    1    2    0    0  0.00000000000E+00  0.00000000000E+00  0.64781692005E+03  0.21023153535E+04  0.20000157708E+04 0.  0.
        3    1    3    3  502    0  0.80817478720E+02  0.97504565762E+03  0.10652054662E+03  0.98417078618E+03  0.10100000352E+00 0. -1.
       -3    1    3    3    0  502 -0.80817478720E+02 -0.97504565762E+03  0.54129637343E+03  0.11181445673E+04  0.10100000352E+00 0.  1.
</event>
<event>
 5   0  0.4956214E-06  0.2000756E+04  0.7818609E-02  0.8606267E-01
       -2   -1    0    0    0  501  0.00000000000E+00  0.00000000000E+00  0.89007251352E+03  0.89007251352E+03  0.25500000920E-02 0. -1.
        2   -1    0    0  501    0  0.00000000000E+00  0.00000000000E+00 -0.11243537053E+04  0.11243537053E+04  0.25500000920E-02 0.  1.
    10030    2    1    2    0    0  0.00000000000E+00  0.00000000000E+00 -0.23428119181E+03  0.20144262189E+04  0.20007561856E+04 0.  0.
        1    1    3    3  502    0  0.30252178353E+03 -0.93461884369E+03  0.73160099106E+02  0.98508081527E+03  0.50400001928E-02 0. -1.
       -1    1    3    3    0  502 -0.30252178353E+03  0.93461884369E+03 -0.30744129092E+03  0.10293454036E+04  0.50400001928E-02 0.  1.
</event>
<event>
 5   0  0.5030137E-06  0.1998090E+04  0.7818609E-02  0.8607514E-01
       -2   -1    0    0    0  501  0.00000000000E+00  0.00000000000E+00  0.11981236319E+04  0.11981236319E+04  0.25500000920E-02 0.  1.
        2   -1    0    0  501    0  0.00000000000E+00  0.00000000000E+00 -0.83304459412E+03  0.83304459412E+03  0.25500000920E-02 0. -1.
    10030    2    1    2    0    0  0.00000000000E+00  0.00000000000E+00  0.36507903776E+03  0.20311682260E+04  0.19980895021E+04 0.  0.
        3    1    3    3  502    0  0.79748837527E+03 -0.17746276161E+02  0.79398521756E+03  0.11254844179E+04  0.10100000352E+00 0.  1.
       -3    1    3    3    0  502 -0.79748837527E+03  0.17746276161E+02 -0.42890617980E+03  0.90568380812E+03  0.10100000352E+00 0. -1.
</event>
<event>
 5   0  0.2313821E-06  0.2001741E+04  0.7818609E-02  0.8605807E-01
       -1   -1    0    0    0  501  0.00000000000E+00  0.00000000000E+00  0.13561752493E+04  0.13561752493E+04  0.50400001928E-02 0.  1.
        1   -1    0    0  501    0  0.00000000000E+00  0.00000000000E+00 -0.73865246817E+03  0.73865246819E+03  0.50400001928E-02 0. -1.
    10030    2    1    2    0    0  0.00000000000E+00  0.00000000000E+00  0.61752278111E+03  0.20948277175E+04  0.20017414370E+04 0.  0.
        1    1    3    3  502    0  0.12563549257E+03  0.62244242036E+03  0.11183807452E+04  0.12860771108E+04  0.50400001928E-02 0.  1.
       -1    1    3    3    0  502 -0.12563549257E+03 -0.62244242036E+03 -0.50085796407E+03  0.80875060671E+03  0.50400001928E-02 0. -1.
</event>
<event>
 5   0  0.5129100E-06  0.1995766E+04  0.7818609E-02  0.8608603E-01
        2   -1    0    0  501    0  0.00000000000E+00  0.00000000000E+00  0.98331502528E+03  0.98331502528E+03  0.25500000920E-02 0.  1.
       -2   -1    0    0    0  501  0.00000000000E+00  0.00000000000E+00 -0.10126668801E+04  0.10126668801E+04  0.25500000920E-02 0. -1.
    10030    2    1    2    0    0  0.00000000000E+00  0.00000000000E+00 -0.29351854817E+02  0.19959819054E+04  0.19957660773E+04 0.  0.
        2    1    3    3  502    0 -0.73388082100E+03  0.13634933517E+02 -0.69076943926E+03  0.10079332265E+04  0.25500000920E-02 0. -1.
       -2    1    3    3    0  502  0.73388082100E+03 -0.13634933517E+02  0.66141758444E+03  0.98804867889E+03  0.25500000920E-02 0.  1.
</event>
<event>
 5   0  0.5129100E-06  0.1999853E+04  0.7818609E-02  0.8606689E-01
       -2   -1    0    0    0  501  0.00000000000E+00  0.00000000000E+00  0.11796959114E+04  0.11796959114E+04  0.25500000920E-02 0. -1.
        2   -1    0    0  501    0  0.00000000000E+00  0.00000000000E+00 -0.84755143627E+03  0.84755143627E+03  0.25500000920E-02 0.  1.
    10030    2    1    2    0    0  0.00000000000E+00  0.00000000000E+00  0.33214447515E+03  0.20272473477E+04  0.19998529587E+04 0.  0.
        2    1    3    3  502    0  0.68414664959E+03  0.47781022127E+03  0.72452125266E+03  0.11051200348E+04  0.25500000920E-02 0. -1.
       -2    1    3    3    0  502 -0.68414664959E+03 -0.47781022127E+03 -0.39237677751E+03  0.92212731292E+03  0.25500000920E-02 0.  1.
</event>
<event>
 5   0  0.2313821E-06  0.2000664E+04  0.7818609E-02  0.8606310E-01
        1   -1    0    0  501    0  0.00000000000E+00  0.00000000000E+00  0.13835608586E+04  0.13835608587E+04  0.50400001928E-02 0.  1.
       -1   -1    0    0    0  501  0.00000000000E+00  0.00000000000E+00 -0.72325292310E+03  0.72325292312E+03  0.50400001928E-02 0. -1.
    10030    2    1    2    0    0  0.00000000000E+00  0.00000000000E+00  0.66030793554E+03  0.21068137818E+04  0.20006643250E+04 0.  0.
        1    1    3    3  502    0 -0.41258854281E+03  0.10953914872E+03 -0.62252014779E+03  0.75482412865E+03  0.50400001928E-02 0. -1.
       -1    1    3    3    0  502  0.41258854281E+03 -0.10953914872E+03  0.12828280833E+04  0.13519896531E+04  0.50400001928E-02 0.  1.
</event>
<event>
 5   0  0.2356996E-06  0.1996930E+04  0.7818609E-02  0.8608058E-01
       -1   -1    0    0    0  501  0.00000000000E+00  0.00000000000E+00  0.97489068280E+03  0.97489068281E+03  0.50400001928E-02 0.  1.
        1   -1    0    0  501    0  0.00000000000E+00  0.00000000000E+00 -0.10226088959E+04  0.10226088960E+04  0.50400001928E-02 0. -1.
    10030    2    1    2    0    0  0.00000000000E+00  0.00000000000E+00 -0.47718213141E+02  0.19974995788E+04  0.19969295279E+04 0.  0.
        4    1    3    3  502    0  0.29220478997E+03  0.64394159050E+03 -0.72896164302E+03  0.10155939647E+04  0.12699999809E+01 0. -1.
       -4    1    3    3    0  502 -0.29220478997E+03 -0.64394159050E+03  0.68124342988E+03  0.98190561405E+03  0.12699999809E+01 0.  1.
</event>
<event>
 5   0  0.2379743E-06  0.1999753E+04  0.7818609E-02  0.8606736E-01
       -1   -1    0    0    0  501  0.00000000000E+00  0.00000000000E+00  0.12829392451E+04  0.12829392451E+04  0.50400001928E-02 0.  1.
        1   -1    0    0  501    0  0.00000000000E+00  0.00000000000E+00 -0.77926728193E+03  0.77926728195E+03  0.50400001928E-02 0. -1.
    10030    2    1    2    0    0  0.00000000000E+00  0.00000000000E+00  0.50367196316E+03  0.20622065271E+04  0.19997525631E+04 0.  0.
        5    1    3    3  502    0  0.39644265412E+03 -0.70183502267E+03 -0.35824084167E+03  0.88209850226E+03  0.46999998093E+01 0. -1.
       -5    1    3    3    0  502 -0.39644265412E+03  0.70183502267E+03  0.86191280483E+03  0.11801080248E+04  0.46999998093E+01 0.  1.
</event>
<event>
 5   0  0.5118981E-06  0.2000063E+04  0.7818609E-02  0.8606591E-01
        2   -1    0    0  501    0  0.00000000000E+00  0.00000000000E+00  0.11279306230E+04  0.11279306230E+04  0.25500000920E-02 0.  1.
       -2   -1    0    0    0  501  0.00000000000E+00  0.00000000000E+00 -0.88663560422E+03  0.88663560422E+03  0.25500000920E-02 0. -1.
    10030    2    1    2    0    0  0.00000000000E+00  0.00000000000E+00  0.24129501875E+03  0.20145662272E+04  0.20000634484E+04 0.  0.
        4    1    3    3  502    0  0.47966693884E+03 -0.82766890887E+03 -0.17292022854E+03  0.97212098695E+03  0.12699999809E+01 0. -1.
       -4    1    3    3    0  502 -0.47966693884E+03  0.82766890887E+03  0.41421524729E+03  0.10424452402E+04  0.12699999809E+01 0.  1.
</event>
<event>
 5   0  0.2379743E-06  0.1993120E+04  0.7818609E-02  0.8609844E-01
       -1   -1    0    0    0  501  0.00000000000E+00  0.00000000000E+00  0.67029894211E+03  0.67029894213E+03  0.50400001928E-02 0.  1.
        1   -1    0    0  501    0  0.00000000000E+00  0.00000000000E+00 -0.14816245865E+04  0.14816245865E+04  0.50400001928E-02 0. -1.
    10030    2    1    2    0    0  0.00000000000E+00  0.00000000000E+00 -0.81132564442E+03  0.21519235287E+04  0.19931195579E+04 0.  0.
        5    1    3    3  502    0 -0.70105947161E+03  0.70187539998E+03 -0.30325941177E+03  0.10373532767E+04  0.46999998093E+01 0.  1.
       -5    1    3    3    0  502  0.70105947161E+03 -0.70187539998E+03 -0.50806623265E+03  0.11145702520E+04  0.46999998093E+01 0. -1.
</event>
<event>
 5   0  0.5030137E-06  0.1993959E+04  0.7818609E-02  0.8609450E-01
        2   -1    0    0  501    0  0.00000000000E+00  0.00000000000E+00  0.15722234220E+04  0.15722234220E+04  0.25500000920E-02 0. -1.
       -2   -1    0    0    0  501  0.00000000000E+00  0.00000000000E+00 -0.63220542767E+03  0.63220542768E+03  0.25500000920E-02 0.  1.
    10030    2    1    2    0    0  0.00000000000E+00  0.00000000000E+00  0.94001799428E+03  0.22044288496E+04  0.19939590576E+04 0.  0.
        3    1    3    3  502    0 -0.86702111948E+03  0.30982927499E+03  0.47218355481E+02  0.92192699524E+03  0.10100000352E+00 0.  1.
       -3    1    3    3    0  502  0.86702111948E+03 -0.30982927499E+03  0.89279963880E+03  0.12825018544E+04  0.10100000352E+00 0. -1.
</event>
<event>
 5   0  0.2379743E-06  0.1999471E+04  0.7818609E-02  0.8606868E-01
        1   -1    0    0  501    0  0.00000000000E+00  0.00000000000E+00  0.94948075836E+03  0.94948075837E+03  0.50400001928E-02 0.  1.
       -1   -1    0    0    0  501  0.00000000000E+00  0.00000000000E+00 -0.10526503166E+04  0.10526503166E+04  0.50400001928E-02 0. -1.
    10030    2    1    2    0    0  0.00000000000E+00  0.00000000000E+00 -0.10316955820E+03  0.20021310749E+04  0.19994711510E+04 0.  0.
        5    1    3    3  502    0 -0.33875057746E+03 -0.70640456335E+03 -0.67345022227E+03  0.10331101842E+04  0.46999998093E+01 0. -1.
       -5    1    3    3    0  502  0.33875057746E+03  0.70640456335E+03  0.57028066407E+03  0.96902089073E+03  0.46999998093E+01 0.  1.
</event>
<event>
 5   0  0.2311520E-06  0.2001556E+04  0.7818609E-02  0.8605893E-01
        1   -1    0    0  501    0  0.00000000000E+00  0.00000000000E+00  0.73510954790E+03  0.73510954791E+03  0.50400001928E-02 0.  1.
       -1   -1    0    0    0  501  0.00000000000E+00  0.00000000000E+00 -0.13624595975E+04  0.13624595975E+04  0.50400001928E-02 0. -1.
    10030    2    1    2    0    0  0.00000000000E+00  0.00000000000E+00 -0.62735004963E+03  0.20975691455E+04  0.20015564532E+04 0.  0.
        3    1    3    3  502    0 -0.72471645101E+03 -0.33182423170E+03  0.32052876937E+03  0.85910415975E+03  0.10100000352E+00 0.  1.
       -3    1    3    3    0  502  0.72471645101E+03  0.33182423170E+03 -0.94787881900E+03  0.12384649857E+04  0.10100000352E+00 0. -1.
</event>
<event>
 5   0  0.2311520E-06  0.2000082E+04  0.7818609E-02  0.8606582E-01
       -1   -1    0    0    0  501  0.00000000000E+00  0.00000000000E+00  0.13316436913E+04  0.13316436913E+04  0.50400001928E-02 0. -1.
        1   -1    0    0  501    0  0.00000000000E+00  0.00000000000E+00 -0.75101327912E+03  0.75101327913E+03  0.50400001928E-02 0.  1.
    10030    2    1    2    0    0  0.00000000000E+00  0.00000000000E+00  0.58063041214E+03  0.20826569704E+04  0.20000820935E+04 0.  0.
        3    1    3    3  502    0 -0.60315066208E+03  0.74799884175E+03  0.57886429118E+03  0.11217739818E+04  0.10100000352E+00 0.  1.
       -3    1    3    3    0  502  0.60315066208E+03 -0.74799884175E+03  0.17661209643E+01  0.96088298861E+03  0.10100000352E+00 0. -1.
</event>
<event>
 5   0  0.2379743E-06  0.2000402E+04  0.7818609E-02  0.8606433E-01
        1   -1    0    0  501    0  0.00000000000E+00  0.00000000000E+00  0.75814923754E+03  0.75814923756E+03  0.50400001928E-02 0.  1.
       -1   -1    0    0    0  501  0.00000000000E+00  0.00000000000E+00 -0.13195316000E+04  0.13195316000E+04  0.50400001928E-02 0. -1.
    10030    2    1    2    0    0  0.00000000000E+00  0.00000000000E+00 -0.56138236246E+03  0.20776808376E+04  0.20004018361E+04 0.  0.
        5    1    3    3  502    0  0.55192816576E+01  0.76761837231E+03 -0.94664072816E+03  0.12187777427E+04  0.46999998093E+01 0. -1.
       -5    1    3    3    0  502 -0.55192816576E+01 -0.76761837231E+03  0.38525836569E+03  0.85890309483E+03  0.46999998093E+01 0.  1.
</event>
<event>
 5   0  0.5118981E-06  0.2000463E+04  0.7818609E-02  0.8606404E-01
        2   -1    0    0  501    0  0.00000000000E+00  0.00000000000E+00  0.14467635060E+04  0.14467635060E+04  0.25500000920E-02 0. -1.
       -2   -1    0    0    0  501  0.00000000000E+00  0.00000000000E+00 -0.69151836109E+03  0.69151836110E+03  0.25500000920E-02 0.  1.
    10030    2    1    2    0    0  0.00000000000E+00  0.00000000000E+00  0.75524514487E+03  0.21382818671E+04  0.20004634748E+04 0.  0.
        4    1    3    3  502    0 -0.13889201390E+03  0.98999707071E+03  0.41269667296E+03  0.10815291713E+04  0.12699999809E+01 0. -1.
       -4    1    3    3    0  502  0.13889201390E+03 -0.98999707071E+03  0.34254847191E+03  0.10567526958E+04  0.12699999809E+01 0.  1.
</event>
<event>
 5   0  0.5030137E-06  0.2004437E+04  0.7818609E-02  0.8604549E-01
        2   -1    0    0  501    0  0.00000000000E+00  0.00000000000E+00  0.11642867747E+04  0.11642867747E+04  0.25500000920E-02 0.  1.
       -2   -1    0    0    0  501  0.00000000000E+00  0.00000000000E+00 -0.86270989170E+03  0.86270989170E+03  0.25500000920E-02 0. -1.
    10030    2    1    2    0    0  0.00000000000E+00  0.00000000000E+00  0.30157688296E+03  0.20269966664E+04  0.20044367960E+04 0.  0.
        3    1    3    3  502    0 -0.56739094893E+03 -0.34560021064E+03 -0.60803676981E+03  0.90060019885E+03  0.10100000352E+00 0. -1.
       -3    1    3    3    0  502  0.56739094893E+03  0.34560021064E+03  0.90961365276E+03  0.11263964675E+04  0.10100000352E+00 0.  1.
</event>
<event>
 5   0  0.5129100E-06  0.2001238E+04  0.7818609E-02  0.8606042E-01
       -2   -1    0    0    0  501  0.00000000000E+00  0.00000000000E+00  0.17634786068E+04  0.17634786068E+04  0.25500000920E-02 0.  1.
        2   -1    0    0  501    0  0.00000000000E+00  0.00000000000E+00 -0.56776354141E+03  0.56776354142E+03  0.25500000920E-02 0. -1.
    10030    2    1    2    0    0  0.00000000000E+00  0.00000000000E+00  0.11957150654E+04  0.23312421483E+04  0.20012384756E+04 0.  0.
        2    1    3    3  502    0  0.49027688122E+03  0.53659189431E+03 -0.20324848607E+03  0.75472659181E+03  0.25500000920E-02 0. -1.
       -2    1    3    3    0  502 -0.49027688122E+03 -0.53659189431E+03  0.13989635515E+04  0.15765155564E+04  0.25500000920E-02 0.  1.
</event>
<event>
 5   0  0.4956214E-06  0.2000559E+04  0.7818609E-02  0.8606359E-01
        2   -1    0    0  501    0  0.00000000000E+00  0.00000000000E+00  0.11318693943E+04  0.11318693943E+04  0.25500000920E-02 0.  1.
       -2   -1    0    0    0  501  0.00000000000E+00  0.00000000000E+00 -0.88398824178E+03  0.88398824178E+03  0.25500000920E-02 0. -1.
    10030    2    1    2    0    0  0.00000000000E+00  0.00000000000E+00  0.24788115248E+03  0.20158576360E+04  0.20005591576E+04 0.  0.
        1    1    3    3  502    0  0.21108769001E+02 -0.24068002038E+03  0.11020263988E+04  0.11281997323E+04  0.50400001928E-02 0.  1.
       -1    1    3    3    0  502 -0.21108769001E+02  0.24068002038E+03 -0.85414524628E+03  0.88765790376E+03  0.50400001928E-02 0. -1.
</event>
<event>
 5   0  0.5251252E-06  0.2000307E+04  0.7818609E-02  0.8606477E-01
        2   -1    0    0  501    0  0.00000000000E+00  0.00000000000E+00  0.18716273276E+04  0.18716273276E+04  0.25500000920E-02 0.  1.
       -2   -1    0    0    0  501  0.00000000000E+00  0.00000000000E+00 -0.53445849567E+03  0.53445849568E+03  0.25500000920E-02 0. -1.
    10030    2    1    2    0    0  0.00000000000E+00  0.00000000000E+00  0.13371688319E+04  0.24060858232E+04  0.20003071024E+04 0.  0.
        5    1    3    3  502    0 -0.11373100372E+03  0.22878212669E+03  0.18316985696E+04  0.18494371421E+04  0.46999998093E+01 0.  1.
       -5    1    3    3    0  502  0.11373100372E+03 -0.22878212669E+03 -0.49452973773E+03  0.55664868112E+03  0.46999998093E+01 0. -1.
</event>
<event>
 5   0  0.5030137E-06  0.1989411E+04  0.7818609E-02  0.8611587E-01
        2   -1    0    0  501    0  0.00000000000E+00  0.00000000000E+00  0.14941552480E+04  0.14941552480E+04  0.25500000920E-02 0.  1.
       -2   -1    0    0    0  501  0.00000000000E+00  0.00000000000E+00 -0.66220645350E+03  0.66220645350E+03  0.25500000920E-02 0. -1.
    10030    2    1    2    0    0  0.00000000000E+00  0.00000000000E+00  0.83194879446E+03  0.21563617015E+04  0.19894112172E+04 0.  0.
        3    1    3    3  502    0  0.60632304739E+03  0.77996639979E+03  0.54174650524E+03  0.11267051561E+04  0.10100000352E+00 0. -1.
       -3    1    3    3    0  502 -0.60632304739E+03 -0.77996639979E+03  0.29020228922E+03  0.10296565454E+04  0.10100000352E+00 0.  1.
</event>
<event>
 5   0  0.2311520E-06  0.1997905E+04  0.7818609E-02  0.8607601E-01
        1   -1    0    0  501    0  0.00000000000E+00  0.00000000000E+00  0.90735839907E+03  0.90735839909E+03  0.50400001928E-02 0. -1.
       -1   -1    0    0    0  501  0.00000000000E+00  0.00000000000E+00 -0.10997925292E+04  0.10997925292E+04  0.50400001928E-02 0.  1.
    10030    2    1    2    0    0  0.00000000000E+00  0.00000000000E+00 -0.19243413010E+03  0.20071509283E+04  0.19979048912E+04 0.  0.
        3    1    3    3  502    0 -0.28708228217E+02  0.27029309261E+03  0.86949291441E+03  0.91098872479E+03  0.10100000352E+00 0. -1.
       -3    1    3    3    0  502  0.28708228217E+02 -0.27029309261E+03 -0.10619270445E+04  0.10961622035E+04  0.10100000352E+00 0.  1.
</event>
<event>
 5   0  0.2311520E-06  0.1999982E+04  0.7818609E-02  0.8606629E-01
       -1   -1    0    0    0  501  0.00000000000E+00  0.00000000000E+00  0.65653719502E+03  0.65653719504E+03  0.50400001928E-02 0. -1.
        1   -1    0    0  501    0  0.00000000000E+00  0.00000000000E+00 -0.15231157298E+04  0.15231157298E+04  0.50400001928E-02 0.  1.
    10030    2    1    2    0    0  0.00000000000E+00  0.00000000000E+00 -0.86657853476E+03  0.21796529248E+04  0.19999821289E+04 0.  0.
        3    1    3    3  502    0  0.62632033983E+03  0.62101765791E+03 -0.94683463218E+03  0.12939999731E+04  0.10100000352E+00 0.  1.
       -3    1    3    3    0  502 -0.62632033983E+03 -0.62101765791E+03  0.80256097427E+02  0.88565295172E+03  0.10100000352E+00 0. -1.
</event>
<event>
 5   0  0.2379743E-06  0.2000433E+04  0.7818609E-02  0.8606418E-01
       -1   -1    0    0    0  501  0.00000000000E+00  0.00000000000E+00  0.42256942355E+03  0.42256942358E+03  0.50400001928E-02 0. -1.
        1   -1    0    0  501    0  0.00000000000E+00  0.00000000000E+00 -0.23675009113E+04  0.23675009113E+04  0.50400001928E-02 0.  1.
    10030    2    1    2    0    0  0.00000000000E+00  0.00000000000E+00 -0.19449314877E+04  0.27900703349E+04  0.20004334484E+04 0.  0.
        5    1    3    3  502    0  0.69168173354E+03  0.71266455077E+03 -0.80686787359E+03  0.12795984674E+04  0.46999998093E+01 0. -1.
       -5    1    3    3    0  502 -0.69168173354E+03 -0.71266455077E+03 -0.11380636141E+04  0.15104718674E+04  0.46999998093E+01 0.  1.
</event>
<event>
 5   0  0.2311520E-06  0.1997210E+04  0.7818609E-02  0.8607926E-01
       -1   -1    0    0    0  501  0.00000000000E+00  0.00000000000E+00  0.34170032415E+03  0.34170032418E+03  0.50400001928E-02 0.  1.
        1   -1    0    0  501    0  0.00000000000E+00  0.00000000000E+00 -0.29183809016E+04  0.29183809016E+04  0.50400001928E-02 0. -1.
    10030    2    1    2    0    0  0.00000000000E+00  0.00000000000E+00 -0.25766805774E+04  0.32600812258E+04  0.19972097538E+04 0.  0.
        3    1    3    3  502    0  0.51504867407E+03  0.59131920095E+03 -0.27910022221E+03  0.83236439035E+03  0.10100000352E+00 0.  1.
       -3    1    3    3    0  502 -0.51504867407E+03 -0.59131920095E+03 -0.22975803552E+04  0.24277168354E+04  0.10100000352E+00 0. -1.
</event>
<event>
 5   0  0.5129100E-06  0.1996591E+04  0.7818609E-02  0.8608216E-01
       -2   -1    0    0    0  501  0.00000000000E+00  0.00000000000E+00  0.47242950715E+03  0.47242950716E+03  0.25500000920E-02 0.  1.
        2   -1    0    0  501    0  0.00000000000E+00  0.00000000000E+00 -0.21095082884E+04  0.21095082884E+04  0.25500000920E-02 0. -1.
    10030    2    1    2    0    0  0.00000000000E+00  0.00000000000E+00 -0.16370787812E+04  0.25819377956E+04  0.19965910558E+04 0.  0.
        2    1    3    3  502    0 -0.66101584505E+03  0.74648929793E+03 -0.88196741003E+03  0.13311854610E+04  0.25500000920E-02 0.  1.
       -2    1    3    3    0  502  0.66101584505E+03 -0.74648929793E+03 -0.75511137120E+03  0.12507523345E+04  0.25500000920E-02 0. -1.
</event>
<event>
 5   0  0.5030137E-06  0.2001325E+04  0.7818609E-02  0.8606001E-01
        2   -1    0    0  501    0  0.00000000000E+00  0.00000000000E+00  0.69009039893E+03  0.69009039893E+03  0.25500000920E-02 0. -1.
       -2   -1    0    0    0  501  0.00000000000E+00  0.00000000000E+00 -0.14510067980E+04  0.14510067980E+04  0.25500000920E-02 0.  1.
    10030    2    1    2    0    0  0.00000000000E+00  0.00000000000E+00 -0.76091639909E+03  0.21410971970E+04  0.20013254209E+04 0.  0.
        3    1    3    3  502    0 -0.22641794500E+03 -0.77163294628E+03 -0.10175684430E+04  0.12969687876E+04  0.10100000352E+00 0.  1.
       -3    1    3    3    0  502  0.22641794500E+03  0.77163294628E+03  0.25665204393E+03  0.84412840934E+03  0.10100000352E+00 0. -1.
</event>
<event>
 5   0  0.2311520E-06  0.2000175E+04  0.7818609E-02  0.8606539E-01
       -1   -1    0    0    0  501  0.00000000000E+00  0.00000000000E+00  0.77557001539E+03  0.77557001541E+03  0.50400001928E-02 0. -1.
        1   -1    0    0  501    0  0.00000000000E+00  0.00000000000E+00 -0.12895996890E+04  0.12895996890E+04  0.50400001928E-02 0.  1.
    10030    2    1    2    0    0  0.00000000000E+00  0.00000000000E+00 -0.51402967363E+03  0.20651697044E+04  0.20001748430E+04 0.  0.
        3    1    3    3  502    0  0.73943967547E+03 -0.54889594849E+03 -0.65971028835E+03  0.11328174922E+04  0.10100000352E+00 0. -1.
       -3    1    3    3    0  502 -0.73943967547E+03  0.54889594849E+03  0.14568061472E+03  0.93235221222E+03  0.10100000352E+00 0.  1.
</event>
<event>
 5   0  0.2386776E-06  0.2001862E+04  0.7818609E-02  0.8605751E-01
       -1   -1    0    0    0  501  0.00000000000E+00  0.00000000000E+00  0.85685044503E+03  0.85685044504E+03  0.50400001928E-02 0. -1.
        1   -1    0    0  501    0  0.00000000000E+00  0.00000000000E+00 -0.11692383602E+04  0.11692383603E+04  0.50400001928E-02 0.  1.
    10030    2    1    2    0    0  0.00000000000E+00  0.00000000000E+00 -0.31238791521E+03  0.20260888053E+04  0.20018615430E+04 0.  0.
        2    1    3    3  502    0  0.14622345107E+02 -0.31558141366E+03  0.80506726484E+03  0.86483451744E+03  0.25500000920E-02 0. -1.
       -2    1    3    3    0  502 -0.14622345107E+02  0.31558141366E+03 -0.11174551801E+04  0.11612542879E+04  0.25500000920E-02 0.  1.
</event>
<event>
 5   0  0.5129100E-06  0.2000231E+04  0.7818609E-02  0.8606513E-01
       -2   -1    0    0    0  501  0.00000000000E+00  0.00000000000E+00  0.11991942926E+04  0.11991942926E+04  0.25500000920E-02 0. -1.
        2   -1    0    0  501    0  0.00000000000E+00  0.00000000000E+00 -0.83408561496E+03  0.83408561497E+03  0.25500000920E-02 0.  1.
    10030    2    1    2    0    0  0.00000000000E+00  0.00000000000E+00  0.36510867760E+03  0.20332799075E+04  0.20002306957E+04 0.  0.
        2    1    3    3  502    0 -0.32974560564E+02 -0.98091623215E+03 -0.12836906788E+02  0.98155425847E+03  0.25500000920E-02 0.  1.
       -2    1    3    3    0  502  0.32974560564E+02  0.98091623215E+03  0.37794558439E+03  0.10517256491E+04  0.25500000920E-02 0. -1.
</event>
<event>
 5   0  0.2356996E-06  0.1999454E+04  0.7818609E-02  0.8606876E-01
        1   -1    0    0  501    0  0.00000000000E+00  0.00000000000E+00  0.15504153090E+04  0.15504153090E+04  0.50400001928E-02 0.  1.
       -1   -1    0    0    0  501  0.00000000000E+00  0.00000000000E+00 -0.64463637322E+03  0.64463637324E+03  0.50400001928E-02 0. -1.
    10030    2    1    2    0    0  0.00000000000E+00  0.00000000000E+00  0.90577893580E+03  0.21950516823E+04  0.19994540273E+04 0.  0.
        4    1    3    3  502    0  0.16343703914E+03 -0.23156108846E+03  0.15053831627E+04  0.15318329814E+04  0.12699999809E+01 0.  1.
       -4    1    3    3    0  502 -0.16343703914E+03  0.23156108846E+03 -0.59960422686E+03  0.66321870090E+03  0.12699999809E+01 0. -1.
</event>
<event>
 5   0  0.4956214E-06  0.2001007E+04  0.7818609E-02  0.8606150E-01
       -2   -1    0    0    0  501  0.00000000000E+00  0.00000000000E+00  0.87404267440E+03  0.87404267440E+03  0.25500000920E-02 0. -1.
        2   -1    0    0  501    0  0.00000000000E+00  0.00000000000E+00 -0.11452616968E+04  0.11452616968E+04  0.25500000920E-02 0.  1.
    10030    2    1    2    0    0  0.00000000000E+00  0.00000000000E+00 -0.27121902238E+03  0.20193043712E+04  0.20010073427E+04 0.  0.
        1    1    3    3  502    0 -0.75430606202E+03  0.41096565246E+03 -0.65326905159E+03  0.10791806413E+04  0.50400001928E-02 0.  1.
       -1    1    3    3    0  502  0.75430606202E+03 -0.41096565246E+03  0.38205002921E+03  0.94012372991E+03  0.50400001928E-02 0. -1.
</event>
<event>
 5   0  0.2356996E-06  0.1999891E+04  0.7818609E-02  0.8606672E-01
        1   -1    0    0  501    0  0.00000000000E+00  0.00000000000E+00  0.63182803590E+03  0.63182803592E+03  0.50400001928E-02 0.  1.
       -1   -1    0    0    0  501  0.00000000000E+00  0.00000000000E+00 -0.15825364090E+04  0.15825364090E+04  0.50400001928E-02 0. -1.
    10030    2    1    2    0    0  0.00000000000E+00  0.00000000000E+00 -0.95070837314E+03  0.22143644450E+04  0.19998908681E+04 0.  0.
        4    1    3    3  502    0 -0.15850310641E+03  0.52912617665E+02 -0.15669664376E+04  0.15758516457E+04  0.12699999809E+01 0. -1.
       -4    1    3    3    0  502  0.15850310641E+03 -0.52912617665E+02  0.61625806448E+03  0.63851279923E+03  0.12699999809E+01 0.  1.
</event>
<event>
 5   0  0.2311520E-06  0.1999654E+04  0.7818609E-02  0.8606782E-01
        1   -1    0    0  501    0  0.00000000000E+00  0.00000000000E+00  0.14961349941E+04  0.14961349941E+04  0.50400001928E-02 0.  1.
       -1   -1    0    0    0  501  0.00000000000E+00  0.00000000000E+00 -0.66815773950E+03  0.66815773952E+03  0.50400001928E-02 0. -1.
    10030    2    1    2    0    0  0.00000000000E+00  0.00000000000E+00  0.82797725463E+03  0.21642927337E+04  0.19996541458E+04 0.  0.
        3    1    3    3  502    0  0.74111934206E+03  0.27972295616E+03 -0.24628038466E+03  0.82955219815E+03  0.10100000352E+00 0. -1.
       -3    1    3    3    0  502 -0.74111934206E+03 -0.27972295616E+03  0.10742576393E+04  0.13347405355E+04  0.10100000352E+00 0.  1.
</event>
<event>
 5   0  0.2386776E-06  0.2000329E+04  0.7818609E-02  0.8606467E-01
        1   -1    0    0  501    0  0.00000000000E+00  0.00000000000E+00  0.11271286378E+04  0.11271286378E+04  0.50400001928E-02 0.  1.
       -1   -1    0    0    0  501  0.00000000000E+00  0.00000000000E+00 -0.88750186714E+03  0.88750186715E+03  0.50400001928E-02 0. -1.
    10030    2    1    2    0    0  0.00000000000E+00  0.00000000000E+00  0.23962677068E+03  0.20146305050E+04  0.20003287436E+04 0.  0.
        2    1    3    3  502    0  0.16472108234E+03 -0.22132349387E+02 -0.87349660613E+03  0.88916769891E+03  0.25500000920E-02 0. -1.
       -2    1    3    3    0  502 -0.16472108234E+03  0.22132349387E+02  0.11131233768E+04  0.11254628061E+04  0.25500000920E-02 0.  1.
</event>
<event>
 5   0  0.4956214E-06  0.2002004E+04  0.7818609E-02  0.8605684E-01
        2   -1    0    0  501    0  0.00000000000E+00  0.00000000000E+00  0.19103435417E+04  0.19103435417E+04  0.25500000920E-02 0.  1.
       -2   -1    0    0    0  501  0.00000000000E+00  0.00000000000E+00 -0.52451545244E+03  0.52451545245E+03  0.25500000920E-02 0. -1.
    10030    2    1    2    0    0  0.00000000000E+00  0.00000000000E+00  0.13858280892E+04  0.24348589941E+04  0.20020037034E+04 0.  0.
        1    1    3    3  502    0  0.59204661725E+03 -0.51629894896E+02  0.16725641917E+04  0.17750086812E+04  0.50400001928E-02 0.  1.
       -1    1    3    3    0  502 -0.59204661725E+03  0.51629894896E+02 -0.28673610242E+03  0.65985031295E+03  0.50400001928E-02 0. -1.
</event>
<event>
 5   0  0.5251252E-06  0.1999129E+04  0.7818609E-02  0.8607028E-01
       -2   -1    0    0    0  501  0.00000000000E+00  0.00000000000E+00  0.67982850413E+03  0.67982850414E+03  0.25500000920E-02 0.  1.
        2   -1    0    0  501    0  0.00000000000E+00  0.00000000000E+00 -0.14696788890E+04  0.14696788890E+04  0.25500000920E-02 0. -1.
    10030    2    1    2    0    0  0.00000000000E+00  0.00000000000E+00 -0.78985038482E+03  0.21495073931E+04  0.19991294112E+04 0.  0.
        5    1    3    3  502    0  0.81595529272E+03  0.47132715679E+03 -0.75343575832E+03  0.12064907212E+04  0.46999998093E+01 0. -1.
       -5    1    3    3    0  502 -0.81595529272E+03 -0.47132715679E+03 -0.36414626505E+02  0.94301667189E+03  0.46999998093E+01 0.  1.
</event>
<event>
 5   0  0.2379743E-06  0.1995312E+04  0.7818609E-02  0.8608816E-01
        1   -1    0    0  501    0  0.00000000000E+00  0.00000000000E+00  0.12560398269E+04  0.12560398269E+04  0.50400001928E-02 0. -1.
       -1   -1    0    0    0  501  0.00000000000E+00  0.00000000000E+00 -0.79242480440E+03  0.79242480441E+03  0.50400001928E-02 0.  1.
    10030    2    1    2    0    0  0.00000000000E+00  0.00000000000E+00  0.46361502248E+03  0.20484646313E+04  0.19953116189E+04 0.  0.
        5    1    3    3  502    0  0.32041657552E+03  0.63678556980E+02  0.11995601496E+04  0.12432571669E+04  0.46999998093E+01 0. -1.
       -5    1    3    3    0  502 -0.32041657552E+03 -0.63678556980E+02 -0.73594512717E+03  0.80520746438E+03  0.46999998093E+01 0.  1.
</event>
<event>
 5   0  0.5118981E-06  0.1999969E+04  0.7818609E-02  0.8606635E-01
       -2   -1    0    0    0  501  0.00000000000E+00  0.00000000000E+00  0.91511254328E+03  0.91511254328E+03  0.25500000920E-02 0.  1.
        2   -1    0    0  501    0  0.00000000000E+00  0.00000000000E+00 -0.10927278660E+04  0.10927278660E+04  0.25500000920E-02 0. -1.
    10030    2    1    2    0    0  0.00000000000E+00  0.00000000000E+00 -0.17761532269E+03  0.20078404093E+04  0.19999689763E+04 0.  0.
        4    1    3    3  502    0  0.50706833747E+02  0.16567222937E+03 -0.10775436848E+04  0.10913846600E+04  0.12699999809E+01 0. -1.
       -4    1    3    3    0  502 -0.50706833747E+02 -0.16567222937E+03  0.89992836208E+03  0.91645574926E+03  0.12699999809E+01 0.  1.
</event>
<event>
 5   0  0.2313821E-06  0.1999875E+04  0.7818609E-02  0.8606679E-01
        1   -1    0    0  501    0  0.00000000000E+00  0.00000000000E+00  0.87858558087E+03  0.87858558089E+03  0.50400001928E-02 0.  1.
       -1   -1    0    0    0  501  0.00000000000E+00  0.00000000000E+00 -0.11380512466E+04  0.11380512466E+04  0.50400001928E-02 0. -1.
    10030    2    1    2    0    0  0.00000000000E+00  0.00000000000E+00 -0.25946566571E+03  0.20166368275E+04  0.19998754117E+04 0.  0.
        1    1    3    3  502    0  0.97318010629E+01 -0.76983985934E+03  0.51368021665E+03  0.92553524081E+03  0.50400001928E-02 0. -1.
       -1    1    3    3    0  502 -0.97318010629E+01  0.76983985934E+03 -0.77314588236E+03  0.10911015867E+04  0.50400001928E-02 0.  1.
</event>
<event>
 5   0  0.2379743E-06  0.2000245E+04  0.7818609E-02  0.8606506E-01
       -1   -1    0    0    0  501  0.00000000000E+00  0.00000000000E+00  0.52464183580E+03  0.52464183582E+03  0.50400001928E-02 0. -1.
        1   -1    0    0  501    0  0.00000000000E+00  0.00000000000E+00 -0.19065299595E+04  0.19065299595E+04  0.50400001928E-02 0.  1.
    10030    2    1    2    0    0  0.00000000000E+00  0.00000000000E+00 -0.13818881237E+04  0.24311717953E+04  0.20002453629E+04 0.  0.
        5    1    3    3  502    0  0.65264914187E+03  0.30476364871E+03 -0.15342430652E+04  0.16949205460E+04  0.46999998093E+01 0.  1.
       -5    1    3    3    0  502 -0.65264914187E+03 -0.30476364871E+03  0.15235494154E+03  0.73625124935E+03  0.46999998093E+01 0. -1.
</event>
<event>
 5   0  0.2386776E-06  0.2006577E+04  0.7818609E-02  0.8603552E-01
       -1   -1    0    0    0  501  0.00000000000E+00  0.00000000000E+00  0.64579759275E+03  0.64579759276E+03  0.50400001928E-02 0.  1.
        1   -1    0    0  501    0  0.00000000000E+00  0.00000000000E+00 -0.15586742484E+04  0.15586742484E+04  0.50400001928E-02 0. -1.
    10030    2    1    2    0    0  0.00000000000E+00  0.00000000000E+00 -0.91287665568E+03  0.22044718412E+04  0.20065772624E+04 0.  0.
        2    1    3    3  502    0  0.56516163793E+03 -0.77034542668E+03 -0.79281852864E+03  0.12415317043E+04  0.25500000920E-02 0.  1.
       -2    1    3    3    0  502 -0.56516163793E+03  0.77034542668E+03 -0.12005812704E+03  0.96294013691E+03  0.25500000920E-02 0. -1.
</event>
<event>
 5   0  0.2386776E-06  0.1995684E+04  0.7818609E-02  0.8608641E-01
        1   -1    0    0  501    0  0.00000000000E+00  0.00000000000E+00  0.91092466828E+03  0.91092466829E+03  0.50400001928E-02 0. -1.
       -1   -1    0    0    0  501  0.00000000000E+00  0.00000000000E+00 -0.10930522130E+04  0.10930522130E+04  0.50400001928E-02 0.  1.
    10030    2    1    2    0    0  0.00000000000E+00  0.00000000000E+00 -0.18212754473E+03  0.20039768813E+04  0.19956835667E+04 0.  0.
        2    1    3    3  502    0  0.89542517359E+01 -0.89950264224E+03 -0.52471840121E+03  0.10414002989E+04  0.25500000920E-02 0.  1.
       -2    1    3    3    0  502 -0.89542517359E+01  0.89950264224E+03  0.34259085648E+03  0.96257658239E+03  0.25500000920E-02 0. -1.
</event>
<event>
 5   0  0.2379743E-06  0.2006528E+04  0.7818609E-02  0.8603575E-01
        1   -1    0    0  501    0  0.00000000000E+00  0.00000000000E+00  0.11102034258E+04  0.11102034258E+04  0.50400001928E-02 0.  1.
       -1   -1    0    0    0  501  0.00000000000E+00  0.00000000000E+00 -0.90662540786E+03  0.90662540788E+03  0.50400001928E-02 0. -1.
    10030    2    1    2    0    0  0.00000000000E+00  0.00000000000E+00  0.20357801797E+03  0.20168288337E+04  0.20065279801E+04 0.  0.
        5    1    3    3  502    0  0.69926583658E+03 -0.62189601744E+03 -0.26171543534E+03  0.97172240162E+03  0.46999998093E+01 0. -1.
       -5    1    3    3    0  502 -0.69926583658E+03  0.62189601744E+03  0.46529345331E+03  0.10451064321E+04  0.46999998093E+01 0.  1.
</event>
<event>
 5   0  0.2379743E-06  0.1989814E+04  0.7818609E-02  0.8611398E-01
        1   -1    0    0  501    0  0.00000000000E+00  0.00000000000E+00  0.13131980688E+04  0.13131980688E+04  0.50400001928E-02 0. -1.
       -1   -1    0    0    0  501  0.00000000000E+00  0.00000000000E+00 -0.75376276122E+03  0.75376276124E+03  0.50400001928E-02 0.  1.
    10030    2    1    2    0    0  0.00000000000E+00  0.00000000000E+00  0.55943530753E+03  0.20669608300E+04  0.19898138630E+04 0.  0.
        5    1    3    3  502    0  0.30484808832E+03 -0.66142447700E+02  0.12610733986E+04  0.12990902151E+04  0.46999998093E+01 0. -1.
       -5    1    3    3    0  502 -0.30484808832E+03  0.66142447700E+02 -0.70163809108E+03  0.76787061488E+03  0.46999998093E+01 0.  1.
</event>
<event>
 5   0  0.2386776E-06  0.1999956E+04  0.7818609E-02  0.8606641E-01
       -1   -1    0    0    0  501  0.00000000000E+00  0.00000000000E+00  0.38958165863E+03  0.38958165866E+03  0.50400001928E-02 0.  1.
        1   -1    0    0  501    0  0.00000000000E+00  0.00000000000E+00 -0.25667420410E+04  0.25667420411E+04  0.50400001928E-02 0. -1.
    10030    2    1    2    0    0  0.00000000000E+00  0.00000000000E+00 -0.21771603824E+04  0.29563236997E+04  0.19999556212E+04 0.  0.
        2    1    3    3  502    0  0.68042369412E+03 -0.66878318264E+03 -0.64584109559E+03  0.11521102680E+04  0.25500000920E-02 0.  1.
       -2    1    3    3    0  502 -0.68042369412E+03  0.66878318264E+03 -0.15313192868E+04  0.18042134317E+04  0.25500000920E-02 0. -1.
</event>
<event>
 5   0  0.2386776E-06  0.1999335E+04  0.7818609E-02  0.8606932E-01
        1   -1    0    0  501    0  0.00000000000E+00  0.00000000000E+00  0.72114149425E+03  0.72114149427E+03  0.50400001928E-02 0.  1.
       -1   -1    0    0    0  501  0.00000000000E+00  0.00000000000E+00 -0.13857683473E+04  0.13857683473E+04  0.50400001928E-02 0. -1.
    10030    2    1    2    0    0  0.00000000000E+00  0.00000000000E+00 -0.66462685306E+03  0.21069098416E+04  0.19993349461E+04 0.  0.
        2    1    3    3  502    0 -0.74330308757E+03  0.66251171481E+03 -0.23856736056E+03  0.10238826289E+04  0.25500000920E-02 0. -1.
       -2    1    3    3    0  502  0.74330308757E+03 -0.66251171481E+03 -0.42605949250E+03  0.10830272127E+04  0.25500000920E-02 0.  1.
</event>
<event>
 5   0  0.2386776E-06  0.2001539E+04  0.7818609E-02  0.8605901E-01
        1   -1    0    0  501    0  0.00000000000E+00  0.00000000000E+00  0.10906220358E+04  0.10906220358E+04  0.50400001928E-02 0.  1.
       -1   -1    0    0    0  501  0.00000000000E+00  0.00000000000E+00 -0.91831957550E+03  0.91831957552E+03  0.50400001928E-02 0. -1.
    10030    2    1    2    0    0  0.00000000000E+00  0.00000000000E+00  0.17230246030E+03  0.20089416113E+04  0.20015389729E+04 0.  0.
        2    1    3    3  502    0  0.27269238968E+03 -0.78165717851E+03 -0.47823662412E+03  0.95606451287E+03  0.25500000920E-02 0.  1.
       -2    1    3    3    0  502 -0.27269238968E+03  0.78165717851E+03  0.65053908443E+03  0.10528770985E+04  0.25500000920E-02 0. -1.
</event>
<event>
 5   0  0.4956214E-06  0.2000874E+04  0.7818609E-02  0.8606212E-01
        2   -1    0    0  501    0  0.00000000000E+00  0.00000000000E+00  0.13322884827E+04  0.13322884827E+04  0.25500000920E-02 0.  1.
       -2   -1    0    0    0  501  0.00000000000E+00  0.00000000000E+00 -0.75124409915E+03  0.75124409915E+03  0.25500000920E-02 0. -1.
    10030    2    1    2    0    0  0.00000000000E+00  0.00000000000E+00  0.58104438351E+03  0.20835325818E+04  0.20008736701E+04 0.  0.
        1    1    3    3  502    0  0.78189773029E+03  0.51111044333E+03 -0.82430020478E+02  0.93775937970E+03  0.50400001928E-02 0. -1.
       -1    1    3    3    0  502 -0.78189773029E+03 -0.51111044333E+03  0.66347440399E+03  0.11457732021E+04  0.50400001928E-02 0.  1.
</event>
<event>
 5   0  0.2379743E-06  0.2000065E+04  0.7818609E-02  0.8606590E-01
       -1   -1    0    0    0  501  0.00000000000E+00  0.00000000000E+00  0.60873931787E+03  0.60873931789E+03  0.50400001928E-02 0.  1.
        1   -1    0    0  501    0  0.00000000000E+00  0.00000000000E+00 -0.16428466818E+04  0.16428466818E+04  0.50400001928E-02 0. -1.
    10030    2    1    2    0    0  0.00000000000E+00  0.00000000000E+00 -0.10341073639E+04  0.22515859997E+04  0.20000653674E+04 0.  0.
        5    1    3    3  502    0  0.51541404020E+03 -0.19280980915E+03  0.42294669865E+03  0.69407006508E+03  0.46999998093E+01 0.  1.
       -5    1    3    3    0  502 -0.51541404020E+03  0.19280980915E+03 -0.14570540625E+04  0.15575159346E+04  0.46999998093E+01 0. -1.
</event>
<event>
 5   0  0.2386776E-06  0.1999930E+04  0.7818609E-02  0.8606654E-01
       -1   -1    0    0    0  501  0.00000000000E+00  0.00000000000E+00  0.91044271798E+03  0.91044271799E+03  0.50400001928E-02 0. -1.
        1   -1    0    0  501    0  0.00000000000E+00  0.00000000000E+00 -0.10982894552E+04  0.10982894552E+04  0.50400001928E-02 0.  1.
    10030    2    1    2    0    0  0.00000000000E+00  0.00000000000E+00 -0.18784673720E+03  0.20087321732E+04  0.19999296355E+04 0.  0.
        2    1    3    3  502    0 -0.99430017782E+03 -0.37726384842E+02 -0.19372627083E+03  0.10136991623E+04  0.25500000920E-02 0.  1.
       -2    1    3    3    0  502  0.99430017782E+03  0.37726384842E+02  0.58795336293E+01  0.99503301084E+03  0.25500000920E-02 0. -1.
</event>
<event>
 5   0  0.2313821E-06  0.1988262E+04  0.7818609E-02  0.8612128E-01
        1   -1    0    0  501    0  0.00000000000E+00  0.00000000000E+00  0.87686617201E+03  0.87686617202E+03  0.50400001928E-02 0.  1.
       -1   -1    0    0    0  501  0.00000000000E+00  0.00000000000E+00 -0.11270783101E+04  0.11270783101E+04  0.50400001928E-02 0. -1.
    10030    2    1    2    0    0  0.00000000000E+00  0.00000000000E+00 -0.25021213809E+03  0.20039444821E+04  0.19882624005E+04 0.  0.
        1    1    3    3  502    0 -0.84395778610E+03  0.50532922746E+03 -0.27002635533E+03  0.10200669613E+04  0.50400001928E-02 0.  1.
       -1    1    3    3    0  502  0.84395778610E+03 -0.50532922746E+03  0.19814217245E+02  0.98387752087E+03  0.50400001928E-02 0. -1.
</event>
<event>
 5   0  0.5251252E-06  0.2001072E+04  0.7818609E-02  0.8606120E-01
        2   -1    0    0  501    0  0.00000000000E+00  0.00000000000E+00  0.10566580590E+04  0.10566580590E+04  0.25500000920E-02 0. -1.
       -2   -1    0    0    0  501  0.00000000000E+00  0.00000000000E+00 -0.94739469380E+03  0.94739469381E+03  0.25500000920E-02 0.  1.
    10030    2    1    2    0    0  0.00000000000E+00  0.00000000000E+00  0.10926336517E+03  0.20040527528E+04  0.20010719510E+04 0.  0.
        5    1    3    3  502    0  0.63969325596E+02  0.31516726620E+03  0.10034751241E+04  0.10537584614E+04  0.46999998093E+01 0. -1.
       -5    1    3    3    0  502 -0.63969325596E+02 -0.31516726620E+03 -0.89421175896E+03  0.95029429134E+03  0.46999998093E+01 0.  1.
</event>
<event>
 5   0  0.5251252E-06  0.1999669E+04  0.7818609E-02  0.8606775E-01
        2   -1    0    0  501    0  0.00000000000E+00  0.00000000000E+00  0.13414036074E+04  0.13414036074E+04  0.25500000920E-02 0. -1.
       -2   -1    0    0    0  501  0.00000000000E+00  0.00000000000E+00 -0.74524118712E+03  0.74524118712E+03  0.25500000920E-02 0.  1.
    10030    2    1    2    0    0  0.00000000000E+00  0.00000000000E+00  0.59616242030E+03  0.20866447945E+04  0.19996691894E+04 0.  0.
        5    1    3    3  502    0 -0.68354650865E+03  0.68066447791E+03  0.57239769834E+03  0.11216956700E+04  0.46999998093E+01 0. -1.
       -5    1    3    3    0  502  0.68354650865E+03 -0.68066447791E+03  0.23764721958E+02  0.96494912456E+03  0.46999998093E+01 0.  1.
</event>
<event>
 5   0  0.5118981E-06  0.1999640E+04  0.7818609E-02  0.8606789E-01
        2   -1    0    0  501    0  0.00000000000E+00  0.00000000000E+00  0.18123413340E+04  0.18123413340E+04  0.25500000920E-02 0. -1.
       -2   -1    0    0    0  501  0.00000000000E+00  0.00000000000E+00 -0.55157406952E+03  0.55157406953E+03  0.25500000920E-02 0.  1.
    10030    2    1    2    0    0  0.00000000000E+00  0.00000000000E+00  0.12607672645E+04  0.23639154035E+04  0.19996404526E+04 0.  0.
        4    1    3    3  502    0  0.74558268975E+03 -0.41506715558E+03  0.12463210721E+04  0.15104608961E+04  0.12699999809E+01 0. -1.
       -4    1    3    3    0  502 -0.74558268975E+03  0.41506715558E+03  0.14446192356E+02  0.85345450744E+03  0.12699999809E+01 0.  1.
</event>
<event>
 5   0  0.2379743E-06  0.2007213E+04  0.7818609E-02  0.8603256E-01
       -1   -1    0    0    0  501  0.00000000000E+00  0.00000000000E+00  0.67385181384E+03  0.67385181386E+03  0.50400001928E-02 0. -1.
        1   -1    0    0  501    0  0.00000000000E+00  0.00000000000E+00 -0.14947289213E+04  0.14947289213E+04  0.50400001928E-02 0.  1.
    10030    2    1    2    0    0  0.00000000000E+00  0.00000000000E+00 -0.82087710749E+03  0.21685807352E+04  0.20072127888E+04 0.  0.
        5    1    3    3  502    0 -0.65174221657E+02 -0.99639923893E+03 -0.51925618455E+03  0.11254813182E+04  0.46999998093E+01 0.  1.
       -5    1    3    3    0  502  0.65174221657E+02  0.99639923893E+03 -0.30162092294E+03  0.10430994170E+04  0.46999998093E+01 0. -1.
</event>
<event>
 5   0  0.5129100E-06  0.2000165E+04  0.7818609E-02  0.8606544E-01
        2   -1    0    0  501    0  0.00000000000E+00  0.00000000000E+00  0.98135270094E+03  0.98135270094E+03  0.25500000920E-02 0. -1.
       -2   -1    0    0    0  501  0.00000000000E+00  0.00000000000E+00 -0.10191697840E+04  0.10191697840E+04  0.25500000920E-02 0.  1.
    10030    2    1    2    0    0  0.00000000000E+00  0.00000000000E+00 -0.37817083043E+02  0.20005224849E+04  0.20001650134E+04 0.  0.
        2    1    3    3  502    0  0.47498506138E+03 -0.22806595171E+02  0.86104075698E+03  0.98362703018E+03  0.25500000920E-02 0. -1.
       -2    1    3    3    0  502 -0.47498506138E+03  0.22806595171E+02 -0.89885784002E+03  0.10168954547E+04  0.25500000920E-02 0.  1.
</event>
<event>
 5   0  0.2386776E-06  0.1999745E+04  0.7818609E-02  0.8606740E-01
        1   -1    0    0  501    0  0.00000000000E+00  0.00000000000E+00  0.16607090847E+04  0.16607090847E+04  0.50400001928E-02 0. -1.
       -1   -1    0    0    0  501  0.00000000000E+00  0.00000000000E+00 -0.60199886412E+03  0.60199886414E+03  0.50400001928E-02 0.  1.
    10030    2    1    2    0    0  0.00000000000E+00  0.00000000000E+00  0.10587102206E+04  0.22627079488E+04  0.19997449664E+04 0.  0.
        2    1    3    3  502    0  0.83764783036E+03 -0.54343151278E+03  0.58894206766E+03  0.11592344266E+04  0.25500000920E-02 0.  1.
       -2    1    3    3    0  502 -0.83764783036E+03  0.54343151278E+03  0.46976815291E+03  0.11034735222E+04  0.25500000920E-02 0. -1.
</event>
<event>
 5   0  0.5129100E-06  0.1999882E+04  0.7818609E-02  0.8606676E-01
        2   -1    0    0  501    0  0.00000000000E+00  0.00000000000E+00  0.12225109218E+04  0.12225109218E+04  0.25500000920E-02 0. -1.
       -2   -1    0    0    0  501  0.00000000000E+00  0.00000000000E+00 -0.81789199741E+03  0.81789199741E+03  0.25500000920E-02 0.  1.
    10030    2    1    2    0    0  0.00000000000E+00  0.00000000000E+00  0.40461892437E+03  0.20404029192E+04  0.19998818962E+04 0.  0.
        2    1    3    3  502    0 -0.74441745985E+02  0.83460079314E+03 -0.35444113735E+03  0.90979589871E+03  0.25500000920E-02 0.  1.
       -2    1    3    3    0  502  0.74441745985E+02 -0.83460079314E+03  0.75906006171E+03  0.11306070205E+04  0.25500000920E-02 0. -1.
</event>
<event>
 5   0  0.2379743E-06  0.2000568E+04  0.7818609E-02  0.8606355E-01
       -1   -1    0    0    0  501  0.00000000000E+00  0.00000000000E+00  0.10914837495E+04  0.10914837495E+04  0.50400001928E-02 0. -1.
        1   -1    0    0  501    0  0.00000000000E+00  0.00000000000E+00 -0.91670452203E+03  0.91670452204E+03  0.50400001928E-02 0.  1.
    10030    2    1    2    0    0  0.00000000000E+00  0.00000000000E+00  0.17477922742E+03  0.20081882715E+04  0.20005680082E+04 0.  0.
        5    1    3    3  502    0  0.38459755094E+03 -0.86879800501E+03  0.40134403183E+03  0.10314186209E+04  0.46999998093E+01 0. -1.
       -5    1    3    3    0  502 -0.38459755094E+03  0.86879800501E+03 -0.22656480441E+03  0.97676965058E+03  0.46999998093E+01 0.  1.
</event>
<event>
 5   0  0.5118981E-06  0.2004159E+04  0.7818609E-02  0.8604679E-01
        2   -1    0    0  501    0  0.00000000000E+00  0.00000000000E+00  0.15904291220E+04  0.15904291220E+04  0.25500000920E-02 0.  1.
       -2   -1    0    0    0  501  0.00000000000E+00  0.00000000000E+00 -0.63137884265E+03  0.63137884266E+03  0.25500000920E-02 0. -1.
    10030    2    1    2    0    0  0.00000000000E+00  0.00000000000E+00  0.95905027930E+03  0.22218079646E+04  0.20041589741E+04 0.  0.
        4    1    3    3  502    0 -0.19474587945E+03 -0.98269586437E+03  0.45365494931E+03  0.10997370346E+04  0.12699999809E+01 0. -1.
       -4    1    3    3    0  502  0.19474587945E+03  0.98269586437E+03  0.50539532999E+03  0.11220709300E+04  0.12699999809E+01 0.  1.
</event>
<event>
 5   0  0.2313821E-06  0.2002558E+04  0.7818609E-02  0.8605425E-01
       -1   -1    0    0    0  501  0.00000000000E+00  0.00000000000E+00  0.89140405630E+03  0.89140405632E+03  0.50400001928E-02 0. -1.
        1   -1    0    0  501    0  0.00000000000E+00  0.00000000000E+00 -0.11246975833E+04  0.11246975833E+04  0.50400001928E-02 0.  1.
    10030    2    1    2    0    0  0.00000000000E+00  0.00000000000E+00 -0.23329352695E+03  0.20161016396E+04  0.20025583516E+04 0.  0.
        1    1    3    3  502    0  0.36236894641E+03 -0.74880393355E+03 -0.67767794427E+03  0.10729706335E+04  0.50400001928E-02 0.  1.
       -1    1    3    3    0  502 -0.36236894641E+03  0.74880393355E+03  0.44438441731E+03  0.94313100607E+03  0.50400001928E-02 0. -1.
</event>
<event>
 5   0  0.2379743E-06  0.1998819E+04  0.7818609E-02  0.8607173E-01
        1   -1    0    0  501    0  0.00000000000E+00  0.00000000000E+00  0.13841004301E+04  0.13841004301E+04  0.50400001928E-02 0.  1.
       -1   -1    0    0    0  501  0.00000000000E+00  0.00000000000E+00 -0.72163792265E+03  0.72163792267E+03  0.50400001928E-02 0. -1.
    10030    2    1    2    0    0  0.00000000000E+00  0.00000000000E+00  0.66246250746E+03  0.21057383528E+04  0.19988190105E+04 0.  0.
        5    1    3    3  502    0 -0.69949535900E+03  0.71370481256E+03  0.31926809990E+03  0.10491055840E+04  0.46999998093E+01 0.  1.
       -5    1    3    3    0  502  0.69949535900E+03 -0.71370481256E+03  0.34319440756E+03  0.10566327688E+04  0.46999998093E+01 0. -1.
</event>
<event>
 5   0  0.2313821E-06  0.2000092E+04  0.7818609E-02  0.8606578E-01
        1   -1    0    0  501    0  0.00000000000E+00  0.00000000000E+00  0.10406876213E+04  0.10406876213E+04  0.50400001928E-02 0.  1.
       -1   -1    0    0    0  501  0.00000000000E+00  0.00000000000E+00 -0.96099116203E+03  0.96099116204E+03  0.50400001928E-02 0. -1.
    10030    2    1    2    0    0  0.00000000000E+00  0.00000000000E+00  0.79696459239E+02  0.20016787833E+04  0.20000916044E+04 0.  0.
        1    1    3    3  502    0 -0.41416918198E+03  0.54423646035E+03 -0.69036230232E+03  0.97176619851E+03  0.50400001928E-02 0. -1.
       -1    1    3    3    0  502  0.41416918198E+03 -0.54423646035E+03  0.77005876156E+03  0.10299125848E+04  0.50400001928E-02 0.  1.
</event>
<event>
 5   0  0.5129100E-06  0.2000370E+04  0.7818609E-02  0.8606448E-01
       -2   -1    0    0    0  501  0.00000000000E+00  0.00000000000E+00  0.67159617814E+03  0.67159617814E+03  0.25500000920E-02 0. -1.
        2   -1    0    0  501    0  0.00000000000E+00  0.00000000000E+00 -0.14895407915E+04  0.14895407915E+04  0.25500000920E-02 0.  1.
    10030    2    1    2    0    0  0.00000000000E+00  0.00000000000E+00 -0.81794461334E+03  0.21611369696E+04  0.20003698686E+04 0.  0.
        2    1    3    3  502    0  0.25096126379E+03  0.70704508643E+03 -0.11235490912E+04  0.13510206773E+04  0.25500000920E-02 0.  1.
       -2    1    3    3    0  502 -0.25096126379E+03 -0.70704508643E+03  0.30560447787E+03  0.81011629231E+03  0.25500000920E-02 0. -1.
</event>
<event>
 5   0  0.5030137E-06  0.1998627E+04  0.7818609E-02  0.8607263E-01
       -2   -1    0    0    0  501  0.00000000000E+00  0.00000000000E+00  0.48341743770E+03  0.48341743771E+03  0.25500000920E-02 0. -1.
        2   -1    0    0  501    0  0.00000000000E+00  0.00000000000E+00 -0.20657672064E+04  0.20657672064E+04  0.25500000920E-02 0.  1.
    10030    2    1    2    0    0  0.00000000000E+00  0.00000000000E+00 -0.15823497687E+04  0.25491846441E+04  0.19986274188E+04 0.  0.
        3    1    3    3  502    0 -0.72790309621E+03  0.61789985982E+03 -0.41499899978E+03  0.10410894939E+04  0.10100000352E+00 0. -1.
       -3    1    3    3    0  502  0.72790309621E+03 -0.61789985982E+03 -0.11673507689E+04  0.15080951502E+04  0.10100000352E+00 0.  1.
</event>
<event>
 5   0  0.2379743E-06  0.1999034E+04  0.7818609E-02  0.8607073E-01
       -1   -1    0    0    0  501  0.00000000000E+00  0.00000000000E+00  0.74847819740E+03  0.74847819741E+03  0.50400001928E-02 0.  1.
        1   -1    0    0  501    0  0.00000000000E+00  0.00000000000E+00 -0.13347535702E+04  0.13347535702E+04  0.50400001928E-02 0. -1.
    10030    2    1    2    0    0  0.00000000000E+00  0.00000000000E+00 -0.58627537277E+03  0.20832317676E+04  0.19990337128E+04 0.  0.
        5    1    3    3  502    0 -0.47602373077E+03  0.70745673674E+03  0.25028358375E+03  0.88868306438E+03  0.46999998093E+01 0. -1.
       -5    1    3    3    0  502  0.47602373077E+03 -0.70745673674E+03 -0.83655895652E+03  0.11945487032E+04  0.46999998093E+01 0.  1.
</event>
<event>
 5   0  0.1777750E-06  0.1993331E+04  0.7818609E-02  0.8609745E-01
        4   -1    0    0  501    0  0.00000000000E+00  0.00000000000E+00  0.65933408688E+03  0.65933531001E+03  0.12699999809E+01 0. -1.
       -4   -1    0    0    0  501  0.00000000000E+00  0.00000000000E+00 -0.15065804045E+04  0.15065809398E+04  0.12699999809E+01 0.  1.
    10030    2    1    2    0    0  0.00000000000E+00  0.00000000000E+00 -0.84724631766E+03  0.21659162498E+04  0.19933305994E+04 0.  0.
        4    1    3    3  502    0 -0.31507244437E+03  0.90341183877E+03 -0.72692641645E+03  0.12016019405E+04  0.12699999809E+01 0.  1.
       -4    1    3    3    0  502  0.31507244437E+03 -0.90341183877E+03 -0.12031990121E+03  0.96431430932E+03  0.12699999809E+01 0. -1.
</event>
<event>
 5   0  0.5251252E-06  0.2000299E+04  0.7818609E-02  0.8606481E-01
       -2   -1    0    0    0  501  0.00000000000E+00  0.00000000000E+00  0.48566308320E+03  0.48566308321E+03  0.25500000920E-02 0.  1.
        2   -1    0    0  501    0  0.00000000000E+00  0.00000000000E+00 -0.20596556149E+04  0.20596556149E+04  0.25500000920E-02 0. -1.
    10030    2    1    2    0    0  0.00000000000E+00  0.00000000000E+00 -0.15739925316E+04  0.25453186981E+04  0.20002986740E+04 0.  0.
        5    1    3    3  502    0  0.44173534203E+03 -0.86154904852E+03 -0.11060785247E+04  0.14699757373E+04  0.46999998093E+01 0.  1.
       -5    1    3    3    0  502 -0.44173534203E+03  0.86154904852E+03 -0.46791400695E+03  0.10753429608E+04  0.46999998093E+01 0. -1.
</event>
<event>
 5   0  0.5251252E-06  0.1999974E+04  0.7818609E-02  0.8606633E-01
       -2   -1    0    0    0  501  0.00000000000E+00  0.00000000000E+00  0.96626153615E+03  0.96626153616E+03  0.25500000920E-02 0.  1.
        2   -1    0    0  501    0  0.00000000000E+00  0.00000000000E+00 -0.10348892232E+04  0.10348892232E+04  0.25500000920E-02 0. -1.
    10030    2    1    2    0    0  0.00000000000E+00  0.00000000000E+00 -0.68627687052E+02  0.20011507594E+04  0.19999736504E+04 0.  0.
        5    1    3    3  502    0  0.84510860311E+03 -0.12943916868E+03  0.48463243238E+03  0.98277857829E+03  0.46999998093E+01 0.  1.
       -5    1    3    3    0  502 -0.84510860311E+03  0.12943916868E+03 -0.55326011943E+03  0.10183721811E+04  0.46999998093E+01 0. -1.
</event>
<event>
 5   0  0.2313821E-06  0.1999952E+04  0.7818609E-02  0.8606643E-01
        1   -1    0    0  501    0  0.00000000000E+00  0.00000000000E+00  0.16864545943E+04  0.16864545944E+04  0.50400001928E-02 0.  1.
       -1   -1    0    0    0  501  0.00000000000E+00  0.00000000000E+00 -0.59293171126E+03  0.59293171128E+03  0.50400001928E-02 0. -1.
    10030    2    1    2    0    0  0.00000000000E+00  0.00000000000E+00  0.10935228831E+04  0.22793863056E+04  0.19999524081E+04 0.  0.
        1    1    3    3  502    0 -0.92960240141E+02  0.98826856775E+03  0.68464423477E+03  0.12058416548E+04  0.50400001928E-02 0.  1.
       -1    1    3    3    0  502  0.92960240141E+02 -0.98826856775E+03  0.40887864831E+03  0.10735446508E+04  0.50400001928E-02 0. -1.
</event>
<event>
 5   0  0.5118981E-06  0.2001179E+04  0.7818609E-02  0.8606070E-01
       -2   -1    0    0    0  501  0.00000000000E+00  0.00000000000E+00  0.61479888846E+03  0.61479888846E+03  0.25500000920E-02 0.  1.
        2   -1    0    0  501    0  0.00000000000E+00  0.00000000000E+00 -0.16284664371E+04  0.16284664371E+04  0.25500000920E-02 0. -1.
    10030    2    1    2    0    0  0.00000000000E+00  0.00000000000E+00 -0.10136675487E+04  0.22432653256E+04  0.20011790079E+04 0.  0.
        4    1    3    3  502    0 -0.49489498140E+03  0.69405731467E+03 -0.10941857370E+04  0.13870402441E+04  0.12699999809E+01 0. -1.
       -4    1    3    3    0  502  0.49489498140E+03 -0.69405731467E+03  0.80518188359E+02  0.85622508152E+03  0.12699999809E+01 0.  1.
</event>
<event>
 5   0  0.2313821E-06  0.2000403E+04  0.7818609E-02  0.8606432E-01
        1   -1    0    0  501    0  0.00000000000E+00  0.00000000000E+00  0.19164958833E+04  0.19164958833E+04  0.50400001928E-02 0.  1.
       -1   -1    0    0    0  501  0.00000000000E+00  0.00000000000E+00 -0.52199612062E+03  0.52199612065E+03  0.50400001928E-02 0. -1.
    10030    2    1    2    0    0  0.00000000000E+00  0.00000000000E+00  0.13944997627E+04  0.24384920039E+04  0.20004033756E+04 0.  0.
        1    1    3    3  502    0  0.56432320226E+03 -0.73296811687E+03  0.11609516388E+04  0.14844230006E+04  0.50400001928E-02 0.  1.
       -1    1    3    3    0  502 -0.56432320226E+03  0.73296811687E+03  0.23354812383E+03  0.95406900334E+03  0.50400001928E-02 0. -1.
</event>
<event>
 5   0  0.2311520E-06  0.1999795E+04  0.7818609E-02  0.8606716E-01
        1   -1    0    0  501    0  0.00000000000E+00  0.00000000000E+00  0.21103151773E+04  0.21103151773E+04  0.50400001928E-02 0.  1.
       -1   -1    0    0    0  501  0.00000000000E+00  0.00000000000E+00 -0.47376574827E+03  0.47376574830E+03  0.50400001928E-02 0. -1.
    10030    2    1    2    0    0  0.00000000000E+00  0.00000000000E+00  0.16365494290E+04  0.25840809256E+04  0.19997950386E+04 0.  0.
        3    1    3    3  502    0 -0.82218944437E+03  0.31028428483E+02  0.15524709207E+04  0.17570214044E+04  0.10100000352E+00 0.  1.
       -3    1    3    3    0  502  0.82218944437E+03 -0.31028428483E+02  0.84078508336E+02  0.82705952118E+03  0.10100000352E+00 0. -1.
</event>
<event>
 5   0  0.2356996E-06  0.2000063E+04  0.7818609E-02  0.8606591E-01
        1   -1    0    0  501    0  0.00000000000E+00  0.00000000000E+00  0.94516678650E+03  0.94516678651E+03  0.50400001928E-02 0. -1.
       -1   -1    0    0    0  501  0.00000000000E+00  0.00000000000E+00 -0.10580809790E+04  0.10580809790E+04  0.50400001928E-02 0.  1.
    10030    2    1    2    0    0  0.00000000000E+00  0.00000000000E+00 -0.11291419245E+03  0.20032477655E+04  0.20000629978E+04 0.  0.
        4    1    3    3  502    0  0.47794384269E+03  0.10625623406E+03  0.81690654045E+03  0.95239624777E+03  0.12699999809E+01 0. -1.
       -4    1    3    3    0  502 -0.47794384269E+03 -0.10625623406E+03 -0.92982073290E+03  0.10508515177E+04  0.12699999809E+01 0.  1.
</event>
<event>
 5   0  0.5118981E-06  0.1999847E+04  0.7818609E-02  0.8606692E-01
        2   -1    0    0  501    0  0.00000000000E+00  0.00000000000E+00  0.18644991246E+04  0.18644991246E+04  0.25500000920E-02 0.  1.
       -2   -1    0    0    0  501  0.00000000000E+00  0.00000000000E+00 -0.53625479141E+03  0.53625479142E+03  0.25500000920E-02 0. -1.
    10030    2    1    2    0    0  0.00000000000E+00  0.00000000000E+00  0.13282443332E+04  0.24007539160E+04  0.19998465833E+04 0.  0.
        4    1    3    3  502    0  0.26679032985E+03  0.48391080720E+03 -0.33630744113E+03  0.64687793074E+03  0.12699999809E+01 0. -1.
       -4    1    3    3    0  502 -0.26679032985E+03 -0.48391080720E+03  0.16645517743E+04  0.17538759852E+04  0.12699999809E+01 0.  1.
</event>
<event>
 5   0  0.2356996E-06  0.2000461E+04  0.7818609E-02  0.8606405E-01
       -1   -1    0    0    0  501  0.00000000000E+00  0.00000000000E+00  0.58323599848E+03  0.58323599850E+03  0.50400001928E-02 0. -1.
        1   -1    0    0  501    0  0.00000000000E+00  0.00000000000E+00 -0.17153625973E+04  0.17153625973E+04  0.50400001928E-02 0.  1.
    10030    2    1    2    0    0  0.00000000000E+00  0.00000000000E+00 -0.11321265988E+04  0.22985985958E+04  0.20004611640E+04 0.  0.
        4    1    3    3  502    0 -0.93716392886E+03 -0.27700451975E+03 -0.81103103861E+03  0.12699530275E+04  0.12699999809E+01 0.  1.
       -4    1    3    3    0  502  0.93716392886E+03  0.27700451975E+03 -0.32109556020E+03  0.10286455683E+04  0.12699999809E+01 0. -1.
</event>
<event>
 5   0  0.2311520E-06  0.1999458E+04  0.7818609E-02  0.8606874E-01
        1   -1    0    0  501    0  0.00000000000E+00  0.00000000000E+00  0.93729375674E+03  0.93729375676E+03  0.50400001928E-02 0. -1.
       -1   -1    0    0    0  501  0.00000000000E+00  0.00000000000E+00 -0.10663232588E+04  0.10663232588E+04  0.50400001928E-02 0.  1.
    10030    2    1    2    0    0  0.00000000000E+00  0.00000000000E+00 -0.12902950201E+03  0.20036170155E+04  0.19994580597E+04 0.  0.
        3    1    3    3  502    0  0.41965583388E+03  0.88609779240E+03  0.13128308945E+03  0.98919946239E+03  0.10100000352E+00 0. -1.
       -3    1    3    3    0  502 -0.41965583388E+03 -0.88609779240E+03 -0.26031259146E+03  0.10144175531E+04  0.10100000352E+00 0.  1.
</event>
<event>
 5   0  0.4956214E-06  0.2000143E+04  0.7818609E-02  0.8606554E-01
        2   -1    0    0  501    0  0.00000000000E+00  0.00000000000E+00  0.15945763737E+04  0.15945763737E+04  0.25500000920E-02 0.  1.
       -2   -1    0    0    0  501  0.00000000000E+00  0.00000000000E+00 -0.62721517897E+03  0.62721517897E+03  0.25500000920E-02 0. -1.
    10030    2    1    2    0    0  0.00000000000E+00  0.00000000000E+00  0.96736119470E+03  0.22217915526E+04  0.20001425005E+04 0.  0.
        1    1    3    3  502    0 -0.98027894377E+03  0.18853764095E+03  0.41657719612E+03  0.10816791622E+04  0.50400001928E-02 0. -1.
       -1    1    3    3    0  502  0.98027894377E+03 -0.18853764095E+03  0.55078399858E+03  0.11401123904E+04  0.50400001928E-02 0.  1.
</event>
<event>
 5   0  0.5251252E-06  0.1999194E+04  0.7818609E-02  0.8606997E-01
        2   -1    0    0  501    0  0.00000000000E+00  0.00000000000E+00  0.12540713177E+04  0.12540713177E+04  0.25500000920E-02 0.  1.
       -2   -1    0    0    0  501  0.00000000000E+00  0.00000000000E+00 -0.79676052347E+03  0.79676052348E+03  0.25500000920E-02 0. -1.
    10030    2    1    2    0    0  0.00000000000E+00  0.00000000000E+00  0.45731079423E+03  0.20508318412E+04  0.19991943573E+04 0.  0.
        5    1    3    3  502    0  0.32339591067E+03  0.62055550916E+03  0.96088357198E+03  0.11886939824E+04  0.46999998093E+01 0.  1.
       -5    1    3    3    0  502 -0.32339591067E+03 -0.62055550916E+03 -0.50357277775E+03  0.86213785874E+03  0.46999998093E+01 0. -1.
</event>
<event>
 5   0  0.2356996E-06  0.1999567E+04  0.7818609E-02  0.8606823E-01
       -1   -1    0    0    0  501  0.00000000000E+00  0.00000000000E+00  0.15922890289E+04  0.15922890290E+04  0.50400001928E-02 0.  1.
        1   -1    0    0  501    0  0.00000000000E+00  0.00000000000E+00 -0.62775497231E+03  0.62775497233E+03  0.50400001928E-02 0. -1.
    10030    2    1    2    0    0  0.00000000000E+00  0.00000000000E+00  0.96453405664E+03  0.22200440013E+04  0.19995673085E+04 0.  0.
        4    1    3    3  502    0  0.65912113632E+03 -0.74434209205E+03  0.59913455903E+03  0.11607969913E+04  0.12699999809E+01 0. -1.
       -4    1    3    3    0  502 -0.65912113632E+03  0.74434209205E+03  0.36539949761E+03  0.10592470100E+04  0.12699999809E+01 0.  1.
</event>
<event>
 5   0  0.5118981E-06  0.1999259E+04  0.7818609E-02  0.8606967E-01
        2   -1    0    0  501    0  0.00000000000E+00  0.00000000000E+00  0.24289545918E+04  0.24289545918E+04  0.25500000920E-02 0. -1.
       -2   -1    0    0    0  501  0.00000000000E+00  0.00000000000E+00 -0.41139468691E+03  0.41139468692E+03  0.25500000920E-02 0.  1.
    10030    2    1    2    0    0  0.00000000000E+00  0.00000000000E+00  0.20175599048E+04  0.28403492787E+04  0.19992588765E+04 0.  0.
        4    1    3    3  502    0  0.75154745140E+03  0.28410435510E+03  0.16382874584E+03  0.81998800428E+03  0.12699999809E+01 0.  1.
       -4    1    3    3    0  502 -0.75154745140E+03 -0.28410435510E+03  0.18537311590E+04  0.20203612744E+04  0.12699999809E+01 0. -1.
</event>
<event>
 5   0  0.5129100E-06  0.2000143E+04  0.7818609E-02  0.8606554E-01
        2   -1    0    0  501    0  0.00000000000E+00  0.00000000000E+00  0.88234349839E+03  0.88234349840E+03  0.25500000920E-02 0. -1.
       -2   -1    0    0    0  501  0.00000000000E+00  0.00000000000E+00 -0.11335073457E+04  0.11335073457E+04  0.25500000920E-02 0.  1.
    10030    2    1    2    0    0  0.00000000000E+00  0.00000000000E+00 -0.25116384735E+03  0.20158508441E+04  0.20001428318E+04 0.  0.
        2    1    3    3  502    0 -0.29576511483E+02 -0.47787087516E+03  0.75932688529E+03  0.89767068688E+03  0.25500000920E-02 0. -1.
       -2    1    3    3    0  502  0.29576511483E+02  0.47787087516E+03 -0.10104907326E+04  0.11181801573E+04  0.25500000920E-02 0.  1.
</event>
<event>
 5   0  0.2313821E-06  0.1999654E+04  0.7818609E-02  0.8606782E-01
        1   -1    0    0  501    0  0.00000000000E+00  0.00000000000E+00  0.11891508641E+04  0.11891508641E+04  0.50400001928E-02 0.  1.
       -1   -1    0    0    0  501  0.00000000000E+00  0.00000000000E+00 -0.84064535646E+03  0.84064535648E+03  0.50400001928E-02 0. -1.
    10030    2    1    2    0    0  0.00000000000E+00  0.00000000000E+00  0.34850550762E+03  0.20297962206E+04  0.19996541221E+04 0.  0.
        1    1    3    3  502    0 -0.88003851959E+03  0.47417481273E+03  0.15540944759E+03  0.10116628121E+04  0.50400001928E-02 0. -1.
       -1    1    3    3    0  502  0.88003851959E+03 -0.47417481273E+03  0.19309606003E+03  0.10181334085E+04  0.50400001928E-02 0.  1.
</event>
<event>
 5   0  0.5129100E-06  0.1999492E+04  0.7818609E-02  0.8606858E-01
       -2   -1    0    0    0  501  0.00000000000E+00  0.00000000000E+00  0.59342983205E+03  0.59342983206E+03  0.25500000920E-02 0. -1.
        2   -1    0    0  501    0  0.00000000000E+00  0.00000000000E+00 -0.16842635983E+04  0.16842635983E+04  0.25500000920E-02 0.  1.
    10030    2    1    2    0    0  0.00000000000E+00  0.00000000000E+00 -0.10908337662E+04  0.22776934303E+04  0.19994921998E+04 0.  0.
        2    1    3    3  502    0 -0.82289264266E+03 -0.34391015720E+02 -0.11909735944E+04  0.14480169702E+04  0.25500000920E-02 0.  1.
       -2    1    3    3    0  502  0.82289264266E+03  0.34391015720E+02  0.10013982822E+03  0.82967646014E+03  0.25500000920E-02 0. -1.
</event>
<event>
 5   0  0.2386776E-06  0.2000644E+04  0.7818609E-02  0.8606320E-01
       -1   -1    0    0    0  501  0.00000000000E+00  0.00000000000E+00  0.13704562976E+04  0.13704562976E+04  0.50400001928E-02 0. -1.
        1   -1    0    0  501    0  0.00000000000E+00  0.00000000000E+00 -0.73015379936E+03  0.73015379938E+03  0.50400001928E-02 0.  1.
    10030    2    1    2    0    0  0.00000000000E+00  0.00000000000E+00  0.64030249819E+03  0.21006100969E+04  0.20006437689E+04 0.  0.
        2    1    3    3  502    0 -0.47696452550E+03  0.54967310721E+03 -0.40044154000E+03  0.83065583146E+03  0.25500000920E-02 0.  1.
       -2    1    3    3    0  502  0.47696452550E+03 -0.54967310721E+03  0.10407440382E+04  0.12699542655E+04  0.25500000920E-02 0. -1.
</event>
<event>
 5   0  0.2313821E-06  0.1999998E+04  0.7818609E-02  0.8606622E-01
        1   -1    0    0  501    0  0.00000000000E+00  0.00000000000E+00  0.87654045285E+03  0.87654045286E+03  0.50400001928E-02 0.  1.
       -1   -1    0    0    0  501  0.00000000000E+00  0.00000000000E+00 -0.11408463652E+04  0.11408463652E+04  0.50400001928E-02 0. -1.
    10030    2    1    2    0    0  0.00000000000E+00  0.00000000000E+00 -0.26430591232E+03  0.20173868180E+04  0.19999979896E+04 0.  0.
        1    1    3    3  502    0 -0.68427815386E+03 -0.16409802935E+03 -0.84884665898E+03  0.11025903163E+04  0.50400001928E-02 0. -1.
       -1    1    3    3    0  502  0.68427815386E+03  0.16409802935E+03  0.58454074666E+03  0.91479650175E+03  0.50400001928E-02 0.  1.
</event>
<event>
 5   0  0.4956214E-06  0.1999709E+04  0.7818609E-02  0.8606756E-01
       -2   -1    0    0    0  501  0.00000000000E+00  0.00000000000E+00  0.82196824377E+03  0.82196824377E+03  0.25500000920E-02 0.  1.
        2   -1    0    0  501    0  0.00000000000E+00  0.00000000000E+00 -0.12162386173E+04  0.12162386173E+04  0.25500000920E-02 0. -1.
    10030    2    1    2    0    0  0.00000000000E+00  0.00000000000E+00 -0.39427037357E+03  0.20382068611E+04  0.19997094992E+04 0.  0.
        1    1    3    3  502    0  0.91374493786E+03  0.71505964588E+02  0.21014041699E+03  0.94032011003E+03  0.50400001928E-02 0. -1.
       -1    1    3    3    0  502 -0.91374493786E+03 -0.71505964588E+02 -0.60441079057E+03  0.10978867511E+04  0.50400001928E-02 0.  1.
</event>
<event>
 5   0  0.5129100E-06  0.2000566E+04  0.7818609E-02  0.8606356E-01
       -2   -1    0    0    0  501  0.00000000000E+00  0.00000000000E+00  0.80887925141E+03  0.80887925142E+03  0.25500000920E-02 0. -1.
        2   -1    0    0  501    0  0.00000000000E+00  0.00000000000E+00 -0.12369786370E+04  0.12369786370E+04  0.25500000920E-02 0.  1.
    10030    2    1    2    0    0  0.00000000000E+00  0.00000000000E+00 -0.42809938556E+03  0.20458578884E+04  0.20005662737E+04 0.  0.
        2    1    3    3  502    0  0.36336224209E+03 -0.26311194760E+02 -0.11667204645E+04  0.12222769900E+04  0.25500000920E-02 0.  1.
       -2    1    3    3    0  502 -0.36336224209E+03  0.26311194760E+02  0.73862107895E+03  0.82358089841E+03  0.25500000920E-02 0. -1.
</event>
<event>
 5   0  0.2313821E-06  0.2007341E+04  0.7818609E-02  0.8603196E-01
       -1   -1    0    0    0  501  0.00000000000E+00  0.00000000000E+00  0.11590027255E+04  0.11590027256E+04  0.50400001928E-02 0.  1.
        1   -1    0    0  501    0  0.00000000000E+00  0.00000000000E+00 -0.86915598080E+03  0.86915598082E+03  0.50400001928E-02 0. -1.
    10030    2    1    2    0    0  0.00000000000E+00  0.00000000000E+00  0.28984674475E+03  0.20281587064E+04  0.20073406793E+04 0.  0.
        1    1    3    3  502    0 -0.62162618038E+03  0.58183681528E+03  0.68184875711E+03  0.10908120440E+04  0.50400001928E-02 0.  1.
       -1    1    3    3    0  502  0.62162618038E+03 -0.58183681528E+03 -0.39200201236E+03  0.93734666237E+03  0.50400001928E-02 0. -1.
</event>
<event>
 5   0  0.2386776E-06  0.1999676E+04  0.7818609E-02  0.8606772E-01
       -1   -1    0    0    0  501  0.00000000000E+00  0.00000000000E+00  0.81577113922E+03  0.81577113924E+03  0.50400001928E-02 0.  1.
        1   -1    0    0  501    0  0.00000000000E+00  0.00000000000E+00 -0.12254373036E+04  0.12254373036E+04  0.50400001928E-02 0. -1.
    10030    2    1    2    0    0  0.00000000000E+00  0.00000000000E+00 -0.40966616434E+03  0.20412084428E+04  0.19996763590E+04 0.  0.
        2    1    3    3  502    0 -0.37738263648E+02  0.37876905496E+02 -0.12239769162E+04  0.12251442069E+04  0.25500000920E-02 0. -1.
       -2    1    3    3    0  502  0.37738263648E+02 -0.37876905496E+02  0.81431075182E+03  0.81606423586E+03  0.25500000920E-02 0.  1.
</event>
<event>
 5   0  0.4956214E-06  0.1999320E+04  0.7818609E-02  0.8606939E-01
        2   -1    0    0  501    0  0.00000000000E+00  0.00000000000E+00  0.98300944874E+03  0.98300944875E+03  0.25500000920E-02 0. -1.
       -2   -1    0    0    0  501  0.00000000000E+00  0.00000000000E+00 -0.10165927069E+04  0.10165927069E+04  0.25500000920E-02 0.  1.
    10030    2    1    2    0    0  0.00000000000E+00  0.00000000000E+00 -0.33583258118E+02  0.19996021556E+04  0.19993201208E+04 0.  0.
        1    1    3    3  502    0 -0.28945417183E+03 -0.17712838642E+03  0.92363993163E+03  0.98400655800E+03  0.50400001928E-02 0. -1.
       -1    1    3    3    0  502  0.28945417183E+03  0.17712838642E+03 -0.95722318975E+03  0.10155955976E+04  0.50400001928E-02 0.  1.
</event>
<event>
 5   0  0.2386776E-06  0.2004140E+04  0.7818609E-02  0.8604688E-01
       -1   -1    0    0    0  501  0.00000000000E+00  0.00000000000E+00  0.11563388929E+04  0.11563388929E+04  0.50400001928E-02 0.  1.
        1   -1    0    0  501    0  0.00000000000E+00  0.00000000000E+00 -0.86838199186E+03  0.86838199187E+03  0.50400001928E-02 0. -1.
    10030    2    1    2    0    0  0.00000000000E+00  0.00000000000E+00  0.28795690106E+03  0.20247208848E+04  0.20041395871E+04 0.  0.
        2    1    3    3  502    0  0.36166195763E+03 -0.15878885668E+03 -0.78641910760E+03  0.88003879767E+03  0.25500000920E-02 0. -1.
       -2    1    3    3    0  502 -0.36166195763E+03  0.15878885668E+03  0.10743760087E+04  0.11446820871E+04  0.25500000920E-02 0.  1.
</event>
<event>
 5   0  0.2311520E-06  0.1999749E+04  0.7818609E-02  0.8606738E-01
       -1   -1    0    0    0  501  0.00000000000E+00  0.00000000000E+00  0.86271267077E+03  0.86271267078E+03  0.50400001928E-02 0. -1.
        1   -1    0    0  501    0  0.00000000000E+00  0.00000000000E+00 -0.11588434458E+04  0.11588434458E+04  0.50400001928E-02 0.  1.
    10030    2    1    2    0    0  0.00000000000E+00  0.00000000000E+00 -0.29613077506E+03  0.20215561166E+04  0.19997489084E+04 0.  0.
        3    1    3    3  502    0  0.47725444123E+03  0.38694729269E+03 -0.94549508167E+03  0.11275907807E+04  0.10100000352E+00 0.  1.
       -3    1    3    3    0  502 -0.47725444123E+03 -0.38694729269E+03  0.64936430661E+03  0.89396533595E+03  0.10100000352E+00 0. -1.
</event>
<event>
 5   0  0.4956214E-06  0.1998809E+04  0.7818609E-02  0.8607178E-01
       -2   -1    0    0    0  501  0.00000000000E+00  0.00000000000E+00  0.56240652861E+03  0.56240652861E+03  0.25500000920E-02 0.  1.
        2   -1    0    0  501    0  0.00000000000E+00  0.00000000000E+00 -0.17759561072E+04  0.17759561072E+04  0.25500000920E-02 0. -1.
    10030    2    1    2    0    0  0.00000000000E+00  0.00000000000E+00 -0.12135495786E+04  0.23383626358E+04  0.19988089546E+04 0.  0.
        1    1    3    3  502    0 -0.28892413518E+03  0.42199060803E+03 -0.16112743657E+04  0.16904905532E+04  0.50400001928E-02 0. -1.
       -1    1    3    3    0  502  0.28892413518E+03 -0.42199060803E+03  0.39772478704E+03  0.64787208259E+03  0.50400001928E-02 0.  1.
</event>
<event>
 5   0  0.5118981E-06  0.2000919E+04  0.7818609E-02  0.8606191E-01
        2   -1    0    0  501    0  0.00000000000E+00  0.00000000000E+00  0.17166153652E+04  0.17166153652E+04  0.25500000920E-02 0. -1.
       -2   -1    0    0    0  501  0.00000000000E+00  0.00000000000E+00 -0.58307695497E+03  0.58307695498E+03  0.25500000920E-02 0.  1.
    10030    2    1    2    0    0  0.00000000000E+00  0.00000000000E+00  0.11335384102E+04  0.22996923202E+04  0.20009186490E+04 0.  0.
        4    1    3    3  502    0 -0.12204843146E+02 -0.40155957755E+03 -0.48629623308E+03  0.63078101725E+03  0.12699999809E+01 0.  1.
       -4    1    3    3    0  502  0.12204843146E+02  0.40155957755E+03  0.16198346433E+04  0.16689113029E+04  0.12699999809E+01 0. -1.
</event>
<event>
 5   0  0.5118981E-06  0.1999705E+04  0.7818609E-02  0.8606758E-01
       -2   -1    0    0    0  501  0.00000000000E+00  0.00000000000E+00  0.92208754195E+03  0.92208754196E+03  0.25500000920E-02 0.  1.
        2   -1    0    0  501    0  0.00000000000E+00  0.00000000000E+00 -0.10841762059E+04  0.10841762059E+04  0.25500000920E-02 0. -1.
    10030    2    1    2    0    0  0.00000000000E+00  0.00000000000E+00 -0.16208866399E+03  0.20062637479E+04  0.19997053511E+04 0.  0.
        4    1    3    3  502    0 -0.97370228430E+03 -0.18785758886E+03 -0.20920186536E+03  0.10134858882E+04  0.12699999809E+01 0. -1.
       -4    1    3    3    0  502  0.97370228430E+03  0.18785758886E+03  0.47113201370E+02  0.99277785974E+03  0.12699999809E+01 0.  1.
</event>
<event>
 5   0  0.5030137E-06  0.1999634E+04  0.7818609E-02  0.8606792E-01
        2   -1    0    0  501    0  0.00000000000E+00  0.00000000000E+00  0.17347610566E+04  0.17347610566E+04  0.25500000920E-02 0.  1.
       -2   -1    0    0    0  501  0.00000000000E+00  0.00000000000E+00 -0.57623734002E+03  0.57623734003E+03  0.25500000920E-02 0. -1.
    10030    2    1    2    0    0  0.00000000000E+00  0.00000000000E+00  0.11585237166E+04  0.23109983967E+04  0.19996340634E+04 0.  0.
        3    1    3    3  502    0 -0.47555944917E+03 -0.40212579130E+03 -0.32468722224E+03  0.70234161504E+03  0.10100000352E+00 0. -1.
       -3    1    3    3    0  502  0.47555944917E+03  0.40212579130E+03  0.14832109388E+04  0.16086567816E+04  0.10100000352E+00 0.  1.
</event>
<event>
 5   0  0.2313821E-06  0.2001114E+04  0.7818609E-02  0.8606100E-01
        1   -1    0    0  501    0  0.00000000000E+00  0.00000000000E+00  0.17187800683E+04  0.17187800683E+04  0.50400001928E-02 0.  1.
       -1   -1    0    0    0  501  0.00000000000E+00  0.00000000000E+00 -0.58245603385E+03  0.58245603388E+03  0.50400001928E-02 0. -1.
    10030    2    1    2    0    0  0.00000000000E+00  0.00000000000E+00  0.11363240344E+04  0.23012361021E+04  0.20011135117E+04 0.  0.
        1    1    3    3  502    0  0.50418992783E+03 -0.47751155170E+03  0.13965364952E+04  0.15596598821E+04  0.50400001928E-02 0.  1.
       -1    1    3    3    0  502 -0.50418992783E+03  0.47751155170E+03 -0.26021246082E+03  0.74157622004E+03  0.50400001928E-02 0. -1.
</event>
<event>
 5   0  0.5129100E-06  0.1999837E+04  0.7818609E-02  0.8606697E-01
       -2   -1    0    0    0  501  0.00000000000E+00  0.00000000000E+00  0.90077717179E+03  0.90077717180E+03  0.25500000920E-02 0. -1.
        2   -1    0    0  501    0  0.00000000000E+00  0.00000000000E+00 -0.11099720690E+04  0.11099720690E+04  0.25500000920E-02 0.  1.
    10030    2    1    2    0    0  0.00000000000E+00  0.00000000000E+00 -0.20919489717E+03  0.20107492408E+04  0.19998374945E+04 0.  0.
        2    1    3    3  502    0  0.59108934167E+03  0.80016337983E+03 -0.31038332850E+01  0.99481539898E+03  0.25500000920E-02 0. -1.
       -2    1    3    3    0  502 -0.59108934167E+03 -0.80016337983E+03 -0.20609106389E+03  0.10159338418E+04  0.25500000920E-02 0.  1.
</event>
<event>
 5   0  0.4956214E-06  0.2000366E+04  0.7818609E-02  0.8606450E-01
        2   -1    0    0  501    0  0.00000000000E+00  0.00000000000E+00  0.24107765492E+04  0.24107765492E+04  0.25500000920E-02 0.  1.
       -2   -1    0    0    0  501  0.00000000000E+00  0.00000000000E+00 -0.41495587251E+03  0.41495587252E+03  0.25500000920E-02 0. -1.
    10030    2    1    2    0    0  0.00000000000E+00  0.00000000000E+00  0.19958206767E+04  0.28257324217E+04  0.20003658530E+04 0.  0.
        1    1    3    3  502    0  0.57883928640E+02 -0.76304170868E+03  0.88139706908E+02  0.77029332487E+03  0.50400001928E-02 0. -1.
       -1    1    3    3    0  502 -0.57883928640E+02  0.76304170868E+03  0.19076809698E+04  0.20554390969E+04  0.50400001928E-02 0.  1.
</event>
<event>
 5   0  0.2386776E-06  0.2000020E+04  0.7818609E-02  0.8606611E-01
       -1   -1    0    0    0  501  0.00000000000E+00  0.00000000000E+00  0.51176346259E+03  0.51176346262E+03  0.50400001928E-02 0. -1.
        1   -1    0    0  501    0  0.00000000000E+00  0.00000000000E+00 -0.19540676019E+04  0.19540676019E+04  0.50400001928E-02 0.  1.
    10030    2    1    2    0    0  0.00000000000E+00  0.00000000000E+00 -0.14423041393E+04  0.24658310645E+04  0.20000204020E+04 0.  0.
        2    1    3    3  502    0 -0.44520044354E+03  0.23706050845E+03 -0.17857545141E+04  0.18556185773E+04  0.25500000920E-02 0.  1.
       -2    1    3    3    0  502  0.44520044354E+03 -0.23706050845E+03  0.34345037483E+03  0.61021248723E+03  0.25500000920E-02 0. -1.
</event>
<event>
 5   0  0.2386776E-06  0.1998943E+04  0.7818609E-02  0.8607115E-01
        1   -1    0    0  501    0  0.00000000000E+00  0.00000000000E+00  0.15473023484E+04  0.15473023484E+04  0.50400001928E-02 0.  1.
       -1   -1    0    0    0  501  0.00000000000E+00  0.00000000000E+00 -0.64560283720E+03  0.64560283722E+03  0.50400001928E-02 0. -1.
    10030    2    1    2    0    0  0.00000000000E+00  0.00000000000E+00  0.90169951115E+03  0.21929051856E+04  0.19989425066E+04 0.  0.
        2    1    3    3  502    0 -0.58855823549E+03  0.36414114494E+03  0.12418880521E+04  0.14217192071E+04  0.25500000920E-02 0.  1.
       -2    1    3    3    0  502  0.58855823549E+03 -0.36414114494E+03 -0.34018854092E+03  0.77118597847E+03  0.25500000920E-02 0. -1.
</event>
<event>
 5   0  0.4956214E-06  0.2000870E+04  0.7818609E-02  0.8606214E-01
        2   -1    0    0  501    0  0.00000000000E+00  0.00000000000E+00  0.15928794724E+04  0.15928794724E+04  0.25500000920E-02 0. -1.
       -2   -1    0    0    0  501  0.00000000000E+00  0.00000000000E+00 -0.62834019242E+03  0.62834019243E+03  0.25500000920E-02 0.  1.
    10030    2    1    2    0    0  0.00000000000E+00  0.00000000000E+00  0.96453927996E+03  0.22212196648E+04  0.20008700050E+04 0.  0.
        1    1    3    3  502    0 -0.37525990719E+03 -0.26180060794E+03  0.14699149688E+04  0.15394835406E+04  0.50400001928E-02 0. -1.
       -1    1    3    3    0  502  0.37525990719E+03  0.26180060794E+03 -0.50537568880E+03  0.68173612425E+03  0.50400001928E-02 0.  1.
</event>
<event>
 5   0  0.5118981E-06  0.2000326E+04  0.7818609E-02  0.8606468E-01
       -2   -1    0    0    0  501  0.00000000000E+00  0.00000000000E+00  0.11074749133E+04  0.11074749133E+04  0.25500000920E-02 0.  1.
        2   -1    0    0  501    0  0.00000000000E+00  0.00000000000E+00 -0.90324911719E+03  0.90324911719E+03  0.25500000920E-02 0. -1.
    10030    2    1    2    0    0  0.00000000000E+00  0.00000000000E+00  0.20422579615E+03  0.20107240305E+04  0.20003257113E+04 0.  0.
        4    1    3    3  502    0  0.87822048383E+03  0.36601362025E+02  0.58178658908E+03  0.10540816506E+04  0.12699999809E+01 0.  1.
       -4    1    3    3    0  502 -0.87822048383E+03 -0.36601362025E+02 -0.37756079293E+03  0.95664237998E+03  0.12699999809E+01 0. -1.
</event>
<event>
 5   0  0.5118981E-06  0.2000239E+04  0.7818609E-02  0.8606509E-01
        2   -1    0    0  501    0  0.00000000000E+00  0.00000000000E+00  0.16060572921E+04  0.16060572921E+04  0.25500000920E-02 0. -1.
       -2   -1    0    0    0  501  0.00000000000E+00  0.00000000000E+00 -0.62279154273E+03  0.62279154273E+03  0.25500000920E-02 0.  1.
    10030    2    1    2    0    0  0.00000000000E+00  0.00000000000E+00  0.98326574933E+03  0.22288488348E+04  0.20002388844E+04 0.  0.
        4    1    3    3  502    0  0.66047311533E+03  0.61448776174E+02 -0.34240253039E+03  0.74648629852E+03  0.12699999809E+01 0.  1.
       -4    1    3    3    0  502 -0.66047311533E+03 -0.61448776174E+02  0.13256682797E+04  0.14823625363E+04  0.12699999809E+01 0. -1.
</event>
<event>
 5   0  0.2311520E-06  0.2004718E+04  0.7818609E-02  0.8604418E-01
        1   -1    0    0  501    0  0.00000000000E+00  0.00000000000E+00  0.17128337030E+04  0.17128337030E+04  0.50400001928E-02 0.  1.
       -1   -1    0    0    0  501  0.00000000000E+00  0.00000000000E+00 -0.58658542360E+03  0.58658542362E+03  0.50400001928E-02 0. -1.
    10030    2    1    2    0    0  0.00000000000E+00  0.00000000000E+00  0.11262482794E+04  0.22994191266E+04  0.20047177190E+04 0.  0.
        3    1    3    3  502    0 -0.74245843885E+02  0.64394876600E+03 -0.31382080874E+03  0.72018467684E+03  0.10100000352E+00 0. -1.
       -3    1    3    3    0  502  0.74245843885E+02 -0.64394876600E+03  0.14400690881E+04  0.15792344497E+04  0.10100000352E+00 0.  1.
</event>
<event>
 5   0  0.2379743E-06  0.2000511E+04  0.7818609E-02  0.8606382E-01
        1   -1    0    0  501    0  0.00000000000E+00  0.00000000000E+00  0.75404086502E+03  0.75404086503E+03  0.50400001928E-02 0.  1.
       -1   -1    0    0    0  501  0.00000000000E+00  0.00000000000E+00 -0.13268663943E+04  0.13268663943E+04  0.50400001928E-02 0. -1.
    10030    2    1    2    0    0  0.00000000000E+00  0.00000000000E+00 -0.57282552932E+03  0.20809072594E+04  0.20005114184E+04 0.  0.
        5    1    3    3  502    0 -0.45022372019E+03  0.84546008069E+03  0.13235755708E+02  0.95796733843E+03  0.46999998093E+01 0. -1.
       -5    1    3    3    0  502  0.45022372019E+03 -0.84546008069E+03 -0.58606128503E+03  0.11229399210E+04  0.46999998093E+01 0.  1.
</event>
<event>
 5   0  0.5129100E-06  0.1996802E+04  0.7818609E-02  0.8608117E-01
       -2   -1    0    0    0  501  0.00000000000E+00  0.00000000000E+00  0.59626499125E+03  0.59626499126E+03  0.25500000920E-02 0.  1.
        2   -1    0    0  501    0  0.00000000000E+00  0.00000000000E+00 -0.16717477053E+04  0.16717477053E+04  0.25500000920E-02 0. -1.
    10030    2    1    2    0    0  0.00000000000E+00  0.00000000000E+00 -0.10754827140E+04  0.22680126965E+04  0.19968020742E+04 0.  0.
        2    1    3    3  502    0  0.83230076015E+03  0.24994368146E+03  0.20556968961E+02  0.86926347457E+03  0.25500000920E-02 0.  1.
       -2    1    3    3    0  502 -0.83230076015E+03 -0.24994368146E+03 -0.10960396830E+04  0.13987492220E+04  0.25500000920E-02 0. -1.
</event>
<event>
 5   0  0.2386776E-06  0.2003670E+04  0.7818609E-02  0.8604907E-01
       -1   -1    0    0    0  501  0.00000000000E+00  0.00000000000E+00  0.48483464339E+03  0.48483464341E+03  0.50400001928E-02 0. -1.
        1   -1    0    0  501    0  0.00000000000E+00  0.00000000000E+00 -0.20701361754E+04  0.20701361754E+04  0.50400001928E-02 0.  1.
    10030    2    1    2    0    0  0.00000000000E+00  0.00000000000E+00 -0.15853015320E+04  0.25549708188E+04  0.20036703665E+04 0.  0.
        2    1    3    3  502    0 -0.80073374406E+03 -0.54529454439E+03 -0.46716867613E+03  0.10755311437E+04  0.25500000920E-02 0. -1.
       -2    1    3    3    0  502  0.80073374406E+03  0.54529454439E+03 -0.11181328559E+04  0.14794396752E+04  0.25500000920E-02 0.  1.
</event>
<event>
 5   0  0.2386776E-06  0.1999915E+04  0.7818609E-02  0.8606660E-01
       -1   -1    0    0    0  501  0.00000000000E+00  0.00000000000E+00  0.49671285833E+03  0.49671285836E+03  0.50400001928E-02 0. -1.
        1   -1    0    0  501    0  0.00000000000E+00  0.00000000000E+00 -0.20130651541E+04  0.20130651541E+04  0.50400001928E-02 0.  1.
    10030    2    1    2    0    0  0.00000000000E+00  0.00000000000E+00 -0.15163522958E+04  0.25097780125E+04  0.19999153450E+04 0.  0.
        2    1    3    3  502    0  0.53559146493E+03 -0.78081275273E+03 -0.35466088031E+03  0.10110940175E+04  0.25500000920E-02 0.  1.
       -2    1    3    3    0  502 -0.53559146493E+03  0.78081275273E+03 -0.11616914155E+04  0.14986839950E+04  0.25500000920E-02 0. -1.
</event>
<event>
 5   0  0.2313821E-06  0.2000885E+04  0.7818609E-02  0.8606207E-01
       -1   -1    0    0    0  501  0.00000000000E+00  0.00000000000E+00  0.78577930939E+03  0.78577930940E+03  0.50400001928E-02 0. -1.
        1   -1    0    0  501    0  0.00000000000E+00  0.00000000000E+00 -0.12737490034E+04  0.12737490034E+04  0.50400001928E-02 0.  1.
    10030    2    1    2    0    0  0.00000000000E+00  0.00000000000E+00 -0.48796969404E+03  0.20595283128E+04  0.20008854163E+04 0.  0.
        1    1    3    3  502    0  0.12374086300E+03  0.13081331173E+03 -0.12569319587E+04  0.12697644949E+04  0.50400001928E-02 0.  1.
       -1    1    3    3    0  502 -0.12374086300E+03 -0.13081331173E+03  0.76896226463E+03  0.78976381796E+03  0.50400001928E-02 0. -1.
</event>
<event>
 5   0  0.5129100E-06  0.1998263E+04  0.7818609E-02  0.8607433E-01
        2   -1    0    0  501    0  0.00000000000E+00  0.00000000000E+00  0.22535032100E+04  0.22535032100E+04  0.25500000920E-02 0.  1.
       -2   -1    0    0    0  501  0.00000000000E+00  0.00000000000E+00 -0.44298318900E+03  0.44298318901E+03  0.25500000920E-02 0. -1.
    10030    2    1    2    0    0  0.00000000000E+00  0.00000000000E+00  0.18105200210E+04  0.26964863991E+04  0.19982632844E+04 0.  0.
        2    1    3    3  502    0  0.71793274282E+02 -0.98029670383E+03  0.66338650755E+03  0.11858404447E+04  0.25500000920E-02 0. -1.
       -2    1    3    3    0  502 -0.71793274282E+02  0.98029670383E+03  0.11471335135E+04  0.15106459544E+04  0.25500000920E-02 0.  1.
</event>
<event>
 5   0  0.5118981E-06  0.1999684E+04  0.7818609E-02  0.8606768E-01
       -2   -1    0    0    0  501  0.00000000000E+00  0.00000000000E+00  0.76114311618E+03  0.76114311618E+03  0.25500000920E-02 0. -1.
        2   -1    0    0  501    0  0.00000000000E+00  0.00000000000E+00 -0.13133986981E+04  0.13133986981E+04  0.25500000920E-02 0.  1.
    10030    2    1    2    0    0  0.00000000000E+00  0.00000000000E+00 -0.55225558193E+03  0.20745418143E+04  0.19996843530E+04 0.  0.
        4    1    3    3  502    0  0.36519934685E+03 -0.83518451597E+03 -0.70233420683E+03  0.11507296336E+04  0.12699999809E+01 0.  1.
       -4    1    3    3    0  502 -0.36519934685E+03  0.83518451597E+03  0.15007862490E+03  0.92381218070E+03  0.12699999809E+01 0. -1.
</event>
<event>
 5   0  0.2311520E-06  0.1999766E+04  0.7818609E-02  0.8606730E-01
       -1   -1    0    0    0  501  0.00000000000E+00  0.00000000000E+00  0.60212924185E+03  0.60212924188E+03  0.50400001928E-02 0. -1.
        1   -1    0    0  501    0  0.00000000000E+00  0.00000000000E+00 -0.16603837430E+04  0.16603837430E+04  0.50400001928E-02 0.  1.
    10030    2    1    2    0    0  0.00000000000E+00  0.00000000000E+00 -0.10582545011E+04  0.22625129848E+04  0.19997655906E+04 0.  0.
        3    1    3    3  502    0  0.37474034679E+03  0.78502401785E+03  0.28674605154E+02  0.87035353695E+03  0.10100000352E+00 0. -1.
       -3    1    3    3    0  502 -0.37474034679E+03 -0.78502401785E+03 -0.10869291063E+04  0.13921594479E+04  0.10100000352E+00 0.  1.
</event>
<event>
 5   0  0.4956214E-06  0.1999312E+04  0.7818609E-02  0.8606942E-01
       -2   -1    0    0    0  501  0.00000000000E+00  0.00000000000E+00  0.96089001440E+03  0.96089001441E+03  0.25500000920E-02 0.  1.
        2   -1    0    0  501    0  0.00000000000E+00  0.00000000000E+00 -0.10399861785E+04  0.10399861785E+04  0.25500000920E-02 0. -1.
    10030    2    1    2    0    0  0.00000000000E+00  0.00000000000E+00 -0.79096164081E+02  0.20008761929E+04  0.19993122158E+04 0.  0.
        1    1    3    3  502    0 -0.22570419087E+02 -0.58278529320E+03  0.77297631019E+03  0.96831838665E+03  0.50400001928E-02 0.  1.
       -1    1    3    3    0  502  0.22570419087E+02  0.58278529320E+03 -0.85207247427E+03  0.10325578062E+04  0.50400001928E-02 0. -1.
</event>
<event>
 5   0  0.2386776E-06  0.1998597E+04  0.7818609E-02  0.8607277E-01
       -1   -1    0    0    0  501  0.00000000000E+00  0.00000000000E+00  0.91715967221E+03  0.91715967223E+03  0.50400001928E-02 0.  1.
        1   -1    0    0  501    0  0.00000000000E+00  0.00000000000E+00 -0.10887932627E+04  0.10887932627E+04  0.50400001928E-02 0. -1.
    10030    2    1    2    0    0  0.00000000000E+00  0.00000000000E+00 -0.17163359050E+03  0.20059529349E+04  0.19985967797E+04 0.  0.
        2    1    3    3  502    0 -0.49715801588E+03  0.26731044001E+03  0.74182506140E+03  0.93216167365E+03  0.25500000920E-02 0.  1.
       -2    1    3    3    0  502  0.49715801588E+03 -0.26731044001E+03 -0.91345865190E+03  0.10737912613E+04  0.25500000920E-02 0. -1.
</event>
<event>
 5   0  0.2313821E-06  0.2009588E+04  0.7818609E-02  0.8602151E-01
        1   -1    0    0  501    0  0.00000000000E+00  0.00000000000E+00  0.14817409842E+04  0.14817409842E+04  0.50400001928E-02 0.  1.
       -1   -1    0    0    0  501  0.00000000000E+00  0.00000000000E+00 -0.68136816656E+03  0.68136816658E+03  0.50400001928E-02 0. -1.
    10030    2    1    2    0    0  0.00000000000E+00  0.00000000000E+00  0.80037281765E+03  0.21631091508E+04  0.20095881546E+04 0.  0.
        1    1    3    3  502    0  0.63237856010E+03 -0.77869520772E+03  0.46241529168E+03  0.11045799074E+04  0.50400001928E-02 0.  1.
       -1    1    3    3    0  502 -0.63237856010E+03  0.77869520772E+03  0.33795752598E+03  0.10585292434E+04  0.50400001928E-02 0. -1.
</event>
<event>
 5   0  0.2311520E-06  0.2000222E+04  0.7818609E-02  0.8606517E-01
       -1   -1    0    0    0  501  0.00000000000E+00  0.00000000000E+00  0.45839076987E+03  0.45839076990E+03  0.50400001928E-02 0. -1.
        1   -1    0    0  501    0  0.00000000000E+00  0.00000000000E+00 -0.21820299860E+04  0.21820299860E+04  0.50400001928E-02 0.  1.
    10030    2    1    2    0    0  0.00000000000E+00  0.00000000000E+00 -0.17236392161E+04  0.26404207559E+04  0.20002223928E+04 0.  0.
        3    1    3    3  502    0  0.98388374555E+02  0.40873579445E+03  0.33608058669E+03  0.53823358578E+03  0.10100000352E+00 0. -1.
       -3    1    3    3    0  502 -0.98388374555E+02 -0.40873579445E+03 -0.20597198028E+04  0.21021871701E+04  0.10100000352E+00 0.  1.
</event>
<event>
 5   0  0.2313821E-06  0.2000373E+04  0.7818609E-02  0.8606447E-01
        1   -1    0    0  501    0  0.00000000000E+00  0.00000000000E+00  0.79727794500E+03  0.79727794501E+03  0.50400001928E-02 0.  1.
       -1   -1    0    0    0  501  0.00000000000E+00  0.00000000000E+00 -0.12547350559E+04  0.12547350559E+04  0.50400001928E-02 0. -1.
    10030    2    1    2    0    0  0.00000000000E+00  0.00000000000E+00 -0.45745711092E+03  0.20520130009E+04  0.20003725522E+04 0.  0.
        1    1    3    3  502    0 -0.40246201159E+03 -0.62590609432E+03  0.45683431461E+03  0.87317335090E+03  0.50400001928E-02 0.  1.
       -1    1    3    3    0  502  0.40246201159E+03  0.62590609432E+03 -0.91429142553E+03  0.11788396500E+04  0.50400001928E-02 0. -1.
</event>
<event>
 5   0  0.2313821E-06  0.1999920E+04  0.7818609E-02  0.8606658E-01
       -1   -1    0    0    0  501  0.00000000000E+00  0.00000000000E+00  0.14808409516E+04  0.14808409516E+04  0.50400001928E-02 0.  1.
        1   -1    0    0  501    0  0.00000000000E+00  0.00000000000E+00 -0.67523769657E+03  0.67523769659E+03  0.50400001928E-02 0. -1.
    10030    2    1    2    0    0  0.00000000000E+00  0.00000000000E+00  0.80560325503E+03  0.21560786482E+04  0.19999196316E+04 0.  0.
        1    1    3    3  502    0  0.24280148226E+03 -0.68757377019E+03  0.11404885968E+04  0.13536707461E+04  0.50400001928E-02 0.  1.
       -1    1    3    3    0  502 -0.24280148226E+03  0.68757377019E+03 -0.33488534178E+03  0.80240790214E+03  0.50400001928E-02 0. -1.
</event>
<event>
 5   0  0.2386776E-06  0.1999958E+04  0.7818609E-02  0.8606640E-01
       -1   -1    0    0    0  501  0.00000000000E+00  0.00000000000E+00  0.12211722902E+04  0.12211722902E+04  0.50400001928E-02 0. -1.
        1   -1    0    0  501    0  0.00000000000E+00  0.00000000000E+00 -0.81885074465E+03  0.81885074466E+03  0.50400001928E-02 0.  1.
    10030    2    1    2    0    0  0.00000000000E+00  0.00000000000E+00  0.40232154556E+03  0.20400230349E+04  0.19999578388E+04 0.  0.
        2    1    3    3  502    0  0.52020778161E+03 -0.56369053704E+03 -0.45324799308E+03  0.89095280506E+03  0.25500000920E-02 0.  1.
       -2    1    3    3    0  502 -0.52020778161E+03  0.56369053704E+03  0.85556953864E+03  0.11490702298E+04  0.25500000920E-02 0. -1.
</event>
<event>
 5   0  0.2313821E-06  0.2000063E+04  0.7818609E-02  0.8606591E-01
       -1   -1    0    0    0  501  0.00000000000E+00  0.00000000000E+00  0.13691812078E+04  0.13691812078E+04  0.50400001928E-02 0.  1.
        1   -1    0    0  501    0  0.00000000000E+00  0.00000000000E+00 -0.73040933238E+03  0.73040933239E+03  0.50400001928E-02 0. -1.
    10030    2    1    2    0    0  0.00000000000E+00  0.00000000000E+00  0.63877187541E+03  0.20995905402E+04  0.20000627309E+04 0.  0.
        1    1    3    3  502    0 -0.61774248392E+03 -0.78647981158E+01  0.11448991149E+04  0.13009464304E+04  0.50400001928E-02 0.  1.
       -1    1    3    3    0  502  0.61774248392E+03  0.78647981158E+01 -0.50612723949E+03  0.79864410977E+03  0.50400001928E-02 0. -1.
</event>
<event>
 5   0  0.5129100E-06  0.1999826E+04  0.7818609E-02  0.8606702E-01
       -2   -1    0    0    0  501  0.00000000000E+00  0.00000000000E+00  0.71265804109E+03  0.71265804110E+03  0.25500000920E-02 0.  1.
        2   -1    0    0  501    0  0.00000000000E+00  0.00000000000E+00 -0.14029534705E+04  0.14029534705E+04  0.25500000920E-02 0. -1.
    10030    2    1    2    0    0  0.00000000000E+00  0.00000000000E+00 -0.69029542938E+03  0.21156115116E+04  0.19998260645E+04 0.  0.
        2    1    3    3  502    0 -0.27900514991E+03 -0.60034649657E+01 -0.13609202736E+04  0.13892386067E+04  0.25500000920E-02 0. -1.
       -2    1    3    3    0  502  0.27900514991E+03  0.60034649657E+01  0.67062484421E+03  0.72637290488E+03  0.25500000920E-02 0.  1.
</event>
<event>
 5   0  0.2386776E-06  0.1999681E+04  0.7818609E-02  0.8606770E-01
       -1   -1    0    0    0  501  0.00000000000E+00  0.00000000000E+00  0.63194302592E+03  0.63194302594E+03  0.50400001928E-02 0.  1.
        1   -1    0    0  501    0  0.00000000000E+00  0.00000000000E+00 -0.15819170586E+04  0.15819170586E+04  0.50400001928E-02 0. -1.
    10030    2    1    2    0    0  0.00000000000E+00  0.00000000000E+00 -0.94997403270E+03  0.22138600846E+04  0.19996814274E+04 0.  0.
        2    1    3    3  502    0 -0.41231702933E+03  0.39494077878E+02 -0.14824637688E+04  0.15392413523E+04  0.25500000920E-02 0. -1.
       -2    1    3    3    0  502  0.41231702933E+03 -0.39494077878E+02  0.53248973610E+03  0.67461873226E+03  0.25500000920E-02 0.  1.
</event>
<event>
 5   0  0.2379743E-06  0.1999559E+04  0.7818609E-02  0.8606827E-01
        1   -1    0    0  501    0  0.00000000000E+00  0.00000000000E+00  0.14446960039E+04  0.14446960039E+04  0.50400001928E-02 0.  1.
       -1   -1    0    0    0  501  0.00000000000E+00  0.00000000000E+00 -0.69188206293E+03  0.69188206295E+03  0.50400001928E-02 0. -1.
    10030    2    1    2    0    0  0.00000000000E+00  0.00000000000E+00  0.75281394096E+03  0.21365780668E+04  0.19995592029E+04 0.  0.
        5    1    3    3  502    0 -0.75195102058E+03 -0.49442847701E+03 -0.88919583787E+02  0.90433325639E+03  0.46999998093E+01 0. -1.
       -5    1    3    3    0  502  0.75195102058E+03  0.49442847701E+03  0.84173352474E+03  0.12322448105E+04  0.46999998093E+01 0.  1.
</event>
<event>
 5   0  0.4956214E-06  0.1999855E+04  0.7818609E-02  0.8606688E-01
        2   -1    0    0  501    0  0.00000000000E+00  0.00000000000E+00  0.21450164043E+04  0.21450164043E+04  0.25500000920E-02 0. -1.
       -2   -1    0    0    0  501  0.00000000000E+00  0.00000000000E+00 -0.46612953520E+03  0.46612953520E+03  0.25500000920E-02 0.  1.
    10030    2    1    2    0    0  0.00000000000E+00  0.00000000000E+00  0.16788868691E+04  0.26111459395E+04  0.19998554943E+04 0.  0.
        1    1    3    3  502    0 -0.52774389142E+03 -0.59760595975E+02 -0.26673541284E+03  0.59433384915E+03  0.50400001928E-02 0.  1.
       -1    1    3    3    0  502  0.52774389142E+03  0.59760595975E+02  0.19456222819E+04  0.20168120903E+04  0.50400001928E-02 0. -1.
</event>
<event>
 5   0  0.4956214E-06  0.1999272E+04  0.7818609E-02  0.8606961E-01
       -2   -1    0    0    0  501  0.00000000000E+00  0.00000000000E+00  0.89885922487E+03  0.89885922487E+03  0.25500000920E-02 0.  1.
        2   -1    0    0  501    0  0.00000000000E+00  0.00000000000E+00 -0.11117120037E+04  0.11117120037E+04  0.25500000920E-02 0. -1.
    10030    2    1    2    0    0  0.00000000000E+00  0.00000000000E+00 -0.21285277886E+03  0.20105712286E+04  0.19992724576E+04 0.  0.
        1    1    3    3  502    0 -0.16536737319E+03  0.93726682877E+02  0.88051766572E+03  0.90080098738E+03  0.50400001928E-02 0.  1.
       -1    1    3    3    0  502  0.16536737319E+03 -0.93726682877E+02 -0.10933704446E+04  0.11097702412E+04  0.50400001928E-02 0. -1.
</event>
<event>
 5   0  0.5129100E-06  0.2000291E+04  0.7818609E-02  0.8606485E-01
       -2   -1    0    0    0  501  0.00000000000E+00  0.00000000000E+00  0.42620602092E+03  0.42620602093E+03  0.25500000920E-02 0. -1.
        2   -1    0    0  501    0  0.00000000000E+00  0.00000000000E+00 -0.23469655416E+04  0.23469655416E+04  0.25500000920E-02 0.  1.
    10030    2    1    2    0    0  0.00000000000E+00  0.00000000000E+00 -0.19207595206E+04  0.27731715625E+04  0.20002908236E+04 0.  0.
        2    1    3    3  502    0  0.44794202058E+03 -0.21080336093E+03  0.24441979106E+03  0.55211515560E+03  0.25500000920E-02 0. -1.
       -2    1    3    3    0  502 -0.44794202058E+03  0.21080336093E+03 -0.21651793117E+04  0.22210564069E+04  0.25500000920E-02 0.  1.
</event>
<event>
 5   0  0.5251252E-06  0.1999432E+04  0.7818609E-02  0.8606886E-01
       -2   -1    0    0    0  501  0.00000000000E+00  0.00000000000E+00  0.18576450785E+04  0.18576450785E+04  0.25500000920E-02 0. -1.
        2   -1    0    0  501    0  0.00000000000E+00  0.00000000000E+00 -0.53801047960E+03  0.53801047961E+03  0.25500000920E-02 0.  1.
    10030    2    1    2    0    0  0.00000000000E+00  0.00000000000E+00  0.13196345989E+04  0.23956555581E+04  0.19994324391E+04 0.  0.
        5    1    3    3  502    0 -0.52369633667E+03 -0.50514816342E+03 -0.16158585256E+03  0.74536205820E+03  0.46999998093E+01 0. -1.
       -5    1    3    3    0  502  0.52369633667E+03  0.50514816342E+03  0.14812204514E+04  0.16502934999E+04  0.46999998093E+01 0.  1.
</event>
<event>
 5   0  0.2356996E-06  0.1999722E+04  0.7818609E-02  0.8606751E-01
       -1   -1    0    0    0  501  0.00000000000E+00  0.00000000000E+00  0.11580232641E+04  0.11580232641E+04  0.50400001928E-02 0.  1.
        1   -1    0    0  501    0  0.00000000000E+00  0.00000000000E+00 -0.86330030021E+03  0.86330030022E+03  0.50400001928E-02 0. -1.
    10030    2    1    2    0    0  0.00000000000E+00  0.00000000000E+00  0.29472296392E+03  0.20213235644E+04  0.19997218122E+04 0.  0.
        4    1    3    3  502    0 -0.67842798736E+03  0.79792611834E+02 -0.59065497127E+03  0.90305387598E+03  0.12699999809E+01 0. -1.
       -4    1    3    3    0  502  0.67842798736E+03 -0.79792611834E+02  0.88537793520E+03  0.11182696884E+04  0.12699999809E+01 0.  1.
</event>
<event>
 5   0  0.4956214E-06  0.2001090E+04  0.7818609E-02  0.8606111E-01
        2   -1    0    0  501    0  0.00000000000E+00  0.00000000000E+00  0.21478695373E+04  0.21478695373E+04  0.25500000920E-02 0.  1.
       -2   -1    0    0    0  501  0.00000000000E+00  0.00000000000E+00 -0.46608516586E+03  0.46608516586E+03  0.25500000920E-02 0. -1.
    10030    2    1    2    0    0  0.00000000000E+00  0.00000000000E+00  0.16817843714E+04  0.26139547031E+04  0.20010898326E+04 0.  0.
        1    1    3    3  502    0  0.44979379398E+03 -0.89248028173E+03  0.90291737028E+03  0.13468835466E+04  0.50400001928E-02 0.  1.
       -1    1    3    3    0  502 -0.44979379398E+03  0.89248028173E+03  0.77886700114E+03  0.12670711566E+04  0.50400001928E-02 0. -1.
</event>
<event>
 5   0  0.2313821E-06  0.2000206E+04  0.7818609E-02  0.8606524E-01
       -1   -1    0    0    0  501  0.00000000000E+00  0.00000000000E+00  0.68088534872E+03  0.68088534873E+03  0.50400001928E-02 0.  1.
        1   -1    0    0  501    0  0.00000000000E+00  0.00000000000E+00 -0.14689785918E+04  0.14689785918E+04  0.50400001928E-02 0. -1.
    10030    2    1    2    0    0  0.00000000000E+00  0.00000000000E+00 -0.78809324307E+03  0.21498639405E+04  0.20002059901E+04 0.  0.
        1    1    3    3  502    0 -0.34243086700E+03 -0.81644841298E+03  0.10590021639E+03  0.89166236076E+03  0.50400001928E-02 0.  1.
       -1    1    3    3    0  502  0.34243086700E+03  0.81644841298E+03 -0.89399345946E+03  0.12582015798E+04  0.50400001928E-02 0. -1.
</event>
<event>
 5   0  0.2386776E-06  0.2000402E+04  0.7818609E-02  0.8606433E-01
        1   -1    0    0  501    0  0.00000000000E+00  0.00000000000E+00  0.15917419319E+04  0.15917419319E+04  0.50400001928E-02 0.  1.
       -1   -1    0    0    0  501  0.00000000000E+00  0.00000000000E+00 -0.62849490399E+03  0.62849490401E+03  0.50400001928E-02 0. -1.
    10030    2    1    2    0    0  0.00000000000E+00  0.00000000000E+00  0.96324702794E+03  0.22202368360E+04  0.20004016524E+04 0.  0.
        2    1    3    3  502    0  0.39875753870E+03  0.51037376014E+03  0.13275595986E+04  0.14771267507E+04  0.25500000920E-02 0.  1.
       -2    1    3    3    0  502 -0.39875753870E+03 -0.51037376014E+03 -0.36431257065E+03  0.74311008529E+03  0.25500000920E-02 0. -1.
</event>
<event>
 5   0  0.2311520E-06  0.1999816E+04  0.7818609E-02  0.8606707E-01
       -1   -1    0    0    0  501  0.00000000000E+00  0.00000000000E+00  0.86454958652E+03  0.86454958653E+03  0.50400001928E-02 0. -1.
        1   -1    0    0  501    0  0.00000000000E+00  0.00000000000E+00 -0.11564582960E+04  0.11564582960E+04  0.50400001928E-02 0.  1.
    10030    2    1    2    0    0  0.00000000000E+00  0.00000000000E+00 -0.29190870952E+03  0.20210078826E+04  0.19998155332E+04 0.  0.
        3    1    3    3  502    0 -0.75148940878E+03  0.62832715894E+03 -0.34879049655E+03  0.10398010246E+04  0.10100000352E+00 0.  1.
       -3    1    3    3    0  502  0.75148940878E+03 -0.62832715894E+03  0.56881787030E+02  0.98120685794E+03  0.10100000352E+00 0. -1.
</event>
<event>
 5   0  0.2379743E-06  0.1993255E+04  0.7818609E-02  0.8609781E-01
        1   -1    0    0  501    0  0.00000000000E+00  0.00000000000E+00  0.15780219428E+04  0.15780219428E+04  0.50400001928E-02 0.  1.
       -1   -1    0    0    0  501  0.00000000000E+00  0.00000000000E+00 -0.62943733856E+03  0.62943733858E+03  0.50400001928E-02 0. -1.
    10030    2    1    2    0    0  0.00000000000E+00  0.00000000000E+00  0.94858460425E+03  0.22074592814E+04  0.19932545566E+04 0.  0.
        5    1    3    3  502    0 -0.85811716943E+02  0.22556042438E+03 -0.59657674337E+03  0.64355812211E+03  0.46999998093E+01 0. -1.
       -5    1    3    3    0  502  0.85811716943E+02 -0.22556042438E+03  0.15451613476E+04  0.15639011593E+04  0.46999998093E+01 0.  1.
</event>
<event>
 5   0  0.2386776E-06  0.1999718E+04  0.7818609E-02  0.8606753E-01
       -1   -1    0    0    0  501  0.00000000000E+00  0.00000000000E+00  0.44404023806E+03  0.44404023808E+03  0.50400001928E-02 0.  1.
        1   -1    0    0  501    0  0.00000000000E+00  0.00000000000E+00 -0.22514131019E+04  0.22514131019E+04  0.50400001928E-02 0. -1.
    10030    2    1    2    0    0  0.00000000000E+00  0.00000000000E+00 -0.18073728638E+04  0.26954533399E+04  0.19997179899E+04 0.  0.
        2    1    3    3  502    0  0.95387986196E+03 -0.26157174691E+03 -0.11009223482E+04  0.14799785764E+04  0.25500000920E-02 0.  1.
       -2    1    3    3    0  502 -0.95387986196E+03  0.26157174691E+03 -0.70645051563E+03  0.12154747636E+04  0.25500000920E-02 0. -1.
</event>
<event>
 5   0  0.4956214E-06  0.1999951E+04  0.7818609E-02  0.8606644E-01
       -2   -1    0    0    0  501  0.00000000000E+00  0.00000000000E+00  0.54869528846E+03  0.54869528847E+03  0.25500000920E-02 0.  1.
        2   -1    0    0  501    0  0.00000000000E+00  0.00000000000E+00 -0.18224151510E+04  0.18224151510E+04  0.25500000920E-02 0. -1.
    10030    2    1    2    0    0  0.00000000000E+00  0.00000000000E+00 -0.12737198625E+04  0.23711104395E+04  0.19999506064E+04 0.  0.
        1    1    3    3  502    0  0.32312441049E+03  0.48118719554E+03 -0.16029477070E+04  0.17045210040E+04  0.50400001928E-02 0. -1.
       -1    1    3    3    0  502 -0.32312441049E+03 -0.48118719554E+03  0.32922784448E+03  0.66658943542E+03  0.50400001928E-02 0.  1.
</event>
<event>
 5   0  0.5030137E-06  0.1999638E+04  0.7818609E-02  0.8606790E-01
        2   -1    0    0  501    0  0.00000000000E+00  0.00000000000E+00  0.13758796177E+04  0.13758796177E+04  0.25500000920E-02 0. -1.
       -2   -1    0    0    0  501  0.00000000000E+00  0.00000000000E+00 -0.72654470642E+03  0.72654470642E+03  0.25500000920E-02 0.  1.
    10030    2    1    2    0    0  0.00000000000E+00  0.00000000000E+00  0.64933491126E+03  0.21024243241E+04  0.19996380201E+04 0.  0.
        3    1    3    3  502    0 -0.14197255426E+03  0.44692600475E+03  0.12530855809E+04  0.13379546117E+04  0.10100000352E+00 0. -1.
       -3    1    3    3    0  502  0.14197255426E+03 -0.44692600475E+03 -0.60375066961E+03  0.76446971237E+03  0.10100000352E+00 0.  1.
</event>
<event>
 5   0  0.2313821E-06  0.1999641E+04  0.7818609E-02  0.8606789E-01
        1   -1    0    0  501    0  0.00000000000E+00  0.00000000000E+00  0.12801591620E+04  0.12801591620E+04  0.50400001928E-02 0.  1.
       -1   -1    0    0    0  501  0.00000000000E+00  0.00000000000E+00 -0.78087219013E+03  0.78087219015E+03  0.50400001928E-02 0. -1.
    10030    2    1    2    0    0  0.00000000000E+00  0.00000000000E+00  0.49928697190E+03  0.20610313522E+04  0.19996406563E+04 0.  0.
        1    1    3    3  502    0 -0.34565489789E+02 -0.73144209880E+03  0.95130658107E+03  0.12004942850E+04  0.50400001928E-02 0.  1.
       -1    1    3    3    0  502  0.34565489789E+02  0.73144209880E+03 -0.45201960917E+03  0.86053706724E+03  0.50400001928E-02 0. -1.
</event>
<event>
 5   0  0.2386776E-06  0.2000421E+04  0.7818609E-02  0.8606424E-01
       -1   -1    0    0    0  501  0.00000000000E+00  0.00000000000E+00  0.65247842981E+03  0.65247842982E+03  0.50400001928E-02 0. -1.
        1   -1    0    0  501    0  0.00000000000E+00  0.00000000000E+00 -0.15332628417E+04  0.15332628417E+04  0.50400001928E-02 0.  1.
    10030    2    1    2    0    0  0.00000000000E+00  0.00000000000E+00 -0.88078441187E+03  0.21857412715E+04  0.20004208872E+04 0.  0.
        2    1    3    3  502    0 -0.44370874065E+03 -0.38745650659E+03  0.44283796575E+03  0.73695688812E+03  0.25500000920E-02 0. -1.
       -2    1    3    3    0  502  0.44370874065E+03  0.38745650659E+03 -0.13236223776E+04  0.14487843834E+04  0.25500000920E-02 0.  1.
</event>
<event>
 5   0  0.2313821E-06  0.1992699E+04  0.7818609E-02  0.8610042E-01
        1   -1    0    0  501    0  0.00000000000E+00  0.00000000000E+00  0.80989144560E+03  0.80989144561E+03  0.50400001928E-02 0.  1.
       -1   -1    0    0    0  501  0.00000000000E+00  0.00000000000E+00 -0.12257345441E+04  0.12257345441E+04  0.50400001928E-02 0. -1.
    10030    2    1    2    0    0  0.00000000000E+00  0.00000000000E+00 -0.41584309846E+03  0.20356259897E+04  0.19926985942E+04 0.  0.
        1    1    3    3  502    0 -0.18866457934E+03  0.95597225169E+03  0.44871786860E+01  0.97442157421E+03  0.50400001928E-02 0.  1.
       -1    1    3    3    0  502  0.18866457934E+03 -0.95597225169E+03 -0.42033027714E+03  0.10612044155E+04  0.50400001928E-02 0. -1.
</event>
<event>
 5   0  0.2356996E-06  0.1999929E+04  0.7818609E-02  0.8606654E-01
        1   -1    0    0  501    0  0.00000000000E+00  0.00000000000E+00  0.15964650101E+04  0.15964650101E+04  0.50400001928E-02 0.  1.
       -1   -1    0    0    0  501  0.00000000000E+00  0.00000000000E+00 -0.62633965424E+03  0.62633965426E+03  0.50400001928E-02 0. -1.
    10030    2    1    2    0    0  0.00000000000E+00  0.00000000000E+00  0.97012535588E+03  0.22228046644E+04  0.19999293412E+04 0.  0.
        4    1    3    3  502    0  0.95057531455E+03  0.27111403471E+03  0.31712285522E+03  0.10381063369E+04  0.12699999809E+01 0. -1.
       -4    1    3    3    0  502 -0.95057531455E+03 -0.27111403471E+03  0.65300250066E+03  0.11846983275E+04  0.12699999809E+01 0.  1.
</event>
<event>
 5   0  0.2311520E-06  0.2000500E+04  0.7818609E-02  0.8606387E-01
       -1   -1    0    0    0  501  0.00000000000E+00  0.00000000000E+00  0.43369767611E+03  0.43369767613E+03  0.50400001928E-02 0. -1.
        1   -1    0    0  501    0  0.00000000000E+00  0.00000000000E+00 -0.23069071683E+04  0.23069071683E+04  0.50400001928E-02 0.  1.
    10030    2    1    2    0    0  0.00000000000E+00  0.00000000000E+00 -0.18732094922E+04  0.27406048444E+04  0.20005002154E+04 0.  0.
        3    1    3    3  502    0 -0.35011350195E+02 -0.99552998289E+03 -0.81259102349E+03  0.12855387676E+04  0.10100000352E+00 0.  1.
       -3    1    3    3    0  502  0.35011350195E+02  0.99552998289E+03 -0.10606184687E+04  0.14550660768E+04  0.10100000352E+00 0. -1.
</event>
<event>
 5   0  0.4956214E-06  0.2000410E+04  0.7818609E-02  0.8606429E-01
        2   -1    0    0  501    0  0.00000000000E+00  0.00000000000E+00  0.16160226305E+04  0.16160226306E+04  0.25500000920E-02 0.  1.
       -2   -1    0    0    0  501  0.00000000000E+00  0.00000000000E+00 -0.61905693015E+03  0.61905693015E+03  0.25500000920E-02 0. -1.
    10030    2    1    2    0    0  0.00000000000E+00  0.00000000000E+00  0.99696570040E+03  0.22350795607E+04  0.20004099667E+04 0.  0.
        1    1    3    3  502    0 -0.92195177131E+03  0.38478544501E+03  0.44426044460E+03  0.10933536710E+04  0.50400001928E-02 0. -1.
       -1    1    3    3    0  502  0.92195177131E+03 -0.38478544501E+03  0.55270525580E+03  0.11417258897E+04  0.50400001928E-02 0.  1.
</event>
<event>
 5   0  0.2379743E-06  0.2000826E+04  0.7818609E-02  0.8606235E-01
       -1   -1    0    0    0  501  0.00000000000E+00  0.00000000000E+00  0.56498787458E+03  0.56498787460E+03  0.50400001928E-02 0.  1.
        1   -1    0    0  501    0  0.00000000000E+00  0.00000000000E+00 -0.17714115083E+04  0.17714115083E+04  0.50400001928E-02 0. -1.
    10030    2    1    2    0    0  0.00000000000E+00  0.00000000000E+00 -0.12064236337E+04  0.23363993829E+04  0.20008258526E+04 0.  0.
        5    1    3    3  502    0  0.69982998390E+03 -0.46059909810E+03 -0.12416131333E+04  0.14978447177E+04  0.46999998093E+01 0. -1.
       -5    1    3    3    0  502 -0.69982998390E+03  0.46059909810E+03  0.35189499664E+02  0.83855466514E+03  0.46999998093E+01 0.  1.
</event>
<event>
 5   0  0.5129100E-06  0.1999657E+04  0.7818609E-02  0.8606781E-01
       -2   -1    0    0    0  501  0.00000000000E+00  0.00000000000E+00  0.73880370559E+03  0.73880370560E+03  0.25500000920E-02 0.  1.
        2   -1    0    0  501    0  0.00000000000E+00  0.00000000000E+00 -0.13530757611E+04  0.13530757611E+04  0.25500000920E-02 0. -1.
    10030    2    1    2    0    0  0.00000000000E+00  0.00000000000E+00 -0.61427205546E+03  0.20918794667E+04  0.19996573569E+04 0.  0.
        2    1    3    3  502    0 -0.36113021181E+03 -0.86028276612E+03 -0.68309307335E+03  0.11563380191E+04  0.25500000920E-02 0.  1.
       -2    1    3    3    0  502  0.36113021181E+03  0.86028276612E+03  0.68821017892E+02  0.93554144755E+03  0.25500000920E-02 0. -1.
</event>
<event>
 5   0  0.2356996E-06  0.1995991E+04  0.7818609E-02  0.8608497E-01
        1   -1    0    0  501    0  0.00000000000E+00  0.00000000000E+00  0.15472541033E+04  0.15472541033E+04  0.50400001928E-02 0. -1.
       -1   -1    0    0    0  501  0.00000000000E+00  0.00000000000E+00 -0.64371785342E+03  0.64371785344E+03  0.50400001928E-02 0.  1.
    10030    2    1    2    0    0  0.00000000000E+00  0.00000000000E+00  0.90353624985E+03  0.21909719567E+04  0.19959910722E+04 0.  0.
        4    1    3    3  502    0 -0.48652176435E+03 -0.19907645345E+03  0.13829649552E+04  0.14795028022E+04  0.12699999809E+01 0. -1.
       -4    1    3    3    0  502  0.48652176435E+03  0.19907645345E+03 -0.47942870531E+03  0.71146915455E+03  0.12699999809E+01 0.  1.
</event>
<event>
 5   0  0.5030137E-06  0.2000283E+04  0.7818609E-02  0.8606489E-01
       -2   -1    0    0    0  501  0.00000000000E+00  0.00000000000E+00  0.65758635784E+03  0.65758635785E+03  0.25500000920E-02 0. -1.
        2   -1    0    0  501    0  0.00000000000E+00  0.00000000000E+00 -0.15211425421E+04  0.15211425421E+04  0.25500000920E-02 0.  1.
    10030    2    1    2    0    0  0.00000000000E+00  0.00000000000E+00 -0.86355618426E+03  0.21787288999E+04  0.20002825641E+04 0.  0.
        3    1    3    3  502    0 -0.65656663716E+03 -0.37232912395E+03  0.28294147011E+03  0.80607977973E+03  0.10100000352E+00 0. -1.
       -3    1    3    3    0  502  0.65656663716E+03  0.37232912395E+03 -0.11464976544E+04  0.13726491202E+04  0.10100000352E+00 0.  1.
</event>
<event>
 5   0  0.2313821E-06  0.2001636E+04  0.7818609E-02  0.8605856E-01
       -1   -1    0    0    0  501  0.00000000000E+00  0.00000000000E+00  0.58561405250E+03  0.58561405252E+03  0.50400001928E-02 0.  1.
        1   -1    0    0  501    0  0.00000000000E+00  0.00000000000E+00 -0.17104043491E+04  0.17104043491E+04  0.50400001928E-02 0. -1.
    10030    2    1    2    0    0  0.00000000000E+00  0.00000000000E+00 -0.11247902966E+04  0.22960184017E+04  0.20016361531E+04 0.  0.
        1    1    3    3  502    0 -0.33390020342E+03 -0.89419379320E+03 -0.90759473877E+03  0.13171181023E+04  0.50400001928E-02 0. -1.
       -1    1    3    3    0  502  0.33390020342E+03  0.89419379320E+03 -0.21719555786E+03  0.97890029932E+03  0.50400001928E-02 0.  1.
</event>
<event>
 5   0  0.5030137E-06  0.2001586E+04  0.7818609E-02  0.8605880E-01
       -2   -1    0    0    0  501  0.00000000000E+00  0.00000000000E+00  0.11251227148E+04  0.11251227148E+04  0.25500000920E-02 0. -1.
        2   -1    0    0  501    0  0.00000000000E+00  0.00000000000E+00 -0.89020195603E+03  0.89020195604E+03  0.25500000920E-02 0.  1.
    10030    2    1    2    0    0  0.00000000000E+00  0.00000000000E+00  0.23492075880E+03  0.20153246709E+04  0.20015858128E+04 0.  0.
        3    1    3    3  502    0 -0.43479079800E+03 -0.81180322647E+03 -0.27704393143E+03  0.96167607159E+03  0.10100000352E+00 0.  1.
       -3    1    3    3    0  502  0.43479079800E+03  0.81180322647E+03  0.51196469023E+03  0.10536485993E+04  0.10100000352E+00 0. -1.
</event>
<event>
 5   0  0.2311520E-06  0.1986050E+04  0.7818609E-02  0.8613171E-01
       -1   -1    0    0    0  501  0.00000000000E+00  0.00000000000E+00  0.77687869779E+03  0.77687869780E+03  0.50400001928E-02 0.  1.
        1   -1    0    0  501    0  0.00000000000E+00  0.00000000000E+00 -0.12693078361E+04  0.12693078362E+04  0.50400001928E-02 0. -1.
    10030    2    1    2    0    0  0.00000000000E+00  0.00000000000E+00 -0.49242913836E+03  0.20461865340E+04  0.19860495652E+04 0.  0.
        3    1    3    3  502    0 -0.85865589034E+03  0.25229294893E+03 -0.68954206324E+03  0.11297831373E+04  0.10100000352E+00 0.  1.
       -3    1    3    3    0  502  0.85865589034E+03 -0.25229294893E+03  0.19711292488E+03  0.91640339668E+03  0.10100000352E+00 0. -1.
</event>
<event>
 5   0  0.2379743E-06  0.1997157E+04  0.7818609E-02  0.8607951E-01
       -1   -1    0    0    0  501  0.00000000000E+00  0.00000000000E+00  0.18686216122E+04  0.18686216122E+04  0.50400001928E-02 0. -1.
        1   -1    0    0  501    0  0.00000000000E+00  0.00000000000E+00 -0.53363336510E+03  0.53363336512E+03  0.50400001928E-02 0.  1.
    10030    2    1    2    0    0  0.00000000000E+00  0.00000000000E+00  0.13349882471E+04  0.24022549774E+04  0.19971568181E+04 0.  0.
        5    1    3    3  502    0 -0.32235529696E+03  0.79198336720E+03  0.47144600728E+02  0.85638501550E+03  0.46999998093E+01 0.  1.
       -5    1    3    3    0  502  0.32235529696E+03 -0.79198336720E+03  0.12878436464E+04  0.15458699619E+04  0.46999998093E+01 0. -1.
</event>
<event>
 5   0  0.2311520E-06  0.2000115E+04  0.7818609E-02  0.8606567E-01
       -1   -1    0    0    0  501  0.00000000000E+00  0.00000000000E+00  0.95924264770E+03  0.95924264771E+03  0.50400001928E-02 0. -1.
        1   -1    0    0  501    0  0.00000000000E+00  0.00000000000E+00 -0.10426086892E+04  0.10426086892E+04  0.50400001928E-02 0.  1.
    10030    2    1    2    0    0  0.00000000000E+00  0.00000000000E+00 -0.83366041467E+02  0.20018513369E+04  0.20001147163E+04 0.  0.
        3    1    3    3  502    0 -0.11229550548E+03 -0.99347497096E+03 -0.19037928757E+02  0.99998262555E+03  0.10100000352E+00 0.  1.
       -3    1    3    3    0  502  0.11229550548E+03  0.99347497096E+03 -0.64328112710E+02  0.10018687113E+04  0.10100000352E+00 0. -1.
</event>
<event>
 5   0  0.5251252E-06  0.2004182E+04  0.7818609E-02  0.8604668E-01
       -2   -1    0    0    0  501  0.00000000000E+00  0.00000000000E+00  0.87530672076E+03  0.87530672077E+03  0.25500000920E-02 0.  1.
        2   -1    0    0  501    0  0.00000000000E+00  0.00000000000E+00 -0.11472388994E+04  0.11472388994E+04  0.25500000920E-02 0. -1.
    10030    2    1    2    0    0  0.00000000000E+00  0.00000000000E+00 -0.27193217863E+03  0.20225456202E+04  0.20041815476E+04 0.  0.
        5    1    3    3  502    0 -0.83936213665E+03 -0.21756463224E+02  0.41600236135E+03  0.93706040081E+03  0.46999998093E+01 0.  1.
       -5    1    3    3    0  502  0.83936213665E+03  0.21756463224E+02 -0.68793453999E+03  0.10854852194E+04  0.46999998093E+01 0. -1.
</event>
<event>
 5   0  0.4956214E-06  0.1994271E+04  0.7818609E-02  0.8609304E-01
        2   -1    0    0  501    0  0.00000000000E+00  0.00000000000E+00  0.77532472439E+03  0.77532472439E+03  0.25500000920E-02 0. -1.
       -2   -1    0    0    0  501  0.00000000000E+00  0.00000000000E+00 -0.12824034611E+04  0.12824034611E+04  0.25500000920E-02 0.  1.
    10030    2    1    2    0    0  0.00000000000E+00  0.00000000000E+00 -0.50707873676E+03  0.20577281855E+04  0.19942709044E+04 0.  0.
        1    1    3    3  502    0 -0.21716624107E+03 -0.31307385537E+03 -0.12043279617E+04  0.12631635898E+04  0.50400001928E-02 0.  1.
       -1    1    3    3    0  502  0.21716624107E+03  0.31307385537E+03  0.69724922493E+03  0.79456459578E+03  0.50400001928E-02 0. -1.
</event>
<event>
 5   0  0.4956214E-06  0.1999746E+04  0.7818609E-02  0.8606740E-01
        2   -1    0    0  501    0  0.00000000000E+00  0.00000000000E+00  0.20204051084E+04  0.20204051084E+04  0.25500000920E-02 0. -1.
       -2   -1    0    0    0  501  0.00000000000E+00  0.00000000000E+00 -0.49482434735E+03  0.49482434736E+03  0.25500000920E-02 0.  1.
    10030    2    1    2    0    0  0.00000000000E+00  0.00000000000E+00  0.15255807610E+04  0.25152294557E+04  0.19997456230E+04 0.  0.
        1    1    3    3  502    0 -0.49104833448E+03 -0.40048492169E+03 -0.21003879453E+03  0.66755743913E+03  0.50400001928E-02 0.  1.
       -1    1    3    3    0  502  0.49104833448E+03  0.40048492169E+03  0.17356195555E+04  0.18476720166E+04  0.50400001928E-02 0. -1.
</event>
<event>
 5   0  0.2386776E-06  0.1999583E+04  0.7818609E-02  0.8606816E-01
        1   -1    0    0  501    0  0.00000000000E+00  0.00000000000E+00  0.14242436258E+04  0.14242436258E+04  0.50400001928E-02 0. -1.
       -1   -1    0    0    0  501  0.00000000000E+00  0.00000000000E+00 -0.70183435508E+03  0.70183435510E+03  0.50400001928E-02 0.  1.
    10030    2    1    2    0    0  0.00000000000E+00  0.00000000000E+00  0.72240927073E+03  0.21260779809E+04  0.19995830632E+04 0.  0.
        2    1    3    3  502    0 -0.78113119412E+03  0.18877640660E+03 -0.27121707028E+03  0.84815162166E+03  0.25500000920E-02 0.  1.
       -2    1    3    3    0  502  0.78113119412E+03 -0.18877640660E+03  0.99362634101E+03  0.12779263593E+04  0.25500000920E-02 0. -1.
</event>
<event>
 5   0  0.2386776E-06  0.1999879E+04  0.7818609E-02  0.8606677E-01
       -1   -1    0    0    0  501  0.00000000000E+00  0.00000000000E+00  0.12077422363E+04  0.12077422364E+04  0.50400001928E-02 0.  1.
        1   -1    0    0  501    0  0.00000000000E+00  0.00000000000E+00 -0.82789093948E+03  0.82789093950E+03  0.50400001928E-02 0. -1.
    10030    2    1    2    0    0  0.00000000000E+00  0.00000000000E+00  0.37985129687E+03  0.20356331759E+04  0.19998788511E+04 0.  0.
        2    1    3    3  502    0  0.57816391142E+03  0.12127053524E+03 -0.63128121250E+03  0.86457852185E+03  0.25500000920E-02 0. -1.
       -2    1    3    3    0  502 -0.57816391142E+03 -0.12127053524E+03  0.10111325094E+04  0.11710546540E+04  0.25500000920E-02 0.  1.
</event>
<event>
 5   0  0.5129100E-06  0.2002935E+04  0.7818609E-02  0.8605250E-01
        2   -1    0    0  501    0  0.00000000000E+00  0.00000000000E+00  0.18708353174E+04  0.18708353174E+04  0.25500000920E-02 0.  1.
       -2   -1    0    0    0  501  0.00000000000E+00  0.00000000000E+00 -0.53609069059E+03  0.53609069060E+03  0.25500000920E-02 0. -1.
    10030    2    1    2    0    0  0.00000000000E+00  0.00000000000E+00  0.13347446268E+04  0.24069260080E+04  0.20029352434E+04 0.  0.
        2    1    3    3  502    0 -0.98159528813E+02 -0.99601292328E+03  0.71003451737E+03  0.12271210422E+04  0.25500000920E-02 0. -1.
       -2    1    3    3    0  502  0.98159528813E+02  0.99601292328E+03  0.62471010947E+03  0.11798049658E+04  0.25500000920E-02 0.  1.
</event>
<event>
 5   0  0.2379743E-06  0.1999928E+04  0.7818609E-02  0.8606654E-01
        1   -1    0    0  501    0  0.00000000000E+00  0.00000000000E+00  0.21481041377E+04  0.21481041377E+04  0.50400001928E-02 0. -1.
       -1   -1    0    0    0  501  0.00000000000E+00  0.00000000000E+00 -0.46549343011E+03  0.46549343014E+03  0.50400001928E-02 0.  1.
    10030    2    1    2    0    0  0.00000000000E+00  0.00000000000E+00  0.16826107076E+04  0.26135975678E+04  0.19999283620E+04 0.  0.
        5    1    3    3  502    0 -0.74648601706E+03  0.34008090042E+03  0.93988605210E+02  0.82568295392E+03  0.46999998093E+01 0.  1.
       -5    1    3    3    0  502  0.74648601706E+03 -0.34008090042E+03  0.15886221024E+04  0.17879146139E+04  0.46999998093E+01 0. -1.
</event>
<event>
 5   0  0.2356996E-06  0.1999812E+04  0.7818609E-02  0.8606708E-01
       -1   -1    0    0    0  501  0.00000000000E+00  0.00000000000E+00  0.14373849835E+04  0.14373849836E+04  0.50400001928E-02 0. -1.
        1   -1    0    0  501    0  0.00000000000E+00  0.00000000000E+00 -0.69557734980E+03  0.69557734982E+03  0.50400001928E-02 0.  1.
    10030    2    1    2    0    0  0.00000000000E+00  0.00000000000E+00  0.74180763374E+03  0.21329623334E+04  0.19998124287E+04 0.  0.
        4    1    3    3  502    0 -0.46708358760E+03 -0.88377751084E+03  0.34519371911E+03  0.10575396366E+04  0.12699999809E+01 0.  1.
       -4    1    3    3    0  502  0.46708358760E+03  0.88377751084E+03  0.39661391463E+03  0.10754226967E+04  0.12699999809E+01 0. -1.
</event>
<event>
 5   0  0.2311520E-06  0.2000553E+04  0.7818609E-02  0.8606362E-01
        1   -1    0    0  501    0  0.00000000000E+00  0.00000000000E+00  0.16055486454E+04  0.16055486454E+04  0.50400001928E-02 0. -1.
       -1   -1    0    0    0  501  0.00000000000E+00  0.00000000000E+00 -0.62318461351E+03  0.62318461353E+03  0.50400001928E-02 0.  1.
    10030    2    1    2    0    0  0.00000000000E+00  0.00000000000E+00  0.98236403192E+03  0.22287332590E+04  0.20005531356E+04 0.  0.
        3    1    3    3  502    0  0.24292952913E+03  0.92624441790E+03  0.16904813993E+03  0.97237891875E+03  0.10100000352E+00 0.  1.
       -3    1    3    3    0  502 -0.24292952913E+03 -0.92624441790E+03  0.81331589199E+03  0.12563543402E+04  0.10100000352E+00 0. -1.
</event>
<event>
 5   0  0.2379743E-06  0.2004192E+04  0.7818609E-02  0.8604663E-01
        1   -1    0    0  501    0  0.00000000000E+00  0.00000000000E+00  0.15548661838E+04  0.15548661838E+04  0.50400001928E-02 0. -1.
       -1   -1    0    0    0  501  0.00000000000E+00  0.00000000000E+00 -0.64584121603E+03  0.64584121605E+03  0.50400001928E-02 0.  1.
    10030    2    1    2    0    0  0.00000000000E+00  0.00000000000E+00  0.90902496774E+03  0.22007073998E+04  0.20041922731E+04 0.  0.
        5    1    3    3  502    0 -0.48787658823E+03  0.32994387599E+02 -0.50592996068E+03  0.70363300808E+03  0.46999998093E+01 0.  1.
       -5    1    3    3    0  502  0.48787658823E+03 -0.32994387599E+02  0.14149549284E+04  0.14970743917E+04  0.46999998093E+01 0. -1.
</event>
<event>
 5   0  0.5129100E-06  0.2000060E+04  0.7818609E-02  0.8606593E-01
       -2   -1    0    0    0  501  0.00000000000E+00  0.00000000000E+00  0.10969348269E+04  0.10969348269E+04  0.25500000920E-02 0. -1.
        2   -1    0    0  501    0  0.00000000000E+00  0.00000000000E+00 -0.91168576601E+03  0.91168576601E+03  0.25500000920E-02 0.  1.
    10030    2    1    2    0    0  0.00000000000E+00  0.00000000000E+00  0.18524906085E+03  0.20086205929E+04  0.20000598670E+04 0.  0.
        2    1    3    3  502    0 -0.83722501264E+03 -0.51666989298E+03  0.27274203737E+03  0.10209219946E+04  0.25500000920E-02 0. -1.
       -2    1    3    3    0  502  0.83722501264E+03  0.51666989298E+03 -0.87492976513E+02  0.98769859828E+03  0.25500000920E-02 0.  1.
</event>
<event>
 5   0  0.5129100E-06  0.2000205E+04  0.7818609E-02  0.8606525E-01
       -2   -1    0    0    0  501  0.00000000000E+00  0.00000000000E+00  0.70945684127E+03  0.70945684128E+03  0.25500000920E-02 0. -1.
        2   -1    0    0  501    0  0.00000000000E+00  0.00000000000E+00 -0.14098176580E+04  0.14098176580E+04  0.25500000920E-02 0.  1.
    10030    2    1    2    0    0  0.00000000000E+00  0.00000000000E+00 -0.70036081677E+03  0.21192744993E+04  0.20002047720E+04 0.  0.
        2    1    3    3  502    0 -0.61926824409E+02  0.19302895813E+03 -0.13878208472E+04  0.14025483287E+04  0.25500000920E-02 0.  1.
       -2    1    3    3    0  502  0.61926824409E+02 -0.19302895813E+03  0.68746003044E+03  0.71672617067E+03  0.25500000920E-02 0. -1.
</event>
<event>
 5   0  0.2356996E-06  0.2000491E+04  0.7818609E-02  0.8606391E-01
       -1   -1    0    0    0  501  0.00000000000E+00  0.00000000000E+00  0.12674569260E+04  0.12674569260E+04  0.50400001928E-02 0. -1.
        1   -1    0    0  501    0  0.00000000000E+00  0.00000000000E+00 -0.78936902208E+03  0.78936902209E+03  0.50400001928E-02 0.  1.
    10030    2    1    2    0    0  0.00000000000E+00  0.00000000000E+00  0.47808790391E+03  0.20568259481E+04  0.20004911739E+04 0.  0.
        4    1    3    3  502    0  0.86874485217E+03  0.32074587376E+03  0.62770232901E+03  0.11187525913E+04  0.12699999809E+01 0. -1.
       -4    1    3    3    0  502 -0.86874485217E+03 -0.32074587376E+03 -0.14961442510E+03  0.93807335683E+03  0.12699999809E+01 0.  1.
</event>
<event>
 5   0  0.2313821E-06  0.2000221E+04  0.7818609E-02  0.8606517E-01
        1   -1    0    0  501    0  0.00000000000E+00  0.00000000000E+00  0.15348664392E+04  0.15348664392E+04  0.50400001928E-02 0.  1.
       -1   -1    0    0    0  501  0.00000000000E+00  0.00000000000E+00 -0.65166641734E+03  0.65166641736E+03  0.50400001928E-02 0. -1.
    10030    2    1    2    0    0  0.00000000000E+00  0.00000000000E+00  0.88320002189E+03  0.21865328566E+04  0.20002209014E+04 0.  0.
        1    1    3    3  502    0  0.41846548123E+02 -0.77789108797E+03  0.11271995453E+04  0.13701987058E+04  0.50400001928E-02 0.  1.
       -1    1    3    3    0  502 -0.41846548123E+02  0.77789108797E+03 -0.24399952342E+03  0.81633415082E+03  0.50400001928E-02 0. -1.
</event>
<event>
 5   0  0.2313821E-06  0.2000463E+04  0.7818609E-02  0.8606404E-01
        1   -1    0    0  501    0  0.00000000000E+00  0.00000000000E+00  0.10604195377E+04  0.10604195377E+04  0.50400001928E-02 0.  1.
       -1   -1    0    0    0  501  0.00000000000E+00  0.00000000000E+00 -0.94346008555E+03  0.94346008556E+03  0.50400001928E-02 0. -1.
    10030    2    1    2    0    0  0.00000000000E+00  0.00000000000E+00  0.11695945218E+03  0.20038796233E+04  0.20004634541E+04 0.  0.
        1    1    3    3  502    0 -0.71738255194E+03 -0.54472229100E+03 -0.37712309607E+03  0.97651519689E+03  0.50400001928E-02 0. -1.
       -1    1    3    3    0  502  0.71738255194E+03  0.54472229100E+03  0.49408254824E+03  0.10273644264E+04  0.50400001928E-02 0.  1.
</event>
<event>
 5   0  0.2379743E-06  0.1999756E+04  0.7818609E-02  0.8606735E-01
       -1   -1    0    0    0  501  0.00000000000E+00  0.00000000000E+00  0.71475786022E+03  0.71475786024E+03  0.50400001928E-02 0. -1.
        1   -1    0    0  501    0  0.00000000000E+00  0.00000000000E+00 -0.13987337337E+04  0.13987337337E+04  0.50400001928E-02 0.  1.
    10030    2    1    2    0    0  0.00000000000E+00  0.00000000000E+00 -0.68397587344E+03  0.21134915939E+04  0.19997559156E+04 0.  0.
        5    1    3    3  502    0  0.49582935582E+02  0.11204859993E+03  0.70678149550E+03  0.71733920054E+03  0.46999998093E+01 0. -1.
       -5    1    3    3    0  502 -0.49582935582E+02 -0.11204859993E+03 -0.13907573689E+04  0.13961523934E+04  0.46999998093E+01 0.  1.
</event>
<event>
 5   0  0.4956214E-06  0.1999448E+04  0.7818609E-02  0.8606879E-01
       -2   -1    0    0    0  501  0.00000000000E+00  0.00000000000E+00  0.90915227026E+03  0.90915227026E+03  0.25500000920E-02 0.  1.
        2   -1    0    0  501    0  0.00000000000E+00  0.00000000000E+00 -0.10993190068E+04  0.10993190068E+04  0.25500000920E-02 0. -1.
    10030    2    1    2    0    0  0.00000000000E+00  0.00000000000E+00 -0.19016673654E+03  0.20084712771E+04  0.19994482947E+04 0.  0.
        1    1    3    3  502    0 -0.56737767867E+03  0.50775232989E+03  0.55569709945E+03  0.94261822873E+03  0.50400001928E-02 0.  1.
       -1    1    3    3    0  502  0.56737767867E+03 -0.50775232989E+03 -0.74586383599E+03  0.10658530483E+04  0.50400001928E-02 0. -1.
</event>
<event>
 5   0  0.5030137E-06  0.2000422E+04  0.7818609E-02  0.8606423E-01
       -2   -1    0    0    0  501  0.00000000000E+00  0.00000000000E+00  0.13296901103E+04  0.13296901103E+04  0.25500000920E-02 0.  1.
        2   -1    0    0  501    0  0.00000000000E+00  0.00000000000E+00 -0.75237263184E+03  0.75237263185E+03  0.25500000920E-02 0. -1.
    10030    2    1    2    0    0  0.00000000000E+00  0.00000000000E+00  0.57731747845E+03  0.20820627421E+04  0.20004224032E+04 0.  0.
        3    1    3    3  502    0 -0.21134421105E+03  0.90620713178E+03 -0.93114422368E+02  0.93517273649E+03  0.10100000352E+00 0. -1.
       -3    1    3    3    0  502  0.21134421105E+03 -0.90620713178E+03  0.67043190082E+03  0.11468900057E+04  0.10100000352E+00 0.  1.
</event>
<event>
 5   0  0.4956214E-06  0.2000077E+04  0.7818609E-02  0.8606585E-01
       -2   -1    0    0    0  501  0.00000000000E+00  0.00000000000E+00  0.71597294046E+03  0.71597294046E+03  0.25500000920E-02 0.  1.
        2   -1    0    0  501    0  0.00000000000E+00  0.00000000000E+00 -0.13968084091E+04  0.13968084091E+04  0.25500000920E-02 0. -1.
    10030    2    1    2    0    0  0.00000000000E+00  0.00000000000E+00 -0.68083546861E+03  0.21127813495E+04  0.20000770224E+04 0.  0.
        1    1    3    3  502    0 -0.43141939983E+03 -0.16771399791E+03 -0.12768386920E+04  0.13581486402E+04  0.50400001928E-02 0. -1.
       -1    1    3    3    0  502  0.43141939983E+03  0.16771399791E+03  0.59600322336E+03  0.75463270929E+03  0.50400001928E-02 0.  1.
</event>
<event>
 5   0  0.5030137E-06  0.1999813E+04  0.7818609E-02  0.8606708E-01
       -2   -1    0    0    0  501  0.00000000000E+00  0.00000000000E+00  0.45883565759E+03  0.45883565759E+03  0.25500000920E-02 0.  1.
        2   -1    0    0  501    0  0.00000000000E+00  0.00000000000E+00 -0.21790213790E+04  0.21790213790E+04  0.25500000920E-02 0. -1.
    10030    2    1    2    0    0  0.00000000000E+00  0.00000000000E+00 -0.17201857214E+04  0.26378570366E+04  0.19998126986E+04 0.  0.
        3    1    3    3  502    0 -0.31623997941E+03 -0.12284758629E+03  0.38059703667E+03  0.50985622342E+03  0.10100000352E+00 0.  1.
       -3    1    3    3    0  502  0.31623997941E+03  0.12284758629E+03 -0.21007827581E+04  0.21280008132E+04  0.10100000352E+00 0. -1.
</event>
<event>
 5   0  0.5251252E-06  0.1999004E+04  0.7818609E-02  0.8607087E-01
       -2   -1    0    0    0  501  0.00000000000E+00  0.00000000000E+00  0.79039128714E+03  0.79039128715E+03  0.25500000920E-02 0.  1.
        2   -1    0    0  501    0  0.00000000000E+00  0.00000000000E+00 -0.12639359279E+04  0.12639359279E+04  0.25500000920E-02 0. -1.
    10030    2    1    2    0    0  0.00000000000E+00  0.00000000000E+00 -0.47354464071E+03  0.20543272150E+04  0.19990036967E+04 0.  0.
        5    1    3    3  502    0 -0.22174905876E+03 -0.73460926311E+03  0.42138823209E+03  0.87545048212E+03  0.46999998093E+01 0.  1.
       -5    1    3    3    0  502  0.22174905876E+03  0.73460926311E+03 -0.89493287280E+03  0.11788767329E+04  0.46999998093E+01 0. -1.
</event>
<event>
 5   0  0.2386776E-06  0.1999647E+04  0.7818609E-02  0.8606786E-01
        1   -1    0    0  501    0  0.00000000000E+00  0.00000000000E+00  0.11026559115E+04  0.11026559115E+04  0.50400001928E-02 0.  1.
       -1   -1    0    0    0  501  0.00000000000E+00  0.00000000000E+00 -0.90658084903E+03  0.90658084904E+03  0.50400001928E-02 0. -1.
    10030    2    1    2    0    0  0.00000000000E+00  0.00000000000E+00  0.19607506247E+03  0.20092367606E+04  0.19996467013E+04 0.  0.
        2    1    3    3  502    0 -0.53683275461E+03  0.13139221325E+02 -0.74938415498E+03  0.92192117738E+03  0.25500000920E-02 0. -1.
       -2    1    3    3    0  502  0.53683275461E+03 -0.13139221325E+02  0.94545921745E+03  0.10873155832E+04  0.25500000920E-02 0.  1.
</event>
<event>
 5   0  0.2311520E-06  0.2000083E+04  0.7818609E-02  0.8606582E-01
        1   -1    0    0  501    0  0.00000000000E+00  0.00000000000E+00  0.11727427112E+04  0.11727427112E+04  0.50400001928E-02 0. -1.
       -1   -1    0    0    0  501  0.00000000000E+00  0.00000000000E+00 -0.85277266170E+03  0.85277266172E+03  0.50400001928E-02 0.  1.
    10030    2    1    2    0    0  0.00000000000E+00  0.00000000000E+00  0.31997004945E+03  0.20255153729E+04  0.20000829216E+04 0.  0.
        3    1    3    3  502    0  0.89149686618E+03  0.35150160166E+03 -0.12959301140E+03  0.96701313186E+03  0.10100000352E+00 0.  1.
       -3    1    3    3    0  502 -0.89149686618E+03 -0.35150160166E+03  0.44956306086E+03  0.10585022410E+04  0.10100000352E+00 0. -1.
</event>
<event>
 5   0  0.4956214E-06  0.1999945E+04  0.7818609E-02  0.8606646E-01
        2   -1    0    0  501    0  0.00000000000E+00  0.00000000000E+00  0.68951580336E+03  0.68951580337E+03  0.25500000920E-02 0. -1.
       -2   -1    0    0    0  501  0.00000000000E+00  0.00000000000E+00 -0.14502133078E+04  0.14502133078E+04  0.25500000920E-02 0.  1.
    10030    2    1    2    0    0  0.00000000000E+00  0.00000000000E+00 -0.76069750442E+03  0.21397291112E+04  0.19999449932E+04 0.  0.
        1    1    3    3  502    0 -0.92020158750E+03 -0.37694575543E+02 -0.79713137522E+03  0.12180354149E+04  0.50400001928E-02 0. -1.
       -1    1    3    3    0  502  0.92020158750E+03  0.37694575543E+02  0.36433870798E+02  0.92169369621E+03  0.50400001928E-02 0.  1.
</event>
<event>
 5   0  0.2311520E-06  0.1999623E+04  0.7818609E-02  0.8606797E-01
       -1   -1    0    0    0  501  0.00000000000E+00  0.00000000000E+00  0.55833384642E+03  0.55833384644E+03  0.50400001928E-02 0. -1.
        1   -1    0    0  501    0  0.00000000000E+00  0.00000000000E+00 -0.17903672266E+04  0.17903672266E+04  0.50400001928E-02 0.  1.
    10030    2    1    2    0    0  0.00000000000E+00  0.00000000000E+00 -0.12320333801E+04  0.23487010730E+04  0.19996225845E+04 0.  0.
        3    1    3    3  502    0  0.74729363269E+03  0.56322472659E+03 -0.20248596260E+03  0.95742907902E+03  0.10100000352E+00 0. -1.
       -3    1    3    3    0  502 -0.74729363269E+03 -0.56322472659E+03 -0.10295474175E+04  0.13912719940E+04  0.10100000352E+00 0.  1.
</event>
<event>
 5   0  0.2386776E-06  0.2000264E+04  0.7818609E-02  0.8606497E-01
        1   -1    0    0  501    0  0.00000000000E+00  0.00000000000E+00  0.81295193451E+03  0.81295193452E+03  0.50400001928E-02 0. -1.
       -1   -1    0    0    0  501  0.00000000000E+00  0.00000000000E+00 -0.12304103170E+04  0.12304103170E+04  0.50400001928E-02 0.  1.
    10030    2    1    2    0    0  0.00000000000E+00  0.00000000000E+00 -0.41745838249E+03  0.20433622515E+04  0.20002644300E+04 0.  0.
        2    1    3    3  502    0  0.47948691083E+03  0.65725699415E+03  0.38549985352E+03  0.90028028474E+03  0.25500000920E-02 0. -1.
       -2    1    3    3    0  502 -0.47948691083E+03 -0.65725699415E+03 -0.80295823601E+03  0.11430819668E+04  0.25500000920E-02 0.  1.
</event>
<event>
 5   0  0.2356996E-06  0.1999822E+04  0.7818609E-02  0.8606704E-01
        1   -1    0    0  501    0  0.00000000000E+00  0.00000000000E+00  0.87493964665E+03  0.87493964666E+03  0.50400001928E-02 0. -1.
       -1   -1    0    0    0  501  0.00000000000E+00  0.00000000000E+00 -0.11427327917E+04  0.11427327917E+04  0.50400001928E-02 0.  1.
    10030    2    1    2    0    0  0.00000000000E+00  0.00000000000E+00 -0.26779314502E+03  0.20176724383E+04  0.19998222171E+04 0.  0.
        4    1    3    3  502    0  0.31095265977E+03 -0.17424120845E+03  0.80866329166E+03  0.88373609608E+03  0.12699999809E+01 0. -1.
       -4    1    3    3    0  502 -0.31095265977E+03  0.17424120845E+03 -0.10764564367E+04  0.11339363423E+04  0.12699999809E+01 0.  1.
</event>
<event>
 5   0  0.5118981E-06  0.2001983E+04  0.7818609E-02  0.8605694E-01
        2   -1    0    0  501    0  0.00000000000E+00  0.00000000000E+00  0.14453056989E+04  0.14453056990E+04  0.25500000920E-02 0.  1.
       -2   -1    0    0    0  501  0.00000000000E+00  0.00000000000E+00 -0.69326812400E+03  0.69326812401E+03  0.25500000920E-02 0. -1.
    10030    2    1    2    0    0  0.00000000000E+00  0.00000000000E+00  0.75203757494E+03  0.21385738230E+04  0.20019833871E+04 0.  0.
        4    1    3    3  502    0  0.71058886967E+03  0.47012222419E+02 -0.37542145671E+03  0.80504010696E+03  0.12699999809E+01 0. -1.
       -4    1    3    3    0  502 -0.71058886967E+03 -0.47012222419E+02  0.11274590317E+04  0.13335337160E+04  0.12699999809E+01 0.  1.
</event>
<event>
 5   0  0.2379743E-06  0.1989366E+04  0.7818609E-02  0.8611609E-01
        1   -1    0    0  501    0  0.00000000000E+00  0.00000000000E+00  0.13428850589E+04  0.13428850589E+04  0.50400001928E-02 0. -1.
       -1   -1    0    0    0  501  0.00000000000E+00  0.00000000000E+00 -0.73676753455E+03  0.73676753457E+03  0.50400001928E-02 0.  1.
    10030    2    1    2    0    0  0.00000000000E+00  0.00000000000E+00  0.60611752437E+03  0.20796525935E+04  0.19893658428E+04 0.  0.
        5    1    3    3  502    0 -0.64605875221E+03  0.41651874874E+03  0.96297083251E+03  0.12321585505E+04  0.46999998093E+01 0. -1.
       -5    1    3    3    0  502  0.64605875221E+03 -0.41651874874E+03 -0.35685330814E+03  0.84749404298E+03  0.46999998093E+01 0.  1.
</event>
<event>
 5   0  0.2379743E-06  0.1999836E+04  0.7818609E-02  0.8606697E-01
        1   -1    0    0  501    0  0.00000000000E+00  0.00000000000E+00  0.72808367457E+03  0.72808367458E+03  0.50400001928E-02 0. -1.
       -1   -1    0    0    0  501  0.00000000000E+00  0.00000000000E+00 -0.13732430900E+04  0.13732430900E+04  0.50400001928E-02 0.  1.
    10030    2    1    2    0    0  0.00000000000E+00  0.00000000000E+00 -0.64515941542E+03  0.21013267646E+04  0.19998358683E+04 0.  0.
        5    1    3    3  502    0 -0.80830609238E+03 -0.56640379041E+03 -0.49083681866E+03  0.11023224870E+04  0.46999998093E+01 0.  1.
       -5    1    3    3    0  502  0.80830609238E+03  0.56640379041E+03 -0.15432259676E+03  0.99900427759E+03  0.46999998093E+01 0. -1.
</event>
<event>
 5   0  0.2379743E-06  0.1997809E+04  0.7818609E-02  0.8607646E-01
       -1   -1    0    0    0  501  0.00000000000E+00  0.00000000000E+00  0.80501491730E+03  0.80501491732E+03  0.50400001928E-02 0.  1.
        1   -1    0    0  501    0  0.00000000000E+00  0.00000000000E+00 -0.12394929650E+04  0.12394929651E+04  0.50400001928E-02 0. -1.
    10030    2    1    2    0    0  0.00000000000E+00  0.00000000000E+00 -0.43447804774E+03  0.20445078824E+04  0.19978091268E+04 0.  0.
        5    1    3    3  502    0  0.25270949491E+03  0.58658692511E+03 -0.10032029554E+04  0.11892790124E+04  0.46999998093E+01 0. -1.
       -5    1    3    3    0  502 -0.25270949491E+03 -0.58658692511E+03  0.56872490765E+03  0.85522887002E+03  0.46999998093E+01 0.  1.
</event>
<event>
 5   0  0.5251252E-06  0.2000193E+04  0.7818609E-02  0.8606530E-01
       -2   -1    0    0    0  501  0.00000000000E+00  0.00000000000E+00  0.52931767152E+03  0.52931767153E+03  0.25500000920E-02 0. -1.
        2   -1    0    0  501    0  0.00000000000E+00  0.00000000000E+00 -0.18895901143E+04  0.18895901143E+04  0.25500000920E-02 0.  1.
    10030    2    1    2    0    0  0.00000000000E+00  0.00000000000E+00 -0.13602724428E+04  0.24189077859E+04  0.20001934301E+04 0.  0.
        5    1    3    3  502    0  0.30692166284E+03 -0.88901253729E+03 -0.10913590615E+04  0.14407049975E+04  0.46999998093E+01 0. -1.
       -5    1    3    3    0  502 -0.30692166284E+03  0.88901253729E+03 -0.26891338129E+03  0.97820278839E+03  0.46999998093E+01 0.  1.
</event>
<event>
 5   0  0.4956214E-06  0.2000095E+04  0.7818609E-02  0.8606576E-01
       -2   -1    0    0    0  501  0.00000000000E+00  0.00000000000E+00  0.74241161546E+03  0.74241161546E+03  0.25500000920E-02 0. -1.
        2   -1    0    0  501    0  0.00000000000E+00  0.00000000000E+00 -0.13470896901E+04  0.13470896901E+04  0.25500000920E-02 0.  1.
    10030    2    1    2    0    0  0.00000000000E+00  0.00000000000E+00 -0.60467807460E+03  0.20895013055E+04  0.20000950307E+04 0.  0.
        1    1    3    3  502    0  0.71384625077E+02 -0.45946885180E+03  0.62261238607E+03  0.77708015918E+03  0.50400001928E-02 0. -1.
       -1    1    3    3    0  502 -0.71384625077E+02  0.45946885180E+03 -0.12272904607E+04  0.13124211463E+04  0.50400001928E-02 0.  1.
</event>
<event>
 5   0  0.2386776E-06  0.2000359E+04  0.7818609E-02  0.8606453E-01
        1   -1    0    0  501    0  0.00000000000E+00  0.00000000000E+00  0.11491894232E+04  0.11491894232E+04  0.50400001928E-02 0. -1.
       -1   -1    0    0    0  501  0.00000000000E+00  0.00000000000E+00 -0.87049065603E+03  0.87049065605E+03  0.50400001928E-02 0.  1.
    10030    2    1    2    0    0  0.00000000000E+00  0.00000000000E+00  0.27869876715E+03  0.20196800792E+04  0.20003586228E+04 0.  0.
        2    1    3    3  502    0  0.72977027624E+03  0.67515058115E+03  0.24979376367E+03  0.10250804299E+04  0.25500000920E-02 0. -1.
       -2    1    3    3    0  502 -0.72977027624E+03 -0.67515058115E+03  0.28905003476E+02  0.99459964938E+03  0.25500000920E-02 0.  1.
</event>
<event>
 5   0  0.2386776E-06  0.1998668E+04  0.7818609E-02  0.8607243E-01
       -1   -1    0    0    0  501  0.00000000000E+00  0.00000000000E+00  0.39327542720E+03  0.39327542723E+03  0.50400001928E-02 0.  1.
        1   -1    0    0  501    0  0.00000000000E+00  0.00000000000E+00 -0.25393624766E+04  0.25393624766E+04  0.50400001928E-02 0. -1.
    10030    2    1    2    0    0  0.00000000000E+00  0.00000000000E+00 -0.21460870494E+04  0.29326379038E+04  0.19986684196E+04 0.  0.
        2    1    3    3  502    0 -0.47790017269E+03 -0.67550475594E+03 -0.25086852270E+03  0.86465615481E+03  0.25500000920E-02 0.  1.
       -2    1    3    3    0  502  0.47790017269E+03  0.67550475594E+03 -0.18952185267E+04  0.20679817490E+04  0.25500000920E-02 0. -1.
</event>
<event>
 5   0  0.4956214E-06  0.1997732E+04  0.7818609E-02  0.8607682E-01
        2   -1    0    0  501    0  0.00000000000E+00  0.00000000000E+00  0.13740206398E+04  0.13740206398E+04  0.25500000920E-02 0.  1.
       -2   -1    0    0    0  501  0.00000000000E+00  0.00000000000E+00 -0.72614110031E+03  0.72614110031E+03  0.25500000920E-02 0. -1.
    10030    2    1    2    0    0  0.00000000000E+00  0.00000000000E+00  0.64787953948E+03  0.21001617401E+04  0.19977315728E+04 0.  0.
        1    1    3    3  502    0 -0.31317020026E+03  0.69153845047E+03 -0.35852351110E+03  0.83954756319E+03  0.50400001928E-02 0. -1.
       -1    1    3    3    0  502  0.31317020026E+03 -0.69153845047E+03  0.10064030506E+04  0.12606141769E+04  0.50400001928E-02 0.  1.
</event>
<event>
 5   0  0.4956214E-06  0.1998330E+04  0.7818609E-02  0.8607402E-01
       -2   -1    0    0    0  501  0.00000000000E+00  0.00000000000E+00  0.39431911366E+03  0.39431911367E+03  0.25500000920E-02 0. -1.
        2   -1    0    0  501    0  0.00000000000E+00  0.00000000000E+00 -0.25317833868E+04  0.25317833868E+04  0.25500000920E-02 0.  1.
    10030    2    1    2    0    0  0.00000000000E+00  0.00000000000E+00 -0.21374642731E+04  0.29261025004E+04  0.19983298837E+04 0.  0.
        1    1    3    3  502    0  0.19080461632E+03  0.94696273076E+03 -0.69488097120E+03  0.11899598225E+04  0.50400001928E-02 0. -1.
       -1    1    3    3    0  502 -0.19080461632E+03 -0.94696273076E+03 -0.14425833019E+04  0.17361426779E+04  0.50400001928E-02 0.  1.
</event>
<event>
 5   0  0.5030137E-06  0.2003373E+04  0.7818609E-02  0.8605045E-01
        2   -1    0    0  501    0  0.00000000000E+00  0.00000000000E+00  0.16114226660E+04  0.16114226660E+04  0.25500000920E-02 0. -1.
       -2   -1    0    0    0  501  0.00000000000E+00  0.00000000000E+00 -0.62266440098E+03  0.62266440099E+03  0.25500000920E-02 0.  1.
    10030    2    1    2    0    0  0.00000000000E+00  0.00000000000E+00  0.98875826503E+03  0.22340870670E+04  0.20033726853E+04 0.  0.
        3    1    3    3  502    0  0.97847692351E+02 -0.26562525479E+03 -0.57713209938E+03  0.64281600573E+03  0.10100000352E+00 0.  1.
       -3    1    3    3    0  502 -0.97847692351E+02  0.26562525479E+03  0.15658903644E+04  0.15912710613E+04  0.10100000352E+00 0. -1.
</event>
<event>
 5   0  0.2356996E-06  0.2000300E+04  0.7818609E-02  0.8606480E-01
       -1   -1    0    0    0  501  0.00000000000E+00  0.00000000000E+00  0.12168388508E+04  0.12168388508E+04  0.50400001928E-02 0. -1.
        1   -1    0    0  501    0  0.00000000000E+00  0.00000000000E+00 -0.82204846616E+03  0.82204846618E+03  0.50400001928E-02 0.  1.
    10030    2    1    2    0    0  0.00000000000E+00  0.00000000000E+00  0.39479038465E+03  0.20388873170E+04  0.20003004883E+04 0.  0.
        4    1    3    3  502    0  0.48410126724E+03 -0.29515449665E+03  0.10371994575E+04  0.11820552193E+04  0.12699999809E+01 0. -1.
       -4    1    3    3    0  502 -0.48410126724E+03  0.29515449665E+03 -0.64240907290E+03  0.85683209771E+03  0.12699999809E+01 0.  1.
</event>
<event>
 5   0  0.2356996E-06  0.2000212E+04  0.7818609E-02  0.8606522E-01
        1   -1    0    0  501    0  0.00000000000E+00  0.00000000000E+00  0.12174259349E+04  0.12174259349E+04  0.50400001928E-02 0. -1.
       -1   -1    0    0    0  501  0.00000000000E+00  0.00000000000E+00 -0.82157920193E+03  0.82157920194E+03  0.50400001928E-02 0.  1.
    10030    2    1    2    0    0  0.00000000000E+00  0.00000000000E+00  0.39584673297E+03  0.20390051368E+04  0.20002118168E+04 0.  0.
        4    1    3    3  502    0 -0.72702953262E+03 -0.61136481960E+03 -0.12098805908E+03  0.95758999957E+03  0.12699999809E+01 0.  1.
       -4    1    3    3    0  502  0.72702953262E+03  0.61136481960E+03  0.51683479205E+03  0.10814151373E+04  0.12699999809E+01 0. -1.
</event>
<event>
 5   0  0.2313821E-06  0.1999929E+04  0.7818609E-02  0.8606654E-01
        1   -1    0    0  501    0  0.00000000000E+00  0.00000000000E+00  0.16778125122E+04  0.16778125122E+04  0.50400001928E-02 0.  1.
       -1   -1    0    0    0  501  0.00000000000E+00  0.00000000000E+00 -0.59597202967E+03  0.59597202969E+03  0.50400001928E-02 0. -1.
    10030    2    1    2    0    0  0.00000000000E+00  0.00000000000E+00  0.10818404825E+04  0.22737845419E+04  0.19999293271E+04 0.  0.
        1    1    3    3  502    0 -0.11170594619E+03  0.56334544136E+03 -0.38976367556E+03  0.69408358829E+03  0.50400001928E-02 0. -1.
       -1    1    3    3    0  502  0.11170594619E+03 -0.56334544136E+03  0.14716041581E+04  0.15797009536E+04  0.50400001928E-02 0.  1.
</event>
<event>
 5   0  0.5251252E-06  0.2001543E+04  0.7818609E-02  0.8605900E-01
        2   -1    0    0  501    0  0.00000000000E+00  0.00000000000E+00  0.13312822710E+04  0.13312822710E+04  0.25500000920E-02 0.  1.
       -2   -1    0    0    0  501  0.00000000000E+00  0.00000000000E+00 -0.75231476382E+03  0.75231476383E+03  0.25500000920E-02 0. -1.
    10030    2    1    2    0    0  0.00000000000E+00  0.00000000000E+00  0.57896750713E+03  0.20835970348E+04  0.20015427123E+04 0.  0.
        5    1    3    3  502    0 -0.29128071328E+03 -0.47712051981E+02  0.12849282595E+04  0.13184019174E+04  0.46999998093E+01 0.  1.
       -5    1    3    3    0  502  0.29128071328E+03  0.47712051981E+02 -0.70596075234E+03  0.76519511738E+03  0.46999998093E+01 0. -1.
</event>
<event>
 5   0  0.2311520E-06  0.2001573E+04  0.7818609E-02  0.8605886E-01
        1   -1    0    0  501    0  0.00000000000E+00  0.00000000000E+00  0.12859566491E+04  0.12859566491E+04  0.50400001928E-02 0.  1.
       -1   -1    0    0    0  501  0.00000000000E+00  0.00000000000E+00 -0.77885452498E+03  0.77885452500E+03  0.50400001928E-02 0. -1.
    10030    2    1    2    0    0  0.00000000000E+00  0.00000000000E+00  0.50710212407E+03  0.20648111741E+04  0.20015725368E+04 0.  0.
        3    1    3    3  502    0 -0.33522154963E+03  0.10014293594E+03  0.12208165617E+04  0.12699587326E+04  0.10100000352E+00 0.  1.
       -3    1    3    3    0  502  0.33522154963E+03 -0.10014293594E+03 -0.71371443765E+03  0.79485244144E+03  0.10100000352E+00 0. -1.
</event>
<event>
 5   0  0.1777750E-06  0.1999635E+04  0.7818609E-02  0.8606791E-01
        4   -1    0    0  501    0  0.00000000000E+00  0.00000000000E+00  0.14610598159E+04  0.14610603679E+04  0.12699999809E+01 0. -1.
       -4   -1    0    0    0  501  0.00000000000E+00  0.00000000000E+00 -0.68418358840E+03  0.68418476710E+03  0.12699999809E+01 0.  1.
    10030    2    1    2    0    0  0.00000000000E+00  0.00000000000E+00  0.77687622751E+03  0.21452451350E+04  0.19996349708E+04 0.  0.
        4    1    3    3  502    0 -0.82236151765E+03 -0.63513680616E+02 -0.21779534296E+03  0.85308198765E+03  0.12699999809E+01 0.  1.
       -4    1    3    3    0  502  0.82236151765E+03  0.63513680616E+02  0.99467157047E+03  0.12921631473E+04  0.12699999809E+01 0. -1.
</event>
<event>
 5   0  0.4956214E-06  0.2000888E+04  0.7818609E-02  0.8606206E-01
       -2   -1    0    0    0  501  0.00000000000E+00  0.00000000000E+00  0.96150978740E+03  0.96150978741E+03  0.25500000920E-02 0.  1.
        2   -1    0    0  501    0  0.00000000000E+00  0.00000000000E+00 -0.10409543072E+04  0.10409543073E+04  0.25500000920E-02 0. -1.
    10030    2    1    2    0    0  0.00000000000E+00  0.00000000000E+00 -0.79444519846E+02  0.20024640947E+04  0.20008875577E+04 0.  0.
        1    1    3    3  502    0  0.43663884826E+03  0.85819087724E+03  0.23204775558E+03  0.99045001211E+03  0.50400001928E-02 0.  1.
       -1    1    3    3    0  502 -0.43663884826E+03 -0.85819087724E+03 -0.31149227543E+03  0.10120140825E+04  0.50400001928E-02 0. -1.
</event>
<event>
 5   0  0.5118981E-06  0.1999780E+04  0.7818609E-02  0.8606723E-01
        2   -1    0    0  501    0  0.00000000000E+00  0.00000000000E+00  0.20479692943E+04  0.20479692943E+04  0.25500000920E-02 0. -1.
       -2   -1    0    0    0  501  0.00000000000E+00  0.00000000000E+00 -0.48818135597E+03  0.48818135598E+03  0.25500000920E-02 0.  1.
    10030    2    1    2    0    0  0.00000000000E+00  0.00000000000E+00  0.15597879384E+04  0.25361506503E+04  0.19997804151E+04 0.  0.
        4    1    3    3  502    0 -0.67535225757E+03  0.40023565807E+03  0.15652552924E+04  0.17510896599E+04  0.12699999809E+01 0. -1.
       -4    1    3    3    0  502  0.67535225757E+03 -0.40023565807E+03 -0.54673540358E+01  0.78506099040E+03  0.12699999809E+01 0.  1.
</event>
<event>
 5   0  0.5251252E-06  0.2000399E+04  0.7818609E-02  0.8606434E-01
        2   -1    0    0  501    0  0.00000000000E+00  0.00000000000E+00  0.19962368233E+04  0.19962368233E+04  0.25500000920E-02 0. -1.
       -2   -1    0    0    0  501  0.00000000000E+00  0.00000000000E+00 -0.50114248034E+03  0.50114248035E+03  0.25500000920E-02 0.  1.
    10030    2    1    2    0    0  0.00000000000E+00  0.00000000000E+00  0.14950943430E+04  0.24973793037E+04  0.20003990332E+04 0.  0.
        5    1    3    3  502    0 -0.35054176441E+02 -0.17801041561E+02 -0.50016366286E+03  0.50172846442E+03  0.46999998093E+01 0.  1.
       -5    1    3    3    0  502  0.35054176441E+02  0.17801041561E+02  0.19952580058E+04  0.19956508392E+04  0.46999998093E+01 0. -1.
</event>
<event>
 5   0  0.2356996E-06  0.2000870E+04  0.7818609E-02  0.8606214E-01
        1   -1    0    0  501    0  0.00000000000E+00  0.00000000000E+00  0.86189267043E+03  0.86189267045E+03  0.50400001928E-02 0.  1.
       -1   -1    0    0    0  501  0.00000000000E+00  0.00000000000E+00 -0.11612473198E+04  0.11612473198E+04  0.50400001928E-02 0. -1.
    10030    2    1    2    0    0  0.00000000000E+00  0.00000000000E+00 -0.29935464939E+03  0.20231399903E+04  0.20008703642E+04 0.  0.
        4    1    3    3  502    0 -0.20613132798E+02 -0.15386150245E+03  0.84963970799E+03  0.86370568452E+03  0.12699999809E+01 0.  1.
       -4    1    3    3    0  502  0.20613132798E+02  0.15386150245E+03 -0.11489943574E+04  0.11594343058E+04  0.12699999809E+01 0. -1.
</event>
<event>
 5   0  0.4956214E-06  0.1994366E+04  0.7818609E-02  0.8609259E-01
        2   -1    0    0  501    0  0.00000000000E+00  0.00000000000E+00  0.12504031550E+04  0.12504031550E+04  0.25500000920E-02 0.  1.
       -2   -1    0    0    0  501  0.00000000000E+00  0.00000000000E+00 -0.79524306083E+03  0.79524306083E+03  0.25500000920E-02 0. -1.
    10030    2    1    2    0    0  0.00000000000E+00  0.00000000000E+00  0.45516009420E+03  0.20456462159E+04  0.19943664982E+04 0.  0.
        1    1    3    3  502    0  0.90688203174E+02 -0.54278203524E+02  0.12446419010E+04  0.12491212653E+04  0.50400001928E-02 0.  1.
       -1    1    3    3    0  502 -0.90688203174E+02  0.54278203524E+02 -0.78948180682E+03  0.79652495058E+03  0.50400001928E-02 0. -1.
</event>
<event>
 5   0  0.2313821E-06  0.1996184E+04  0.7818609E-02  0.8608407E-01
        1   -1    0    0  501    0  0.00000000000E+00  0.00000000000E+00  0.54695320028E+03  0.54695320030E+03  0.50400001928E-02 0. -1.
       -1   -1    0    0    0  501  0.00000000000E+00  0.00000000000E+00 -0.18213399140E+04  0.18213399140E+04  0.50400001928E-02 0.  1.
    10030    2    1    2    0    0  0.00000000000E+00  0.00000000000E+00 -0.12743867137E+04  0.23682931143E+04  0.19961840544E+04 0.  0.
        1    1    3    3  502    0 -0.49527321124E+03 -0.19079960090E+03  0.36564799664E+03  0.64451415729E+03  0.50400001928E-02 0. -1.
       -1    1    3    3    0  502  0.49527321124E+03  0.19079960090E+03 -0.16400347104E+04  0.17237789570E+04  0.50400001928E-02 0.  1.
</event>
<event>
 5   0  0.2386776E-06  0.2000371E+04  0.7818609E-02  0.8606447E-01
        1   -1    0    0  501    0  0.00000000000E+00  0.00000000000E+00  0.18337174606E+04  0.18337174607E+04  0.50400001928E-02 0.  1.
       -1   -1    0    0    0  501  0.00000000000E+00  0.00000000000E+00 -0.54554240561E+03  0.54554240563E+03  0.50400001928E-02 0. -1.
    10030    2    1    2    0    0  0.00000000000E+00  0.00000000000E+00  0.12881750550E+04  0.23792598663E+04  0.20003706004E+04 0.  0.
        2    1    3    3  502    0  0.85334987911E+03  0.51399181311E+03  0.53785631122E+03  0.11321143987E+04  0.25500000920E-02 0.  1.
       -2    1    3    3    0  502 -0.85334987911E+03 -0.51399181311E+03  0.75031874382E+03  0.12471454676E+04  0.25500000920E-02 0. -1.
</event>
<event>
 5   0  0.2386776E-06  0.2000152E+04  0.7818609E-02  0.8606550E-01
       -1   -1    0    0    0  501  0.00000000000E+00  0.00000000000E+00  0.69674774283E+03  0.69674774285E+03  0.50400001928E-02 0. -1.
        1   -1    0    0  501    0  0.00000000000E+00  0.00000000000E+00 -0.14354575478E+04  0.14354575478E+04  0.50400001928E-02 0.  1.
    10030    2    1    2    0    0  0.00000000000E+00  0.00000000000E+00 -0.73870980499E+03  0.21322052907E+04  0.20001518006E+04 0.  0.
        2    1    3    3  502    0  0.72700632128E+03 -0.34165813893E+02 -0.11005294979E+04  0.13194205811E+04  0.25500000920E-02 0.  1.
       -2    1    3    3    0  502 -0.72700632128E+03  0.34165813893E+02  0.36181969289E+03  0.81278470962E+03  0.25500000920E-02 0. -1.
</event>
<event>
 5   0  0.2313821E-06  0.2001204E+04  0.7818609E-02  0.8606058E-01
       -1   -1    0    0    0  501  0.00000000000E+00  0.00000000000E+00  0.10681496802E+04  0.10681496802E+04  0.50400001928E-02 0.  1.
        1   -1    0    0  501    0  0.00000000000E+00  0.00000000000E+00 -0.93732578712E+03  0.93732578714E+03  0.50400001928E-02 0. -1.
    10030    2    1    2    0    0  0.00000000000E+00  0.00000000000E+00  0.13082389307E+03  0.20054754673E+04  0.20012038774E+04 0.  0.
        1    1    3    3  502    0 -0.57999218755E+03 -0.27229636570E+03  0.83560169986E+03  0.10529797953E+04  0.50400001928E-02 0.  1.
       -1    1    3    3    0  502  0.57999218755E+03  0.27229636570E+03 -0.70477780679E+03  0.95249567209E+03  0.50400001928E-02 0. -1.
</event>
<event>
 5   0  0.2356996E-06  0.2000028E+04  0.7818609E-02  0.8606608E-01
       -1   -1    0    0    0  501  0.00000000000E+00  0.00000000000E+00  0.70419020894E+03  0.70419020896E+03  0.50400001928E-02 0. -1.
        1   -1    0    0  501    0  0.00000000000E+00  0.00000000000E+00 -0.14201100500E+04  0.14201100500E+04  0.50400001928E-02 0.  1.
    10030    2    1    2    0    0  0.00000000000E+00  0.00000000000E+00 -0.71591984106E+03  0.21243002590E+04  0.20000275927E+04 0.  0.
        4    1    3    3  502    0 -0.99482145887E+03 -0.73501438946E+02 -0.43271632787E+03  0.10873441175E+04  0.12699999809E+01 0. -1.
       -4    1    3    3    0  502  0.99482145887E+03  0.73501438946E+02 -0.28320351319E+03  0.10369561415E+04  0.12699999809E+01 0.  1.
</event>
<event>
 5   0  0.5118981E-06  0.1998494E+04  0.7818609E-02  0.8607325E-01
       -2   -1    0    0    0  501  0.00000000000E+00  0.00000000000E+00  0.41717409139E+03  0.41717409140E+03  0.25500000920E-02 0.  1.
        2   -1    0    0  501    0  0.00000000000E+00  0.00000000000E+00 -0.23934717070E+04  0.23934717070E+04  0.25500000920E-02 0. -1.
    10030    2    1    2    0    0  0.00000000000E+00  0.00000000000E+00 -0.19762976156E+04  0.28106457984E+04  0.19984938175E+04 0.  0.
        4    1    3    3  502    0  0.75650541952E+03 -0.50206197646E+03 -0.15750097930E+04  0.18179725352E+04  0.12699999809E+01 0.  1.
       -4    1    3    3    0  502 -0.75650541952E+03  0.50206197646E+03 -0.40128782266E+03  0.99267326320E+03  0.12699999809E+01 0. -1.
</event>
<event>
 5   0  0.5118981E-06  0.1999964E+04  0.7818609E-02  0.8606637E-01
       -2   -1    0    0    0  501  0.00000000000E+00  0.00000000000E+00  0.95982095550E+03  0.95982095551E+03  0.25500000920E-02 0.  1.
        2   -1    0    0  501    0  0.00000000000E+00  0.00000000000E+00 -0.10418238380E+04  0.10418238380E+04  0.25500000920E-02 0. -1.
    10030    2    1    2    0    0  0.00000000000E+00  0.00000000000E+00 -0.82002882519E+02  0.20016447935E+04  0.19999643514E+04 0.  0.
        4    1    3    3  502    0  0.34462261106E+03 -0.14496442845E+03 -0.96924140515E+03  0.10388502991E+04  0.12699999809E+01 0. -1.
       -4    1    3    3    0  502 -0.34462261106E+03  0.14496442845E+03  0.88723852263E+03  0.96279449444E+03  0.12699999809E+01 0.  1.
</event>
<event>
 5   0  0.2379743E-06  0.1999616E+04  0.7818609E-02  0.8606800E-01
       -1   -1    0    0    0  501  0.00000000000E+00  0.00000000000E+00  0.55517508280E+03  0.55517508283E+03  0.50400001928E-02 0.  1.
        1   -1    0    0  501    0  0.00000000000E+00  0.00000000000E+00 -0.18005414669E+04  0.18005414669E+04  0.50400001928E-02 0. -1.
    10030    2    1    2    0    0  0.00000000000E+00  0.00000000000E+00 -0.12453663841E+04  0.23557165497E+04  0.19996157211E+04 0.  0.
        5    1    3    3  502    0 -0.18957925499E+03  0.90082324272E+03 -0.10822432095E+04  0.14208079614E+04  0.46999998093E+01 0. -1.
       -5    1    3    3    0  502  0.18957925499E+03 -0.90082324272E+03 -0.16312317461E+03  0.93490858839E+03  0.46999998093E+01 0.  1.
</event>
<event>
 5   0  0.5129100E-06  0.2000225E+04  0.7818609E-02  0.8606516E-01
        2   -1    0    0  501    0  0.00000000000E+00  0.00000000000E+00  0.86849318604E+03  0.86849318605E+03  0.25500000920E-02 0. -1.
       -2   -1    0    0    0  501  0.00000000000E+00  0.00000000000E+00 -0.11516784633E+04  0.11516784633E+04  0.25500000920E-02 0.  1.
    10030    2    1    2    0    0  0.00000000000E+00  0.00000000000E+00 -0.28318527725E+03  0.20201716493E+04  0.20002248853E+04 0.  0.
        2    1    3    3  502    0  0.75795606118E+03 -0.45353148050E+03  0.33216585674E+03  0.94367491800E+03  0.25500000920E-02 0. -1.
       -2    1    3    3    0  502 -0.75795606118E+03  0.45353148050E+03 -0.61535113399E+03  0.10764967313E+04  0.25500000920E-02 0.  1.
</event>
<event>
 5   0  0.2379743E-06  0.1998728E+04  0.7818609E-02  0.8607216E-01
        1   -1    0    0  501    0  0.00000000000E+00  0.00000000000E+00  0.15749370870E+04  0.15749370870E+04  0.50400001928E-02 0.  1.
       -1   -1    0    0    0  501  0.00000000000E+00  0.00000000000E+00 -0.63413843145E+03  0.63413843147E+03  0.50400001928E-02 0. -1.
    10030    2    1    2    0    0  0.00000000000E+00  0.00000000000E+00  0.94079865555E+03  0.22090755185E+04  0.19987277293E+04 0.  0.
        5    1    3    3  502    0 -0.91905875581E+03 -0.72421807019E+02  0.89673031945E+03  0.12861031337E+04  0.46999998093E+01 0.  1.
       -5    1    3    3    0  502  0.91905875581E+03  0.72421807019E+02  0.44068336096E+02  0.92297238475E+03  0.46999998093E+01 0. -1.
</event>
<event>
 5   0  0.4956214E-06  0.1999826E+04  0.7818609E-02  0.8606702E-01
       -2   -1    0    0    0  501  0.00000000000E+00  0.00000000000E+00  0.14047384398E+04  0.14047384399E+04  0.25500000920E-02 0.  1.
        2   -1    0    0  501    0  0.00000000000E+00  0.00000000000E+00 -0.71175215548E+03  0.71175215548E+03  0.25500000920E-02 0. -1.
    10030    2    1    2    0    0  0.00000000000E+00  0.00000000000E+00  0.69298628437E+03  0.21164905953E+04  0.19998256048E+04 0.  0.
        1    1    3    3  502    0 -0.24256486434E+03  0.59227717875E+03  0.11595524348E+04  0.13244590665E+04  0.50400001928E-02 0.  1.
       -1    1    3    3    0  502  0.24256486434E+03 -0.59227717875E+03 -0.46656615041E+03  0.79203152880E+03  0.50400001928E-02 0. -1.
</event>
<event>
 5   0  0.5118981E-06  0.2003496E+04  0.7818609E-02  0.8604988E-01
       -2   -1    0    0    0  501  0.00000000000E+00  0.00000000000E+00  0.86360867856E+03  0.86360867856E+03  0.25500000920E-02 0.  1.
        2   -1    0    0  501    0  0.00000000000E+00  0.00000000000E+00 -0.11619835709E+04  0.11619835709E+04  0.25500000920E-02 0. -1.
    10030    2    1    2    0    0  0.00000000000E+00  0.00000000000E+00 -0.29837489238E+03  0.20255922495E+04  0.20034960406E+04 0.  0.
        4    1    3    3  502    0  0.66093409929E+03  0.59233374544E+03 -0.61885830955E+03  0.10819798380E+04  0.12699999809E+01 0. -1.
       -4    1    3    3    0  502 -0.66093409929E+03 -0.59233374544E+03  0.32048341718E+03  0.94361241152E+03  0.12699999809E+01 0.  1.
</event>
<event>
 5   0  0.2379743E-06  0.2000228E+04  0.7818609E-02  0.8606514E-01
        1   -1    0    0  501    0  0.00000000000E+00  0.00000000000E+00  0.13723061747E+04  0.13723061747E+04  0.50400001928E-02 0.  1.
       -1   -1    0    0    0  501  0.00000000000E+00  0.00000000000E+00 -0.72886625863E+03  0.72886625865E+03  0.50400001928E-02 0. -1.
    10030    2    1    2    0    0  0.00000000000E+00  0.00000000000E+00  0.64343991605E+03  0.21011724333E+04  0.20002276543E+04 0.  0.
        5    1    3    3  502    0 -0.41871579200E+03 -0.15293814314E+03 -0.61872205413E+03  0.76259560736E+03  0.46999998093E+01 0. -1.
       -5    1    3    3    0  502  0.41871579200E+03  0.15293814314E+03  0.12621619702E+04  0.13385768260E+04  0.46999998093E+01 0.  1.
</event>
<event>
 5   0  0.5118981E-06  0.1999809E+04  0.7818609E-02  0.8606710E-01
       -2   -1    0    0    0  501  0.00000000000E+00  0.00000000000E+00  0.57790107792E+03  0.57790107792E+03  0.25500000920E-02 0.  1.
        2   -1    0    0  501    0  0.00000000000E+00  0.00000000000E+00 -0.17300687538E+04  0.17300687538E+04  0.25500000920E-02 0. -1.
    10030    2    1    2    0    0  0.00000000000E+00  0.00000000000E+00 -0.11521676759E+04  0.23079698317E+04  0.19998085885E+04 0.  0.
        4    1    3    3  502    0 -0.44854203198E+03  0.46030073601E+03  0.30794135967E+03  0.71266837725E+03  0.12699999809E+01 0.  1.
       -4    1    3    3    0  502  0.44854203198E+03 -0.46030073601E+03 -0.14601090355E+04  0.15953014545E+04  0.12699999809E+01 0. -1.
</event>
<event>
 5   0  0.5251252E-06  0.1998810E+04  0.7818609E-02  0.8607177E-01
        2   -1    0    0  501    0  0.00000000000E+00  0.00000000000E+00  0.89810405938E+03  0.89810405939E+03  0.25500000920E-02 0.  1.
       -2   -1    0    0    0  501  0.00000000000E+00  0.00000000000E+00 -0.11121320806E+04  0.11121320806E+04  0.25500000920E-02 0. -1.
    10030    2    1    2    0    0  0.00000000000E+00  0.00000000000E+00 -0.21402802120E+03  0.20102361400E+04  0.19988099821E+04 0.  0.
        5    1    3    3  502    0 -0.60774890656E+03  0.72232770185E+03 -0.43702421416E+03  0.10402539575E+04  0.46999998093E+01 0. -1.
       -5    1    3    3    0  502  0.60774890656E+03 -0.72232770185E+03  0.22299619296E+03  0.96998218250E+03  0.46999998093E+01 0.  1.
</event>
<event>
 5   0  0.4956214E-06  0.2000067E+04  0.7818609E-02  0.8606589E-01
        2   -1    0    0  501    0  0.00000000000E+00  0.00000000000E+00  0.18393017985E+04  0.18393017985E+04  0.25500000920E-02 0.  1.
       -2   -1    0    0    0  501  0.00000000000E+00  0.00000000000E+00 -0.54372094074E+03  0.54372094074E+03  0.25500000920E-02 0. -1.
    10030    2    1    2    0    0  0.00000000000E+00  0.00000000000E+00  0.12955808578E+04  0.23830227393E+04  0.20000669031E+04 0.  0.
        1    1    3    3  502    0 -0.22558871984E+03  0.47961096964E+03  0.16581905532E+04  0.17408368285E+04  0.50400001928E-02 0.  1.
       -1    1    3    3    0  502  0.22558871984E+03 -0.47961096964E+03 -0.36260969544E+03  0.64218591075E+03  0.50400001928E-02 0. -1.
</event>
<event>
 5   0  0.2356996E-06  0.1999467E+04  0.7818609E-02  0.8606870E-01
       -1   -1    0    0    0  501  0.00000000000E+00  0.00000000000E+00  0.58043819573E+03  0.58043819575E+03  0.50400001928E-02 0.  1.
        1   -1    0    0  501    0  0.00000000000E+00  0.00000000000E+00 -0.17219185480E+04  0.17219185480E+04  0.50400001928E-02 0. -1.
    10030    2    1    2    0    0  0.00000000000E+00  0.00000000000E+00 -0.11414803523E+04  0.23023567438E+04  0.19994672243E+04 0.  0.
        4    1    3    3  502    0  0.77814203806E+03 -0.59058114558E+03 -0.32599998205E+03  0.10298391729E+04  0.12699999809E+01 0. -1.
       -4    1    3    3    0  502 -0.77814203806E+03  0.59058114558E+03 -0.81548037022E+03  0.12725175708E+04  0.12699999809E+01 0.  1.
</event>
<event>
 5   0  0.4956214E-06  0.2000335E+04  0.7818609E-02  0.8606464E-01
       -2   -1    0    0    0  501  0.00000000000E+00  0.00000000000E+00  0.95375825460E+03  0.95375825461E+03  0.25500000920E-02 0. -1.
        2   -1    0    0  501    0  0.00000000000E+00  0.00000000000E+00 -0.10488354231E+04  0.10488354231E+04  0.25500000920E-02 0.  1.
    10030    2    1    2    0    0  0.00000000000E+00  0.00000000000E+00 -0.95077168477E+02  0.20025936777E+04  0.20003354144E+04 0.  0.
        1    1    3    3  502    0 -0.65394173168E+02  0.89151485936E+03  0.40158832342E+03  0.97997363427E+03  0.50400001928E-02 0. -1.
       -1    1    3    3    0  502  0.65394173168E+02 -0.89151485936E+03 -0.49666549189E+03  0.10226200434E+04  0.50400001928E-02 0.  1.
</event>
<event>
 5   0  0.2386776E-06  0.1999761E+04  0.7818609E-02  0.8606732E-01
        1   -1    0    0  501    0  0.00000000000E+00  0.00000000000E+00  0.11508122899E+04  0.11508122899E+04  0.50400001928E-02 0.  1.
       -1   -1    0    0    0  501  0.00000000000E+00  0.00000000000E+00 -0.86874384349E+03  0.86874384350E+03  0.50400001928E-02 0. -1.
    10030    2    1    2    0    0  0.00000000000E+00  0.00000000000E+00  0.28206844636E+03  0.20195561334E+04  0.19997610776E+04 0.  0.
        2    1    3    3  502    0 -0.46972018136E+03  0.54969764668E+03 -0.55642243065E+03  0.91236531766E+03  0.25500000920E-02 0. -1.
       -2    1    3    3    0  502  0.46972018136E+03 -0.54969764668E+03  0.83849087701E+03  0.11071908157E+04  0.25500000920E-02 0.  1.
</event>
<event>
 5   0  0.5030137E-06  0.1999763E+04  0.7818609E-02  0.8606732E-01
        2   -1    0    0  501    0  0.00000000000E+00  0.00000000000E+00  0.19123081780E+04  0.19123081780E+04  0.25500000920E-02 0.  1.
       -2   -1    0    0    0  501  0.00000000000E+00  0.00000000000E+00 -0.52280410031E+03  0.52280410032E+03  0.25500000920E-02 0. -1.
    10030    2    1    2    0    0  0.00000000000E+00  0.00000000000E+00  0.13895040777E+04  0.24351122783E+04  0.19997625424E+04 0.  0.
        3    1    3    3  502    0  0.18203962668E+02 -0.75576328273E+03 -0.10212402070E+03  0.76284916569E+03  0.10100000352E+00 0. -1.
       -3    1    3    3    0  502 -0.18203962668E+02  0.75576328273E+03  0.14916280984E+04  0.16722631126E+04  0.10100000352E+00 0.  1.
</event>
<event>
 5   0  0.2356996E-06  0.2001184E+04  0.7818609E-02  0.8606067E-01
       -1   -1    0    0    0  501  0.00000000000E+00  0.00000000000E+00  0.50558006074E+03  0.50558006076E+03  0.50400001928E-02 0.  1.
        1   -1    0    0  501    0  0.00000000000E+00  0.00000000000E+00 -0.19802679260E+04  0.19802679260E+04  0.50400001928E-02 0. -1.
    10030    2    1    2    0    0  0.00000000000E+00  0.00000000000E+00 -0.14746878653E+04  0.24858479868E+04  0.20011836281E+04 0.  0.
        4    1    3    3  502    0  0.16137807089E+03  0.55553491351E+03 -0.17514756449E+04  0.18445407205E+04  0.12699999809E+01 0. -1.
       -4    1    3    3    0  502 -0.16137807089E+03 -0.55553491351E+03  0.27678777967E+03  0.64130726627E+03  0.12699999809E+01 0.  1.
</event>
<event>
 5   0  0.2313821E-06  0.1999941E+04  0.7818609E-02  0.8606648E-01
       -1   -1    0    0    0  501  0.00000000000E+00  0.00000000000E+00  0.10141381065E+04  0.10141381065E+04  0.50400001928E-02 0.  1.
        1   -1    0    0  501    0  0.00000000000E+00  0.00000000000E+00 -0.98600074559E+03  0.98600074560E+03  0.50400001928E-02 0. -1.
    10030    2    1    2    0    0  0.00000000000E+00  0.00000000000E+00  0.28137360946E+02  0.20001388521E+04  0.19999409283E+04 0.  0.
        1    1    3    3  502    0  0.59648976898E+03 -0.73317087748E+03  0.34059961270E+03  0.10046629665E+04  0.50400001928E-02 0. -1.
       -1    1    3    3    0  502 -0.59648976898E+03  0.73317087748E+03 -0.31246225176E+03  0.99547588563E+03  0.50400001928E-02 0.  1.
</event>
<event>
 5   0  0.5030137E-06  0.1999603E+04  0.7818609E-02  0.8606806E-01
       -2   -1    0    0    0  501  0.00000000000E+00  0.00000000000E+00  0.11094867188E+04  0.11094867188E+04  0.25500000920E-02 0. -1.
        2   -1    0    0  501    0  0.00000000000E+00  0.00000000000E+00 -0.90095960921E+03  0.90095960922E+03  0.25500000920E-02 0.  1.
    10030    2    1    2    0    0  0.00000000000E+00  0.00000000000E+00  0.20852710963E+03  0.20104463281E+04  0.19996026812E+04 0.  0.
        3    1    3    3  502    0 -0.45451678543E+03 -0.60822339862E+03 -0.54971090910E+03  0.93739175623E+03  0.10100000352E+00 0.  1.
       -3    1    3    3    0  502  0.45451678543E+03  0.60822339862E+03  0.75823801873E+03  0.10730545718E+04  0.10100000352E+00 0. -1.
</event>
<event>
 5   0  0.5118981E-06  0.1999981E+04  0.7818609E-02  0.8606630E-01
        2   -1    0    0  501    0  0.00000000000E+00  0.00000000000E+00  0.20297646852E+04  0.20297646852E+04  0.25500000920E-02 0. -1.
       -2   -1    0    0    0  501  0.00000000000E+00  0.00000000000E+00 -0.49265841007E+03  0.49265841008E+03  0.25500000920E-02 0.  1.
    10030    2    1    2    0    0  0.00000000000E+00  0.00000000000E+00  0.15371062751E+04  0.25224230953E+04  0.19999806426E+04 0.  0.
        4    1    3    3  502    0  0.81701003503E+03  0.14348944602E+03  0.64202396213E+02  0.83199650182E+03  0.12699999809E+01 0.  1.
       -4    1    3    3    0  502 -0.81701003503E+03 -0.14348944602E+03  0.14729038789E+04  0.16904265935E+04  0.12699999809E+01 0. -1.
</event>
<event>
 5   0  0.2379743E-06  0.2008449E+04  0.7818609E-02  0.8602681E-01
        1   -1    0    0  501    0  0.00000000000E+00  0.00000000000E+00  0.12372855050E+04  0.12372855050E+04  0.50400001928E-02 0.  1.
       -1   -1    0    0    0  501  0.00000000000E+00  0.00000000000E+00 -0.81506363675E+03  0.81506363677E+03  0.50400001928E-02 0. -1.
    10030    2    1    2    0    0  0.00000000000E+00  0.00000000000E+00  0.42222186826E+03  0.20523491418E+04  0.20084485788E+04 0.  0.
        5    1    3    3  502    0  0.58432574348E+03 -0.28983091715E+03 -0.56912682509E+03  0.86565926788E+03  0.46999998093E+01 0. -1.
       -5    1    3    3    0  502 -0.58432574348E+03  0.28983091715E+03  0.99134869335E+03  0.11866898739E+04  0.46999998093E+01 0.  1.
</event>
<event>
 5   0  0.4956214E-06  0.1999064E+04  0.7818609E-02  0.8607059E-01
       -2   -1    0    0    0  501  0.00000000000E+00  0.00000000000E+00  0.10487174992E+04  0.10487174992E+04  0.25500000920E-02 0.  1.
        2   -1    0    0  501    0  0.00000000000E+00  0.00000000000E+00 -0.95265289785E+03  0.95265289785E+03  0.25500000920E-02 0. -1.
    10030    2    1    2    0    0  0.00000000000E+00  0.00000000000E+00  0.96064601333E+02  0.20013703970E+04  0.19990635454E+04 0.  0.
        1    1    3    3  502    0  0.86795914744E+03  0.84155625035E+02 -0.44102758316E+03  0.97721061189E+03  0.50400001928E-02 0. -1.
       -1    1    3    3    0  502 -0.86795914744E+03 -0.84155625035E+02  0.53709218449E+03  0.10241597851E+04  0.50400001928E-02 0.  1.
</event>
<event>
 5   0  0.5030137E-06  0.2000415E+04  0.7818609E-02  0.8606427E-01
       -2   -1    0    0    0  501  0.00000000000E+00  0.00000000000E+00  0.54315060171E+03  0.54315060171E+03  0.25500000920E-02 0.  1.
        2   -1    0    0  501    0  0.00000000000E+00  0.00000000000E+00 -0.18418733789E+04  0.18418733789E+04  0.25500000920E-02 0. -1.
    10030    2    1    2    0    0  0.00000000000E+00  0.00000000000E+00 -0.12987227772E+04  0.23850239806E+04  0.20004145911E+04 0.  0.
        3    1    3    3  502    0 -0.57089853154E+03  0.11761031226E+03 -0.16184441254E+04  0.17202089164E+04  0.10100000352E+00 0. -1.
       -3    1    3    3    0  502  0.57089853154E+03 -0.11761031226E+03  0.31972134822E+03  0.66481506419E+03  0.10100000352E+00 0.  1.
</event>
<event>
 5   0  0.2313821E-06  0.1998561E+04  0.7818609E-02  0.8607294E-01
        1   -1    0    0  501    0  0.00000000000E+00  0.00000000000E+00  0.77032477375E+03  0.77032477376E+03  0.50400001928E-02 0. -1.
       -1   -1    0    0    0  501  0.00000000000E+00  0.00000000000E+00 -0.12962859004E+04  0.12962859004E+04  0.50400001928E-02 0.  1.
    10030    2    1    2    0    0  0.00000000000E+00  0.00000000000E+00 -0.52596112668E+03  0.20666106742E+04  0.19985606250E+04 0.  0.
        1    1    3    3  502    0 -0.23002560454E+03  0.45912688347E+03 -0.11494040262E+04  0.12589038444E+04  0.50400001928E-02 0.  1.
       -1    1    3    3    0  502  0.23002560454E+03 -0.45912688347E+03  0.62344289956E+03  0.80770682980E+03  0.50400001928E-02 0. -1.
</event>
<event>
 5   0  0.2313821E-06  0.1998740E+04  0.7818609E-02  0.8607210E-01
        1   -1    0    0  501    0  0.00000000000E+00  0.00000000000E+00  0.80186961525E+03  0.80186961526E+03  0.50400001928E-02 0.  1.
       -1   -1    0    0    0  501  0.00000000000E+00  0.00000000000E+00 -0.12455143079E+04  0.12455143079E+04  0.50400001928E-02 0. -1.
    10030    2    1    2    0    0  0.00000000000E+00  0.00000000000E+00 -0.44364469267E+03  0.20473839232E+04  0.19987396818E+04 0.  0.
        1    1    3    3  502    0  0.75644582148E+03  0.65172942981E+03 -0.26502156509E+03  0.10330527385E+04  0.50400001928E-02 0. -1.
       -1    1    3    3    0  502 -0.75644582148E+03 -0.65172942981E+03 -0.17862312758E+03  0.10143311847E+04  0.50400001928E-02 0.  1.
</event>
<event>
 5   0  0.2311520E-06  0.1998962E+04  0.7818609E-02  0.8607106E-01
        1   -1    0    0  501    0  0.00000000000E+00  0.00000000000E+00  0.89742902579E+03  0.89742902581E+03  0.50400001928E-02 0.  1.
       -1   -1    0    0    0  501  0.00000000000E+00  0.00000000000E+00 -0.11131381133E+04  0.11131381134E+04  0.50400001928E-02 0. -1.
    10030    2    1    2    0    0  0.00000000000E+00  0.00000000000E+00 -0.21570908755E+03  0.20105671392E+04  0.19989621834E+04 0.  0.
        3    1    3    3  502    0  0.17687636909E+03 -0.79427627243E+02  0.87833168448E+03  0.89947793529E+03  0.10100000352E+00 0.  1.
       -3    1    3    3    0  502 -0.17687636909E+03  0.79427627243E+02 -0.10940407720E+04  0.11110892039E+04  0.10100000352E+00 0. -1.
</event>
<event>
 5   0  0.2379743E-06  0.2000842E+04  0.7818609E-02  0.8606227E-01
       -1   -1    0    0    0  501  0.00000000000E+00  0.00000000000E+00  0.85338445879E+03  0.85338445880E+03  0.50400001928E-02 0. -1.
        1   -1    0    0  501    0  0.00000000000E+00  0.00000000000E+00 -0.11727920272E+04  0.11727920272E+04  0.50400001928E-02 0.  1.
    10030    2    1    2    0    0  0.00000000000E+00  0.00000000000E+00 -0.31940756838E+03  0.20261764860E+04  0.20008423120E+04 0.  0.
        5    1    3    3  502    0  0.58355314212E+03  0.39132256222E+03 -0.88086741106E+03  0.11267728712E+04  0.46999998093E+01 0.  1.
       -5    1    3    3    0  502 -0.58355314212E+03 -0.39132256222E+03  0.56145984267E+03  0.89940361480E+03  0.46999998093E+01 0. -1.
</event>
<event>
 5   0  0.2379743E-06  0.2000752E+04  0.7818609E-02  0.8606269E-01
        1   -1    0    0  501    0  0.00000000000E+00  0.00000000000E+00  0.24883174030E+04  0.24883174030E+04  0.50400001928E-02 0.  1.
       -1   -1    0    0    0  501  0.00000000000E+00  0.00000000000E+00 -0.40218014536E+03  0.40218014540E+03  0.50400001928E-02 0. -1.
    10030    2    1    2    0    0  0.00000000000E+00  0.00000000000E+00  0.20861372576E+04  0.28904975484E+04  0.20007517136E+04 0.  0.
        5    1    3    3  502    0  0.61263365410E+02 -0.95709671199E+03  0.63204425386E+03  0.11486032147E+04  0.46999998093E+01 0.  1.
       -5    1    3    3    0  502 -0.61263365410E+02  0.95709671199E+03  0.14540930038E+04  0.17418943337E+04  0.46999998093E+01 0. -1.
</event>
<event>
 5   0  0.5118981E-06  0.2001160E+04  0.7818609E-02  0.8606078E-01
       -2   -1    0    0    0  501  0.00000000000E+00  0.00000000000E+00  0.54607173842E+03  0.54607173843E+03  0.25500000920E-02 0.  1.
        2   -1    0    0  501    0  0.00000000000E+00  0.00000000000E+00 -0.18333863424E+04  0.18333863424E+04  0.25500000920E-02 0. -1.
    10030    2    1    2    0    0  0.00000000000E+00  0.00000000000E+00 -0.12873146040E+04  0.23794580808E+04  0.20011601307E+04 0.  0.
        4    1    3    3  502    0 -0.26888051680E+03 -0.53434063798E+03 -0.15973692816E+04  0.17056983568E+04  0.12699999809E+01 0. -1.
       -4    1    3    3    0  502  0.26888051680E+03  0.53434063798E+03  0.31005467762E+03  0.67375972403E+03  0.12699999809E+01 0.  1.
</event>
<event>
 5   0  0.4956214E-06  0.1999983E+04  0.7818609E-02  0.8606629E-01
       -2   -1    0    0    0  501  0.00000000000E+00  0.00000000000E+00  0.12357524313E+04  0.12357524313E+04  0.25500000920E-02 0.  1.
        2   -1    0    0  501    0  0.00000000000E+00  0.00000000000E+00 -0.80920976093E+03  0.80920976093E+03  0.25500000920E-02 0. -1.
    10030    2    1    2    0    0  0.00000000000E+00  0.00000000000E+00  0.42654267039E+03  0.20449621923E+04  0.19999829294E+04 0.  0.
        1    1    3    3  502    0  0.45539470774E+03 -0.37060325633E+03 -0.61440990325E+03  0.84984153975E+03  0.50400001928E-02 0. -1.
       -1    1    3    3    0  502 -0.45539470774E+03  0.37060325633E+03  0.10409525736E+04  0.11951206525E+04  0.50400001928E-02 0.  1.
</event>
<event>
 5   0  0.2386776E-06  0.2000397E+04  0.7818609E-02  0.8606435E-01
       -1   -1    0    0    0  501  0.00000000000E+00  0.00000000000E+00  0.67839061976E+03  0.67839061978E+03  0.50400001928E-02 0. -1.
        1   -1    0    0  501    0  0.00000000000E+00  0.00000000000E+00 -0.14746623583E+04  0.14746623583E+04  0.50400001928E-02 0.  1.
    10030    2    1    2    0    0  0.00000000000E+00  0.00000000000E+00 -0.79627173856E+03  0.21530529781E+04  0.20003970718E+04 0.  0.
        2    1    3    3  502    0  0.86249703864E+03 -0.32960576595E+03  0.15728458790E+02  0.92346547690E+03  0.25500000920E-02 0. -1.
       -2    1    3    3    0  502 -0.86249703864E+03  0.32960576595E+03 -0.81200019735E+03  0.12295875012E+04  0.25500000920E-02 0.  1.
</event>
<event>
 5   0  0.5251252E-06  0.1999474E+04  0.7818609E-02  0.8606867E-01
       -2   -1    0    0    0  501  0.00000000000E+00  0.00000000000E+00  0.13802722383E+04  0.13802722383E+04  0.25500000920E-02 0. -1.
        2   -1    0    0  501    0  0.00000000000E+00  0.00000000000E+00 -0.72411377164E+03  0.72411377165E+03  0.25500000920E-02 0.  1.
    10030    2    1    2    0    0  0.00000000000E+00  0.00000000000E+00  0.65615846663E+03  0.21043860099E+04  0.19994740672E+04 0.  0.
        5    1    3    3  502    0 -0.88654764785E+03 -0.45948065678E+03  0.37923879709E+03  0.10681448221E+04  0.46999998093E+01 0. -1.
       -5    1    3    3    0  502  0.88654764785E+03  0.45948065678E+03  0.27691966954E+03  0.10362411878E+04  0.46999998093E+01 0.  1.
</event>
<event>
 5   0  0.2386776E-06  0.1999258E+04  0.7818609E-02  0.8606968E-01
       -1   -1    0    0    0  501  0.00000000000E+00  0.00000000000E+00  0.17251906581E+04  0.17251906581E+04  0.50400001928E-02 0.  1.
        1   -1    0    0  501    0  0.00000000000E+00  0.00000000000E+00 -0.57921580820E+03  0.57921580822E+03  0.50400001928E-02 0. -1.
    10030    2    1    2    0    0  0.00000000000E+00  0.00000000000E+00  0.11459748499E+04  0.23044064663E+04  0.19992575635E+04 0.  0.
        2    1    3    3  502    0 -0.44639996450E+03 -0.57929485856E+03 -0.21249684150E+03  0.76158411821E+03  0.25500000920E-02 0. -1.
       -2    1    3    3    0  502  0.44639996450E+03  0.57929485856E+03  0.13584716914E+04  0.15428223481E+04  0.25500000920E-02 0.  1.
</event>
<event>
 5   0  0.5129100E-06  0.1998843E+04  0.7818609E-02  0.8607162E-01
        2   -1    0    0  501    0  0.00000000000E+00  0.00000000000E+00  0.12704402617E+04  0.12704402617E+04  0.25500000920E-02 0. -1.
       -2   -1    0    0    0  501  0.00000000000E+00  0.00000000000E+00 -0.78621844208E+03  0.78621844209E+03  0.25500000920E-02 0.  1.
    10030    2    1    2    0    0  0.00000000000E+00  0.00000000000E+00  0.48422181957E+03  0.20566587037E+04  0.19988432288E+04 0.  0.
        2    1    3    3  502    0 -0.74693187249E+03 -0.65376457800E+03  0.12243581332E+03  0.10001529253E+04  0.25500000920E-02 0.  1.
       -2    1    3    3    0  502  0.74693187249E+03  0.65376457800E+03  0.36178600625E+03  0.10565057785E+04  0.25500000920E-02 0. -1.
</event>
<event>
 5   0  0.5030137E-06  0.2001108E+04  0.7818609E-02  0.8606103E-01
        2   -1    0    0  501    0  0.00000000000E+00  0.00000000000E+00  0.13436496598E+04  0.13436496598E+04  0.25500000920E-02 0. -1.
       -2   -1    0    0    0  501  0.00000000000E+00  0.00000000000E+00 -0.74506654382E+03  0.74506654382E+03  0.25500000920E-02 0.  1.
    10030    2    1    2    0    0  0.00000000000E+00  0.00000000000E+00  0.59858311595E+03  0.20887162036E+04  0.20011081011E+04 0.  0.
        3    1    3    3  502    0  0.41188766907E+03  0.59318590089E+02  0.12490384029E+04  0.13165360189E+04  0.10100000352E+00 0. -1.
       -3    1    3    3    0  502 -0.41188766907E+03 -0.59318590089E+02 -0.65045528694E+03  0.77218018466E+03  0.10100000352E+00 0.  1.
</event>
<event>
 5   0  0.4956214E-06  0.2001051E+04  0.7818609E-02  0.8606129E-01
       -2   -1    0    0    0  501  0.00000000000E+00  0.00000000000E+00  0.13857256329E+04  0.13857256329E+04  0.25500000920E-02 0.  1.
        2   -1    0    0  501    0  0.00000000000E+00  0.00000000000E+00 -0.72240221626E+03  0.72240221627E+03  0.25500000920E-02 0. -1.
    10030    2    1    2    0    0  0.00000000000E+00  0.00000000000E+00  0.66332341665E+03  0.21081278492E+04  0.20010509922E+04 0.  0.
        1    1    3    3  502    0 -0.49240348861E+03  0.46005976889E+03  0.11107858836E+04  0.12992157118E+04  0.50400001928E-02 0.  1.
       -1    1    3    3    0  502  0.49240348861E+03 -0.46005976889E+03 -0.44746246700E+03  0.80891213735E+03  0.50400001928E-02 0. -1.
</event>
<event>
 5   0  0.5118981E-06  0.2000422E+04  0.7818609E-02  0.8606423E-01
        2   -1    0    0  501    0  0.00000000000E+00  0.00000000000E+00  0.10452188092E+04  0.10452188092E+04  0.25500000920E-02 0.  1.
       -2   -1    0    0    0  501  0.00000000000E+00  0.00000000000E+00 -0.95714136791E+03  0.95714136792E+03  0.25500000920E-02 0. -1.
    10030    2    1    2    0    0  0.00000000000E+00  0.00000000000E+00  0.88077441325E+02  0.20023601772E+04  0.20004221163E+04 0.  0.
        4    1    3    3  502    0  0.80022738611E+03  0.12690832826E+03 -0.54300278958E+03  0.97535800384E+03  0.12699999809E+01 0. -1.
       -4    1    3    3    0  502 -0.80022738611E+03 -0.12690832826E+03  0.63108023091E+03  0.10270021733E+04  0.12699999809E+01 0.  1.
</event>
<event>
 5   0  0.2379743E-06  0.1999674E+04  0.7818609E-02  0.8606773E-01
        1   -1    0    0  501    0  0.00000000000E+00  0.00000000000E+00  0.67635249522E+03  0.67635249524E+03  0.50400001928E-02 0. -1.
       -1   -1    0    0    0  501  0.00000000000E+00  0.00000000000E+00 -0.14780377560E+04  0.14780377560E+04  0.50400001928E-02 0.  1.
    10030    2    1    2    0    0  0.00000000000E+00  0.00000000000E+00 -0.80168526080E+03  0.21543902513E+04  0.19996744979E+04 0.  0.
        5    1    3    3  502    0  0.19401747150E+03  0.97875531147E+03 -0.33229870421E+03  0.10516887647E+04  0.46999998093E+01 0.  1.
       -5    1    3    3    0  502 -0.19401747150E+03 -0.97875531147E+03 -0.46938655658E+03  0.11027014866E+04  0.46999998093E+01 0. -1.
</event>
<event>
 5   0  0.2356996E-06  0.2000096E+04  0.7818609E-02  0.8606576E-01
        1   -1    0    0  501    0  0.00000000000E+00  0.00000000000E+00  0.90774758392E+03  0.90774758393E+03  0.50400001928E-02 0.  1.
       -1   -1    0    0    0  501  0.00000000000E+00  0.00000000000E+00 -0.11017336892E+04  0.11017336892E+04  0.50400001928E-02 0. -1.
    10030    2    1    2    0    0  0.00000000000E+00  0.00000000000E+00 -0.19398610525E+03  0.20094812731E+04  0.20000960922E+04 0.  0.
        4    1    3    3  502    0 -0.52661667480E+03  0.76044717674E+03  0.28490827848E+03  0.96787363371E+03  0.12699999809E+01 0.  1.
       -4    1    3    3    0  502  0.52661667480E+03 -0.76044717674E+03 -0.47889438374E+03  0.10416076394E+04  0.12699999809E+01 0. -1.
</event>
<event>
 5   0  0.1777750E-06  0.1993196E+04  0.7818609E-02  0.8609808E-01
       -3   -1    0    0    0  501  0.00000000000E+00  0.00000000000E+00  0.12833485980E+04  0.12833486020E+04  0.10100000352E+00 0. -1.
        3   -1    0    0  501    0  0.00000000000E+00  0.00000000000E+00 -0.77391864499E+03  0.77391865158E+03  0.10100000352E+00 0.  1.
    10030    2    1    2    0    0  0.00000000000E+00  0.00000000000E+00  0.50942995302E+03  0.20572672536E+04  0.19931958448E+04 0.  0.
        2    1    3    3  502    0  0.60829949569E+03  0.60651354154E+03 -0.26682013831E+03  0.89948870962E+03  0.25500000920E-02 0.  1.
       -2    1    3    3    0  502 -0.60829949569E+03 -0.60651354154E+03  0.77625009133E+03  0.11577785439E+04  0.25500000920E-02 0. -1.
</event>
<event>
 5   0  0.5030137E-06  0.2000163E+04  0.7818609E-02  0.8606544E-01
       -2   -1    0    0    0  501  0.00000000000E+00  0.00000000000E+00  0.37749669807E+03  0.37749669808E+03  0.25500000920E-02 0. -1.
        2   -1    0    0  501    0  0.00000000000E+00  0.00000000000E+00 -0.26494614185E+04  0.26494614185E+04  0.25500000920E-02 0.  1.
    10030    2    1    2    0    0  0.00000000000E+00  0.00000000000E+00 -0.22719647204E+04  0.30269581165E+04  0.20001629305E+04 0.  0.
        3    1    3    3  502    0  0.39995487099E+03  0.71314233425E+03 -0.26448514360E+03  0.85935341339E+03  0.10100000352E+00 0. -1.
       -3    1    3    3    0  502 -0.39995487099E+03 -0.71314233425E+03 -0.20074795768E+04  0.21676047031E+04  0.10100000352E+00 0.  1.
</event>
<event>
 5   0  0.5129100E-06  0.2000025E+04  0.7818609E-02  0.8606609E-01
        2   -1    0    0  501    0  0.00000000000E+00  0.00000000000E+00  0.29162247120E+04  0.29162247120E+04  0.25500000920E-02 0.  1.
       -2   -1    0    0    0  501  0.00000000000E+00  0.00000000000E+00 -0.34291784647E+03  0.34291784648E+03  0.25500000920E-02 0. -1.
    10030    2    1    2    0    0  0.00000000000E+00  0.00000000000E+00  0.25733068656E+04  0.32591425585E+04  0.20000254979E+04 0.  0.
        2    1    3    3  502    0  0.30861184174E+03 -0.88970736133E+02 -0.25658203223E+03  0.41108563587E+03  0.25500000920E-02 0. -1.
       -2    1    3    3    0  502 -0.30861184174E+03  0.88970736133E+02  0.28298888978E+04  0.28480569226E+04  0.25500000920E-02 0.  1.
</event>
<event>
 5   0  0.5251252E-06  0.2000495E+04  0.7818609E-02  0.8606389E-01
        2   -1    0    0  501    0  0.00000000000E+00  0.00000000000E+00  0.15965732087E+04  0.15965732087E+04  0.25500000920E-02 0. -1.
       -2   -1    0    0    0  501  0.00000000000E+00  0.00000000000E+00 -0.62665163212E+03  0.62665163213E+03  0.25500000920E-02 0.  1.
    10030    2    1    2    0    0  0.00000000000E+00  0.00000000000E+00  0.96992157657E+03  0.22232248408E+04  0.20004951457E+04 0.  0.
        5    1    3    3  502    0  0.83413324087E+03  0.43914348140E+03  0.11328889779E+03  0.94946391461E+03  0.46999998093E+01 0.  1.
       -5    1    3    3    0  502 -0.83413324087E+03 -0.43914348140E+03  0.85663267878E+03  0.12737609262E+04  0.46999998093E+01 0. -1.
</event>
<event>
 5   0  0.2356996E-06  0.2000281E+04  0.7818609E-02  0.8606489E-01
        1   -1    0    0  501    0  0.00000000000E+00  0.00000000000E+00  0.58043005645E+03  0.58043005647E+03  0.50400001928E-02 0.  1.
       -1   -1    0    0    0  501  0.00000000000E+00  0.00000000000E+00 -0.17233445747E+04  0.17233445747E+04  0.50400001928E-02 0. -1.
    10030    2    1    2    0    0  0.00000000000E+00  0.00000000000E+00 -0.11429145182E+04  0.23037746312E+04  0.20002809691E+04 0.  0.
        4    1    3    3  502    0 -0.43410705670E+03 -0.10234471437E+03 -0.16024645457E+04  0.16633753667E+04  0.12699999809E+01 0. -1.
       -4    1    3    3    0  502  0.43410705670E+03  0.10234471437E+03  0.45955002752E+03  0.64039926447E+03  0.12699999809E+01 0.  1.
</event>
<event>
 5   0  0.2313821E-06  0.2001284E+04  0.7818609E-02  0.8606021E-01
       -1   -1    0    0    0  501  0.00000000000E+00  0.00000000000E+00  0.94331004352E+03  0.94331004353E+03  0.50400001928E-02 0.  1.
        1   -1    0    0  501    0  0.00000000000E+00  0.00000000000E+00 -0.10614585714E+04  0.10614585714E+04  0.50400001928E-02 0. -1.
    10030    2    1    2    0    0  0.00000000000E+00  0.00000000000E+00 -0.11814852786E+03  0.20047686149E+04  0.20012841189E+04 0.  0.
        1    1    3    3  502    0  0.56725300958E+03  0.65743315104E+03 -0.55722292115E+03  0.10317420748E+04  0.50400001928E-02 0. -1.
       -1    1    3    3    0  502 -0.56725300958E+03 -0.65743315104E+03  0.43907439329E+03  0.97302654015E+03  0.50400001928E-02 0.  1.
</event>
<event>
 5   0  0.5129100E-06  0.2001508E+04  0.7818609E-02  0.8605916E-01
       -2   -1    0    0    0  501  0.00000000000E+00  0.00000000000E+00  0.84709004974E+03  0.84709004974E+03  0.25500000920E-02 0. -1.
        2   -1    0    0  501    0  0.00000000000E+00  0.00000000000E+00 -0.11822932984E+04  0.11822932984E+04  0.25500000920E-02 0.  1.
    10030    2    1    2    0    0  0.00000000000E+00  0.00000000000E+00 -0.33520324864E+03  0.20293833481E+04  0.20015083202E+04 0.  0.
        2    1    3    3  502    0  0.15986269488E+03 -0.97170740835E+03  0.13029750859E+02  0.98485589965E+03  0.25500000920E-02 0. -1.
       -2    1    3    3    0  502 -0.15986269488E+03  0.97170740835E+03 -0.34823299950E+03  0.10445274485E+04  0.25500000920E-02 0.  1.
</event>
<event>
 5   0  0.2356996E-06  0.1999995E+04  0.7818609E-02  0.8606623E-01
       -1   -1    0    0    0  501  0.00000000000E+00  0.00000000000E+00  0.13442239054E+04  0.13442239054E+04  0.50400001928E-02 0. -1.
        1   -1    0    0  501    0  0.00000000000E+00  0.00000000000E+00 -0.74391984906E+03  0.74391984908E+03  0.50400001928E-02 0.  1.
    10030    2    1    2    0    0  0.00000000000E+00  0.00000000000E+00  0.60030405636E+03  0.20881437545E+04  0.19999948448E+04 0.  0.
        4    1    3    3  502    0 -0.25687574591E+03  0.77722170673E+02  0.13059201462E+04  0.13332122584E+04  0.12699999809E+01 0. -1.
       -4    1    3    3    0  502  0.25687574591E+03 -0.77722170673E+02 -0.70561608988E+03  0.75493149613E+03  0.12699999809E+01 0.  1.
</event>
<event>
 5   0  0.5118981E-06  0.1997367E+04  0.7818609E-02  0.8607853E-01
        2   -1    0    0  501    0  0.00000000000E+00  0.00000000000E+00  0.14253996020E+04  0.14253996020E+04  0.25500000920E-02 0.  1.
       -2   -1    0    0    0  501  0.00000000000E+00  0.00000000000E+00 -0.69971177135E+03  0.69971177136E+03  0.25500000920E-02 0. -1.
    10030    2    1    2    0    0  0.00000000000E+00  0.00000000000E+00  0.72568783068E+03  0.21251113734E+04  0.19973671475E+04 0.  0.
        4    1    3    3  502    0 -0.24946073998E+03 -0.18891377289E+03 -0.64620418725E+03  0.71798366200E+03  0.12699999809E+01 0. -1.
       -4    1    3    3    0  502  0.24946073998E+03  0.18891377289E+03  0.13718920179E+04  0.14071277114E+04  0.12699999809E+01 0.  1.
</event>
<event>
 5   0  0.2379743E-06  0.1999804E+04  0.7818609E-02  0.8606712E-01
       -1   -1    0    0    0  501  0.00000000000E+00  0.00000000000E+00  0.75235728597E+03  0.75235728599E+03  0.50400001928E-02 0. -1.
        1   -1    0    0  501    0  0.00000000000E+00  0.00000000000E+00 -0.13288952444E+04  0.13288952444E+04  0.50400001928E-02 0.  1.
    10030    2    1    2    0    0  0.00000000000E+00  0.00000000000E+00 -0.57653795846E+03  0.20812525304E+04  0.19998040099E+04 0.  0.
        5    1    3    3  502    0 -0.17436644767E+03 -0.87553871444E+03 -0.75695529517E+03  0.11704593575E+04  0.46999998093E+01 0.  1.
       -5    1    3    3    0  502  0.17436644767E+03  0.87553871444E+03  0.18041733671E+03  0.91079317298E+03  0.46999998093E+01 0. -1.
</event>
<event>
 5   0  0.5251252E-06  0.1999196E+04  0.7818609E-02  0.8606996E-01
       -2   -1    0    0    0  501  0.00000000000E+00  0.00000000000E+00  0.65459263491E+03  0.65459263492E+03  0.25500000920E-02 0. -1.
        2   -1    0    0  501    0  0.00000000000E+00  0.00000000000E+00 -0.15264404150E+04  0.15264404150E+04  0.25500000920E-02 0.  1.
    10030    2    1    2    0    0  0.00000000000E+00  0.00000000000E+00 -0.87184778012E+03  0.21810330500E+04  0.19991964919E+04 0.  0.
        5    1    3    3  502    0  0.83453657094E+02  0.84358184376E+03 -0.10138002213E+04  0.13215172412E+04  0.46999998093E+01 0.  1.
       -5    1    3    3    0  502 -0.83453657094E+02 -0.84358184376E+03  0.14195244117E+03  0.85951580879E+03  0.46999998093E+01 0. -1.
</event>
<event>
 5   0  0.4956214E-06  0.1999286E+04  0.7818609E-02  0.8606954E-01
        2   -1    0    0  501    0  0.00000000000E+00  0.00000000000E+00  0.10069072310E+04  0.10069072310E+04  0.25500000920E-02 0.  1.
       -2   -1    0    0    0  501  0.00000000000E+00  0.00000000000E+00 -0.99243136198E+03  0.99243136198E+03  0.25500000920E-02 0. -1.
    10030    2    1    2    0    0  0.00000000000E+00  0.00000000000E+00  0.14475869054E+02  0.19993385930E+04  0.19992861873E+04 0.  0.
        1    1    3    3  502    0  0.79111761424E+03 -0.29670770387E+03  0.54146516599E+03  0.10035372774E+04  0.50400001928E-02 0.  1.
       -1    1    3    3    0  502 -0.79111761424E+03  0.29670770387E+03 -0.52698929694E+03  0.99580131563E+03  0.50400001928E-02 0. -1.
</event>
<event>
 5   0  0.2311520E-06  0.1995041E+04  0.7818609E-02  0.8608943E-01
        1   -1    0    0  501    0  0.00000000000E+00  0.00000000000E+00  0.11117974752E+04  0.11117974753E+04  0.50400001928E-02 0. -1.
       -1   -1    0    0    0  501  0.00000000000E+00  0.00000000000E+00 -0.89498912712E+03  0.89498912714E+03  0.50400001928E-02 0.  1.
    10030    2    1    2    0    0  0.00000000000E+00  0.00000000000E+00  0.21680834812E+03  0.20067866024E+04  0.19950405028E+04 0.  0.
        3    1    3    3  502    0  0.64114500712E+03  0.69958756919E+03 -0.20090743068E+03  0.96997602703E+03  0.10100000352E+00 0.  1.
       -3    1    3    3    0  502 -0.64114500712E+03 -0.69958756919E+03  0.41771577880E+03  0.10368105754E+04  0.10100000352E+00 0. -1.
</event>
<event>
 5   0  0.2356996E-06  0.2000305E+04  0.7818609E-02  0.8606478E-01
        1   -1    0    0  501    0  0.00000000000E+00  0.00000000000E+00  0.15749071990E+04  0.15749071990E+04  0.50400001928E-02 0. -1.
       -1   -1    0    0    0  501  0.00000000000E+00  0.00000000000E+00 -0.63515183811E+03  0.63515183813E+03  0.50400001928E-02 0.  1.
    10030    2    1    2    0    0  0.00000000000E+00  0.00000000000E+00  0.93975536092E+03  0.22100590372E+04  0.20003051791E+04 0.  0.
        4    1    3    3  502    0 -0.83896300032E+03 -0.65448916682E+02 -0.12732097430E+03  0.85109031248E+03  0.12699999809E+01 0.  1.
       -4    1    3    3    0  502  0.83896300032E+03  0.65448916682E+02  0.10670763352E+04  0.13589687247E+04  0.12699999809E+01 0. -1.
</event>
<event>
 5   0  0.2356996E-06  0.1999977E+04  0.7818609E-02  0.8606632E-01
       -1   -1    0    0    0  501  0.00000000000E+00  0.00000000000E+00  0.74858226773E+03  0.74858226774E+03  0.50400001928E-02 0.  1.
        1   -1    0    0  501    0  0.00000000000E+00  0.00000000000E+00 -0.13358275282E+04  0.13358275282E+04  0.50400001928E-02 0. -1.
    10030    2    1    2    0    0  0.00000000000E+00  0.00000000000E+00 -0.58724526050E+03  0.20844097960E+04  0.19999768003E+04 0.  0.
        4    1    3    3  502    0 -0.89115880226E+03  0.39314189200E+03 -0.57679275955E+02  0.97573206869E+03  0.12699999809E+01 0.  1.
       -4    1    3    3    0  502  0.89115880226E+03 -0.39314189200E+03 -0.52956598455E+03  0.11086777273E+04  0.12699999809E+01 0. -1.
</event>
<event>
 5   0  0.2356996E-06  0.1999420E+04  0.7818609E-02  0.8606892E-01
        1   -1    0    0  501    0  0.00000000000E+00  0.00000000000E+00  0.16478833078E+04  0.16478833078E+04  0.50400001928E-02 0.  1.
       -1   -1    0    0    0  501  0.00000000000E+00  0.00000000000E+00 -0.60648709700E+03  0.60648709702E+03  0.50400001928E-02 0. -1.
    10030    2    1    2    0    0  0.00000000000E+00  0.00000000000E+00  0.10413962108E+04  0.22543704048E+04  0.19994198794E+04 0.  0.
        4    1    3    3  502    0  0.66861422473E+02  0.78567841009E+03  0.12135975795E+04  0.14472669801E+04  0.12699999809E+01 0.  1.
       -4    1    3    3    0  502 -0.66861422473E+02 -0.78567841009E+03 -0.17220136869E+03  0.80710342471E+03  0.12699999809E+01 0. -1.
</event>
<event>
 5   0  0.2311520E-06  0.2000916E+04  0.7818609E-02  0.8606192E-01
        1   -1    0    0  501    0  0.00000000000E+00  0.00000000000E+00  0.17128772915E+04  0.17128772915E+04  0.50400001928E-02 0. -1.
       -1   -1    0    0    0  501  0.00000000000E+00  0.00000000000E+00 -0.58434810968E+03  0.58434810970E+03  0.50400001928E-02 0.  1.
    10030    2    1    2    0    0  0.00000000000E+00  0.00000000000E+00  0.11285291818E+04  0.22972254012E+04  0.20009163975E+04 0.  0.
        3    1    3    3  502    0 -0.22126123953E+03 -0.81668391922E+03  0.11771616316E+04  0.14497029617E+04  0.10100000352E+00 0. -1.
       -3    1    3    3    0  502  0.22126123953E+03  0.81668391922E+03 -0.48632449833E+02  0.84752243947E+03  0.10100000352E+00 0.  1.
</event>
<event>
 5   0  0.5251252E-06  0.2000001E+04  0.7818609E-02  0.8606620E-01
        2   -1    0    0  501    0  0.00000000000E+00  0.00000000000E+00  0.16338478500E+04  0.16338478500E+04  0.25500000920E-02 0. -1.
       -2   -1    0    0    0  501  0.00000000000E+00  0.00000000000E+00 -0.61205268286E+03  0.61205268286E+03  0.25500000920E-02 0.  1.
    10030    2    1    2    0    0  0.00000000000E+00  0.00000000000E+00  0.10217951671E+04  0.22459005328E+04  0.20000009600E+04 0.  0.
        5    1    3    3  502    0  0.62648293447E+03 -0.70971792223E+03  0.87268694965E+03  0.12875499984E+04  0.46999998093E+01 0. -1.
       -5    1    3    3    0  502 -0.62648293447E+03  0.70971792223E+03  0.14910821746E+03  0.95835053442E+03  0.46999998093E+01 0.  1.
</event>
<event>
 5   0  0.5129100E-06  0.2000273E+04  0.7818609E-02  0.8606493E-01
        2   -1    0    0  501    0  0.00000000000E+00  0.00000000000E+00  0.18631718192E+04  0.18631718192E+04  0.25500000920E-02 0. -1.
       -2   -1    0    0    0  501  0.00000000000E+00  0.00000000000E+00 -0.53686579982E+03  0.53686579982E+03  0.25500000920E-02 0.  1.
    10030    2    1    2    0    0  0.00000000000E+00  0.00000000000E+00  0.13263060194E+04  0.24000376191E+04  0.20002732103E+04 0.  0.
        2    1    3    3  502    0 -0.17350960944E+03  0.58970797933E+03  0.16097557541E+04  0.17231293257E+04  0.25500000920E-02 0. -1.
       -2    1    3    3    0  502  0.17350960944E+03 -0.58970797933E+03 -0.28344973467E+03  0.67690829331E+03  0.25500000920E-02 0.  1.
</event>
<event>
 5   0  0.2386776E-06  0.2000852E+04  0.7818609E-02  0.8606222E-01
       -1   -1    0    0    0  501  0.00000000000E+00  0.00000000000E+00  0.11204055049E+04  0.11204055049E+04  0.50400001928E-02 0. -1.
        1   -1    0    0  501    0  0.00000000000E+00  0.00000000000E+00 -0.89329456280E+03  0.89329456282E+03  0.50400001928E-02 0.  1.
    10030    2    1    2    0    0  0.00000000000E+00  0.00000000000E+00  0.22711094211E+03  0.20137000677E+04  0.20008519642E+04 0.  0.
        2    1    3    3  502    0 -0.82170418104E+03  0.25452433252E+03  0.62759125325E+03  0.10648244823E+04  0.25500000920E-02 0. -1.
       -2    1    3    3    0  502  0.82170418104E+03 -0.25452433252E+03 -0.40048031114E+03  0.94887558542E+03  0.25500000920E-02 0.  1.
</event>
<event>
 5   0  0.2313821E-06  0.1999042E+04  0.7818609E-02  0.8607069E-01
        1   -1    0    0  501    0  0.00000000000E+00  0.00000000000E+00  0.20171523028E+04  0.20171523028E+04  0.50400001928E-02 0. -1.
       -1   -1    0    0    0  501  0.00000000000E+00  0.00000000000E+00 -0.49527340141E+03  0.49527340144E+03  0.50400001928E-02 0.  1.
    10030    2    1    2    0    0  0.00000000000E+00  0.00000000000E+00  0.15218789014E+04  0.25124257043E+04  0.19990416526E+04 0.  0.
        1    1    3    3  502    0 -0.47376401511E+03 -0.48444732479E+03  0.16844209110E+04  0.18156033041E+04  0.50400001928E-02 0. -1.
       -1    1    3    3    0  502  0.47376401511E+03  0.48444732479E+03 -0.16254200955E+03  0.69682240018E+03  0.50400001928E-02 0.  1.
</event>
<event>
 5   0  0.2311520E-06  0.2001327E+04  0.7818609E-02  0.8606001E-01
        1   -1    0    0  501    0  0.00000000000E+00  0.00000000000E+00  0.18680796704E+04  0.18680796704E+04  0.50400001928E-02 0. -1.
       -1   -1    0    0    0  501  0.00000000000E+00  0.00000000000E+00 -0.53601964227E+03  0.53601964229E+03  0.50400001928E-02 0.  1.
    10030    2    1    2    0    0  0.00000000000E+00  0.00000000000E+00  0.13320600281E+04  0.24040993127E+04  0.20013269565E+04 0.  0.
        3    1    3    3  502    0  0.84884459213E+03 -0.44118597458E+03  0.10186036647E+04  0.13974031779E+04  0.10100000352E+00 0.  1.
       -3    1    3    3    0  502 -0.84884459213E+03  0.44118597458E+03  0.31345636341E+03  0.10066961347E+04  0.10100000352E+00 0. -1.
</event>
<event>
 5   0  0.2313821E-06  0.2000278E+04  0.7818609E-02  0.8606491E-01
        1   -1    0    0  501    0  0.00000000000E+00  0.00000000000E+00  0.17514592841E+04  0.17514592841E+04  0.50400001928E-02 0. -1.
       -1   -1    0    0    0  501  0.00000000000E+00  0.00000000000E+00 -0.57111142295E+03  0.57111142297E+03  0.50400001928E-02 0.  1.
    10030    2    1    2    0    0  0.00000000000E+00  0.00000000000E+00  0.11803478611E+04  0.23225707070E+04  0.20002783846E+04 0.  0.
        1    1    3    3  502    0 -0.89796549825E+03  0.14935266001E+03  0.10914046151E+03  0.91682053503E+03  0.50400001928E-02 0.  1.
       -1    1    3    3    0  502  0.89796549825E+03 -0.14935266001E+03  0.10712073996E+04  0.14057501720E+04  0.50400001928E-02 0. -1.
</event>
<event>
 5   0  0.2356996E-06  0.2000106E+04  0.7818609E-02  0.8606571E-01
       -1   -1    0    0    0  501  0.00000000000E+00  0.00000000000E+00  0.95661541627E+03  0.95661541628E+03  0.50400001928E-02 0. -1.
        1   -1    0    0  501    0  0.00000000000E+00  0.00000000000E+00 -0.10454626716E+04  0.10454626716E+04  0.50400001928E-02 0.  1.
    10030    2    1    2    0    0  0.00000000000E+00  0.00000000000E+00 -0.88847255360E+02  0.20020780879E+04  0.20001057060E+04 0.  0.
        4    1    3    3  502    0  0.99438862654E+03  0.39672815643E+02  0.54270880011E+02  0.99665922672E+03  0.12699999809E+01 0.  1.
       -4    1    3    3    0  502 -0.99438862654E+03 -0.39672815643E+02 -0.14311813537E+03  0.10054188612E+04  0.12699999809E+01 0. -1.
</event>
<event>
 5   0  0.2356996E-06  0.1999492E+04  0.7818609E-02  0.8606858E-01
        1   -1    0    0  501    0  0.00000000000E+00  0.00000000000E+00  0.14512025377E+04  0.14512025377E+04  0.50400001928E-02 0.  1.
       -1   -1    0    0    0  501  0.00000000000E+00  0.00000000000E+00 -0.68873357507E+03  0.68873357509E+03  0.50400001928E-02 0. -1.
    10030    2    1    2    0    0  0.00000000000E+00  0.00000000000E+00  0.76246896266E+03  0.21399361128E+04  0.19994918474E+04 0.  0.
        4    1    3    3  502    0  0.45404194871E+03  0.41953436106E+03 -0.45965486670E+03  0.77035536000E+03  0.12699999809E+01 0. -1.
       -4    1    3    3    0  502 -0.45404194871E+03 -0.41953436106E+03  0.12221238294E+04  0.13695807528E+04  0.12699999809E+01 0.  1.
</event>
<event>
 5   0  0.2311520E-06  0.2000640E+04  0.7818609E-02  0.8606321E-01
       -1   -1    0    0    0  501  0.00000000000E+00  0.00000000000E+00  0.61834333907E+03  0.61834333909E+03  0.50400001928E-02 0. -1.
        1   -1    0    0  501    0  0.00000000000E+00  0.00000000000E+00 -0.16182600217E+04  0.16182600217E+04  0.50400001928E-02 0.  1.
    10030    2    1    2    0    0  0.00000000000E+00  0.00000000000E+00 -0.99991668258E+03  0.22366033607E+04  0.20006402028E+04 0.  0.
        3    1    3    3  502    0 -0.11470436158E+03  0.69113350576E+03  0.29827052363E+03  0.76143806631E+03  0.10100000352E+00 0. -1.
       -3    1    3    3    0  502  0.11470436158E+03 -0.69113350576E+03 -0.12981872062E+04  0.14751652944E+04  0.10100000352E+00 0.  1.
</event>
<event>
 5   0  0.5129100E-06  0.1999849E+04  0.7818609E-02  0.8606691E-01
       -2   -1    0    0    0  501  0.00000000000E+00  0.00000000000E+00  0.10061280441E+04  0.10061280441E+04  0.25500000920E-02 0.  1.
        2   -1    0    0  501    0  0.00000000000E+00  0.00000000000E+00 -0.99375898846E+03  0.99375898846E+03  0.25500000920E-02 0. -1.
    10030    2    1    2    0    0  0.00000000000E+00  0.00000000000E+00  0.12369055593E+02  0.19998870325E+04  0.19998487816E+04 0.  0.
        2    1    3    3  502    0  0.16913637017E+03 -0.74669093115E+03 -0.63701851517E+03  0.99596538446E+03  0.25500000920E-02 0. -1.
       -2    1    3    3    0  502 -0.16913637017E+03  0.74669093115E+03  0.64938757076E+03  0.10039216481E+04  0.25500000920E-02 0.  1.
</event>
<event>
 5   0  0.1777750E-06  0.1999035E+04  0.7818609E-02  0.8607072E-01
       -3   -1    0    0    0  501  0.00000000000E+00  0.00000000000E+00  0.62278912792E+03  0.62278913611E+03  0.10100000352E+00 0.  1.
        3   -1    0    0  501    0  0.00000000000E+00  0.00000000000E+00 -0.16041306372E+04  0.16041306404E+04  0.10100000352E+00 0. -1.
    10030    2    1    2    0    0  0.00000000000E+00  0.00000000000E+00 -0.98134150929E+03  0.22269197765E+04  0.19990349004E+04 0.  0.
        2    1    3    3  502    0  0.51477105134E+01  0.37816181025E+03 -0.15213455515E+04  0.15676495593E+04  0.25500000920E-02 0. -1.
       -2    1    3    3    0  502 -0.51477105134E+01 -0.37816181025E+03  0.54000404223E+03  0.65927021720E+03  0.25500000920E-02 0.  1.
</event>
<event>
 5   0  0.4956214E-06  0.2000376E+04  0.7818609E-02  0.8606445E-01
        2   -1    0    0  501    0  0.00000000000E+00  0.00000000000E+00  0.84772190163E+03  0.84772190163E+03  0.25500000920E-02 0. -1.
       -2   -1    0    0    0  501  0.00000000000E+00  0.00000000000E+00 -0.11800751845E+04  0.11800751845E+04  0.25500000920E-02 0.  1.
    10030    2    1    2    0    0  0.00000000000E+00  0.00000000000E+00 -0.33235328283E+03  0.20277970861E+04  0.20003755442E+04 0.  0.
        1    1    3    3  502    0 -0.29272758631E+03  0.17816601215E+03 -0.11187080283E+04  0.11700171881E+04  0.50400001928E-02 0.  1.
       -1    1    3    3    0  502  0.29272758631E+03 -0.17816601215E+03  0.78635474550E+03  0.85777989803E+03  0.50400001928E-02 0. -1.
</event>
<event>
 5   0  0.2311520E-06  0.1999922E+04  0.7818609E-02  0.8606657E-01
       -1   -1    0    0    0  501  0.00000000000E+00  0.00000000000E+00  0.51258015591E+03  0.51258015593E+03  0.50400001928E-02 0. -1.
        1   -1    0    0  501    0  0.00000000000E+00  0.00000000000E+00 -0.19507619753E+04  0.19507619753E+04  0.50400001928E-02 0.  1.
    10030    2    1    2    0    0  0.00000000000E+00  0.00000000000E+00 -0.14381818194E+04  0.24633421313E+04  0.19999218760E+04 0.  0.
        3    1    3    3  502    0 -0.57913539158E+03  0.38847421159E+03  0.16364180568E+03  0.71630207707E+03  0.10100000352E+00 0. -1.
       -3    1    3    3    0  502  0.57913539158E+03 -0.38847421159E+03 -0.16018236251E+04  0.17470400542E+04  0.10100000352E+00 0.  1.
</event>
<event>
 5   0  0.4956214E-06  0.2001119E+04  0.7818609E-02  0.8606098E-01
       -2   -1    0    0    0  501  0.00000000000E+00  0.00000000000E+00  0.65779953096E+03  0.65779953097E+03  0.25500000920E-02 0.  1.
        2   -1    0    0  501    0  0.00000000000E+00  0.00000000000E+00 -0.15219216650E+04  0.15219216650E+04  0.25500000920E-02 0. -1.
    10030    2    1    2    0    0  0.00000000000E+00  0.00000000000E+00 -0.86412213400E+03  0.21797211959E+04  0.20011190443E+04 0.  0.
        1    1    3    3  502    0 -0.52211177010E+03 -0.94091381854E+02  0.49198442920E+03  0.72353477264E+03  0.50400001928E-02 0.  1.
       -1    1    3    3    0  502  0.52211177010E+03  0.94091381854E+02 -0.13561065632E+04  0.14561864233E+04  0.50400001928E-02 0. -1.
</event>
<event>
 5   0  0.2313821E-06  0.1998501E+04  0.7818609E-02  0.8607322E-01
        1   -1    0    0  501    0  0.00000000000E+00  0.00000000000E+00  0.90737904958E+03  0.90737904960E+03  0.50400001928E-02 0. -1.
       -1   -1    0    0    0  501  0.00000000000E+00  0.00000000000E+00 -0.11004239349E+04  0.11004239349E+04  0.50400001928E-02 0.  1.
    10030    2    1    2    0    0  0.00000000000E+00  0.00000000000E+00 -0.19304488535E+03  0.20078029845E+04  0.19985010625E+04 0.  0.
        1    1    3    3  502    0  0.30383383776E+03 -0.29980020716E+03  0.81117963266E+03  0.91662836616E+03  0.50400001928E-02 0. -1.
       -1    1    3    3    0  502 -0.30383383776E+03  0.29980020716E+03 -0.10042245180E+04  0.10911746184E+04  0.50400001928E-02 0.  1.
</event>
<event>
 5   0  0.5251252E-06  0.2000461E+04  0.7818609E-02  0.8606405E-01
        2   -1    0    0  501    0  0.00000000000E+00  0.00000000000E+00  0.80634844961E+03  0.80634844962E+03  0.25500000920E-02 0. -1.
       -2   -1    0    0    0  501  0.00000000000E+00  0.00000000000E+00 -0.12407307915E+04  0.12407307915E+04  0.25500000920E-02 0.  1.
    10030    2    1    2    0    0  0.00000000000E+00  0.00000000000E+00 -0.43438234188E+03  0.20470792411E+04  0.20004612969E+04 0.  0.
        5    1    3    3  502    0  0.70936811186E+03  0.12176211359E+03  0.49355202379E+03  0.87272264816E+03  0.46999998093E+01 0. -1.
       -5    1    3    3    0  502 -0.70936811186E+03 -0.12176211359E+03 -0.92793436567E+03  0.11743565930E+04  0.46999998093E+01 0.  1.
</event>
<event>
 5   0  0.2386776E-06  0.1999948E+04  0.7818609E-02  0.8606645E-01
        1   -1    0    0  501    0  0.00000000000E+00  0.00000000000E+00  0.18899216151E+04  0.18899216151E+04  0.50400001928E-02 0. -1.
       -1   -1    0    0    0  501  0.00000000000E+00  0.00000000000E+00 -0.52909519394E+03  0.52909519396E+03  0.50400001928E-02 0.  1.
    10030    2    1    2    0    0  0.00000000000E+00  0.00000000000E+00  0.13608264211E+04  0.24190168090E+04  0.19999484428E+04 0.  0.
        2    1    3    3  502    0  0.34414126572E+03  0.72203971593E+03 -0.45485782736E+02  0.80115137059E+03  0.25500000920E-02 0.  1.
       -2    1    3    3    0  502 -0.34414126572E+03 -0.72203971593E+03  0.14063122039E+04  0.16178654384E+04  0.25500000920E-02 0. -1.
</event>
<event>
 5   0  0.5030137E-06  0.1997432E+04  0.7818609E-02  0.8607822E-01
        2   -1    0    0  501    0  0.00000000000E+00  0.00000000000E+00  0.17793934358E+04  0.17793934358E+04  0.25500000920E-02 0. -1.
       -2   -1    0    0    0  501  0.00000000000E+00  0.00000000000E+00 -0.56054706839E+03  0.56054706839E+03  0.25500000920E-02 0.  1.
    10030    2    1    2    0    0  0.00000000000E+00  0.00000000000E+00  0.12188463675E+04  0.23399405042E+04  0.19974321255E+04 0.  0.
        3    1    3    3  502    0 -0.34240657438E+02 -0.99101266853E+03  0.74880023756E+03  0.12425700535E+04  0.10100000352E+00 0.  1.
       -3    1    3    3    0  502  0.34240657438E+02  0.99101266853E+03  0.47004612990E+03  0.10973704508E+04  0.10100000352E+00 0. -1.
</event>
<event>
 5   0  0.5129100E-06  0.1997252E+04  0.7818609E-02  0.8607906E-01
       -2   -1    0    0    0  501  0.00000000000E+00  0.00000000000E+00  0.73957771513E+03  0.73957771514E+03  0.25500000920E-02 0.  1.
        2   -1    0    0  501    0  0.00000000000E+00  0.00000000000E+00 -0.13484100629E+04  0.13484100629E+04  0.25500000920E-02 0. -1.
    10030    2    1    2    0    0  0.00000000000E+00  0.00000000000E+00 -0.60883234781E+03  0.20879877781E+04  0.19972521457E+04 0.  0.
        2    1    3    3  502    0 -0.69621244958E+02 -0.13356564851E+03  0.72763429683E+03  0.74306027356E+03  0.25500000920E-02 0.  1.
       -2    1    3    3    0  502  0.69621244958E+02  0.13356564851E+03 -0.13364666446E+04  0.13449275045E+04  0.25500000920E-02 0. -1.
</event>
<event>
 5   0  0.2386776E-06  0.2004016E+04  0.7818609E-02  0.8604746E-01
        1   -1    0    0  501    0  0.00000000000E+00  0.00000000000E+00  0.12654040722E+04  0.12654040722E+04  0.50400001928E-02 0. -1.
       -1   -1    0    0    0  501  0.00000000000E+00  0.00000000000E+00 -0.79343800745E+03  0.79343800747E+03  0.50400001928E-02 0.  1.
    10030    2    1    2    0    0  0.00000000000E+00  0.00000000000E+00  0.47196606472E+03  0.20588420797E+04  0.20040156543E+04 0.  0.
        2    1    3    3  502    0  0.22669050632E+03  0.90708527051E+03 -0.13419029809E+03  0.94456302582E+03  0.25500000920E-02 0.  1.
       -2    1    3    3    0  502 -0.22669050632E+03 -0.90708527051E+03  0.60615636281E+03  0.11142790538E+04  0.25500000920E-02 0. -1.
</event>
<event>
 5   0  0.1777750E-06  0.1999637E+04  0.7818609E-02  0.8606790E-01
       -4   -1    0    0    0  501  0.00000000000E+00  0.00000000000E+00  0.95444227667E+03  0.95444312161E+03  0.12699999809E+01 0. -1.
        4   -1    0    0  501    0  0.00000000000E+00  0.00000000000E+00 -0.10473500792E+04  0.10473508492E+04  0.12699999809E+01 0.  1.
    10030    2    1    2    0    0  0.00000000000E+00  0.00000000000E+00 -0.92907802545E+02  0.20017939708E+04  0.19996367775E+04 0.  0.
        1    1    3    3  502    0  0.20667005372E+03 -0.42380232262E+03  0.83615242125E+03  0.95993322234E+03  0.50400001928E-02 0. -1.
       -1    1    3    3    0  502 -0.20667005372E+03  0.42380232262E+03 -0.92906022379E+03  0.10418607485E+04  0.50400001928E-02 0.  1.
</event>
<event>
 5   0  0.5251252E-06  0.1996049E+04  0.7818609E-02  0.8608470E-01
        2   -1    0    0  501    0  0.00000000000E+00  0.00000000000E+00  0.13107028166E+04  0.13107028166E+04  0.25500000920E-02 0. -1.
       -2   -1    0    0    0  501  0.00000000000E+00  0.00000000000E+00 -0.75993819922E+03  0.75993819922E+03  0.25500000920E-02 0.  1.
    10030    2    1    2    0    0  0.00000000000E+00  0.00000000000E+00  0.55076461739E+03  0.20706410158E+04  0.19960492360E+04 0.  0.
        5    1    3    3  502    0  0.34707549696E+03  0.91640251393E+03  0.79168332130E+02  0.98313004375E+03  0.46999998093E+01 0.  1.
       -5    1    3    3    0  502 -0.34707549696E+03 -0.91640251393E+03  0.47159628526E+03  0.10875109721E+04  0.46999998093E+01 0. -1.
</event>
<event>
 5   0  0.5030137E-06  0.1999865E+04  0.7818609E-02  0.8606684E-01
        2   -1    0    0  501    0  0.00000000000E+00  0.00000000000E+00  0.15904944905E+04  0.15904944905E+04  0.25500000920E-02 0.  1.
       -2   -1    0    0    0  501  0.00000000000E+00  0.00000000000E+00 -0.62865049273E+03  0.62865049273E+03  0.25500000920E-02 0. -1.
    10030    2    1    2    0    0  0.00000000000E+00  0.00000000000E+00  0.96184399780E+03  0.22191449833E+04  0.19998651406E+04 0.  0.
        3    1    3    3  502    0 -0.48914777856E+03  0.61811346542E+03  0.11636350046E+04  0.14054807859E+04  0.10100000352E+00 0.  1.
       -3    1    3    3    0  502  0.48914777856E+03 -0.61811346542E+03 -0.20179100683E+03  0.81366419734E+03  0.10100000352E+00 0. -1.
</event>
<event>
 5   0  0.4956214E-06  0.2002323E+04  0.7818609E-02  0.8605535E-01
        2   -1    0    0  501    0  0.00000000000E+00  0.00000000000E+00  0.30553257308E+04  0.30553257308E+04  0.25500000920E-02 0. -1.
       -2   -1    0    0    0  501  0.00000000000E+00  0.00000000000E+00 -0.32805817582E+03  0.32805817583E+03  0.25500000920E-02 0.  1.
    10030    2    1    2    0    0  0.00000000000E+00  0.00000000000E+00  0.27272675550E+04  0.33833839067E+04  0.20023232365E+04 0.  0.
        1    1    3    3  502    0 -0.37983376940E+03  0.39598365250E+03  0.27786221149E+04  0.28322813425E+04  0.50400001928E-02 0. -1.
       -1    1    3    3    0  502  0.37983376940E+03 -0.39598365250E+03 -0.51354559889E+02  0.55110256420E+03  0.50400001928E-02 0.  1.
</event>
<event>
 5   0  0.2379743E-06  0.2000702E+04  0.7818609E-02  0.8606292E-01
        1   -1    0    0  501    0  0.00000000000E+00  0.00000000000E+00  0.55359146553E+03  0.55359146556E+03  0.50400001928E-02 0.  1.
       -1   -1    0    0    0  501  0.00000000000E+00  0.00000000000E+00 -0.18076552386E+04  0.18076552386E+04  0.50400001928E-02 0. -1.
    10030    2    1    2    0    0  0.00000000000E+00  0.00000000000E+00 -0.12540637730E+04  0.23612467041E+04  0.20007023894E+04 0.  0.
        5    1    3    3  502    0 -0.46284588922E+03 -0.35318786788E+03 -0.15870811574E+04  0.16905078164E+04  0.46999998093E+01 0. -1.
       -5    1    3    3    0  502  0.46284588922E+03  0.35318786788E+03  0.33301738438E+03  0.67073888771E+03  0.46999998093E+01 0.  1.
</event>
<event>
 5   0  0.2313821E-06  0.1999815E+04  0.7818609E-02  0.8606707E-01
        1   -1    0    0  501    0  0.00000000000E+00  0.00000000000E+00  0.72962120614E+03  0.72962120615E+03  0.50400001928E-02 0. -1.
       -1   -1    0    0    0  501  0.00000000000E+00  0.00000000000E+00 -0.13703209081E+04  0.13703209081E+04  0.50400001928E-02 0.  1.
    10030    2    1    2    0    0  0.00000000000E+00  0.00000000000E+00 -0.64069970195E+03  0.20999421143E+04  0.19998151852E+04 0.  0.
        1    1    3    3  502    0 -0.63346577598E+03 -0.14946303047E+03 -0.11174318445E+04  0.12931635681E+04  0.50400001928E-02 0.  1.
       -1    1    3    3    0  502  0.63346577598E+03  0.14946303047E+03  0.47673214251E+03  0.80677854616E+03  0.50400001928E-02 0. -1.
</event>
<event>
 5   0  0.5129100E-06  0.2001439E+04  0.7818609E-02  0.8605948E-01
       -2   -1    0    0    0  501  0.00000000000E+00  0.00000000000E+00  0.59157930201E+03  0.59157930202E+03  0.25500000920E-02 0.  1.
        2   -1    0    0  501    0  0.00000000000E+00  0.00000000000E+00 -0.16928244525E+04  0.16928244525E+04  0.25500000920E-02 0. -1.
    10030    2    1    2    0    0  0.00000000000E+00  0.00000000000E+00 -0.11012451505E+04  0.22844037545E+04  0.20014393901E+04 0.  0.
        2    1    3    3  502    0  0.62096257284E+03 -0.53504203368E+03 -0.12058737756E+04  0.14580795785E+04  0.25500000920E-02 0. -1.
       -2    1    3    3    0  502 -0.62096257284E+03  0.53504203368E+03  0.10462862507E+03  0.82632417602E+03  0.25500000920E-02 0.  1.
</event>
<event>
 5   0  0.2386776E-06  0.2003223E+04  0.7818609E-02  0.8605115E-01
        1   -1    0    0  501    0  0.00000000000E+00  0.00000000000E+00  0.12477034139E+04  0.12477034139E+04  0.50400001928E-02 0. -1.
       -1   -1    0    0    0  501  0.00000000000E+00  0.00000000000E+00 -0.80405787666E+03  0.80405787667E+03  0.50400001928E-02 0.  1.
    10030    2    1    2    0    0  0.00000000000E+00  0.00000000000E+00  0.44364553723E+03  0.20517612906E+04  0.20032231605E+04 0.  0.
        2    1    3    3  502    0 -0.47757870271E+01  0.79926560851E+03 -0.39644020362E+03  0.89219569386E+03  0.25500000920E-02 0.  1.
       -2    1    3    3    0  502  0.47757870271E+01 -0.79926560851E+03  0.84008574085E+03  0.11595655967E+04  0.25500000920E-02 0. -1.
</event>
<event>
 5   0  0.5030137E-06  0.2003554E+04  0.7818609E-02  0.8604961E-01
        2   -1    0    0  501    0  0.00000000000E+00  0.00000000000E+00  0.14816419528E+04  0.14816419528E+04  0.25500000920E-02 0.  1.
       -2   -1    0    0    0  501  0.00000000000E+00  0.00000000000E+00 -0.67732793388E+03  0.67732793388E+03  0.25500000920E-02 0. -1.
    10030    2    1    2    0    0  0.00000000000E+00  0.00000000000E+00  0.80431401888E+03  0.21589698866E+04  0.20035543243E+04 0.  0.
        3    1    3    3  502    0  0.75104678452E+03 -0.55829125151E+03  0.16939583331E+02  0.93597401338E+03  0.10100000352E+00 0. -1.
       -3    1    3    3    0  502 -0.75104678452E+03  0.55829125151E+03  0.78737443555E+03  0.12229958733E+04  0.10100000352E+00 0.  1.
</event>
<event>
 5   0  0.5251252E-06  0.2000041E+04  0.7818609E-02  0.8606601E-01
        2   -1    0    0  501    0  0.00000000000E+00  0.00000000000E+00  0.10772651806E+04  0.10772651806E+04  0.25500000920E-02 0. -1.
       -2   -1    0    0    0  501  0.00000000000E+00  0.00000000000E+00 -0.92831470042E+03  0.92831470042E+03  0.25500000920E-02 0.  1.
    10030    2    1    2    0    0  0.00000000000E+00  0.00000000000E+00  0.14895048017E+03  0.20055798810E+04  0.20000411030E+04 0.  0.
        5    1    3    3  502    0  0.33853014081E+03  0.17913811877E+03 -0.85183935090E+03  0.93399437449E+03  0.46999998093E+01 0.  1.
       -5    1    3    3    0  502 -0.33853014081E+03 -0.17913811877E+03  0.10007898311E+04  0.10715855065E+04  0.46999998093E+01 0. -1.
</event>
<event>
 5   0  0.2379743E-06  0.2000167E+04  0.7818609E-02  0.8606543E-01
       -1   -1    0    0    0  501  0.00000000000E+00  0.00000000000E+00  0.48781432393E+03  0.48781432395E+03  0.50400001928E-02 0.  1.
        1   -1    0    0  501    0  0.00000000000E+00  0.00000000000E+00 -0.20503023087E+04  0.20503023088E+04  0.50400001928E-02 0. -1.
    10030    2    1    2    0    0  0.00000000000E+00  0.00000000000E+00 -0.15624879848E+04  0.25381166327E+04  0.20001668277E+04 0.  0.
        5    1    3    3  502    0 -0.30223173628E+03  0.46242768529E+03 -0.18390978726E+04  0.19202829119E+04  0.46999998093E+01 0. -1.
       -5    1    3    3    0  502  0.30223173628E+03 -0.46242768529E+03  0.27660988782E+03  0.61783372082E+03  0.46999998093E+01 0.  1.
</event>
<event>
 5   0  0.2379743E-06  0.1999338E+04  0.7818609E-02  0.8606930E-01
       -1   -1    0    0    0  501  0.00000000000E+00  0.00000000000E+00  0.75290645717E+03  0.75290645719E+03  0.50400001928E-02 0.  1.
        1   -1    0    0  501    0  0.00000000000E+00  0.00000000000E+00 -0.13273065933E+04  0.13273065933E+04  0.50400001928E-02 0. -1.
    10030    2    1    2    0    0  0.00000000000E+00  0.00000000000E+00 -0.57440013611E+03  0.20802130505E+04  0.19993375951E+04 0.  0.
        5    1    3    3  502    0 -0.15420674361E+03 -0.96084142090E+03 -0.49212573984E+02  0.97439207885E+03  0.46999998093E+01 0.  1.
       -5    1    3    3    0  502  0.15420674361E+03  0.96084142090E+03 -0.52518756212E+03  0.11058209716E+04  0.46999998093E+01 0. -1.
</event>
<event>
 5   0  0.4956214E-06  0.2000102E+04  0.7818609E-02  0.8606573E-01
        2   -1    0    0  501    0  0.00000000000E+00  0.00000000000E+00  0.14006935381E+04  0.14006935381E+04  0.25500000920E-02 0. -1.
       -2   -1    0    0    0  501  0.00000000000E+00  0.00000000000E+00 -0.71400487922E+03  0.71400487922E+03  0.25500000920E-02 0.  1.
    10030    2    1    2    0    0  0.00000000000E+00  0.00000000000E+00  0.68668865891E+03  0.21146984174E+04  0.20001020179E+04 0.  0.
        1    1    3    3  502    0  0.20477572918E+03 -0.73492848370E+03  0.10269566954E+04  0.12793330409E+04  0.50400001928E-02 0. -1.
       -1    1    3    3    0  502 -0.20477572918E+03  0.73492848370E+03 -0.34026803648E+03  0.83536537640E+03  0.50400001928E-02 0.  1.
</event>
<event>
 5   0  0.5118981E-06  0.2000103E+04  0.7818609E-02  0.8606572E-01
        2   -1    0    0  501    0  0.00000000000E+00  0.00000000000E+00  0.82261096300E+03  0.82261096301E+03  0.25500000920E-02 0.  1.
       -2   -1    0    0    0  501  0.00000000000E+00  0.00000000000E+00 -0.12157672571E+04  0.12157672571E+04  0.25500000920E-02 0. -1.
    10030    2    1    2    0    0  0.00000000000E+00  0.00000000000E+00 -0.39315629413E+03  0.20383782201E+04  0.20001034715E+04 0.  0.
        4    1    3    3  502    0  0.68124986877E+03  0.71499253650E+03 -0.36129209217E+02  0.98824219886E+03  0.12699999809E+01 0.  1.
       -4    1    3    3    0  502 -0.68124986877E+03 -0.71499253650E+03 -0.35702708491E+03  0.10501360213E+04  0.12699999809E+01 0. -1.
</event>
<event>
 5   0  0.2386776E-06  0.2000926E+04  0.7818609E-02  0.8606188E-01
        1   -1    0    0  501    0  0.00000000000E+00  0.00000000000E+00  0.10934245818E+04  0.10934245818E+04  0.50400001928E-02 0. -1.
       -1   -1    0    0    0  501  0.00000000000E+00  0.00000000000E+00 -0.91540497562E+03  0.91540497564E+03  0.50400001928E-02 0.  1.
    10030    2    1    2    0    0  0.00000000000E+00  0.00000000000E+00  0.17801960618E+03  0.20088295575E+04  0.20009260883E+04 0.  0.
        2    1    3    3  502    0 -0.97770699105E+02 -0.64670059468E+03 -0.67104428545E+03  0.93705987098E+03  0.25500000920E-02 0.  1.
       -2    1    3    3    0  502  0.97770699105E+02  0.64670059468E+03  0.84906389164E+03  0.10717696865E+04  0.25500000920E-02 0. -1.
</event>
<event>
 5   0  0.2356996E-06  0.2000172E+04  0.7818609E-02  0.8606540E-01
        1   -1    0    0  501    0  0.00000000000E+00  0.00000000000E+00  0.19513523767E+04  0.19513523767E+04  0.50400001928E-02 0. -1.
       -1   -1    0    0    0  501  0.00000000000E+00  0.00000000000E+00 -0.51255307577E+03  0.51255307580E+03  0.50400001928E-02 0.  1.
    10030    2    1    2    0    0  0.00000000000E+00  0.00000000000E+00  0.14387993009E+04  0.24639054525E+04  0.20001716552E+04 0.  0.
        4    1    3    3  502    0 -0.23485379273E+03  0.10946453855E+03  0.19092843154E+04  0.19267867031E+04  0.12699999809E+01 0. -1.
       -4    1    3    3    0  502  0.23485379273E+03 -0.10946453855E+03 -0.47048501452E+03  0.53711874939E+03  0.12699999809E+01 0.  1.
</event>
<event>
 5   0  0.5251252E-06  0.1997926E+04  0.7818609E-02  0.8607591E-01
        2   -1    0    0  501    0  0.00000000000E+00  0.00000000000E+00  0.86560985407E+03  0.86560985407E+03  0.25500000920E-02 0.  1.
       -2   -1    0    0    0  501  0.00000000000E+00  0.00000000000E+00 -0.11528602918E+04  0.11528602918E+04  0.25500000920E-02 0. -1.
    10030    2    1    2    0    0  0.00000000000E+00  0.00000000000E+00 -0.28725043770E+03  0.20184701458E+04  0.19979261537E+04 0.  0.
        5    1    3    3  502    0 -0.98482186608E+03 -0.16434880570E+03 -0.11135145370E+03  0.10046421622E+04  0.46999998093E+01 0.  1.
       -5    1    3    3    0  502  0.98482186608E+03  0.16434880570E+03 -0.17589898400E+03  0.10138279836E+04  0.46999998093E+01 0. -1.
</event>
<event>
 5   0  0.2313821E-06  0.2000335E+04  0.7818609E-02  0.8606464E-01
       -1   -1    0    0    0  501  0.00000000000E+00  0.00000000000E+00  0.36292677624E+03  0.36292677628E+03  0.50400001928E-02 0. -1.
        1   -1    0    0  501    0  0.00000000000E+00  0.00000000000E+00 -0.27563011467E+04  0.27563011467E+04  0.50400001928E-02 0.  1.
    10030    2    1    2    0    0  0.00000000000E+00  0.00000000000E+00 -0.23933743705E+04  0.31192279230E+04  0.20003354615E+04 0.  0.
        1    1    3    3  502    0  0.32401176016E+03  0.94547869847E+03 -0.12554873766E+04  0.16047311746E+04  0.50400001928E-02 0.  1.
       -1    1    3    3    0  502 -0.32401176016E+03 -0.94547869847E+03 -0.11378869939E+04  0.15144967484E+04  0.50400001928E-02 0. -1.
</event>
<event>
 5   0  0.5251252E-06  0.2000421E+04  0.7818609E-02  0.8606424E-01
       -2   -1    0    0    0  501  0.00000000000E+00  0.00000000000E+00  0.74121167595E+03  0.74121167595E+03  0.25500000920E-02 0.  1.
        2   -1    0    0  501    0  0.00000000000E+00  0.00000000000E+00 -0.13497099500E+04  0.13497099500E+04  0.25500000920E-02 0. -1.
    10030    2    1    2    0    0  0.00000000000E+00  0.00000000000E+00 -0.60849827408E+03  0.20909216260E+04  0.20004207299E+04 0.  0.
        5    1    3    3  502    0 -0.21482623139E+03 -0.16761401288E+02  0.71665081112E+03  0.74835935842E+03  0.46999998093E+01 0.  1.
       -5    1    3    3    0  502  0.21482623139E+03  0.16761401288E+02 -0.13251490852E+04  0.13425622676E+04  0.46999998093E+01 0. -1.
</event>
<event>
 5   0  0.2386776E-06  0.1999831E+04  0.7818609E-02  0.8606700E-01
        1   -1    0    0  501    0  0.00000000000E+00  0.00000000000E+00  0.16362491550E+04  0.16362491550E+04  0.50400001928E-02 0. -1.
       -1   -1    0    0    0  501  0.00000000000E+00  0.00000000000E+00 -0.61105029673E+03  0.61105029675E+03  0.50400001928E-02 0.  1.
    10030    2    1    2    0    0  0.00000000000E+00  0.00000000000E+00  0.10251988582E+04  0.22472994517E+04  0.19998305245E+04 0.  0.
        2    1    3    3  502    0 -0.86900010492E+03  0.23516287906E+03  0.10016128573E+04  0.13467334844E+04  0.25500000920E-02 0. -1.
       -2    1    3    3    0  502  0.86900010492E+03 -0.23516287906E+03  0.23586000888E+02  0.90056596731E+03  0.25500000920E-02 0.  1.
</event>
<event>
 5   0  0.4956214E-06  0.1999145E+04  0.7818609E-02  0.8607021E-01
        2   -1    0    0  501    0  0.00000000000E+00  0.00000000000E+00  0.21870624161E+04  0.21870624161E+04  0.25500000920E-02 0.  1.
       -2   -1    0    0    0  501  0.00000000000E+00  0.00000000000E+00 -0.45684337175E+03  0.45684337176E+03  0.25500000920E-02 0. -1.
    10030    2    1    2    0    0  0.00000000000E+00  0.00000000000E+00  0.17302190443E+04  0.26439057878E+04  0.19991447855E+04 0.  0.
        1    1    3    3  502    0 -0.26544230657E+03 -0.94271492828E+03  0.11295269434E+04  0.14949923645E+04  0.50400001928E-02 0.  1.
       -1    1    3    3    0  502  0.26544230657E+03  0.94271492828E+03  0.60069210095E+03  0.11489134233E+04  0.50400001928E-02 0. -1.
</event>
<event>
 5   0  0.5129100E-06  0.2001555E+04  0.7818609E-02  0.8605894E-01
       -2   -1    0    0    0  501  0.00000000000E+00  0.00000000000E+00  0.95247699964E+03  0.95247699964E+03  0.25500000920E-02 0.  1.
        2   -1    0    0  501    0  0.00000000000E+00  0.00000000000E+00 -0.10515278632E+04  0.10515278632E+04  0.25500000920E-02 0. -1.
    10030    2    1    2    0    0  0.00000000000E+00  0.00000000000E+00 -0.99050863589E+02  0.20040048629E+04  0.20015554993E+04 0.  0.
        2    1    3    3  502    0  0.64119359924E+03  0.32264080152E+03  0.64870145590E+03  0.96749154901E+03  0.25500000920E-02 0.  1.
       -2    1    3    3    0  502 -0.64119359924E+03 -0.32264080152E+03 -0.74775231949E+03  0.10365133139E+04  0.25500000920E-02 0. -1.
</event>
<event>
 5   0  0.1777750E-06  0.2007678E+04  0.7818609E-02  0.8603039E-01
       -3   -1    0    0    0  501  0.00000000000E+00  0.00000000000E+00  0.13574528019E+04  0.13574528057E+04  0.10100000352E+00 0. -1.
        3   -1    0    0  501    0  0.00000000000E+00  0.00000000000E+00 -0.74234125656E+03  0.74234126343E+03  0.10100000352E+00 0.  1.
    10030    2    1    2    0    0  0.00000000000E+00  0.00000000000E+00  0.61511154537E+03  0.20997940691E+04  0.20076784901E+04 0.  0.
        3    1    3    3  502    0 -0.41335951973E+03 -0.84391078895E+03 -0.61688895940E+02  0.94173087575E+03  0.10100000352E+00 0. -1.
       -3    1    3    3    0  502  0.41335951973E+03  0.84391078895E+03  0.67680044131E+03  0.11580631934E+04  0.10100000352E+00 0.  1.
</event>
<event>
 5   0  0.2356996E-06  0.1999387E+04  0.7818609E-02  0.8606907E-01
       -1   -1    0    0    0  501  0.00000000000E+00  0.00000000000E+00  0.70485390763E+03  0.70485390765E+03  0.50400001928E-02 0. -1.
        1   -1    0    0  501    0  0.00000000000E+00  0.00000000000E+00 -0.14178637008E+04  0.14178637008E+04  0.50400001928E-02 0.  1.
    10030    2    1    2    0    0  0.00000000000E+00  0.00000000000E+00 -0.71300979318E+03  0.21227176085E+04  0.19993866760E+04 0.  0.
        4    1    3    3  502    0  0.45944881238E+03 -0.12232709201E+03 -0.12901402841E+04  0.13749620701E+04  0.12699999809E+01 0.  1.
       -4    1    3    3    0  502 -0.45944881238E+03  0.12232709201E+03  0.57713049095E+03  0.74775553834E+03  0.12699999809E+01 0. -1.
</event>
<event>
 5   0  0.5118981E-06  0.2000284E+04  0.7818609E-02  0.8606488E-01
       -2   -1    0    0    0  501  0.00000000000E+00  0.00000000000E+00  0.10325410684E+04  0.10325410684E+04  0.25500000920E-02 0.  1.
        2   -1    0    0  501    0  0.00000000000E+00  0.00000000000E+00 -0.96875964262E+03  0.96875964262E+03  0.25500000920E-02 0. -1.
    10030    2    1    2    0    0  0.00000000000E+00  0.00000000000E+00  0.63781425748E+02  0.20013007110E+04  0.20002840962E+04 0.  0.
        4    1    3    3  502    0 -0.44884462541E+03 -0.78853399536E+03 -0.38907857412E+03  0.98723407019E+03  0.12699999809E+01 0.  1.
       -4    1    3    3    0  502  0.44884462541E+03  0.78853399536E+03  0.45285999987E+03  0.10140666408E+04  0.12699999809E+01 0. -1.
</event>
<event>
 5   0  0.5251252E-06  0.2000223E+04  0.7818609E-02  0.8606517E-01
       -2   -1    0    0    0  501  0.00000000000E+00  0.00000000000E+00  0.12120715316E+04  0.12120715316E+04  0.25500000920E-02 0. -1.
        2   -1    0    0  501    0  0.00000000000E+00  0.00000000000E+00 -0.82521745652E+03  0.82521745652E+03  0.25500000920E-02 0.  1.
    10030    2    1    2    0    0  0.00000000000E+00  0.00000000000E+00  0.38685407507E+03  0.20372889881E+04  0.20002225740E+04 0.  0.
        5    1    3    3  502    0 -0.63998041619E+03 -0.74384191878E+03  0.39020336185E+03  0.10560097002E+04  0.46999998093E+01 0.  1.
       -5    1    3    3    0  502  0.63998041619E+03  0.74384191878E+03 -0.33492867809E+01  0.98127928795E+03  0.46999998093E+01 0. -1.
</event>
<event>
 5   0  0.2313821E-06  0.1999710E+04  0.7818609E-02  0.8606756E-01
        1   -1    0    0  501    0  0.00000000000E+00  0.00000000000E+00  0.11951777828E+04  0.11951777828E+04  0.50400001928E-02 0.  1.
       -1   -1    0    0    0  501  0.00000000000E+00  0.00000000000E+00 -0.83645304428E+03  0.83645304429E+03  0.50400001928E-02 0. -1.
    10030    2    1    2    0    0  0.00000000000E+00  0.00000000000E+00  0.35872473849E+03  0.20316308271E+04  0.19997100739E+04 0.  0.
        1    1    3    3  502    0 -0.76558963227E+03  0.63861899962E+03  0.25639072237E+03  0.10294162978E+04  0.50400001928E-02 0.  1.
       -1    1    3    3    0  502  0.76558963227E+03 -0.63861899962E+03  0.10233401612E+03  0.10022145292E+04  0.50400001928E-02 0. -1.
</event>
<event>
 5   0  0.5118981E-06  0.2001210E+04  0.7818609E-02  0.8606055E-01
       -2   -1    0    0    0  501  0.00000000000E+00  0.00000000000E+00  0.14999370861E+04  0.14999370861E+04  0.25500000920E-02 0.  1.
        2   -1    0    0  501    0  0.00000000000E+00  0.00000000000E+00 -0.66750184772E+03  0.66750184773E+03  0.25500000920E-02 0. -1.
    10030    2    1    2    0    0  0.00000000000E+00  0.00000000000E+00  0.83243523834E+03  0.21674389338E+04  0.20012104102E+04 0.  0.
        4    1    3    3  502    0 -0.57843301058E+03 -0.78298345939E+03  0.66687456584E+03  0.11799877732E+04  0.12699999809E+01 0.  1.
       -4    1    3    3    0  502  0.57843301058E+03  0.78298345939E+03  0.16556067250E+03  0.98745116061E+03  0.12699999809E+01 0. -1.
</event>
<event>
 5   0  0.2311520E-06  0.1999076E+04  0.7818609E-02  0.8607053E-01
       -1   -1    0    0    0  501  0.00000000000E+00  0.00000000000E+00  0.11939325251E+04  0.11939325251E+04  0.50400001928E-02 0. -1.
        1   -1    0    0  501    0  0.00000000000E+00  0.00000000000E+00 -0.83679466378E+03  0.83679466379E+03  0.50400001928E-02 0.  1.
    10030    2    1    2    0    0  0.00000000000E+00  0.00000000000E+00  0.35713786134E+03  0.20307271889E+04  0.19990761526E+04 0.  0.
        3    1    3    3  502    0 -0.74828010570E+03  0.13730920404E+03 -0.48000061140E+03  0.89954295687E+03  0.10100000352E+00 0.  1.
       -3    1    3    3    0  502  0.74828010570E+03 -0.13730920404E+03  0.83713847274E+03  0.11311842321E+04  0.10100000352E+00 0. -1.
</event>
<event>
 5   0  0.2386776E-06  0.1999765E+04  0.7818609E-02  0.8606730E-01
       -1   -1    0    0    0  501  0.00000000000E+00  0.00000000000E+00  0.39200070036E+03  0.39200070039E+03  0.50400001928E-02 0. -1.
        1   -1    0    0  501    0  0.00000000000E+00  0.00000000000E+00 -0.25504174061E+04  0.25504174061E+04  0.50400001928E-02 0.  1.
    10030    2    1    2    0    0  0.00000000000E+00  0.00000000000E+00 -0.21584167057E+04  0.29424181065E+04  0.19997653957E+04 0.  0.
        2    1    3    3  502    0  0.17994407585E+03  0.97668873095E+03 -0.90847315553E+03  0.13459659067E+04  0.25500000920E-02 0.  1.
       -2    1    3    3    0  502 -0.17994407585E+03 -0.97668873095E+03 -0.12499435502E+04  0.15964521998E+04  0.25500000920E-02 0. -1.
</event>
<event>
 5   0  0.2386776E-06  0.1999844E+04  0.7818609E-02  0.8606694E-01
       -1   -1    0    0    0  501  0.00000000000E+00  0.00000000000E+00  0.13220593645E+04  0.13220593645E+04  0.50400001928E-02 0. -1.
        1   -1    0    0  501    0  0.00000000000E+00  0.00000000000E+00 -0.75627781035E+03  0.75627781037E+03  0.50400001928E-02 0.  1.
    10030    2    1    2    0    0  0.00000000000E+00  0.00000000000E+00  0.56578155417E+03  0.20783371749E+04  0.19998441553E+04 0.  0.
        2    1    3    3  502    0 -0.96994766496E+03 -0.20460552564E+03  0.41911680407E+03  0.10762531251E+04  0.25500000920E-02 0. -1.
       -2    1    3    3    0  502  0.96994766496E+03  0.20460552564E+03  0.14666475010E+03  0.10020840498E+04  0.25500000920E-02 0.  1.
</event>
<event>
 5   0  0.2313821E-06  0.1999815E+04  0.7818609E-02  0.8606707E-01
       -1   -1    0    0    0  501  0.00000000000E+00  0.00000000000E+00  0.52253191274E+03  0.52253191276E+03  0.50400001928E-02 0.  1.
        1   -1    0    0  501    0  0.00000000000E+00  0.00000000000E+00 -0.19134042074E+04  0.19134042074E+04  0.50400001928E-02 0. -1.
    10030    2    1    2    0    0  0.00000000000E+00  0.00000000000E+00 -0.13908722947E+04  0.24359361202E+04  0.19998147518E+04 0.  0.
        1    1    3    3  502    0  0.69349174445E+03 -0.33869756701E+03 -0.14698213516E+04  0.16601269973E+04  0.50400001928E-02 0. -1.
       -1    1    3    3    0  502 -0.69349174445E+03  0.33869756701E+03  0.78949056930E+02  0.77580912287E+03  0.50400001928E-02 0.  1.
</event>
<event>
 5   0  0.2379743E-06  0.1997349E+04  0.7818609E-02  0.8607861E-01
        1   -1    0    0  501    0  0.00000000000E+00  0.00000000000E+00  0.10890178149E+04  0.10890178149E+04  0.50400001928E-02 0. -1.
       -1   -1    0    0    0  501  0.00000000000E+00  0.00000000000E+00 -0.91582597543E+03  0.91582597544E+03  0.50400001928E-02 0.  1.
    10030    2    1    2    0    0  0.00000000000E+00  0.00000000000E+00  0.17319183950E+03  0.20048437904E+04  0.19973490458E+04 0.  0.
        5    1    3    3  502    0 -0.54713936633E+03 -0.64033934547E+02 -0.74951645821E+03  0.93019290585E+03  0.46999998093E+01 0.  1.
       -5    1    3    3    0  502  0.54713936633E+03  0.64033934547E+02  0.92270829771E+03  0.10746508845E+04  0.46999998093E+01 0. -1.
</event>
<event>
 5   0  0.2386776E-06  0.1999681E+04  0.7818609E-02  0.8606770E-01
       -1   -1    0    0    0  501  0.00000000000E+00  0.00000000000E+00  0.63260727267E+03  0.63260727269E+03  0.50400001928E-02 0.  1.
        1   -1    0    0  501    0  0.00000000000E+00  0.00000000000E+00 -0.15802548664E+04  0.15802548664E+04  0.50400001928E-02 0. -1.
    10030    2    1    2    0    0  0.00000000000E+00  0.00000000000E+00 -0.94764759372E+03  0.22128621391E+04  0.19996806957E+04 0.  0.
        2    1    3    3  502    0  0.87022784676E+03 -0.48237837180E+03 -0.36486185610E+03  0.10597686412E+04  0.25500000920E-02 0. -1.
       -2    1    3    3    0  502 -0.87022784676E+03  0.48237837180E+03 -0.58278573762E+03  0.11530934979E+04  0.25500000920E-02 0.  1.
</event>
<event>
 5   0  0.5118981E-06  0.1999149E+04  0.7818609E-02  0.8607019E-01
        2   -1    0    0  501    0  0.00000000000E+00  0.00000000000E+00  0.10150737077E+04  0.10150737077E+04  0.25500000920E-02 0.  1.
       -2   -1    0    0    0  501  0.00000000000E+00  0.00000000000E+00 -0.98431207844E+03  0.98431207845E+03  0.25500000920E-02 0. -1.
    10030    2    1    2    0    0  0.00000000000E+00  0.00000000000E+00  0.30761629230E+02  0.19993857861E+04  0.19991491300E+04 0.  0.
        4    1    3    3  502    0  0.49045839126E+03  0.72916634138E+03  0.49179286097E+03  0.10070227495E+04  0.12699999809E+01 0.  1.
       -4    1    3    3    0  502 -0.49045839126E+03 -0.72916634138E+03 -0.46103123174E+03  0.99236303665E+03  0.12699999809E+01 0. -1.
</event>
<event>
 5   0  0.5118981E-06  0.1997630E+04  0.7818609E-02  0.8607730E-01
       -2   -1    0    0    0  501  0.00000000000E+00  0.00000000000E+00  0.50440210435E+03  0.50440210436E+03  0.25500000920E-02 0. -1.
        2   -1    0    0  501    0  0.00000000000E+00  0.00000000000E+00 -0.19778488012E+04  0.19778488012E+04  0.25500000920E-02 0.  1.
    10030    2    1    2    0    0  0.00000000000E+00  0.00000000000E+00 -0.14734466968E+04  0.24822509055E+04  0.19976296928E+04 0.  0.
        4    1    3    3  502    0  0.50217173465E+03 -0.85493829542E+03 -0.58692174404E+03  0.11522042729E+04  0.12699999809E+01 0. -1.
       -4    1    3    3    0  502 -0.50217173465E+03  0.85493829542E+03 -0.88652495276E+03  0.13300466326E+04  0.12699999809E+01 0.  1.
</event>
<event>
 5   0  0.4956214E-06  0.1998794E+04  0.7818609E-02  0.8607185E-01
        2   -1    0    0  501    0  0.00000000000E+00  0.00000000000E+00  0.13733950831E+04  0.13733950831E+04  0.25500000920E-02 0. -1.
       -2   -1    0    0    0  501  0.00000000000E+00  0.00000000000E+00 -0.72724448634E+03  0.72724448634E+03  0.25500000920E-02 0.  1.
    10030    2    1    2    0    0  0.00000000000E+00  0.00000000000E+00  0.64615059681E+03  0.21006395695E+04  0.19987936380E+04 0.  0.
        1    1    3    3  502    0  0.32604245761E+03  0.93736591286E+03  0.44669293386E+03  0.10883442084E+04  0.50400001928E-02 0. -1.
       -1    1    3    3    0  502 -0.32604245761E+03 -0.93736591286E+03  0.19945766295E+03  0.10122953611E+04  0.50400001928E-02 0.  1.
</event>
<event>
 5   0  0.2356996E-06  0.2000084E+04  0.7818609E-02  0.8606581E-01
        1   -1    0    0  501    0  0.00000000000E+00  0.00000000000E+00  0.97430936911E+03  0.97430936912E+03  0.50400001928E-02 0.  1.
       -1   -1    0    0    0  501  0.00000000000E+00  0.00000000000E+00 -0.10264541425E+04  0.10264541425E+04  0.50400001928E-02 0. -1.
    10030    2    1    2    0    0  0.00000000000E+00  0.00000000000E+00 -0.52144773354E+02  0.20007635116E+04  0.20000838862E+04 0.  0.
        4    1    3    3  502    0  0.14153491073E+03 -0.82869053307E+02 -0.10129079092E+04  0.10261010946E+04  0.12699999809E+01 0. -1.
       -4    1    3    3    0  502 -0.14153491073E+03  0.82869053307E+02  0.96076313585E+03  0.97466241698E+03  0.12699999809E+01 0.  1.
</event>
<event>
 5   0  0.2356996E-06  0.1998915E+04  0.7818609E-02  0.8607128E-01
       -1   -1    0    0    0  501  0.00000000000E+00  0.00000000000E+00  0.61645546125E+03  0.61645546127E+03  0.50400001928E-02 0.  1.
        1   -1    0    0  501    0  0.00000000000E+00  0.00000000000E+00 -0.16204177083E+04  0.16204177083E+04  0.50400001928E-02 0. -1.
    10030    2    1    2    0    0  0.00000000000E+00  0.00000000000E+00 -0.10039622470E+04  0.22368731696E+04  0.19989150515E+04 0.  0.
        4    1    3    3  502    0 -0.11106694924E+03 -0.97584007394E+03 -0.29468900236E+03  0.10253989166E+04  0.12699999809E+01 0. -1.
       -4    1    3    3    0  502  0.11106694924E+03  0.97584007394E+03 -0.70927324466E+03  0.12114742530E+04  0.12699999809E+01 0.  1.
</event>
<event>
 5   0  0.5251252E-06  0.2000410E+04  0.7818609E-02  0.8606429E-01
       -2   -1    0    0    0  501  0.00000000000E+00  0.00000000000E+00  0.11550985637E+04  0.11550985637E+04  0.25500000920E-02 0.  1.
        2   -1    0    0  501    0  0.00000000000E+00  0.00000000000E+00 -0.86608231094E+03  0.86608231095E+03  0.25500000920E-02 0. -1.
    10030    2    1    2    0    0  0.00000000000E+00  0.00000000000E+00  0.28901625280E+03  0.20211808747E+04  0.20004103914E+04 0.  0.
        5    1    3    3  502    0 -0.15243777140E+03 -0.98394664948E+03  0.48654447180E+02  0.99688395935E+03  0.46999998093E+01 0. -1.
       -5    1    3    3    0  502  0.15243777140E+03  0.98394664948E+03  0.24036180562E+03  0.10242969153E+04  0.46999998093E+01 0.  1.
</event>
<event>
 5   0  0.2379743E-06  0.1998036E+04  0.7818609E-02  0.8607539E-01
        1   -1    0    0  501    0  0.00000000000E+00  0.00000000000E+00  0.13599393120E+04  0.13599393120E+04  0.50400001928E-02 0.  1.
       -1   -1    0    0    0  501  0.00000000000E+00  0.00000000000E+00 -0.73388347222E+03  0.73388347223E+03  0.50400001928E-02 0. -1.
    10030    2    1    2    0    0  0.00000000000E+00  0.00000000000E+00  0.62605583978E+03  0.20938227842E+04  0.19980360200E+04 0.  0.
        5    1    3    3  502    0  0.77664143581E+02  0.69080186798E+03 -0.43884723515E+03  0.82209970551E+03  0.46999998093E+01 0. -1.
       -5    1    3    3    0  502 -0.77664143581E+02 -0.69080186798E+03  0.10649030749E+04  0.12717230787E+04  0.46999998093E+01 0.  1.
</event>
<event>
 5   0  0.1777750E-06  0.1998921E+04  0.7818609E-02  0.8607125E-01
        3   -1    0    0  501    0  0.00000000000E+00  0.00000000000E+00  0.12298797066E+04  0.12298797108E+04  0.10100000352E+00 0. -1.
       -3   -1    0    0    0  501  0.00000000000E+00  0.00000000000E+00 -0.81221065070E+03  0.81221065698E+03  0.10100000352E+00 0.  1.
    10030    2    1    2    0    0  0.00000000000E+00  0.00000000000E+00  0.41766905594E+03  0.20420903678E+04  0.19989211165E+04 0.  0.
        2    1    3    3  502    0  0.33702833304E+03 -0.57230049232E+03 -0.55415869440E+03  0.86499006316E+03  0.25500000920E-02 0.  1.
       -2    1    3    3    0  502 -0.33702833304E+03  0.57230049232E+03  0.97182775034E+03  0.11771003046E+04  0.25500000920E-02 0. -1.
</event>
<event>
 5   0  0.5129100E-06  0.2000654E+04  0.7818609E-02  0.8606315E-01
       -2   -1    0    0    0  501  0.00000000000E+00  0.00000000000E+00  0.61214560601E+03  0.61214560602E+03  0.25500000920E-02 0.  1.
        2   -1    0    0  501    0  0.00000000000E+00  0.00000000000E+00 -0.16346673694E+04  0.16346673694E+04  0.25500000920E-02 0. -1.
    10030    2    1    2    0    0  0.00000000000E+00  0.00000000000E+00 -0.10225217634E+04  0.22468129754E+04  0.20006543404E+04 0.  0.
        2    1    3    3  502    0 -0.42441089105E+03 -0.54607270140E+03 -0.13229116364E+04  0.14927877268E+04  0.25500000920E-02 0. -1.
       -2    1    3    3    0  502  0.42441089105E+03  0.54607270140E+03  0.30038987303E+03  0.75402524857E+03  0.25500000920E-02 0.  1.
</event>
<event>
 5   0  0.2311520E-06  0.2000104E+04  0.7818609E-02  0.8606572E-01
       -1   -1    0    0    0  501  0.00000000000E+00  0.00000000000E+00  0.74421687059E+03  0.74421687061E+03  0.50400001928E-02 0.  1.
        1   -1    0    0  501    0  0.00000000000E+00  0.00000000000E+00 -0.13438347177E+04  0.13438347177E+04  0.50400001928E-02 0. -1.
    10030    2    1    2    0    0  0.00000000000E+00  0.00000000000E+00 -0.59961784709E+03  0.20880515883E+04  0.20001044655E+04 0.  0.
        3    1    3    3  502    0 -0.65946380532E+03  0.53084535066E+03  0.25596745468E+03  0.88442560168E+03  0.10100000352E+00 0.  1.
       -3    1    3    3    0  502  0.65946380532E+03 -0.53084535066E+03 -0.85558530177E+03  0.12036259866E+04  0.10100000352E+00 0. -1.
</event>
<event>
 5   0  0.5030137E-06  0.2000578E+04  0.7818609E-02  0.8606351E-01
       -2   -1    0    0    0  501  0.00000000000E+00  0.00000000000E+00  0.66785274648E+03  0.66785274649E+03  0.25500000920E-02 0. -1.
        2   -1    0    0  501    0  0.00000000000E+00  0.00000000000E+00 -0.14982012938E+04  0.14982012938E+04  0.25500000920E-02 0.  1.
    10030    2    1    2    0    0  0.00000000000E+00  0.00000000000E+00 -0.83034854730E+03  0.21660540403E+04  0.20005777654E+04 0.  0.
        3    1    3    3  502    0  0.56659054202E+03  0.96758483273E+02 -0.13015402523E+04  0.14228120343E+04  0.10100000352E+00 0.  1.
       -3    1    3    3    0  502 -0.56659054202E+03 -0.96758483273E+02  0.47119170500E+03  0.74324200598E+03  0.10100000352E+00 0. -1.
</event>
<event>
 5   0  0.5118981E-06  0.1998255E+04  0.7818609E-02  0.8607437E-01
        2   -1    0    0  501    0  0.00000000000E+00  0.00000000000E+00  0.79917324080E+03  0.79917324081E+03  0.25500000920E-02 0.  1.
       -2   -1    0    0    0  501  0.00000000000E+00  0.00000000000E+00 -0.12491102552E+04  0.12491102552E+04  0.25500000920E-02 0. -1.
    10030    2    1    2    0    0  0.00000000000E+00  0.00000000000E+00 -0.44993701441E+03  0.20482834960E+04  0.19982547293E+04 0.  0.
        4    1    3    3  502    0  0.60580867997E+03  0.38139441549E+03 -0.93940333366E+03  0.11810783603E+04  0.12699999809E+01 0. -1.
       -4    1    3    3    0  502 -0.60580867997E+03 -0.38139441549E+03  0.48946631925E+03  0.86720513576E+03  0.12699999809E+01 0.  1.
</event>
<event>
 5   0  0.5118981E-06  0.2000225E+04  0.7818609E-02  0.8606515E-01
        2   -1    0    0  501    0  0.00000000000E+00  0.00000000000E+00  0.19431739918E+04  0.19431739918E+04  0.25500000920E-02 0. -1.
       -2   -1    0    0    0  501  0.00000000000E+00  0.00000000000E+00 -0.51473792702E+03  0.51473792703E+03  0.25500000920E-02 0.  1.
    10030    2    1    2    0    0  0.00000000000E+00  0.00000000000E+00  0.14284360648E+04  0.24579119189E+04  0.20002253397E+04 0.  0.
        4    1    3    3  502    0 -0.63389176898E+03 -0.62727878233E+03  0.12704887945E+04  0.15522373644E+04  0.12699999809E+01 0. -1.
       -4    1    3    3    0  502  0.63389176898E+03  0.62727878233E+03  0.15794727031E+03  0.90567455449E+03  0.12699999809E+01 0.  1.
</event>
<event>
 5   0  0.2386776E-06  0.2000078E+04  0.7818609E-02  0.8606584E-01
        1   -1    0    0  501    0  0.00000000000E+00  0.00000000000E+00  0.27967844678E+04  0.27967844678E+04  0.50400001928E-02 0. -1.
       -1   -1    0    0    0  501  0.00000000000E+00  0.00000000000E+00 -0.35758122450E+03  0.35758122453E+03  0.50400001928E-02 0.  1.
    10030    2    1    2    0    0  0.00000000000E+00  0.00000000000E+00  0.24392032433E+04  0.31543656924E+04  0.20000776132E+04 0.  0.
        2    1    3    3  502    0 -0.78415071948E+02 -0.41899488270E+03  0.26463275940E+04  0.26804393987E+04  0.25500000920E-02 0. -1.
       -2    1    3    3    0  502  0.78415071948E+02  0.41899488270E+03 -0.20712435064E+03  0.47392629371E+03  0.25500000920E-02 0.  1.
</event>
<event>
 5   0  0.4956214E-06  0.2000128E+04  0.7818609E-02  0.8606561E-01
       -2   -1    0    0    0  501  0.00000000000E+00  0.00000000000E+00  0.36211334805E+03  0.36211334806E+03  0.25500000920E-02 0.  1.
        2   -1    0    0  501    0  0.00000000000E+00  0.00000000000E+00 -0.27619198974E+04  0.27619198974E+04  0.25500000920E-02 0. -1.
    10030    2    1    2    0    0  0.00000000000E+00  0.00000000000E+00 -0.23998065494E+04  0.31240332455E+04  0.20001280570E+04 0.  0.
        1    1    3    3  502    0  0.89300055423E+03 -0.42235366734E+03 -0.14433591877E+04  0.17490335488E+04  0.50400001928E-02 0.  1.
       -1    1    3    3    0  502 -0.89300055423E+03  0.42235366734E+03 -0.95644736170E+03  0.13749996967E+04  0.50400001928E-02 0. -1.
</event>
<event>
 5   0  0.2313821E-06  0.2000428E+04  0.7818609E-02  0.8606421E-01
       -1   -1    0    0    0  501  0.00000000000E+00  0.00000000000E+00  0.72829218312E+03  0.72829218314E+03  0.50400001928E-02 0. -1.
        1   -1    0    0  501    0  0.00000000000E+00  0.00000000000E+00 -0.13736631048E+04  0.13736631048E+04  0.50400001928E-02 0.  1.
    10030    2    1    2    0    0  0.00000000000E+00  0.00000000000E+00 -0.64537092170E+03  0.21019552880E+04  0.20004280557E+04 0.  0.
        1    1    3    3  502    0  0.11250189855E+03  0.62288393895E+02 -0.13649408727E+04  0.13709850864E+04  0.50400001928E-02 0.  1.
       -1    1    3    3    0  502 -0.11250189855E+03 -0.62288393895E+02  0.71956995099E+03  0.73097020157E+03  0.50400001928E-02 0. -1.
</event>
<event>
 5   0  0.2379743E-06  0.2000148E+04  0.7818609E-02  0.8606552E-01
       -1   -1    0    0    0  501  0.00000000000E+00  0.00000000000E+00  0.13092284237E+04  0.13092284237E+04  0.50400001928E-02 0. -1.
        1   -1    0    0  501    0  0.00000000000E+00  0.00000000000E+00 -0.76392144425E+03  0.76392144426E+03  0.50400001928E-02 0.  1.
    10030    2    1    2    0    0  0.00000000000E+00  0.00000000000E+00  0.54530697946E+03  0.20731498680E+04  0.20001476629E+04 0.  0.
        5    1    3    3  502    0 -0.94394410429E+03  0.28880235861E+03  0.10652796912E+03  0.99287842789E+03  0.46999998093E+01 0. -1.
       -5    1    3    3    0  502  0.94394410429E+03 -0.28880235861E+03  0.43877901033E+03  0.10802714401E+04  0.46999998093E+01 0.  1.
</event>
<event>
 5   0  0.4956214E-06  0.2000490E+04  0.7818609E-02  0.8606392E-01
        2   -1    0    0  501    0  0.00000000000E+00  0.00000000000E+00  0.80110342899E+03  0.80110342899E+03  0.25500000920E-02 0.  1.
       -2   -1    0    0    0  501  0.00000000000E+00  0.00000000000E+00 -0.12488896245E+04  0.12488896245E+04  0.25500000920E-02 0. -1.
    10030    2    1    2    0    0  0.00000000000E+00  0.00000000000E+00 -0.44778619554E+03  0.20499930535E+04  0.20004897007E+04 0.  0.
        1    1    3    3  502    0 -0.98028900026E+03  0.16555162793E+03 -0.33668912960E+03  0.10496349058E+04  0.50400001928E-02 0. -1.
       -1    1    3    3    0  502  0.98028900026E+03 -0.16555162793E+03 -0.11109706594E+03  0.10003581477E+04  0.50400001928E-02 0.  1.
</event>
<event>
 5   0  0.2379743E-06  0.1999716E+04  0.7818609E-02  0.8606754E-01
       -1   -1    0    0    0  501  0.00000000000E+00  0.00000000000E+00  0.88008414484E+03  0.88008414486E+03  0.50400001928E-02 0.  1.
        1   -1    0    0  501    0  0.00000000000E+00  0.00000000000E+00 -0.11359321060E+04  0.11359321060E+04  0.50400001928E-02 0. -1.
    10030    2    1    2    0    0  0.00000000000E+00  0.00000000000E+00 -0.25584796115E+03  0.20160162509E+04  0.19997158159E+04 0.  0.
        5    1    3    3  502    0  0.10750006624E+02 -0.73981761876E+03 -0.80589965269E+03  0.10940484504E+04  0.46999998093E+01 0. -1.
       -5    1    3    3    0  502 -0.10750006624E+02  0.73981761876E+03  0.55005169154E+03  0.92196780044E+03  0.46999998093E+01 0.  1.
</event>
<event>
 5   0  0.2311520E-06  0.2000168E+04  0.7818609E-02  0.8606542E-01
       -1   -1    0    0    0  501  0.00000000000E+00  0.00000000000E+00  0.11856780642E+04  0.11856780642E+04  0.50400001928E-02 0.  1.
        1   -1    0    0  501    0  0.00000000000E+00  0.00000000000E+00 -0.84354085827E+03  0.84354085828E+03  0.50400001928E-02 0. -1.
    10030    2    1    2    0    0  0.00000000000E+00  0.00000000000E+00  0.34213720589E+03  0.20292189225E+04  0.20001678848E+04 0.  0.
        3    1    3    3  502    0 -0.31855577536E+02 -0.97449308344E+03 -0.54686042809E+02  0.97654601580E+03  0.10100000352E+00 0.  1.
       -3    1    3    3    0  502  0.31855577536E+02  0.97449308344E+03  0.39682324870E+03  0.10526729067E+04  0.10100000352E+00 0. -1.
</event>
<event>
 5   0  0.2356996E-06  0.2001125E+04  0.7818609E-02  0.8606095E-01
       -1   -1    0    0    0  501  0.00000000000E+00  0.00000000000E+00  0.10633260940E+04  0.10633260940E+04  0.50400001928E-02 0. -1.
        1   -1    0    0  501    0  0.00000000000E+00  0.00000000000E+00 -0.94150369025E+03  0.94150369026E+03  0.50400001928E-02 0.  1.
    10030    2    1    2    0    0  0.00000000000E+00  0.00000000000E+00  0.12182240371E+03  0.20048297842E+04  0.20011251249E+04 0.  0.
        4    1    3    3  502    0  0.39613095732E+03  0.84435196160E+02  0.97752289337E+03  0.10581123086E+04  0.12699999809E+01 0. -1.
       -4    1    3    3    0  502 -0.39613095732E+03 -0.84435196160E+02 -0.85570048967E+03  0.94671747561E+03  0.12699999809E+01 0.  1.
</event>
<event>
 5   0  0.5251252E-06  0.1999985E+04  0.7818609E-02  0.8606628E-01
        2   -1    0    0  501    0  0.00000000000E+00  0.00000000000E+00  0.10986346592E+04  0.10986346592E+04  0.25500000920E-02 0. -1.
       -2   -1    0    0    0  501  0.00000000000E+00  0.00000000000E+00 -0.91020729724E+03  0.91020729724E+03  0.25500000920E-02 0.  1.
    10030    2    1    2    0    0  0.00000000000E+00  0.00000000000E+00  0.18842736193E+03  0.20088419564E+04  0.19999852837E+04 0.  0.
        5    1    3    3  502    0 -0.77013359389E+03 -0.49003109481E+03 -0.31591665697E+03  0.96595116361E+03  0.46999998093E+01 0.  1.
       -5    1    3    3    0  502  0.77013359389E+03  0.49003109481E+03  0.50434401889E+03  0.10428907928E+04  0.46999998093E+01 0. -1.
</event>
<event>
 5   0  0.4956214E-06  0.2001512E+04  0.7818609E-02  0.8605914E-01
        2   -1    0    0  501    0  0.00000000000E+00  0.00000000000E+00  0.12010940907E+04  0.12010940907E+04  0.25500000920E-02 0. -1.
       -2   -1    0    0    0  501  0.00000000000E+00  0.00000000000E+00 -0.83383323527E+03  0.83383323528E+03  0.25500000920E-02 0.  1.
    10030    2    1    2    0    0  0.00000000000E+00  0.00000000000E+00  0.36726085545E+03  0.20349273260E+04  0.20015116003E+04 0.  0.
        1    1    3    3  502    0  0.77468084670E+03  0.39052643404E+03  0.69082876119E+03  0.11090021133E+04  0.50400001928E-02 0. -1.
       -1    1    3    3    0  502 -0.77468084670E+03 -0.39052643404E+03 -0.32356790573E+03  0.92592521273E+03  0.50400001928E-02 0.  1.
</event>
<event>
 5   0  0.2386776E-06  0.1999935E+04  0.7818609E-02  0.8606651E-01
        1   -1    0    0  501    0  0.00000000000E+00  0.00000000000E+00  0.77793780087E+03  0.77793780089E+03  0.50400001928E-02 0. -1.
       -1   -1    0    0    0  501  0.00000000000E+00  0.00000000000E+00 -0.12853659080E+04  0.12853659080E+04  0.50400001928E-02 0.  1.
    10030    2    1    2    0    0  0.00000000000E+00  0.00000000000E+00 -0.50742810710E+03  0.20633037089E+04  0.19999347267E+04 0.  0.
        2    1    3    3  502    0  0.82708153928E+02  0.30790280841E+03  0.72409849786E+03  0.79117849614E+03  0.25500000920E-02 0. -1.
       -2    1    3    3    0  502 -0.82708153928E+02 -0.30790280841E+03 -0.12315266050E+04  0.12721252127E+04  0.25500000920E-02 0.  1.
</event>
<event>
 5   0  0.2379743E-06  0.2000935E+04  0.7818609E-02  0.8606183E-01
       -1   -1    0    0    0  501  0.00000000000E+00  0.00000000000E+00  0.71025245321E+03  0.71025245323E+03  0.50400001928E-02 0. -1.
        1   -1    0    0  501    0  0.00000000000E+00  0.00000000000E+00 -0.14092672929E+04  0.14092672929E+04  0.50400001928E-02 0.  1.
    10030    2    1    2    0    0  0.00000000000E+00  0.00000000000E+00 -0.69901483965E+03  0.21195197461E+04  0.20009353333E+04 0.  0.
        5    1    3    3  502    0 -0.70862914611E+02  0.22167678091E+03 -0.13801839151E+04  0.13996756329E+04  0.46999998093E+01 0.  1.
       -5    1    3    3    0  502  0.70862914611E+02 -0.22167678091E+03  0.68116907548E+03  0.71984411316E+03  0.46999998093E+01 0. -1.
</event>
<event>
 5   0  0.5030137E-06  0.2000088E+04  0.7818609E-02  0.8606580E-01
        2   -1    0    0  501    0  0.00000000000E+00  0.00000000000E+00  0.18669448149E+04  0.18669448149E+04  0.25500000920E-02 0.  1.
       -2   -1    0    0    0  501  0.00000000000E+00  0.00000000000E+00 -0.53568156070E+03  0.53568156070E+03  0.25500000920E-02 0. -1.
    10030    2    1    2    0    0  0.00000000000E+00  0.00000000000E+00  0.13312632542E+04  0.24026263756E+04  0.20000879103E+04 0.  0.
        3    1    3    3  502    0  0.47077036213E+03  0.22688298716E+03 -0.35860561056E+03  0.63379698473E+03  0.10100000352E+00 0. -1.
       -3    1    3    3    0  502 -0.47077036213E+03 -0.22688298716E+03  0.16898688648E+04  0.17688293909E+04  0.10100000352E+00 0.  1.
</event>
<event>
 5   0  0.4956214E-06  0.1999977E+04  0.7818609E-02  0.8606632E-01
        2   -1    0    0  501    0  0.00000000000E+00  0.00000000000E+00  0.20786192306E+04  0.20786192306E+04  0.25500000920E-02 0.  1.
       -2   -1    0    0    0  501  0.00000000000E+00  0.00000000000E+00 -0.48107733673E+03  0.48107733674E+03  0.25500000920E-02 0. -1.
    10030    2    1    2    0    0  0.00000000000E+00  0.00000000000E+00  0.15975418939E+04  0.25596965673E+04  0.19999766034E+04 0.  0.
        1    1    3    3  502    0  0.65803002765E+03 -0.69150318865E+02  0.17584049736E+04  0.18787691010E+04  0.50400001928E-02 0.  1.
       -1    1    3    3    0  502 -0.65803002765E+03  0.69150318865E+02 -0.16086307974E+03  0.68092746628E+03  0.50400001928E-02 0. -1.
</event>
<event>
 5   0  0.1777750E-06  0.1998096E+04  0.7818609E-02  0.8607512E-01
        3   -1    0    0  501    0  0.00000000000E+00  0.00000000000E+00  0.11160104955E+04  0.11160105001E+04  0.10100000352E+00 0. -1.
       -3   -1    0    0    0  501  0.00000000000E+00  0.00000000000E+00 -0.89434334310E+03  0.89434334880E+03  0.10100000352E+00 0.  1.
    10030    2    1    2    0    0  0.00000000000E+00  0.00000000000E+00  0.22166715245E+03  0.20103538489E+04  0.19980956612E+04 0.  0.
        4    1    3    3  502    0 -0.78747366607E+02  0.30246940899E+03  0.10655522881E+04  0.11104468392E+04  0.12699999809E+01 0. -1.
       -4    1    3    3    0  502  0.78747366607E+02 -0.30246940899E+03 -0.84388513563E+03  0.89990700973E+03  0.12699999809E+01 0.  1.
</event>
<event>
 5   0  0.2386776E-06  0.1998988E+04  0.7818609E-02  0.8607094E-01
        1   -1    0    0  501    0  0.00000000000E+00  0.00000000000E+00  0.92703549014E+03  0.92703549015E+03  0.50400001928E-02 0.  1.
       -1   -1    0    0    0  501  0.00000000000E+00  0.00000000000E+00 -0.10776154802E+04  0.10776154802E+04  0.50400001928E-02 0. -1.
    10030    2    1    2    0    0  0.00000000000E+00  0.00000000000E+00 -0.15057999004E+03  0.20046509703E+04  0.19989875386E+04 0.  0.
        2    1    3    3  502    0  0.72786657423E+03 -0.34123427510E+03 -0.67090637680E+03  0.10470653976E+04  0.25500000920E-02 0. -1.
       -2    1    3    3    0  502 -0.72786657423E+03  0.34123427510E+03  0.52032638676E+03  0.95758557276E+03  0.25500000920E-02 0.  1.
</event>
<event>
 5   0  0.2379743E-06  0.2002523E+04  0.7818609E-02  0.8605442E-01
        1   -1    0    0  501    0  0.00000000000E+00  0.00000000000E+00  0.15355962878E+04  0.15355962878E+04  0.50400001928E-02 0. -1.
       -1   -1    0    0    0  501  0.00000000000E+00  0.00000000000E+00 -0.65285655260E+03  0.65285655262E+03  0.50400001928E-02 0.  1.
    10030    2    1    2    0    0  0.00000000000E+00  0.00000000000E+00  0.88273973515E+03  0.21884528404E+04  0.20025225079E+04 0.  0.
        5    1    3    3  502    0  0.63843305545E+03  0.56307075412E+03 -0.13469331562E+03  0.86186415386E+03  0.46999998093E+01 0.  1.
       -5    1    3    3    0  502 -0.63843305545E+03 -0.56307075412E+03  0.10174330508E+04  0.13265886865E+04  0.46999998093E+01 0. -1.
</event>
<event>
 5   0  0.2386776E-06  0.1999580E+04  0.7818609E-02  0.8606817E-01
        1   -1    0    0  501    0  0.00000000000E+00  0.00000000000E+00  0.15438077800E+04  0.15438077800E+04  0.50400001928E-02 0.  1.
       -1   -1    0    0    0  501  0.00000000000E+00  0.00000000000E+00 -0.64747682619E+03  0.64747682621E+03  0.50400001928E-02 0. -1.
    10030    2    1    2    0    0  0.00000000000E+00  0.00000000000E+00  0.89633095382E+03  0.21912846062E+04  0.19995797175E+04 0.  0.
        2    1    3    3  502    0  0.35402785603E+03 -0.83608327216E+03  0.90687528213E+03  0.12832746153E+04  0.25500000920E-02 0.  1.
       -2    1    3    3    0  502 -0.35402785603E+03  0.83608327216E+03 -0.10544328316E+02  0.90800999096E+03  0.25500000920E-02 0. -1.
</event>
<event>
 5   0  0.2379743E-06  0.2000421E+04  0.7818609E-02  0.8606424E-01
        1   -1    0    0  501    0  0.00000000000E+00  0.00000000000E+00  0.95280951550E+03  0.95280951551E+03  0.50400001928E-02 0. -1.
       -1   -1    0    0    0  501  0.00000000000E+00  0.00000000000E+00 -0.10499694694E+04  0.10499694694E+04  0.50400001928E-02 0.  1.
    10030    2    1    2    0    0  0.00000000000E+00  0.00000000000E+00 -0.97159953932E+02  0.20027789849E+04  0.20004208572E+04 0.  0.
        5    1    3    3  502    0 -0.73464580571E+02 -0.41326509235E+03  0.86035240117E+03  0.95729484766E+03  0.46999998093E+01 0. -1.
       -5    1    3    3    0  502  0.73464580571E+02  0.41326509235E+03 -0.95751235511E+03  0.10454841373E+04  0.46999998093E+01 0.  1.
</event>
<event>
 5   0  0.2386776E-06  0.2000281E+04  0.7818609E-02  0.8606489E-01
       -1   -1    0    0    0  501  0.00000000000E+00  0.00000000000E+00  0.11078520007E+04  0.11078520007E+04  0.50400001928E-02 0.  1.
        1   -1    0    0  501    0  0.00000000000E+00  0.00000000000E+00 -0.90290161611E+03  0.90290161613E+03  0.50400001928E-02 0. -1.
    10030    2    1    2    0    0  0.00000000000E+00  0.00000000000E+00  0.20495038455E+03  0.20107536168E+04  0.20002813421E+04 0.  0.
        2    1    3    3  502    0  0.95873211004E+03  0.16009144719E+03 -0.13431020217E+03  0.98124194810E+03  0.25500000920E-02 0. -1.
       -2    1    3    3    0  502 -0.95873211004E+03 -0.16009144719E+03  0.33926058672E+03  0.10295116687E+04  0.25500000920E-02 0.  1.
</event>
<event>
 5   0  0.5030137E-06  0.2000888E+04  0.7818609E-02  0.8606206E-01
       -2   -1    0    0    0  501  0.00000000000E+00  0.00000000000E+00  0.14089386937E+04  0.14089386937E+04  0.25500000920E-02 0.  1.
        2   -1    0    0  501    0  0.00000000000E+00  0.00000000000E+00 -0.71038421885E+03  0.71038421886E+03  0.25500000920E-02 0. -1.
    10030    2    1    2    0    0  0.00000000000E+00  0.00000000000E+00  0.69855447484E+03  0.21193229125E+04  0.20008876164E+04 0.  0.
        3    1    3    3  502    0  0.70558489914E+03  0.45859469750E+03 -0.22379194849E+03  0.87077091872E+03  0.10100000352E+00 0. -1.
       -3    1    3    3    0  502 -0.70558489914E+03 -0.45859469750E+03  0.92234642333E+03  0.12485519938E+04  0.10100000352E+00 0.  1.
</event>
<event>
 5   0  0.5129100E-06  0.2010068E+04  0.7818609E-02  0.8601928E-01
        2   -1    0    0  501    0  0.00000000000E+00  0.00000000000E+00  0.18779114401E+04  0.18779114401E+04  0.25500000920E-02 0.  1.
       -2   -1    0    0    0  501  0.00000000000E+00  0.00000000000E+00 -0.53788099180E+03  0.53788099181E+03  0.25500000920E-02 0. -1.
    10030    2    1    2    0    0  0.00000000000E+00  0.00000000000E+00  0.13400304483E+04  0.24157924319E+04  0.20100675291E+04 0.  0.
        2    1    3    3  502    0 -0.11137559000E+03 -0.56822616695E+03  0.16572918992E+04  0.17555346587E+04  0.25500000920E-02 0.  1.
       -2    1    3    3    0  502  0.11137559000E+03  0.56822616695E+03 -0.31726145087E+03  0.66025777320E+03  0.25500000920E-02 0. -1.
</event>
<event>
 5   0  0.4956214E-06  0.2000062E+04  0.7818609E-02  0.8606592E-01
       -2   -1    0    0    0  501  0.00000000000E+00  0.00000000000E+00  0.10644033853E+04  0.10644033853E+04  0.25500000920E-02 0.  1.
        2   -1    0    0  501    0  0.00000000000E+00  0.00000000000E+00 -0.93955161184E+03  0.93955161185E+03  0.25500000920E-02 0. -1.
    10030    2    1    2    0    0  0.00000000000E+00  0.00000000000E+00  0.12485177349E+03  0.20039549972E+04  0.20000619154E+04 0.  0.
        1    1    3    3  502    0 -0.55450283440E+03  0.10267704339E+03  0.88989414010E+03  0.10535309911E+04  0.50400001928E-02 0.  1.
       -1    1    3    3    0  502  0.55450283440E+03 -0.10267704339E+03 -0.76504236661E+03  0.95042400608E+03  0.50400001928E-02 0. -1.
</event>
<event>
 5   0  0.2386776E-06  0.1999448E+04  0.7818609E-02  0.8606879E-01
       -1   -1    0    0    0  501  0.00000000000E+00  0.00000000000E+00  0.48418542821E+03  0.48418542824E+03  0.50400001928E-02 0. -1.
        1   -1    0    0  501    0  0.00000000000E+00  0.00000000000E+00 -0.20641850972E+04  0.20641850972E+04  0.50400001928E-02 0.  1.
    10030    2    1    2    0    0  0.00000000000E+00  0.00000000000E+00 -0.15799996690E+04  0.25483705255E+04  0.19994482691E+04 0.  0.
        2    1    3    3  502    0 -0.52618068003E+03  0.75064045146E+03 -0.12984124932E+04  0.15894030948E+04  0.25500000920E-02 0.  1.
       -2    1    3    3    0  502  0.52618068003E+03 -0.75064045146E+03 -0.28158717582E+03  0.95896743063E+03  0.25500000920E-02 0. -1.
</event>
<event>
 5   0  0.5118981E-06  0.2000361E+04  0.7818609E-02  0.8606452E-01
       -2   -1    0    0    0  501  0.00000000000E+00  0.00000000000E+00  0.49833644657E+03  0.49833644657E+03  0.25500000920E-02 0.  1.
        2   -1    0    0  501    0  0.00000000000E+00  0.00000000000E+00 -0.20073999707E+04  0.20073999707E+04  0.25500000920E-02 0. -1.
    10030    2    1    2    0    0  0.00000000000E+00  0.00000000000E+00 -0.15090635242E+04  0.25057364173E+04  0.20003605358E+04 0.  0.
        4    1    3    3  502    0 -0.76669821498E+03  0.30328252831E+03 -0.14637447793E+04  0.16799871537E+04  0.12699999809E+01 0. -1.
       -4    1    3    3    0  502  0.76669821498E+03 -0.30328252831E+03 -0.45318744903E+02  0.82574926362E+03  0.12699999809E+01 0.  1.
</event>
<event>
 5   0  0.2313821E-06  0.1999362E+04  0.7818609E-02  0.8606919E-01
        1   -1    0    0  501    0  0.00000000000E+00  0.00000000000E+00  0.20715999972E+04  0.20715999972E+04  0.50400001928E-02 0.  1.
       -1   -1    0    0    0  501  0.00000000000E+00  0.00000000000E+00 -0.48241076946E+03  0.48241076949E+03  0.50400001928E-02 0. -1.
    10030    2    1    2    0    0  0.00000000000E+00  0.00000000000E+00  0.15891892278E+04  0.25540107667E+04  0.19993620470E+04 0.  0.
        1    1    3    3  502    0  0.13998407976E+03 -0.12352283277E+03 -0.45994493893E+03  0.49638974574E+03  0.50400001928E-02 0. -1.
       -1    1    3    3    0  502 -0.13998407976E+03  0.12352283277E+03  0.20491341667E+04  0.20576210210E+04  0.50400001928E-02 0.  1.
</event>
<event>
 5   0  0.2356996E-06  0.2000898E+04  0.7818609E-02  0.8606201E-01
        1   -1    0    0  501    0  0.00000000000E+00  0.00000000000E+00  0.12419005222E+04  0.12419005222E+04  0.50400001928E-02 0. -1.
       -1   -1    0    0    0  501  0.00000000000E+00  0.00000000000E+00 -0.80594079975E+03  0.80594079976E+03  0.50400001928E-02 0.  1.
    10030    2    1    2    0    0  0.00000000000E+00  0.00000000000E+00  0.43595972241E+03  0.20478413219E+04  0.20008980984E+04 0.  0.
        4    1    3    3  502    0 -0.86359168157E+03  0.49968170892E+03  0.14260221723E+03  0.10078737064E+04  0.12699999809E+01 0. -1.
       -4    1    3    3    0  502  0.86359168157E+03 -0.49968170892E+03  0.29335750518E+03  0.10399676156E+04  0.12699999809E+01 0.  1.
</event>
<event>
 5   0  0.5030137E-06  0.2000179E+04  0.7818609E-02  0.8606537E-01
        2   -1    0    0  501    0  0.00000000000E+00  0.00000000000E+00  0.22186947135E+04  0.22186947135E+04  0.25500000920E-02 0.  1.
       -2   -1    0    0    0  501  0.00000000000E+00  0.00000000000E+00 -0.45079631453E+03  0.45079631454E+03  0.25500000920E-02 0. -1.
    10030    2    1    2    0    0  0.00000000000E+00  0.00000000000E+00  0.17678983990E+04  0.26694910281E+04  0.20001793919E+04 0.  0.
        3    1    3    3  502    0  0.47070273597E+03 -0.54638319957E+03 -0.40787318184E+02  0.72232906763E+03  0.10100000352E+00 0. -1.
       -3    1    3    3    0  502 -0.47070273597E+03  0.54638319957E+03  0.18086857172E+04  0.19471619604E+04  0.10100000352E+00 0.  1.
</event>
<event>
 5   0  0.2379743E-06  0.1988457E+04  0.7818609E-02  0.8612037E-01
       -1   -1    0    0    0  501  0.00000000000E+00  0.00000000000E+00  0.66275171381E+03  0.66275171383E+03  0.50400001928E-02 0.  1.
        1   -1    0    0  501    0  0.00000000000E+00  0.00000000000E+00 -0.14914935151E+04  0.14914935151E+04  0.50400001928E-02 0. -1.
    10030    2    1    2    0    0  0.00000000000E+00  0.00000000000E+00 -0.82874180127E+03  0.21542452289E+04  0.19884565706E+04 0.  0.
        5    1    3    3  502    0  0.67791432277E+03  0.58612875474E+03  0.52050957440E+02  0.89768933285E+03  0.46999998093E+01 0.  1.
       -5    1    3    3    0  502 -0.67791432277E+03 -0.58612875474E+03 -0.88079275871E+03  0.12565558961E+04  0.46999998093E+01 0. -1.
</event>
<event>
 5   0  0.5030137E-06  0.1998651E+04  0.7818609E-02  0.8607251E-01
       -2   -1    0    0    0  501  0.00000000000E+00  0.00000000000E+00  0.11365373215E+04  0.11365373215E+04  0.25500000920E-02 0.  1.
        2   -1    0    0  501    0  0.00000000000E+00  0.00000000000E+00 -0.87867929403E+03  0.87867929403E+03  0.25500000920E-02 0. -1.
    10030    2    1    2    0    0  0.00000000000E+00  0.00000000000E+00  0.25785802746E+03  0.20152166155E+04  0.19986513566E+04 0.  0.
        3    1    3    3  502    0  0.70329218168E+03 -0.69757068471E+03  0.26203469955E+03  0.10246399109E+04  0.10100000352E+00 0. -1.
       -3    1    3    3    0  502 -0.70329218168E+03  0.69757068471E+03 -0.41766720958E+01  0.99057670464E+03  0.10100000352E+00 0.  1.
</event>
<event>
 5   0  0.2356996E-06  0.2000372E+04  0.7818609E-02  0.8606447E-01
       -1   -1    0    0    0  501  0.00000000000E+00  0.00000000000E+00  0.80958377000E+03  0.80958377002E+03  0.50400001928E-02 0.  1.
        1   -1    0    0  501    0  0.00000000000E+00  0.00000000000E+00 -0.12356618726E+04  0.12356618726E+04  0.50400001928E-02 0. -1.
    10030    2    1    2    0    0  0.00000000000E+00  0.00000000000E+00 -0.42607810256E+03  0.20452456426E+04  0.20003717627E+04 0.  0.
        4    1    3    3  502    0  0.70204899638E+03  0.41325257499E+03  0.38025367474E+03  0.89902444578E+03  0.12699999809E+01 0.  1.
       -4    1    3    3    0  502 -0.70204899638E+03 -0.41325257499E+03 -0.80633177730E+03  0.11462211968E+04  0.12699999809E+01 0. -1.
</event>
<event>
 5   0  0.2379743E-06  0.1997848E+04  0.7818609E-02  0.8607628E-01
        1   -1    0    0  501    0  0.00000000000E+00  0.00000000000E+00  0.62809430130E+03  0.62809430132E+03  0.50400001928E-02 0. -1.
       -1   -1    0    0    0  501  0.00000000000E+00  0.00000000000E+00 -0.15886928928E+04  0.15886928928E+04  0.50400001928E-02 0.  1.
    10030    2    1    2    0    0  0.00000000000E+00  0.00000000000E+00 -0.96059859154E+03  0.22167871942E+04  0.19978477945E+04 0.  0.
        5    1    3    3  502    0  0.30107901348E+03 -0.77900151112E+03 -0.10883846341E+04  0.13718947221E+04  0.46999998093E+01 0. -1.
       -5    1    3    3    0  502 -0.30107901348E+03  0.77900151112E+03  0.12778604260E+03  0.84489247208E+03  0.46999998093E+01 0.  1.
</event>
<event>
 5   0  0.5251252E-06  0.2001001E+04  0.7818609E-02  0.8606153E-01
       -2   -1    0    0    0  501  0.00000000000E+00  0.00000000000E+00  0.85037845477E+03  0.85037845477E+03  0.25500000920E-02 0.  1.
        2   -1    0    0  501    0  0.00000000000E+00  0.00000000000E+00 -0.11771240966E+04  0.11771240966E+04  0.25500000920E-02 0. -1.
    10030    2    1    2    0    0  0.00000000000E+00  0.00000000000E+00 -0.32674564184E+03  0.20275025514E+04  0.20010007200E+04 0.  0.
        5    1    3    3  502    0 -0.18368843150E+03  0.39392921342E+03  0.74970433889E+03  0.86660276413E+03  0.46999998093E+01 0.  1.
       -5    1    3    3    0  502  0.18368843150E+03 -0.39392921342E+03 -0.10764499807E+04  0.11608997873E+04  0.46999998093E+01 0. -1.
</event>
<event>
 5   0  0.2313821E-06  0.1999704E+04  0.7818609E-02  0.8606759E-01
       -1   -1    0    0    0  501  0.00000000000E+00  0.00000000000E+00  0.64151095108E+03  0.64151095110E+03  0.50400001928E-02 0.  1.
        1   -1    0    0  501    0  0.00000000000E+00  0.00000000000E+00 -0.15583584488E+04  0.15583584488E+04  0.50400001928E-02 0. -1.
    10030    2    1    2    0    0  0.00000000000E+00  0.00000000000E+00 -0.91684749768E+03  0.21998693999E+04  0.19997039887E+04 0.  0.
        1    1    3    3  502    0 -0.77323942053E+03 -0.27288026658E+03  0.17098315245E+03  0.83761451742E+03  0.50400001928E-02 0.  1.
       -1    1    3    3    0  502  0.77323942053E+03  0.27288026658E+03 -0.10878306501E+04  0.13622548824E+04  0.50400001928E-02 0. -1.
</event>
<event>
 5   0  0.5251252E-06  0.1998837E+04  0.7818609E-02  0.8607165E-01
       -2   -1    0    0    0  501  0.00000000000E+00  0.00000000000E+00  0.50363809763E+03  0.50363809763E+03  0.25500000920E-02 0. -1.
        2   -1    0    0  501    0  0.00000000000E+00  0.00000000000E+00 -0.19832437338E+04  0.19832437338E+04  0.25500000920E-02 0.  1.
    10030    2    1    2    0    0  0.00000000000E+00  0.00000000000E+00 -0.14796056362E+04  0.24868818314E+04  0.19988367629E+04 0.  0.
        5    1    3    3  502    0 -0.58539592875E+03 -0.13908552868E+03 -0.17326288448E+04  0.18341368492E+04  0.46999998093E+01 0.  1.
       -5    1    3    3    0  502  0.58539592875E+03  0.13908552868E+03  0.25302320867E+03  0.65274498222E+03  0.46999998093E+01 0. -1.
</event>
<event>
 5   0  0.2386776E-06  0.1999943E+04  0.7818609E-02  0.8606647E-01
       -1   -1    0    0    0  501  0.00000000000E+00  0.00000000000E+00  0.39895437915E+03  0.39895437918E+03  0.50400001928E-02 0.  1.
        1   -1    0    0  501    0  0.00000000000E+00  0.00000000000E+00 -0.25064099859E+04  0.25064099859E+04  0.50400001928E-02 0. -1.
    10030    2    1    2    0    0  0.00000000000E+00  0.00000000000E+00 -0.21074556067E+04  0.29053643650E+04  0.19999432390E+04 0.  0.
        2    1    3    3  502    0 -0.50878234940E+03  0.71547099730E+03 -0.17491940269E+04  0.19571504722E+04  0.25500000920E-02 0. -1.
       -2    1    3    3    0  502  0.50878234940E+03 -0.71547099730E+03 -0.35826157983E+03  0.94821389287E+03  0.25500000920E-02 0.  1.
</event>
<event>
 5   0  0.2311520E-06  0.1996232E+04  0.7818609E-02  0.8608384E-01
        1   -1    0    0  501    0  0.00000000000E+00  0.00000000000E+00  0.11366905541E+04  0.11366905541E+04  0.50400001928E-02 0. -1.
       -1   -1    0    0    0  501  0.00000000000E+00  0.00000000000E+00 -0.87643527144E+03  0.87643527145E+03  0.50400001928E-02 0.  1.
    10030    2    1    2    0    0  0.00000000000E+00  0.00000000000E+00  0.26025528270E+03  0.20131258256E+04  0.19962321452E+04 0.  0.
        3    1    3    3  502    0 -0.70423401461E+03 -0.66503764446E+03  0.37302918760E+03  0.10379650287E+04  0.10100000352E+00 0. -1.
       -3    1    3    3    0  502  0.70423401461E+03  0.66503764446E+03 -0.11277390490E+03  0.97516079685E+03  0.10100000352E+00 0.  1.
</event>
<event>
 5   0  0.2379743E-06  0.1999230E+04  0.7818609E-02  0.8606981E-01
       -1   -1    0    0    0  501  0.00000000000E+00  0.00000000000E+00  0.11406138790E+04  0.11406138790E+04  0.50400001928E-02 0.  1.
        1   -1    0    0  501    0  0.00000000000E+00  0.00000000000E+00 -0.87604602230E+03  0.87604602232E+03  0.50400001928E-02 0. -1.
    10030    2    1    2    0    0  0.00000000000E+00  0.00000000000E+00  0.26456785670E+03  0.20166599013E+04  0.19992301035E+04 0.  0.
        5    1    3    3  502    0 -0.65316562353E+03 -0.28357660170E+03 -0.57537858075E+03  0.91549091857E+03  0.46999998093E+01 0. -1.
       -5    1    3    3    0  502  0.65316562353E+03  0.28357660170E+03  0.83994643746E+03  0.11011689828E+04  0.46999998093E+01 0.  1.
</event>
<event>
 5   0  0.5129100E-06  0.2000229E+04  0.7818609E-02  0.8606514E-01
        2   -1    0    0  501    0  0.00000000000E+00  0.00000000000E+00  0.80301027714E+03  0.80301027715E+03  0.25500000920E-02 0. -1.
       -2   -1    0    0    0  501  0.00000000000E+00  0.00000000000E+00 -0.12455989140E+04  0.12455989140E+04  0.25500000920E-02 0.  1.
    10030    2    1    2    0    0  0.00000000000E+00  0.00000000000E+00 -0.44258863682E+03  0.20486091911E+04  0.20002287160E+04 0.  0.
        2    1    3    3  502    0 -0.81264235028E+02 -0.53565406896E+03  0.63969323449E+03  0.83829385763E+03  0.25500000920E-02 0. -1.
       -2    1    3    3    0  502  0.81264235028E+02  0.53565406896E+03 -0.10822818713E+04  0.12103153335E+04  0.25500000920E-02 0.  1.
</event>
<event>
 5   0  0.4956214E-06  0.1998858E+04  0.7818609E-02  0.8607155E-01
       -2   -1    0    0    0  501  0.00000000000E+00  0.00000000000E+00  0.85743809257E+03  0.85743809258E+03  0.25500000920E-02 0.  1.
        2   -1    0    0  501    0  0.00000000000E+00  0.00000000000E+00 -0.11649336221E+04  0.11649336221E+04  0.25500000920E-02 0. -1.
    10030    2    1    2    0    0  0.00000000000E+00  0.00000000000E+00 -0.30749552952E+03  0.20223717147E+04  0.19988581369E+04 0.  0.
        1    1    3    3  502    0 -0.39439030266E+03 -0.12833693314E+03 -0.10737542748E+04  0.11510700769E+04  0.50400001928E-02 0. -1.
       -1    1    3    3    0  502  0.39439030266E+03  0.12833693314E+03  0.76625874529E+03  0.87130163778E+03  0.50400001928E-02 0.  1.
</event>
<event>
 5   0  0.2313821E-06  0.2001961E+04  0.7818609E-02  0.8605705E-01
       -1   -1    0    0    0  501  0.00000000000E+00  0.00000000000E+00  0.68058377434E+03  0.68058377436E+03  0.50400001928E-02 0.  1.
        1   -1    0    0  501    0  0.00000000000E+00  0.00000000000E+00 -0.14722091269E+04  0.14722091269E+04  0.50400001928E-02 0. -1.
    10030    2    1    2    0    0  0.00000000000E+00  0.00000000000E+00 -0.79162535251E+03  0.21527929012E+04  0.20019606831E+04 0.  0.
        1    1    3    3  502    0 -0.95702753425E+03  0.31147331562E+02 -0.82133689909E+02  0.96105036321E+03  0.50400001928E-02 0.  1.
       -1    1    3    3    0  502  0.95702753425E+03 -0.31147331562E+02 -0.70949166260E+03  0.11917425380E+04  0.50400001928E-02 0. -1.
</event>
<event>
 5   0  0.2311520E-06  0.1999982E+04  0.7818609E-02  0.8606629E-01
        1   -1    0    0  501    0  0.00000000000E+00  0.00000000000E+00  0.16026391752E+04  0.16026391752E+04  0.50400001928E-02 0. -1.
       -1   -1    0    0    0  501  0.00000000000E+00  0.00000000000E+00 -0.62395982592E+03  0.62395982594E+03  0.50400001928E-02 0.  1.
    10030    2    1    2    0    0  0.00000000000E+00  0.00000000000E+00  0.97867934924E+03  0.22265990011E+04  0.19999824607E+04 0.  0.
        3    1    3    3  502    0 -0.82201174315E+03 -0.38478125166E+03  0.95669429724E+03  0.13187205565E+04  0.10100000352E+00 0. -1.
       -3    1    3    3    0  502  0.82201174315E+03  0.38478125166E+03  0.21985052006E+02  0.90787844463E+03  0.10100000352E+00 0.  1.
</event>
<event>
 5   0  0.2311520E-06  0.1999217E+04  0.7818609E-02  0.8606987E-01
       -1   -1    0    0    0  501  0.00000000000E+00  0.00000000000E+00  0.71717926507E+03  0.71717926509E+03  0.50400001928E-02 0. -1.
        1   -1    0    0  501    0  0.00000000000E+00  0.00000000000E+00 -0.13932604287E+04  0.13932604287E+04  0.50400001928E-02 0.  1.
    10030    2    1    2    0    0  0.00000000000E+00  0.00000000000E+00 -0.67608116367E+03  0.21104396938E+04  0.19992173372E+04 0.  0.
        3    1    3    3  502    0  0.28244599148E+03  0.91886638928E+03 -0.48700273848E+02  0.96252943141E+03  0.10100000352E+00 0.  1.
       -3    1    3    3    0  502 -0.28244599148E+03 -0.91886638928E+03 -0.62738088982E+03  0.11479102624E+04  0.10100000352E+00 0. -1.
</event>
<event>
 5   0  0.2356996E-06  0.2000049E+04  0.7818609E-02  0.8606598E-01
        1   -1    0    0  501    0  0.00000000000E+00  0.00000000000E+00  0.97200504572E+03  0.97200504574E+03  0.50400001928E-02 0. -1.
       -1   -1    0    0    0  501  0.00000000000E+00  0.00000000000E+00 -0.10288513589E+04  0.10288513589E+04  0.50400001928E-02 0.  1.
    10030    2    1    2    0    0  0.00000000000E+00  0.00000000000E+00 -0.56846313142E+02  0.20008564046E+04  0.20000487115E+04 0.  0.
        4    1    3    3  502    0  0.23446214395E+03  0.46161336267E+03 -0.88433146479E+03  0.10247454055E+04  0.12699999809E+01 0.  1.
       -4    1    3    3    0  502 -0.23446214395E+03 -0.46161336267E+03  0.82748515165E+03  0.97611099913E+03  0.12699999809E+01 0. -1.
</event>
<event>
 5   0  0.4956214E-06  0.1999619E+04  0.7818609E-02  0.8606799E-01
        2   -1    0    0  501    0  0.00000000000E+00  0.00000000000E+00  0.19172889389E+04  0.19172889389E+04  0.25500000920E-02 0. -1.
       -2   -1    0    0    0  501  0.00000000000E+00  0.00000000000E+00 -0.52137118245E+03  0.52137118246E+03  0.25500000920E-02 0.  1.
    10030    2    1    2    0    0  0.00000000000E+00  0.00000000000E+00  0.13959177565E+04  0.24386601214E+04  0.19996191649E+04 0.  0.
        1    1    3    3  502    0  0.58837590384E+02 -0.76292416713E+03  0.14827583955E+04  0.16685585414E+04  0.50400001928E-02 0. -1.
       -1    1    3    3    0  502 -0.58837590384E+02  0.76292416713E+03 -0.86840639009E+02  0.77010157995E+03  0.50400001928E-02 0.  1.
</event>
<event>
 5   0  0.5030137E-06  0.2001293E+04  0.7818609E-02  0.8606016E-01
        2   -1    0    0  501    0  0.00000000000E+00  0.00000000000E+00  0.91901051437E+03  0.91901051437E+03  0.25500000920E-02 0. -1.
       -2   -1    0    0    0  501  0.00000000000E+00  0.00000000000E+00 -0.10895345531E+04  0.10895345531E+04  0.25500000920E-02 0.  1.
    10030    2    1    2    0    0  0.00000000000E+00  0.00000000000E+00 -0.17052403872E+03  0.20085450675E+04  0.20012932919E+04 0.  0.
        3    1    3    3  502    0  0.19929567872E+03 -0.61312369398E+03 -0.85331556348E+03  0.10694797299E+04  0.10100000352E+00 0.  1.
       -3    1    3    3    0  502 -0.19929567872E+03  0.61312369398E+03  0.68279152475E+03  0.93906533753E+03  0.10100000352E+00 0. -1.
</event>
<event>
 5   0  0.2311520E-06  0.2000738E+04  0.7818609E-02  0.8606276E-01
       -1   -1    0    0    0  501  0.00000000000E+00  0.00000000000E+00  0.13816596887E+04  0.13816596887E+04  0.50400001928E-02 0.  1.
        1   -1    0    0  501    0  0.00000000000E+00  0.00000000000E+00 -0.72430126673E+03  0.72430126674E+03  0.50400001928E-02 0. -1.
    10030    2    1    2    0    0  0.00000000000E+00  0.00000000000E+00  0.65735842200E+03  0.21059609555E+04  0.20007377267E+04 0.  0.
        3    1    3    3  502    0 -0.36515370127E+03 -0.77100910713E+03  0.87859753294E+03  0.12246329670E+04  0.10100000352E+00 0.  1.
       -3    1    3    3    0  502  0.36515370127E+03  0.77100910713E+03 -0.22123911093E+03  0.88132798846E+03  0.10100000352E+00 0. -1.
</event>
<event>
 5   0  0.5118981E-06  0.1992159E+04  0.7818609E-02  0.8610295E-01
        2   -1    0    0  501    0  0.00000000000E+00  0.00000000000E+00  0.20826100528E+04  0.20826100528E+04  0.25500000920E-02 0. -1.
       -2   -1    0    0    0  501  0.00000000000E+00  0.00000000000E+00 -0.47640917822E+03  0.47640917822E+03  0.25500000920E-02 0.  1.
    10030    2    1    2    0    0  0.00000000000E+00  0.00000000000E+00  0.16062008745E+04  0.25590192310E+04  0.19921591742E+04 0.  0.
        4    1    3    3  502    0 -0.62953610122E+03 -0.35348941501E+03  0.16845855749E+04  0.18327849414E+04  0.12699999809E+01 0. -1.
       -4    1    3    3    0  502  0.62953610122E+03  0.35348941501E+03 -0.78384700357E+02  0.72623428961E+03  0.12699999809E+01 0.  1.
</event>
<event>
 5   0  0.2311520E-06  0.1996885E+04  0.7818609E-02  0.8608078E-01
       -1   -1    0    0    0  501  0.00000000000E+00  0.00000000000E+00  0.10082520279E+04  0.10082520279E+04  0.50400001928E-02 0. -1.
        1   -1    0    0  501    0  0.00000000000E+00  0.00000000000E+00 -0.98872877897E+03  0.98872877898E+03  0.50400001928E-02 0.  1.
    10030    2    1    2    0    0  0.00000000000E+00  0.00000000000E+00  0.19523248963E+02  0.19969808069E+04  0.19968853713E+04 0.  0.
        3    1    3    3  502    0 -0.23193135799E+03  0.33257706879E+03  0.92221310246E+03  0.10074108785E+04  0.10100000352E+00 0. -1.
       -3    1    3    3    0  502  0.23193135799E+03 -0.33257706879E+03 -0.90268985350E+03  0.98956992846E+03  0.10100000352E+00 0.  1.
</event>
<event>
 5   0  0.2311520E-06  0.2000062E+04  0.7818609E-02  0.8606592E-01
        1   -1    0    0  501    0  0.00000000000E+00  0.00000000000E+00  0.97671856005E+03  0.97671856006E+03  0.50400001928E-02 0. -1.
       -1   -1    0    0    0  501  0.00000000000E+00  0.00000000000E+00 -0.10238997137E+04  0.10238997138E+04  0.50400001928E-02 0.  1.
    10030    2    1    2    0    0  0.00000000000E+00  0.00000000000E+00 -0.47181153697E+02  0.20006182738E+04  0.20000618531E+04 0.  0.
        3    1    3    3  502    0  0.61928900726E+03 -0.56316963209E+03 -0.57090176413E+03  0.10132165334E+04  0.10100000352E+00 0.  1.
       -3    1    3    3    0  502 -0.61928900726E+03  0.56316963209E+03  0.52372061043E+03  0.98740174044E+03  0.10100000352E+00 0. -1.
</event>
<event>
 5   0  0.5251252E-06  0.2000594E+04  0.7818609E-02  0.8606343E-01
       -2   -1    0    0    0  501  0.00000000000E+00  0.00000000000E+00  0.10801870634E+04  0.10801870634E+04  0.25500000920E-02 0.  1.
        2   -1    0    0  501    0  0.00000000000E+00  0.00000000000E+00 -0.92631531568E+03  0.92631531568E+03  0.25500000920E-02 0. -1.
    10030    2    1    2    0    0  0.00000000000E+00  0.00000000000E+00  0.15387174773E+03  0.20065023791E+04  0.20005937325E+04 0.  0.
        5    1    3    3  502    0 -0.18663890519E+03  0.66927156825E+03  0.79865354839E+03  0.10585972291E+04  0.46999998093E+01 0.  1.
       -5    1    3    3    0  502  0.18663890519E+03 -0.66927156825E+03 -0.64478180066E+03  0.94790515004E+03  0.46999998093E+01 0. -1.
</event>
<event>
 5   0  0.2356996E-06  0.1996719E+04  0.7818609E-02  0.8608156E-01
       -1   -1    0    0    0  501  0.00000000000E+00  0.00000000000E+00  0.63851341565E+03  0.63851341567E+03  0.50400001928E-02 0.  1.
        1   -1    0    0  501    0  0.00000000000E+00  0.00000000000E+00 -0.15610031662E+04  0.15610031662E+04  0.50400001928E-02 0. -1.
    10030    2    1    2    0    0  0.00000000000E+00  0.00000000000E+00 -0.92248975056E+03  0.21995165819E+04  0.19967187719E+04 0.  0.
        4    1    3    3  502    0  0.24662727200E+03 -0.62358403601E+03  0.35349505908E+03  0.75805173369E+03  0.12699999809E+01 0.  1.
       -4    1    3    3    0  502 -0.24662727200E+03  0.62358403601E+03 -0.12759848096E+04  0.14414648482E+04  0.12699999809E+01 0. -1.
</event>
<event>
 5   0  0.2311520E-06  0.1999843E+04  0.7818609E-02  0.8606694E-01
       -1   -1    0    0    0  501  0.00000000000E+00  0.00000000000E+00  0.75696054387E+03  0.75696054389E+03  0.50400001928E-02 0. -1.
        1   -1    0    0  501    0  0.00000000000E+00  0.00000000000E+00 -0.13208658478E+04  0.13208658478E+04  0.50400001928E-02 0.  1.
    10030    2    1    2    0    0  0.00000000000E+00  0.00000000000E+00 -0.56390530391E+03  0.20778263917E+04  0.19998433244E+04 0.  0.
        3    1    3    3  502    0  0.34498466916E+03  0.17869546081E+03 -0.12392365228E+04  0.12987123082E+04  0.10100000352E+00 0.  1.
       -3    1    3    3    0  502 -0.34498466916E+03 -0.17869546081E+03  0.67533121892E+03  0.77911408351E+03  0.10100000352E+00 0. -1.
</event>
<event>
 5   0  0.5129100E-06  0.2000816E+04  0.7818609E-02  0.8606239E-01
       -2   -1    0    0    0  501  0.00000000000E+00  0.00000000000E+00  0.46489293456E+03  0.46489293457E+03  0.25500000920E-02 0.  1.
        2   -1    0    0  501    0  0.00000000000E+00  0.00000000000E+00 -0.21527882599E+04  0.21527882599E+04  0.25500000920E-02 0. -1.
    10030    2    1    2    0    0  0.00000000000E+00  0.00000000000E+00 -0.16878953253E+04  0.26176811944E+04  0.20008158852E+04 0.  0.
        2    1    3    3  502    0 -0.76923641180E+03  0.47483674583E+03 -0.14045712208E+04  0.16703337710E+04  0.25500000920E-02 0. -1.
       -2    1    3    3    0  502  0.76923641180E+03 -0.47483674583E+03 -0.28332410456E+03  0.94734742342E+03  0.25500000920E-02 0.  1.
</event>
<event>
 5   0  0.2313821E-06  0.2000300E+04  0.7818609E-02  0.8606480E-01
        1   -1    0    0  501    0  0.00000000000E+00  0.00000000000E+00  0.14368259080E+04  0.14368259080E+04  0.50400001928E-02 0. -1.
       -1   -1    0    0    0  501  0.00000000000E+00  0.00000000000E+00 -0.69618743788E+03  0.69618743790E+03  0.50400001928E-02 0.  1.
    10030    2    1    2    0    0  0.00000000000E+00  0.00000000000E+00  0.74063847013E+03  0.21330133459E+04  0.20003001251E+04 0.  0.
        1    1    3    3  502    0  0.96748703924E+03 -0.24211544153E+03  0.45046630255E+03  0.10943358479E+04  0.50400001928E-02 0.  1.
       -1    1    3    3    0  502 -0.96748703924E+03  0.24211544153E+03  0.29017216757E+03  0.10386774981E+04  0.50400001928E-02 0. -1.
</event>
<event>
 5   0  0.4956214E-06  0.2002819E+04  0.7818609E-02  0.8605304E-01
       -2   -1    0    0    0  501  0.00000000000E+00  0.00000000000E+00  0.17729041224E+04  0.17729041225E+04  0.25500000920E-02 0.  1.
        2   -1    0    0  501    0  0.00000000000E+00  0.00000000000E+00 -0.56563728386E+03  0.56563728387E+03  0.25500000920E-02 0. -1.
    10030    2    1    2    0    0  0.00000000000E+00  0.00000000000E+00  0.12072668386E+04  0.23385414063E+04  0.20028186861E+04 0.  0.
        1    1    3    3  502    0 -0.86446162395E+03  0.32997616480E+03  0.15650387936E+03  0.93844106522E+03  0.50400001928E-02 0. -1.
       -1    1    3    3    0  502  0.86446162395E+03 -0.32997616480E+03  0.10507629592E+04  0.14001003411E+04  0.50400001928E-02 0.  1.
</event>
<event>
 5   0  0.2386776E-06  0.2000118E+04  0.7818609E-02  0.8606566E-01
        1   -1    0    0  501    0  0.00000000000E+00  0.00000000000E+00  0.15172494401E+04  0.15172494401E+04  0.50400001928E-02 0. -1.
       -1   -1    0    0    0  501  0.00000000000E+00  0.00000000000E+00 -0.65916517089E+03  0.65916517091E+03  0.50400001928E-02 0.  1.
    10030    2    1    2    0    0  0.00000000000E+00  0.00000000000E+00  0.85808426920E+03  0.21764146110E+04  0.20001179830E+04 0.  0.
        2    1    3    3  502    0  0.48255029465E+03 -0.51322978542E+03  0.12014385760E+04  0.13927362462E+04  0.25500000920E-02 0. -1.
       -2    1    3    3    0  502 -0.48255029465E+03  0.51322978542E+03 -0.34335430681E+03  0.78367836484E+03  0.25500000920E-02 0.  1.
</event>
<event>
 5   0  0.2356996E-06  0.2000253E+04  0.7818609E-02  0.8606502E-01
       -1   -1    0    0    0  501  0.00000000000E+00  0.00000000000E+00  0.87084483878E+03  0.87084483879E+03  0.50400001928E-02 0. -1.
        1   -1    0    0  501    0  0.00000000000E+00  0.00000000000E+00 -0.11486009981E+04  0.11486009981E+04  0.50400001928E-02 0.  1.
    10030    2    1    2    0    0  0.00000000000E+00  0.00000000000E+00 -0.27775615931E+03  0.20194458369E+04  0.20002532350E+04 0.  0.
        4    1    3    3  502    0 -0.95554209734E+03  0.22807787985E+03  0.50461833515E+02  0.98368095875E+03  0.12699999809E+01 0.  1.
       -4    1    3    3    0  502  0.95554209734E+03 -0.22807787985E+03 -0.32821799282E+03  0.10357648781E+04  0.12699999809E+01 0. -1.
</event>
<event>
 5   0  0.5030137E-06  0.2004808E+04  0.7818609E-02  0.8604376E-01
        2   -1    0    0  501    0  0.00000000000E+00  0.00000000000E+00  0.20706299415E+04  0.20706299415E+04  0.25500000920E-02 0. -1.
       -2   -1    0    0    0  501  0.00000000000E+00  0.00000000000E+00 -0.48526943387E+03  0.48526943388E+03  0.25500000920E-02 0.  1.
    10030    2    1    2    0    0  0.00000000000E+00  0.00000000000E+00  0.15853605077E+04  0.25558993754E+04  0.20048076411E+04 0.  0.
        3    1    3    3  502    0 -0.84122847645E+03 -0.11433356646E+03  0.11318217221E+03  0.85647400913E+03  0.10100000352E+00 0.  1.
       -3    1    3    3    0  502  0.84122847645E+03  0.11433356646E+03  0.14721783354E+04  0.16994253663E+04  0.10100000352E+00 0. -1.
</event>
<event>
 5   0  0.2311520E-06  0.2000528E+04  0.7818609E-02  0.8606374E-01
       -1   -1    0    0    0  501  0.00000000000E+00  0.00000000000E+00  0.71575387908E+03  0.71575387910E+03  0.50400001928E-02 0. -1.
        1   -1    0    0  501    0  0.00000000000E+00  0.00000000000E+00 -0.13978662742E+04  0.13978662742E+04  0.50400001928E-02 0.  1.
    10030    2    1    2    0    0  0.00000000000E+00  0.00000000000E+00 -0.68211239509E+03  0.21136201533E+04  0.20005281385E+04 0.  0.
        3    1    3    3  502    0 -0.21752654240E+03 -0.27858190380E+03  0.64757834249E+03  0.73775564629E+03  0.10100000352E+00 0. -1.
       -3    1    3    3    0  502  0.21752654240E+03  0.27858190380E+03 -0.13296907376E+04  0.13758645070E+04  0.10100000352E+00 0.  1.
</event>
<event>
 5   0  0.5129100E-06  0.1999862E+04  0.7818609E-02  0.8606685E-01
        2   -1    0    0  501    0  0.00000000000E+00  0.00000000000E+00  0.13504272594E+04  0.13504272594E+04  0.25500000920E-02 0. -1.
       -2   -1    0    0    0  501  0.00000000000E+00  0.00000000000E+00 -0.74040409941E+03  0.74040409942E+03  0.25500000920E-02 0.  1.
    10030    2    1    2    0    0  0.00000000000E+00  0.00000000000E+00  0.61002315995E+03  0.20908313588E+04  0.19998618740E+04 0.  0.
        2    1    3    3  502    0  0.36086730398E+03  0.90979112636E+03  0.90962714537E+02  0.98296455691E+03  0.25500000920E-02 0.  1.
       -2    1    3    3    0  502 -0.36086730398E+03 -0.90979112636E+03  0.51906044541E+03  0.11078668019E+04  0.25500000920E-02 0. -1.
</event>
<event>
 5   0  0.5030137E-06  0.1999446E+04  0.7818609E-02  0.8606880E-01
       -2   -1    0    0    0  501  0.00000000000E+00  0.00000000000E+00  0.64825526310E+03  0.64825526310E+03  0.25500000920E-02 0. -1.
        2   -1    0    0  501    0  0.00000000000E+00  0.00000000000E+00 -0.15417483170E+04  0.15417483170E+04  0.25500000920E-02 0.  1.
    10030    2    1    2    0    0  0.00000000000E+00  0.00000000000E+00 -0.89349305385E+03  0.21900035801E+04  0.19994463842E+04 0.  0.
        3    1    3    3  502    0  0.10001859969E+03 -0.99126071132E+03 -0.35612744692E+03  0.10580303808E+04  0.10100000352E+00 0. -1.
       -3    1    3    3    0  502 -0.10001859969E+03  0.99126071132E+03 -0.53736560693E+03  0.11319731992E+04  0.10100000352E+00 0.  1.
</event>
<event>
 5   0  0.5129100E-06  0.1999138E+04  0.7818609E-02  0.8607024E-01
        2   -1    0    0  501    0  0.00000000000E+00  0.00000000000E+00  0.93238054860E+03  0.93238054860E+03  0.25500000920E-02 0.  1.
       -2   -1    0    0    0  501  0.00000000000E+00  0.00000000000E+00 -0.10715989641E+04  0.10715989641E+04  0.25500000920E-02 0. -1.
    10030    2    1    2    0    0  0.00000000000E+00  0.00000000000E+00 -0.13921841555E+03  0.20039795127E+04  0.19991378442E+04 0.  0.
        2    1    3    3  502    0  0.59652899746E+03  0.29804455091E+03 -0.81603372199E+03  0.10538445970E+04  0.25500000920E-02 0. -1.
       -2    1    3    3    0  502 -0.59652899746E+03 -0.29804455091E+03  0.67681530644E+03  0.95013491578E+03  0.25500000920E-02 0.  1.
</event>
<event>
 5   0  0.5118981E-06  0.2000066E+04  0.7818609E-02  0.8606590E-01
        2   -1    0    0  501    0  0.00000000000E+00  0.00000000000E+00  0.22816517400E+04  0.22816517400E+04  0.25500000920E-02 0. -1.
       -2   -1    0    0    0  501  0.00000000000E+00  0.00000000000E+00 -0.43830791769E+03  0.43830791769E+03  0.25500000920E-02 0.  1.
    10030    2    1    2    0    0  0.00000000000E+00  0.00000000000E+00  0.18433438223E+04  0.27199596577E+04  0.20000660220E+04 0.  0.
        4    1    3    3  502    0  0.94687992116E+03 -0.32168635425E+03  0.92282149202E+03  0.13607589113E+04  0.12699999809E+01 0. -1.
       -4    1    3    3    0  502 -0.94687992116E+03  0.32168635425E+03  0.92052233032E+03  0.13592007464E+04  0.12699999809E+01 0.  1.
</event>
<event>
 5   0  0.2379743E-06  0.2001012E+04  0.7818609E-02  0.8606148E-01
        1   -1    0    0  501    0  0.00000000000E+00  0.00000000000E+00  0.43379500610E+03  0.43379500613E+03  0.50400001928E-02 0. -1.
       -1   -1    0    0    0  501  0.00000000000E+00  0.00000000000E+00 -0.23075696890E+04  0.23075696890E+04  0.50400001928E-02 0.  1.
    10030    2    1    2    0    0  0.00000000000E+00  0.00000000000E+00 -0.18737746829E+04  0.27413646951E+04  0.20010119514E+04 0.  0.
        5    1    3    3  502    0  0.20791106591E+03 -0.40389052947E+03 -0.21581276408E+04  0.22054232191E+04  0.46999998093E+01 0.  1.
       -5    1    3    3    0  502 -0.20791106591E+03  0.40389052947E+03  0.28435295790E+03  0.53594147608E+03  0.46999998093E+01 0. -1.
</event>
<event>
 5   0  0.2313821E-06  0.1998182E+04  0.7818609E-02  0.8607471E-01
       -1   -1    0    0    0  501  0.00000000000E+00  0.00000000000E+00  0.13945673830E+04  0.13945673830E+04  0.50400001928E-02 0.  1.
        1   -1    0    0  501    0  0.00000000000E+00  0.00000000000E+00 -0.71576501221E+03  0.71576501222E+03  0.50400001928E-02 0. -1.
    10030    2    1    2    0    0  0.00000000000E+00  0.00000000000E+00  0.67880237079E+03  0.21103323952E+04  0.19981817134E+04 0.  0.
        1    1    3    3  502    0 -0.79004672999E+03  0.17469730974E+03  0.95837553596E+03  0.12542633908E+04  0.50400001928E-02 0.  1.
       -1    1    3    3    0  502  0.79004672999E+03 -0.17469730974E+03 -0.27957316518E+03  0.85606900441E+03  0.50400001928E-02 0. -1.
</event>
<event>
 5   0  0.5129100E-06  0.1999941E+04  0.7818609E-02  0.8606648E-01
       -2   -1    0    0    0  501  0.00000000000E+00  0.00000000000E+00  0.57267215802E+03  0.57267215803E+03  0.25500000920E-02 0.  1.
        2   -1    0    0  501    0  0.00000000000E+00  0.00000000000E+00 -0.17460961619E+04  0.17460961619E+04  0.25500000920E-02 0. -1.
    10030    2    1    2    0    0  0.00000000000E+00  0.00000000000E+00 -0.11734240039E+04  0.23187683199E+04  0.19999406563E+04 0.  0.
        2    1    3    3  502    0 -0.39454979179E+03 -0.20276632475E+03  0.45234759114E+03  0.63356299125E+03  0.25500000920E-02 0.  1.
       -2    1    3    3    0  502  0.39454979179E+03  0.20276632475E+03 -0.16257715950E+04  0.16852053287E+04  0.25500000920E-02 0. -1.
</event>
<event>
 5   0  0.5129100E-06  0.1999779E+04  0.7818609E-02  0.8606724E-01
        2   -1    0    0  501    0  0.00000000000E+00  0.00000000000E+00  0.15469134778E+04  0.15469134778E+04  0.25500000920E-02 0.  1.
       -2   -1    0    0    0  501  0.00000000000E+00  0.00000000000E+00 -0.64630566846E+03  0.64630566847E+03  0.25500000920E-02 0. -1.
    10030    2    1    2    0    0  0.00000000000E+00  0.00000000000E+00  0.90060780938E+03  0.21932191463E+04  0.19997789371E+04 0.  0.
        2    1    3    3  502    0 -0.75285888271E+03 -0.59610041992E+03  0.14469805986E+03  0.97111777681E+03  0.25500000920E-02 0. -1.
       -2    1    3    3    0  502  0.75285888271E+03  0.59610041992E+03  0.75590974952E+03  0.12221013695E+04  0.25500000920E-02 0.  1.
</event>
<event>
 5   0  0.5030137E-06  0.1998903E+04  0.7818609E-02  0.8607134E-01
       -2   -1    0    0    0  501  0.00000000000E+00  0.00000000000E+00  0.46977689251E+03  0.46977689252E+03  0.25500000920E-02 0. -1.
        2   -1    0    0  501    0  0.00000000000E+00  0.00000000000E+00 -0.21263347595E+04  0.21263347595E+04  0.25500000920E-02 0.  1.
    10030    2    1    2    0    0  0.00000000000E+00  0.00000000000E+00 -0.16565578670E+04  0.25961116521E+04  0.19989026347E+04 0.  0.
        3    1    3    3  502    0 -0.25582173058E+03  0.60455023256E+03  0.15052830206E+03  0.67348683836E+03  0.10100000352E+00 0. -1.
       -3    1    3    3    0  502  0.25582173058E+03 -0.60455023256E+03 -0.18070861691E+04  0.19226248137E+04  0.10100000352E+00 0.  1.
</event>
<event>
 5   0  0.2386776E-06  0.1996939E+04  0.7818609E-02  0.8608053E-01
       -1   -1    0    0    0  501  0.00000000000E+00  0.00000000000E+00  0.65158139087E+03  0.65158139089E+03  0.50400001928E-02 0. -1.
        1   -1    0    0  501    0  0.00000000000E+00  0.00000000000E+00 -0.15300327623E+04  0.15300327623E+04  0.50400001928E-02 0.  1.
    10030    2    1    2    0    0  0.00000000000E+00  0.00000000000E+00 -0.87845137138E+03  0.21816141532E+04  0.19969385322E+04 0.  0.
        2    1    3    3  502    0  0.85532231482E+03  0.30981741833E+03  0.10390010423E+02  0.90976428115E+03  0.25500000920E-02 0.  1.
       -2    1    3    3    0  502 -0.85532231482E+03 -0.30981741833E+03 -0.88884138181E+03  0.12718498720E+04  0.25500000920E-02 0. -1.
</event>
<event>
 5   0  0.2313821E-06  0.2000163E+04  0.7818609E-02  0.8606544E-01
        1   -1    0    0  501    0  0.00000000000E+00  0.00000000000E+00  0.12105335717E+04  0.12105335717E+04  0.50400001928E-02 0. -1.
       -1   -1    0    0    0  501  0.00000000000E+00  0.00000000000E+00 -0.82621706633E+03  0.82621706635E+03  0.50400001928E-02 0.  1.
    10030    2    1    2    0    0  0.00000000000E+00  0.00000000000E+00  0.38431650534E+03  0.20367506380E+04  0.20001634896E+04 0.  0.
        1    1    3    3  502    0 -0.79320850116E+03 -0.17544400883E+03  0.78609684229E+03  0.11304461827E+04  0.50400001928E-02 0. -1.
       -1    1    3    3    0  502  0.79320850116E+03  0.17544400883E+03 -0.40178033695E+03  0.90630445531E+03  0.50400001928E-02 0.  1.
</event>
<event>
 5   0  0.5129100E-06  0.2000989E+04  0.7818609E-02  0.8606158E-01
       -2   -1    0    0    0  501  0.00000000000E+00  0.00000000000E+00  0.11800354291E+04  0.11800354291E+04  0.25500000920E-02 0.  1.
        2   -1    0    0  501    0  0.00000000000E+00  0.00000000000E+00 -0.84827054541E+03  0.84827054542E+03  0.25500000920E-02 0. -1.
    10030    2    1    2    0    0  0.00000000000E+00  0.00000000000E+00  0.33176488368E+03  0.20283059745E+04  0.20009890525E+04 0.  0.
        2    1    3    3  502    0 -0.41048005227E+03 -0.35367954390E+03  0.10184389803E+04  0.11536035062E+04  0.25500000920E-02 0.  1.
       -2    1    3    3    0  502  0.41048005227E+03  0.35367954390E+03 -0.68667409658E+03  0.87470246828E+03  0.25500000920E-02 0. -1.
</event>
<event>
 5   0  0.5251252E-06  0.1997998E+04  0.7818609E-02  0.8607557E-01
       -2   -1    0    0    0  501  0.00000000000E+00  0.00000000000E+00  0.95222522822E+03  0.95222522822E+03  0.25500000920E-02 0.  1.
        2   -1    0    0  501    0  0.00000000000E+00  0.00000000000E+00 -0.10480705759E+04  0.10480705759E+04  0.25500000920E-02 0. -1.
    10030    2    1    2    0    0  0.00000000000E+00  0.00000000000E+00 -0.95845347729E+02  0.20002958042E+04  0.19979982416E+04 0.  0.
        5    1    3    3  502    0  0.12224226799E+03  0.25735372056E+03  0.91067671005E+03  0.95421604986E+03  0.46999998093E+01 0.  1.
       -5    1    3    3    0  502 -0.12224226799E+03 -0.25735372056E+03 -0.10065220578E+04  0.10460797543E+04  0.46999998093E+01 0. -1.
</event>
<event>
 5   0  0.2386776E-06  0.1997327E+04  0.7818609E-02  0.8607872E-01
       -1   -1    0    0    0  501  0.00000000000E+00  0.00000000000E+00  0.11963272529E+04  0.11963272529E+04  0.50400001928E-02 0.  1.
        1   -1    0    0  501    0  0.00000000000E+00  0.00000000000E+00 -0.83365852840E+03  0.83365852842E+03  0.50400001928E-02 0. -1.
    10030    2    1    2    0    0  0.00000000000E+00  0.00000000000E+00  0.36266872450E+03  0.20299857813E+04  0.19973266304E+04 0.  0.
        2    1    3    3  502    0  0.93591784754E+03 -0.14207986785E+03  0.50465476445E+03  0.10727559543E+04  0.25500000920E-02 0.  1.
       -2    1    3    3    0  502 -0.93591784754E+03  0.14207986785E+03 -0.14198603995E+03  0.95722982703E+03  0.25500000920E-02 0. -1.
</event>
<event>
 5   0  0.2379743E-06  0.2001101E+04  0.7818609E-02  0.8606106E-01
        1   -1    0    0  501    0  0.00000000000E+00  0.00000000000E+00  0.95663049529E+03  0.95663049530E+03  0.50400001928E-02 0.  1.
       -1   -1    0    0    0  501  0.00000000000E+00  0.00000000000E+00 -0.10464874178E+04  0.10464874178E+04  0.50400001928E-02 0. -1.
    10030    2    1    2    0    0  0.00000000000E+00  0.00000000000E+00 -0.89856922499E+02  0.20031179131E+04  0.20011014735E+04 0.  0.
        5    1    3    3  502    0 -0.65785569571E+03  0.44158307053E+03 -0.65653510277E+03  0.10289947307E+04  0.46999998093E+01 0. -1.
       -5    1    3    3    0  502  0.65785569571E+03 -0.44158307053E+03  0.56667818028E+03  0.97412318244E+03  0.46999998093E+01 0.  1.
</event>
<event>
 5   0  0.5118981E-06  0.1999557E+04  0.7818609E-02  0.8606828E-01
       -2   -1    0    0    0  501  0.00000000000E+00  0.00000000000E+00  0.62575436288E+03  0.62575436288E+03  0.25500000920E-02 0. -1.
        2   -1    0    0  501    0  0.00000000000E+00  0.00000000000E+00 -0.15973629911E+04  0.15973629911E+04  0.25500000920E-02 0.  1.
    10030    2    1    2    0    0  0.00000000000E+00  0.00000000000E+00 -0.97160862820E+03  0.22231173540E+04  0.19995568117E+04 0.  0.
        4    1    3    3  502    0  0.91213602301E+02 -0.64279544893E+03  0.35949612553E+03  0.74212194927E+03  0.12699999809E+01 0. -1.
       -4    1    3    3    0  502 -0.91213602301E+02  0.64279544893E+03 -0.13311047537E+04  0.14809954047E+04  0.12699999809E+01 0.  1.
</event>
<event>
 5   0  0.2311520E-06  0.2002342E+04  0.7818609E-02  0.8605526E-01
       -1   -1    0    0    0  501  0.00000000000E+00  0.00000000000E+00  0.10383746777E+04  0.10383746777E+04  0.50400001928E-02 0.  1.
        1   -1    0    0  501    0  0.00000000000E+00  0.00000000000E+00 -0.96530055085E+03  0.96530055086E+03  0.50400001928E-02 0. -1.
    10030    2    1    2    0    0  0.00000000000E+00  0.00000000000E+00  0.73074126820E+02  0.20036752285E+04  0.20023422768E+04 0.  0.
        3    1    3    3  502    0  0.83007003238E+03 -0.24429015227E+03 -0.46743468256E+03  0.98345774175E+03  0.10100000352E+00 0. -1.
       -3    1    3    3    0  502 -0.83007003238E+03  0.24429015227E+03  0.54050880938E+03  0.10202174868E+04  0.10100000352E+00 0.  1.
</event>
<event>
 5   0  0.2386776E-06  0.1999856E+04  0.7818609E-02  0.8606688E-01
        1   -1    0    0  501    0  0.00000000000E+00  0.00000000000E+00  0.83343896275E+03  0.83343896276E+03  0.50400001928E-02 0.  1.
       -1   -1    0    0    0  501  0.00000000000E+00  0.00000000000E+00 -0.11996749577E+04  0.11996749578E+04  0.50400001928E-02 0. -1.
    10030    2    1    2    0    0  0.00000000000E+00  0.00000000000E+00 -0.36623599499E+03  0.20331139205E+04  0.19998558472E+04 0.  0.
        2    1    3    3  502    0 -0.29002356411E+03  0.80990497274E+03  0.33506045774E+03  0.92321462453E+03  0.25500000920E-02 0.  1.
       -2    1    3    3    0  502  0.29002356411E+03 -0.80990497274E+03 -0.70129645273E+03  0.11098992960E+04  0.25500000920E-02 0. -1.
</event>
<event>
 5   0  0.5129100E-06  0.1999624E+04  0.7818609E-02  0.8606797E-01
        2   -1    0    0  501    0  0.00000000000E+00  0.00000000000E+00  0.57626999554E+03  0.57626999554E+03  0.25500000920E-02 0.  1.
       -2   -1    0    0    0  501  0.00000000000E+00  0.00000000000E+00 -0.17346450665E+04  0.17346450665E+04  0.25500000920E-02 0. -1.
    10030    2    1    2    0    0  0.00000000000E+00  0.00000000000E+00 -0.11583750710E+04  0.23109150621E+04  0.19996238694E+04 0.  0.
        2    1    3    3  502    0 -0.95251709124E+03  0.28372508869E+03 -0.45346216746E+03  0.10924361182E+04  0.25500000920E-02 0. -1.
       -2    1    3    3    0  502  0.95251709124E+03 -0.28372508869E+03 -0.70491290352E+03  0.12184789439E+04  0.25500000920E-02 0.  1.
</event>
<event>
 5   0  0.5251252E-06  0.1999391E+04  0.7818609E-02  0.8606906E-01
        2   -1    0    0  501    0  0.00000000000E+00  0.00000000000E+00  0.18872389721E+04  0.18872389721E+04  0.25500000920E-02 0.  1.
       -2   -1    0    0    0  501  0.00000000000E+00  0.00000000000E+00 -0.52955174289E+03  0.52955174290E+03  0.25500000920E-02 0. -1.
    10030    2    1    2    0    0  0.00000000000E+00  0.00000000000E+00  0.13576872292E+04  0.24167907150E+04  0.19993905941E+04 0.  0.
        5    1    3    3  502    0 -0.68921178069E+02  0.26023534034E+03  0.18425861585E+04  0.18621542370E+04  0.46999998093E+01 0.  1.
       -5    1    3    3    0  502  0.68921178069E+02 -0.26023534034E+03 -0.48489892923E+03  0.55463647799E+03  0.46999998093E+01 0. -1.
</event>
<event>
 5   0  0.2356996E-06  0.1996130E+04  0.7818609E-02  0.8608432E-01
       -1   -1    0    0    0  501  0.00000000000E+00  0.00000000000E+00  0.49915267031E+03  0.49915267033E+03  0.50400001928E-02 0.  1.
        1   -1    0    0  501    0  0.00000000000E+00  0.00000000000E+00 -0.19956486479E+04  0.19956486479E+04  0.50400001928E-02 0. -1.
    10030    2    1    2    0    0  0.00000000000E+00  0.00000000000E+00 -0.14964959775E+04  0.24948013182E+04  0.19961296066E+04 0.  0.
        4    1    3    3  502    0  0.57190236077E+03 -0.66023642164E+03 -0.14476863005E+03  0.88540612820E+03  0.12699999809E+01 0.  1.
       -4    1    3    3    0  502 -0.57190236077E+03  0.66023642164E+03 -0.13517273475E+04  0.16093951900E+04  0.12699999809E+01 0. -1.
</event>
<event>
 5   0  0.5251252E-06  0.1998959E+04  0.7818609E-02  0.8607107E-01
        2   -1    0    0  501    0  0.00000000000E+00  0.00000000000E+00  0.11049116464E+04  0.11049116464E+04  0.25500000920E-02 0. -1.
       -2   -1    0    0    0  501  0.00000000000E+00  0.00000000000E+00 -0.90410807413E+03  0.90410807414E+03  0.25500000920E-02 0.  1.
    10030    2    1    2    0    0  0.00000000000E+00  0.00000000000E+00  0.20080357229E+03  0.20090197206E+04  0.19989592700E+04 0.  0.
        5    1    3    3  502    0 -0.51760196733E+03 -0.14530086725E+03  0.94720581313E+03  0.10891487874E+04  0.46999998093E+01 0. -1.
       -5    1    3    3    0  502  0.51760196733E+03  0.14530086725E+03 -0.74640224084E+03  0.91987093319E+03  0.46999998093E+01 0.  1.
</event>
<event>
 5   0  0.2311520E-06  0.1999324E+04  0.7818609E-02  0.8606937E-01
       -1   -1    0    0    0  501  0.00000000000E+00  0.00000000000E+00  0.99795636273E+03  0.99795636274E+03  0.50400001928E-02 0.  1.
        1   -1    0    0  501    0  0.00000000000E+00  0.00000000000E+00 -0.10013710217E+04  0.10013710217E+04  0.50400001928E-02 0. -1.
    10030    2    1    2    0    0  0.00000000000E+00  0.00000000000E+00 -0.34146589512E+01  0.19993273844E+04  0.19993244685E+04 0.  0.
        3    1    3    3  502    0 -0.38348038502E+03  0.71274383299E+02 -0.92213646860E+03  0.10012356967E+04  0.10100000352E+00 0. -1.
       -3    1    3    3    0  502  0.38348038502E+03 -0.71274383299E+02  0.91872180965E+03  0.99809168774E+03  0.10100000352E+00 0.  1.
</event>
<event>
 5   0  0.5129100E-06  0.2003470E+04  0.7818609E-02  0.8605000E-01
        2   -1    0    0  501    0  0.00000000000E+00  0.00000000000E+00  0.18495845435E+04  0.18495845435E+04  0.25500000920E-02 0.  1.
       -2   -1    0    0    0  501  0.00000000000E+00  0.00000000000E+00 -0.54253953255E+03  0.54253953255E+03  0.25500000920E-02 0. -1.
    10030    2    1    2    0    0  0.00000000000E+00  0.00000000000E+00  0.13070450109E+04  0.23921240760E+04  0.20034697239E+04 0.  0.
        2    1    3    3  502    0  0.82598881826E+03 -0.41416966106E+03  0.19158745564E+03  0.94366296378E+03  0.25500000920E-02 0. -1.
       -2    1    3    3    0  502 -0.82598881826E+03  0.41416966106E+03  0.11154575553E+04  0.14484611122E+04  0.25500000920E-02 0.  1.
</event>
<event>
 5   0  0.5030137E-06  0.1999268E+04  0.7818609E-02  0.8606963E-01
        2   -1    0    0  501    0  0.00000000000E+00  0.00000000000E+00  0.11205616734E+04  0.11205616734E+04  0.25500000920E-02 0. -1.
       -2   -1    0    0    0  501  0.00000000000E+00  0.00000000000E+00 -0.89175618753E+03  0.89175618754E+03  0.25500000920E-02 0.  1.
    10030    2    1    2    0    0  0.00000000000E+00  0.00000000000E+00  0.22880548589E+03  0.20123178610E+04  0.19992676717E+04 0.  0.
        3    1    3    3  502    0 -0.97487425719E+03 -0.94142205604E+02 -0.86966214091E+02  0.98326278522E+03  0.10100000352E+00 0.  1.
       -3    1    3    3    0  502  0.97487425719E+03  0.94142205604E+02  0.31577169998E+03  0.10290550757E+04  0.10100000352E+00 0. -1.
</event>
<event>
 5   0  0.4956214E-06  0.1999672E+04  0.7818609E-02  0.8606774E-01
       -2   -1    0    0    0  501  0.00000000000E+00  0.00000000000E+00  0.48411888159E+03  0.48411888160E+03  0.25500000920E-02 0.  1.
        2   -1    0    0  501    0  0.00000000000E+00  0.00000000000E+00 -0.20649310848E+04  0.20649310848E+04  0.25500000920E-02 0. -1.
    10030    2    1    2    0    0  0.00000000000E+00  0.00000000000E+00 -0.15808122032E+04  0.25490499664E+04  0.19996721005E+04 0.  0.
        1    1    3    3  502    0  0.30085941838E+03 -0.54828584015E+02 -0.20038494466E+04  0.20270508548E+04  0.50400001928E-02 0. -1.
       -1    1    3    3    0  502 -0.30085941838E+03  0.54828584015E+02  0.42303724337E+03  0.52199911164E+03  0.50400001928E-02 0.  1.
</event>
<event>
 5   0  0.2313821E-06  0.1999753E+04  0.7818609E-02  0.8606736E-01
       -1   -1    0    0    0  501  0.00000000000E+00  0.00000000000E+00  0.53919491876E+03  0.53919491879E+03  0.50400001928E-02 0.  1.
        1   -1    0    0  501    0  0.00000000000E+00  0.00000000000E+00 -0.18541580353E+04  0.18541580354E+04  0.50400001928E-02 0. -1.
    10030    2    1    2    0    0  0.00000000000E+00  0.00000000000E+00 -0.13149631166E+04  0.23933529541E+04  0.19997525760E+04 0.  0.
        1    1    3    3  502    0  0.67451495759E+03  0.47447461597E+03 -0.13341437588E+04  0.15684502409E+04  0.50400001928E-02 0. -1.
       -1    1    3    3    0  502 -0.67451495759E+03 -0.47447461597E+03  0.19180642174E+02  0.82490271321E+03  0.50400001928E-02 0.  1.
</event>
<event>
 5   0  0.5030137E-06  0.1999460E+04  0.7818609E-02  0.8606873E-01
        2   -1    0    0  501    0  0.00000000000E+00  0.00000000000E+00  0.88675869791E+03  0.88675869791E+03  0.25500000920E-02 0.  1.
       -2   -1    0    0    0  501  0.00000000000E+00  0.00000000000E+00 -0.11270934556E+04  0.11270934556E+04  0.25500000920E-02 0. -1.
    10030    2    1    2    0    0  0.00000000000E+00  0.00000000000E+00 -0.24033475767E+03  0.20138521535E+04  0.19994598522E+04 0.  0.
        3    1    3    3  502    0 -0.34881160501E+03 -0.52683650090E+03  0.66015682161E+03  0.91380155055E+03  0.10100000352E+00 0.  1.
       -3    1    3    3    0  502  0.34881160501E+03  0.52683650090E+03 -0.90049157928E+03  0.11000506029E+04  0.10100000352E+00 0. -1.
</event>
<event>
 5   0  0.2356996E-06  0.2000623E+04  0.7818609E-02  0.8606329E-01
       -1   -1    0    0    0  501  0.00000000000E+00  0.00000000000E+00  0.71944789848E+03  0.71944789850E+03  0.50400001928E-02 0. -1.
        1   -1    0    0  501    0  0.00000000000E+00  0.00000000000E+00 -0.13908210328E+04  0.13908210328E+04  0.50400001928E-02 0.  1.
    10030    2    1    2    0    0  0.00000000000E+00  0.00000000000E+00 -0.67137313432E+03  0.21102689313E+04  0.20006231722E+04 0.  0.
        4    1    3    3  502    0  0.34951933268E+03 -0.17133198024E+03  0.63628320918E+03  0.74590639263E+03  0.12699999809E+01 0. -1.
       -4    1    3    3    0  502 -0.34951933268E+03  0.17133198024E+03 -0.13076563435E+04  0.13643625387E+04  0.12699999809E+01 0.  1.
</event>
<event>
 5   0  0.5251252E-06  0.2004931E+04  0.7818609E-02  0.8604319E-01
        2   -1    0    0  501    0  0.00000000000E+00  0.00000000000E+00  0.39923204706E+03  0.39923204707E+03  0.25500000920E-02 0. -1.
       -2   -1    0    0    0  501  0.00000000000E+00  0.00000000000E+00 -0.25171743313E+04  0.25171743313E+04  0.25500000920E-02 0.  1.
    10030    2    1    2    0    0  0.00000000000E+00  0.00000000000E+00 -0.21179422843E+04  0.29164063784E+04  0.20049305834E+04 0.  0.
        5    1    3    3  502    0  0.14914113354E+03 -0.50146423606E+03  0.18487971169E+03  0.55489823892E+03  0.46999998093E+01 0. -1.
       -5    1    3    3    0  502 -0.14914113354E+03  0.50146423606E+03 -0.23028219959E+04  0.23615081395E+04  0.46999998093E+01 0.  1.
</event>
<event>
 5   0  0.2356996E-06  0.2000942E+04  0.7818609E-02  0.8606180E-01
       -1   -1    0    0    0  501  0.00000000000E+00  0.00000000000E+00  0.71686147902E+03  0.71686147904E+03  0.50400001928E-02 0. -1.
        1   -1    0    0  501    0  0.00000000000E+00  0.00000000000E+00 -0.13962839547E+04  0.13962839547E+04  0.50400001928E-02 0.  1.
    10030    2    1    2    0    0  0.00000000000E+00  0.00000000000E+00 -0.67942247571E+03  0.21131454338E+04  0.20009419591E+04 0.  0.
        4    1    3    3  502    0 -0.74371462238E+03  0.34409107500E+03 -0.94585658123E+03  0.12514617024E+04  0.12699999809E+01 0.  1.
       -4    1    3    3    0  502  0.74371462238E+03 -0.34409107500E+03  0.26643410552E+03  0.86168373138E+03  0.12699999809E+01 0. -1.
</event>
<event>
 5   0  0.2311520E-06  0.2000209E+04  0.7818609E-02  0.8606523E-01
        1   -1    0    0  501    0  0.00000000000E+00  0.00000000000E+00  0.12819651227E+04  0.12819651227E+04  0.50400001928E-02 0.  1.
       -1   -1    0    0    0  501  0.00000000000E+00  0.00000000000E+00 -0.78021560361E+03  0.78021560362E+03  0.50400001928E-02 0. -1.
    10030    2    1    2    0    0  0.00000000000E+00  0.00000000000E+00  0.50174951905E+03  0.20621807263E+04  0.20002091811E+04 0.  0.
        3    1    3    3  502    0 -0.34765735310E+03  0.63591864804E+03  0.96139379789E+03  0.12039668629E+04  0.10100000352E+00 0.  1.
       -3    1    3    3    0  502  0.34765735310E+03 -0.63591864804E+03 -0.45964427883E+03  0.85821386342E+03  0.10100000352E+00 0. -1.
</event>
<event>
 5   0  0.4956214E-06  0.2001455E+04  0.7818609E-02  0.8605941E-01
       -2   -1    0    0    0  501  0.00000000000E+00  0.00000000000E+00  0.42206483694E+03  0.42206483694E+03  0.25500000920E-02 0.  1.
        2   -1    0    0  501    0  0.00000000000E+00  0.00000000000E+00 -0.23727520472E+04  0.23727520472E+04  0.25500000920E-02 0. -1.
    10030    2    1    2    0    0  0.00000000000E+00  0.00000000000E+00 -0.19506872103E+04  0.27948168842E+04  0.20014546769E+04 0.  0.
        1    1    3    3  502    0 -0.30547139285E+03 -0.19238579042E+03 -0.22786577804E+04  0.23070774465E+04  0.50400001928E-02 0. -1.
       -1    1    3    3    0  502  0.30547139285E+03  0.19238579042E+03  0.32797057006E+03  0.48773943767E+03  0.50400001928E-02 0.  1.
</event>
<event>
 5   0  0.5118981E-06  0.1999439E+04  0.7818609E-02  0.8606883E-01
        2   -1    0    0  501    0  0.00000000000E+00  0.00000000000E+00  0.11200272626E+04  0.11200272626E+04  0.25500000920E-02 0. -1.
       -2   -1    0    0    0  501  0.00000000000E+00  0.00000000000E+00 -0.89233482347E+03  0.89233482347E+03  0.25500000920E-02 0.  1.
    10030    2    1    2    0    0  0.00000000000E+00  0.00000000000E+00  0.22769243915E+03  0.20123620861E+04  0.19994392511E+04 0.  0.
        4    1    3    3  502    0 -0.26249242181E+03 -0.71190517817E+03  0.76899616111E+03  0.10803091978E+04  0.12699999809E+01 0. -1.
       -4    1    3    3    0  502  0.26249242181E+03  0.71190517817E+03 -0.54130372196E+03  0.93205288826E+03  0.12699999809E+01 0.  1.
</event>
<event>
 5   0  0.5030137E-06  0.2000430E+04  0.7818609E-02  0.8606420E-01
        2   -1    0    0  501    0  0.00000000000E+00  0.00000000000E+00  0.14332732780E+04  0.14332732780E+04  0.25500000920E-02 0. -1.
       -2   -1    0    0    0  501  0.00000000000E+00  0.00000000000E+00 -0.69800386453E+03  0.69800386453E+03  0.25500000920E-02 0.  1.
    10030    2    1    2    0    0  0.00000000000E+00  0.00000000000E+00  0.73526941350E+03  0.21312771426E+04  0.20004302407E+04 0.  0.
        3    1    3    3  502    0 -0.74320706561E+03  0.39085054101E+03  0.94660348395E+03  0.12653770402E+04  0.10100000352E+00 0. -1.
       -3    1    3    3    0  502  0.74320706561E+03 -0.39085054101E+03 -0.21133407045E+03  0.86590010238E+03  0.10100000352E+00 0.  1.
</event>
<event>
 5   0  0.2356996E-06  0.2000259E+04  0.7818609E-02  0.8606500E-01
       -1   -1    0    0    0  501  0.00000000000E+00  0.00000000000E+00  0.22229480206E+04  0.22229480206E+04  0.50400001928E-02 0. -1.
        1   -1    0    0  501    0  0.00000000000E+00  0.00000000000E+00 -0.44996952896E+03  0.44996952899E+03  0.50400001928E-02 0.  1.
    10030    2    1    2    0    0  0.00000000000E+00  0.00000000000E+00  0.17729784916E+04  0.26729175496E+04  0.20002588570E+04 0.  0.
        4    1    3    3  502    0  0.26901706420E+03  0.80024034908E+03  0.16998272747E+03  0.86119134788E+03  0.12699999809E+01 0.  1.
       -4    1    3    3    0  502 -0.26901706420E+03 -0.80024034908E+03  0.16029957642E+04  0.18117262017E+04  0.12699999809E+01 0. -1.
</event>
<event>
 5   0  0.2386776E-06  0.2000471E+04  0.7818609E-02  0.8606400E-01
       -1   -1    0    0    0  501  0.00000000000E+00  0.00000000000E+00  0.12764785201E+04  0.12764785201E+04  0.50400001928E-02 0. -1.
        1   -1    0    0  501    0  0.00000000000E+00  0.00000000000E+00 -0.78377453819E+03  0.78377453821E+03  0.50400001928E-02 0.  1.
    10030    2    1    2    0    0  0.00000000000E+00  0.00000000000E+00  0.49270398191E+03  0.20602530583E+04  0.20004713071E+04 0.  0.
        2    1    3    3  502    0  0.63673501750E+03 -0.63167991355E+03 -0.20962070736E+03  0.92108188380E+03  0.25500000920E-02 0.  1.
       -2    1    3    3    0  502 -0.63673501750E+03  0.63167991355E+03  0.70232468927E+03  0.11391711745E+04  0.25500000920E-02 0. -1.
</event>
<event>
 5   0  0.5251252E-06  0.1999986E+04  0.7818609E-02  0.8606627E-01
        2   -1    0    0  501    0  0.00000000000E+00  0.00000000000E+00  0.14802674757E+04  0.14802674758E+04  0.25500000920E-02 0.  1.
       -2   -1    0    0    0  501  0.00000000000E+00  0.00000000000E+00 -0.67554416726E+03  0.67554416727E+03  0.25500000920E-02 0. -1.
    10030    2    1    2    0    0  0.00000000000E+00  0.00000000000E+00  0.80472330848E+03  0.21558116430E+04  0.19999860592E+04 0.  0.
        5    1    3    3  502    0 -0.16612369201E+03  0.44907168499E+01 -0.66054327672E+03  0.68114371318E+03  0.46999998093E+01 0. -1.
       -5    1    3    3    0  502  0.16612369201E+03 -0.44907168499E+01  0.14652665852E+04  0.14746679298E+04  0.46999998093E+01 0.  1.
</event>
<event>
 5   0  0.2313821E-06  0.2000673E+04  0.7818609E-02  0.8606306E-01
        1   -1    0    0  501    0  0.00000000000E+00  0.00000000000E+00  0.95244046858E+03  0.95244046859E+03  0.50400001928E-02 0.  1.
       -1   -1    0    0    0  501  0.00000000000E+00  0.00000000000E+00 -0.10506410287E+04  0.10506410287E+04  0.50400001928E-02 0. -1.
    10030    2    1    2    0    0  0.00000000000E+00  0.00000000000E+00 -0.98200560087E+02  0.20030814973E+04  0.20006729205E+04 0.  0.
        1    1    3    3  502    0  0.31250899322E+03 -0.58403711538E+03  0.70140993148E+03  0.96474717672E+03  0.50400001928E-02 0.  1.
       -1    1    3    3    0  502 -0.31250899322E+03  0.58403711538E+03 -0.79961049157E+03  0.10383343206E+04  0.50400001928E-02 0. -1.
</event>
<event>
 5   0  0.5030137E-06  0.1999423E+04  0.7818609E-02  0.8606890E-01
       -2   -1    0    0    0  501  0.00000000000E+00  0.00000000000E+00  0.79407794981E+03  0.79407794981E+03  0.25500000920E-02 0. -1.
        2   -1    0    0  501    0  0.00000000000E+00  0.00000000000E+00 -0.12585962977E+04  0.12585962977E+04  0.25500000920E-02 0.  1.
    10030    2    1    2    0    0  0.00000000000E+00  0.00000000000E+00 -0.46451834785E+03  0.20526742475E+04  0.19994234846E+04 0.  0.
        3    1    3    3  502    0 -0.52879977671E+02  0.60640316000E+03  0.58189545441E+03  0.84209465891E+03  0.10100000352E+00 0. -1.
       -3    1    3    3    0  502  0.52879977671E+02 -0.60640316000E+03 -0.10464138023E+04  0.12105795886E+04  0.10100000352E+00 0.  1.
</event>
<event>
 5   0  0.2386776E-06  0.1998459E+04  0.7818609E-02  0.8607342E-01
       -1   -1    0    0    0  501  0.00000000000E+00  0.00000000000E+00  0.98070909600E+03  0.98070909601E+03  0.50400001928E-02 0. -1.
        1   -1    0    0  501    0  0.00000000000E+00  0.00000000000E+00 -0.10180995297E+04  0.10180995297E+04  0.50400001928E-02 0.  1.
    10030    2    1    2    0    0  0.00000000000E+00  0.00000000000E+00 -0.37390433681E+02  0.19988086257E+04  0.19984588756E+04 0.  0.
        2    1    3    3  502    0  0.74677899802E+03  0.50821049745E+03  0.40858288105E+03  0.99141149494E+03  0.25500000920E-02 0. -1.
       -2    1    3    3    0  502 -0.74677899802E+03 -0.50821049745E+03 -0.44597331473E+03  0.10073971308E+04  0.25500000920E-02 0.  1.
</event>
<event>
 5   0  0.2356996E-06  0.2000258E+04  0.7818609E-02  0.8606500E-01
        1   -1    0    0  501    0  0.00000000000E+00  0.00000000000E+00  0.12993906153E+04  0.12993906153E+04  0.50400001928E-02 0. -1.
       -1   -1    0    0    0  501  0.00000000000E+00  0.00000000000E+00 -0.76978972408E+03  0.76978972410E+03  0.50400001928E-02 0.  1.
    10030    2    1    2    0    0  0.00000000000E+00  0.00000000000E+00  0.52960089126E+03  0.20691803394E+04  0.20002575267E+04 0.  0.
        4    1    3    3  502    0 -0.77269626870E+02 -0.78476963485E+03  0.90115710414E+03  0.11974638676E+04  0.12699999809E+01 0. -1.
       -4    1    3    3    0  502  0.77269626870E+02  0.78476963485E+03 -0.37155621288E+03  0.87171647182E+03  0.12699999809E+01 0.  1.
</event>
<event>
 5   0  0.1777750E-06  0.1999565E+04  0.7818609E-02  0.8606824E-01
       -3   -1    0    0    0  501  0.00000000000E+00  0.00000000000E+00  0.14848863184E+04  0.14848863218E+04  0.10100000352E+00 0. -1.
        3   -1    0    0  501    0  0.00000000000E+00  0.00000000000E+00 -0.67315942371E+03  0.67315943129E+03  0.10100000352E+00 0.  1.
    10030    2    1    2    0    0  0.00000000000E+00  0.00000000000E+00  0.81172689464E+03  0.21580457531E+04  0.19995651830E+04 0.  0.
        1    1    3    3  502    0  0.64009668599E+03 -0.70338108333E+03  0.73045006770E+02  0.95383661538E+03  0.50400001928E-02 0.  1.
       -1    1    3    3    0  502 -0.64009668599E+03  0.70338108333E+03  0.73868188787E+03  0.12042091377E+04  0.50400001928E-02 0. -1.
</event>
<event>
 5   0  0.5118981E-06  0.1999765E+04  0.7818609E-02  0.8606731E-01
       -2   -1    0    0    0  501  0.00000000000E+00  0.00000000000E+00  0.60105683999E+03  0.60105684000E+03  0.25500000920E-02 0. -1.
        2   -1    0    0  501    0  0.00000000000E+00  0.00000000000E+00 -0.16633452769E+04  0.16633452769E+04  0.25500000920E-02 0.  1.
    10030    2    1    2    0    0  0.00000000000E+00  0.00000000000E+00 -0.10622884369E+04  0.22644021169E+04  0.19997650422E+04 0.  0.
        4    1    3    3  502    0  0.25735614665E+03  0.93574835897E+03 -0.80362593019E+03  0.12600291370E+04  0.12699999809E+01 0.  1.
       -4    1    3    3    0  502 -0.25735614665E+03 -0.93574835897E+03 -0.25866250676E+03  0.10043729799E+04  0.12699999809E+01 0. -1.
</event>
<event>
 5   0  0.2379743E-06  0.1999315E+04  0.7818609E-02  0.8606941E-01
        1   -1    0    0  501    0  0.00000000000E+00  0.00000000000E+00  0.60855228750E+03  0.60855228752E+03  0.50400001928E-02 0. -1.
       -1   -1    0    0    0  501  0.00000000000E+00  0.00000000000E+00 -0.16421188833E+04  0.16421188833E+04  0.50400001928E-02 0.  1.
    10030    2    1    2    0    0  0.00000000000E+00  0.00000000000E+00 -0.10335665958E+04  0.22506711708E+04  0.19993150855E+04 0.  0.
        5    1    3    3  502    0  0.46490797184E+03 -0.30829982464E+03 -0.14505924651E+04  0.15541649829E+04  0.46999998093E+01 0.  1.
       -5    1    3    3    0  502 -0.46490797184E+03  0.30829982464E+03  0.41702586932E+03  0.69650618794E+03  0.46999998093E+01 0. -1.
</event>
<event>
 5   0  0.5129100E-06  0.2000359E+04  0.7818609E-02  0.8606453E-01
       -2   -1    0    0    0  501  0.00000000000E+00  0.00000000000E+00  0.59290383167E+03  0.59290383168E+03  0.25500000920E-02 0.  1.
        2   -1    0    0  501    0  0.00000000000E+00  0.00000000000E+00 -0.16872190896E+04  0.16872190896E+04  0.25500000920E-02 0. -1.
    10030    2    1    2    0    0  0.00000000000E+00  0.00000000000E+00 -0.10943152579E+04  0.22801229212E+04  0.20003586309E+04 0.  0.
        2    1    3    3  502    0  0.63520924903E+03  0.49150589673E+02  0.33168036907E+03  0.71827462558E+03  0.25500000920E-02 0.  1.
       -2    1    3    3    0  502 -0.63520924903E+03 -0.49150589673E+02 -0.14259956270E+04  0.15618482957E+04  0.25500000920E-02 0. -1.
</event>
<event>
 5   0  0.2356996E-06  0.2000035E+04  0.7818609E-02  0.8606604E-01
       -1   -1    0    0    0  501  0.00000000000E+00  0.00000000000E+00  0.64633859393E+03  0.64633859395E+03  0.50400001928E-02 0. -1.
        1   -1    0    0  501    0  0.00000000000E+00  0.00000000000E+00 -0.15472307714E+04  0.15472307714E+04  0.50400001928E-02 0.  1.
    10030    2    1    2    0    0  0.00000000000E+00  0.00000000000E+00 -0.90089217749E+03  0.21935693654E+04  0.20000349610E+04 0.  0.
        4    1    3    3  502    0  0.47184507204E+03  0.75475827864E+03  0.49437826644E+02  0.89148389935E+03  0.12699999809E+01 0. -1.
       -4    1    3    3    0  502 -0.47184507204E+03 -0.75475827864E+03 -0.95033000414E+03  0.13020854660E+04  0.12699999809E+01 0.  1.
</event>
<event>
 5   0  0.2313821E-06  0.1999949E+04  0.7818609E-02  0.8606644E-01
        1   -1    0    0  501    0  0.00000000000E+00  0.00000000000E+00  0.96800452321E+03  0.96800452322E+03  0.50400001928E-02 0. -1.
       -1   -1    0    0    0  501  0.00000000000E+00  0.00000000000E+00 -0.10330006216E+04  0.10330006216E+04  0.50400001928E-02 0.  1.
    10030    2    1    2    0    0  0.00000000000E+00  0.00000000000E+00 -0.64996098406E+02  0.20010051449E+04  0.19999492736E+04 0.  0.
        1    1    3    3  502    0 -0.85077274312E+03  0.47197020527E+03 -0.26365928495E+03  0.10080110881E+04  0.50400001928E-02 0.  1.
       -1    1    3    3    0  502  0.85077274312E+03 -0.47197020527E+03  0.19866318654E+03  0.99299405679E+03  0.50400001928E-02 0. -1.
</event>
<event>
 5   0  0.5129100E-06  0.2000094E+04  0.7818609E-02  0.8606577E-01
        2   -1    0    0  501    0  0.00000000000E+00  0.00000000000E+00  0.10895381181E+04  0.10895381181E+04  0.25500000920E-02 0.  1.
       -2   -1    0    0    0  501  0.00000000000E+00  0.00000000000E+00 -0.91790656480E+03  0.91790656480E+03  0.25500000920E-02 0. -1.
    10030    2    1    2    0    0  0.00000000000E+00  0.00000000000E+00  0.17163155335E+03  0.20074446829E+04  0.20000941890E+04 0.  0.
        2    1    3    3  502    0 -0.20084821196E+03  0.82087908509E+03  0.62248799468E+03  0.10496064882E+04  0.25500000920E-02 0.  1.
       -2    1    3    3    0  502  0.20084821196E+03 -0.82087908509E+03 -0.45085644134E+03  0.95783819473E+03  0.25500000920E-02 0. -1.
</event>
<event>
 5   0  0.4956214E-06  0.2000038E+04  0.7818609E-02  0.8606603E-01
       -2   -1    0    0    0  501  0.00000000000E+00  0.00000000000E+00  0.57797411213E+03  0.57797411213E+03  0.25500000920E-02 0. -1.
        2   -1    0    0  501    0  0.00000000000E+00  0.00000000000E+00 -0.17302478879E+04  0.17302478879E+04  0.25500000920E-02 0.  1.
    10030    2    1    2    0    0  0.00000000000E+00  0.00000000000E+00 -0.11522737757E+04  0.23082220000E+04  0.20000384864E+04 0.  0.
        1    1    3    3  502    0  0.41706174637E+03  0.43360152163E+03 -0.14980275418E+04  0.16143225501E+04  0.50400001928E-02 0.  1.
       -1    1    3    3    0  502 -0.41706174637E+03 -0.43360152163E+03  0.34575376602E+03  0.69389944991E+03  0.50400001928E-02 0. -1.
</event>
<event>
 5   0  0.2386776E-06  0.2000050E+04  0.7818609E-02  0.8606597E-01
       -1   -1    0    0    0  501  0.00000000000E+00  0.00000000000E+00  0.84695577660E+03  0.84695577662E+03  0.50400001928E-02 0. -1.
        1   -1    0    0  501    0  0.00000000000E+00  0.00000000000E+00 -0.11807577649E+04  0.11807577649E+04  0.50400001928E-02 0.  1.
    10030    2    1    2    0    0  0.00000000000E+00  0.00000000000E+00 -0.33380198826E+03  0.20277135415E+04  0.20000496091E+04 0.  0.
        2    1    3    3  502    0  0.66555416663E+03  0.12537329253E+03 -0.91285567654E+03  0.11366557515E+04  0.25500000920E-02 0.  1.
       -2    1    3    3    0  502 -0.66555416663E+03 -0.12537329253E+03  0.57905368828E+03  0.89105779000E+03  0.25500000920E-02 0. -1.
</event>
<event>
 5   0  0.2313821E-06  0.1999919E+04  0.7818609E-02  0.8606659E-01
       -1   -1    0    0    0  501  0.00000000000E+00  0.00000000000E+00  0.54300398647E+03  0.54300398649E+03  0.50400001928E-02 0. -1.
        1   -1    0    0  501    0  0.00000000000E+00  0.00000000000E+00 -0.18414572938E+04  0.18414572938E+04  0.50400001928E-02 0.  1.
    10030    2    1    2    0    0  0.00000000000E+00  0.00000000000E+00 -0.12984533073E+04  0.23844612803E+04  0.19999186498E+04 0.  0.
        1    1    3    3  502    0  0.44801407907E+03 -0.59731029343E+03  0.14381595610E+03  0.76038097750E+03  0.50400001928E-02 0. -1.
       -1    1    3    3    0  502 -0.44801407907E+03  0.59731029343E+03 -0.14422692634E+04  0.16240803028E+04  0.50400001928E-02 0.  1.
</event>
<event>
 5   0  0.2313821E-06  0.2001909E+04  0.7818609E-02  0.8605729E-01
        1   -1    0    0  501    0  0.00000000000E+00  0.00000000000E+00  0.13552649289E+04  0.13552649289E+04  0.50400001928E-02 0.  1.
       -1   -1    0    0    0  501  0.00000000000E+00  0.00000000000E+00 -0.73927201390E+03  0.73927201391E+03  0.50400001928E-02 0. -1.
    10030    2    1    2    0    0  0.00000000000E+00  0.00000000000E+00  0.61599291504E+03  0.20945369429E+04  0.20019085228E+04 0.  0.
        1    1    3    3  502    0 -0.88421826809E+03 -0.45383841637E+03  0.43222612287E+03  0.10838037992E+04  0.50400001928E-02 0. -1.
       -1    1    3    3    0  502  0.88421826809E+03  0.45383841637E+03  0.18376679216E+03  0.10107331437E+04  0.50400001928E-02 0.  1.
</event>
<event>
 5   0  0.5118981E-06  0.2000151E+04  0.7818609E-02  0.8606550E-01
       -2   -1    0    0    0  501  0.00000000000E+00  0.00000000000E+00  0.11044210429E+04  0.11044210429E+04  0.25500000920E-02 0.  1.
        2   -1    0    0  501    0  0.00000000000E+00  0.00000000000E+00 -0.90558817209E+03  0.90558817209E+03  0.25500000920E-02 0. -1.
    10030    2    1    2    0    0  0.00000000000E+00  0.00000000000E+00  0.19883287083E+03  0.20100092150E+04  0.20001506278E+04 0.  0.
        4    1    3    3  502    0  0.86688342967E+02 -0.54300633237E+03 -0.74003208398E+03  0.92196520760E+03  0.12699999809E+01 0. -1.
       -4    1    3    3    0  502 -0.86688342967E+02  0.54300633237E+03  0.93886495481E+03  0.10880440074E+04  0.12699999809E+01 0.  1.
</event>
<event>
 5   0  0.2311520E-06  0.1999815E+04  0.7818609E-02  0.8606707E-01
        1   -1    0    0  501    0  0.00000000000E+00  0.00000000000E+00  0.24351998116E+04  0.24351998116E+04  0.50400001928E-02 0. -1.
       -1   -1    0    0    0  501  0.00000000000E+00  0.00000000000E+00 -0.41056798022E+03  0.41056798025E+03  0.50400001928E-02 0.  1.
    10030    2    1    2    0    0  0.00000000000E+00  0.00000000000E+00  0.20246318313E+04  0.28457677918E+04  0.19998150596E+04 0.  0.
        3    1    3    3  502    0 -0.32327151969E+03 -0.94053507213E+03  0.86508805891E+03  0.13181381025E+04  0.10100000352E+00 0. -1.
       -3    1    3    3    0  502  0.32327151969E+03  0.94053507213E+03  0.11595437724E+04  0.15276296893E+04  0.10100000352E+00 0.  1.
</event>
<event>
 5   0  0.2313821E-06  0.2000416E+04  0.7818609E-02  0.8606426E-01
        1   -1    0    0  501    0  0.00000000000E+00  0.00000000000E+00  0.10375966260E+04  0.10375966261E+04  0.50400001928E-02 0.  1.
       -1   -1    0    0    0  501  0.00000000000E+00  0.00000000000E+00 -0.96416708107E+03  0.96416708109E+03  0.50400001928E-02 0. -1.
    10030    2    1    2    0    0  0.00000000000E+00  0.00000000000E+00  0.73429544967E+02  0.20017637071E+04  0.20004164669E+04 0.  0.
        1    1    3    3  502    0 -0.67761488569E+02  0.71865273510E+03 -0.65611207278E+03  0.97546728550E+03  0.50400001928E-02 0. -1.
       -1    1    3    3    0  502  0.67761488569E+02 -0.71865273510E+03  0.72954161775E+03  0.10262964216E+04  0.50400001928E-02 0.  1.
</event>
<event>
 5   0  0.2313821E-06  0.2005590E+04  0.7818609E-02  0.8604011E-01
        1   -1    0    0  501    0  0.00000000000E+00  0.00000000000E+00  0.11530596602E+04  0.11530596602E+04  0.50400001928E-02 0. -1.
       -1   -1    0    0    0  501  0.00000000000E+00  0.00000000000E+00 -0.87211277980E+03  0.87211277982E+03  0.50400001928E-02 0.  1.
    10030    2    1    2    0    0  0.00000000000E+00  0.00000000000E+00  0.28094688043E+03  0.20251724401E+04  0.20055902529E+04 0.  0.
        1    1    3    3  502    0  0.68859592176E+03  0.44824771274E+03  0.72098463052E+03  0.10931190205E+04  0.50400001928E-02 0. -1.
       -1    1    3    3    0  502 -0.68859592176E+03 -0.44824771274E+03 -0.44003775009E+03  0.93205341959E+03  0.50400001928E-02 0.  1.
</event>
<event>
 5   0  0.5118981E-06  0.1992729E+04  0.7818609E-02  0.8610027E-01
       -2   -1    0    0    0  501  0.00000000000E+00  0.00000000000E+00  0.95796375414E+03  0.95796375414E+03  0.25500000920E-02 0. -1.
        2   -1    0    0  501    0  0.00000000000E+00  0.00000000000E+00 -0.10363050112E+04  0.10363050112E+04  0.25500000920E-02 0.  1.
    10030    2    1    2    0    0  0.00000000000E+00  0.00000000000E+00 -0.78341257031E+02  0.19942687653E+04  0.19927294236E+04 0.  0.
        4    1    3    3  502    0  0.36890755086E+03  0.63953918010E+02  0.88488338324E+03  0.96083458490E+03  0.12699999809E+01 0. -1.
       -4    1    3    3    0  502 -0.36890755086E+03 -0.63953918010E+02 -0.96322464027E+03  0.10334341804E+04  0.12699999809E+01 0.  1.
</event>
<event>
 5   0  0.5030137E-06  0.1999412E+04  0.7818609E-02  0.8606896E-01
        2   -1    0    0  501    0  0.00000000000E+00  0.00000000000E+00  0.25727682451E+04  0.25727682451E+04  0.25500000920E-02 0. -1.
       -2   -1    0    0    0  501  0.00000000000E+00  0.00000000000E+00 -0.38845781319E+03  0.38845781319E+03  0.25500000920E-02 0.  1.
    10030    2    1    2    0    0  0.00000000000E+00  0.00000000000E+00  0.21843104319E+04  0.29612260583E+04  0.19994118399E+04 0.  0.
        3    1    3    3  502    0  0.42116316315E+03  0.77721749966E+03  0.17836105683E+04  0.19906562037E+04  0.10100000352E+00 0. -1.
       -3    1    3    3    0  502 -0.42116316315E+03 -0.77721749966E+03  0.40069986363E+03  0.97056985461E+03  0.10100000352E+00 0.  1.
</event>
<event>
 5   0  0.5251252E-06  0.2001848E+04  0.7818609E-02  0.8605757E-01
       -2   -1    0    0    0  501  0.00000000000E+00  0.00000000000E+00  0.50820793140E+03  0.50820793141E+03  0.25500000920E-02 0.  1.
        2   -1    0    0  501    0  0.00000000000E+00  0.00000000000E+00 -0.19713362569E+04  0.19713362569E+04  0.25500000920E-02 0. -1.
    10030    2    1    2    0    0  0.00000000000E+00  0.00000000000E+00 -0.14631283255E+04  0.24795441884E+04  0.20018478676E+04 0.  0.
        5    1    3    3  502    0  0.89668891682E+03  0.35506795485E+02 -0.12806478084E+04  0.15637751262E+04  0.46999998093E+01 0. -1.
       -5    1    3    3    0  502 -0.89668891682E+03 -0.35506795485E+02 -0.18248051710E+03  0.91576906215E+03  0.46999998093E+01 0.  1.
</event>
<event>
 5   0  0.5030137E-06  0.2000221E+04  0.7818609E-02  0.8606517E-01
       -2   -1    0    0    0  501  0.00000000000E+00  0.00000000000E+00  0.16268266479E+04  0.16268266479E+04  0.25500000920E-02 0.  1.
        2   -1    0    0  501    0  0.00000000000E+00  0.00000000000E+00 -0.61482959142E+03  0.61482959142E+03  0.25500000920E-02 0. -1.
    10030    2    1    2    0    0  0.00000000000E+00  0.00000000000E+00  0.10119970565E+04  0.22416562394E+04  0.20002211510E+04 0.  0.
        3    1    3    3  502    0  0.40677196965E+03 -0.60162688364E+03 -0.26460505345E+03  0.77293866958E+03  0.10100000352E+00 0. -1.
       -3    1    3    3    0  502 -0.40677196965E+03  0.60162688364E+03  0.12766021100E+04  0.14687175698E+04  0.10100000352E+00 0.  1.
</event>
<event>
 5   0  0.2379743E-06  0.1999790E+04  0.7818609E-02  0.8606719E-01
       -1   -1    0    0    0  501  0.00000000000E+00  0.00000000000E+00  0.14707416846E+04  0.14707416846E+04  0.50400001928E-02 0.  1.
        1   -1    0    0  501    0  0.00000000000E+00  0.00000000000E+00 -0.67978635174E+03  0.67978635175E+03  0.50400001928E-02 0. -1.
    10030    2    1    2    0    0  0.00000000000E+00  0.00000000000E+00  0.79095533285E+03  0.21505280364E+04  0.19997901131E+04 0.  0.
        5    1    3    3  502    0  0.76805678331E+03  0.93404275678E+02 -0.28561247113E+03  0.82476187761E+03  0.46999998093E+01 0. -1.
       -5    1    3    3    0  502 -0.76805678331E+03 -0.93404275678E+02  0.10765678040E+04  0.13257661587E+04  0.46999998093E+01 0.  1.
</event>
<event>
 5   0  0.5251252E-06  0.1997571E+04  0.7818609E-02  0.8607757E-01
        2   -1    0    0  501    0  0.00000000000E+00  0.00000000000E+00  0.91258886965E+03  0.91258886965E+03  0.25500000920E-02 0.  1.
       -2   -1    0    0    0  501  0.00000000000E+00  0.00000000000E+00 -0.10931235366E+04  0.10931235366E+04  0.25500000920E-02 0. -1.
    10030    2    1    2    0    0  0.00000000000E+00  0.00000000000E+00 -0.18053466697E+03  0.20057124063E+04  0.19975708975E+04 0.  0.
        5    1    3    3  502    0  0.95491529926E+03 -0.22988893920E+03 -0.27221884366E+03  0.10192337033E+04  0.46999998093E+01 0. -1.
       -5    1    3    3    0  502 -0.95491529926E+03  0.22988893920E+03  0.91684176687E+02  0.98647870295E+03  0.46999998093E+01 0.  1.
</event>
<event>
 5   0  0.5129100E-06  0.2003401E+04  0.7818609E-02  0.8605032E-01
       -2   -1    0    0    0  501  0.00000000000E+00  0.00000000000E+00  0.10346295717E+04  0.10346295717E+04  0.25500000920E-02 0.  1.
        2   -1    0    0  501    0  0.00000000000E+00  0.00000000000E+00 -0.96981987713E+03  0.96981987713E+03  0.25500000920E-02 0. -1.
    10030    2    1    2    0    0  0.00000000000E+00  0.00000000000E+00  0.64809694558E+02  0.20044494488E+04  0.20034014317E+04 0.  0.
        2    1    3    3  502    0 -0.33269638296E+03 -0.93517419584E+03  0.16725912385E+03  0.10065849563E+04  0.25500000920E-02 0. -1.
       -2    1    3    3    0  502  0.33269638296E+03  0.93517419584E+03 -0.10244942929E+03  0.99786449249E+03  0.25500000920E-02 0.  1.
</event>
<event>
 5   0  0.5251252E-06  0.1998748E+04  0.7818609E-02  0.8607206E-01
        2   -1    0    0  501    0  0.00000000000E+00  0.00000000000E+00  0.16126618267E+04  0.16126618267E+04  0.25500000920E-02 0.  1.
       -2   -1    0    0    0  501  0.00000000000E+00  0.00000000000E+00 -0.61931643085E+03  0.61931643086E+03  0.25500000920E-02 0. -1.
    10030    2    1    2    0    0  0.00000000000E+00  0.00000000000E+00  0.99334539587E+03  0.22319782576E+04  0.19987475746E+04 0.  0.
        5    1    3    3  502    0  0.28752468791E+03  0.87274835862E+03  0.57932466726E+02  0.92072710633E+03  0.46999998093E+01 0.  1.
       -5    1    3    3    0  502 -0.28752468791E+03 -0.87274835862E+03  0.93541292915E+03  0.13112511513E+04  0.46999998093E+01 0. -1.
</event>
<event>
 5   0  0.2313821E-06  0.1999038E+04  0.7818609E-02  0.8607070E-01
        1   -1    0    0  501    0  0.00000000000E+00  0.00000000000E+00  0.14048576921E+04  0.14048576921E+04  0.50400001928E-02 0. -1.
       -1   -1    0    0    0  501  0.00000000000E+00  0.00000000000E+00 -0.71113153977E+03  0.71113153978E+03  0.50400001928E-02 0.  1.
    10030    2    1    2    0    0  0.00000000000E+00  0.00000000000E+00  0.69372615230E+03  0.21159892319E+04  0.19990383826E+04 0.  0.
        1    1    3    3  502    0  0.51413100583E+03  0.12377462633E+03  0.12446511746E+04  0.13523340548E+04  0.50400001928E-02 0. -1.
       -1    1    3    3    0  502 -0.51413100583E+03 -0.12377462633E+03 -0.55092502229E+03  0.76365517708E+03  0.50400001928E-02 0.  1.
</event>
<event>
 5   0  0.5129100E-06  0.1999123E+04  0.7818609E-02  0.8607031E-01
        2   -1    0    0  501    0  0.00000000000E+00  0.00000000000E+00  0.81596957023E+03  0.81596957023E+03  0.25500000920E-02 0. -1.
       -2   -1    0    0    0  501  0.00000000000E+00  0.00000000000E+00 -0.12244615247E+04  0.12244615247E+04  0.25500000920E-02 0.  1.
    10030    2    1    2    0    0  0.00000000000E+00  0.00000000000E+00 -0.40849195448E+03  0.20404310949E+04  0.19991231519E+04 0.  0.
        2    1    3    3  502    0  0.35207234317E+03  0.20835205663E+02  0.75035189846E+03  0.82910615252E+03  0.25500000920E-02 0. -1.
       -2    1    3    3    0  502 -0.35207234317E+03 -0.20835205663E+02 -0.11588438529E+04  0.12113249424E+04  0.25500000920E-02 0.  1.
</event>
<event>
 5   0  0.2379743E-06  0.2000110E+04  0.7818609E-02  0.8606569E-01
        1   -1    0    0  501    0  0.00000000000E+00  0.00000000000E+00  0.19355144987E+04  0.19355144987E+04  0.50400001928E-02 0.  1.
       -1   -1    0    0    0  501  0.00000000000E+00  0.00000000000E+00 -0.51671533234E+03  0.51671533237E+03  0.50400001928E-02 0. -1.
    10030    2    1    2    0    0  0.00000000000E+00  0.00000000000E+00  0.14187991664E+04  0.24522298311E+04  0.20001100145E+04 0.  0.
        5    1    3    3  502    0  0.81608734002E+03  0.22978089350E+03  0.59143344520E+02  0.84989283487E+03  0.46999998093E+01 0. -1.
       -5    1    3    3    0  502 -0.81608734002E+03 -0.22978089350E+03  0.13596558219E+04  0.16023369962E+04  0.46999998093E+01 0.  1.
</event>
<event>
 5   0  0.2311520E-06  0.2000465E+04  0.7818609E-02  0.8606403E-01
        1   -1    0    0  501    0  0.00000000000E+00  0.00000000000E+00  0.20400699601E+04  0.20400699601E+04  0.50400001928E-02 0.  1.
       -1   -1    0    0    0  501  0.00000000000E+00  0.00000000000E+00 -0.49040731944E+03  0.49040731947E+03  0.50400001928E-02 0. -1.
    10030    2    1    2    0    0  0.00000000000E+00  0.00000000000E+00  0.15496626406E+04  0.25304772795E+04  0.20004651865E+04 0.  0.
        3    1    3    3  502    0  0.98068980819E+03  0.18880004232E+03  0.70477492764E+03  0.12223361504E+04  0.10100000352E+00 0. -1.
       -3    1    3    3    0  502 -0.98068980819E+03 -0.18880004232E+03  0.84488771300E+03  0.13081411291E+04  0.10100000352E+00 0.  1.
</event>
<event>
 5   0  0.5118981E-06  0.1998955E+04  0.7818609E-02  0.8607109E-01
       -2   -1    0    0    0  501  0.00000000000E+00  0.00000000000E+00  0.45200917555E+03  0.45200917556E+03  0.25500000920E-02 0. -1.
        2   -1    0    0  501    0  0.00000000000E+00  0.00000000000E+00 -0.22100326655E+04  0.22100326655E+04  0.25500000920E-02 0.  1.
    10030    2    1    2    0    0  0.00000000000E+00  0.00000000000E+00 -0.17580234899E+04  0.26620418411E+04  0.19989547700E+04 0.  0.
        4    1    3    3  502    0 -0.95141199843E+03  0.16808073009E+03 -0.12198831680E+04  0.15561338243E+04  0.12699999809E+01 0.  1.
       -4    1    3    3    0  502  0.95141199843E+03 -0.16808073009E+03 -0.53814032194E+03  0.11059080168E+04  0.12699999809E+01 0. -1.
</event>
<event>
 5   0  0.2379743E-06  0.1999938E+04  0.7818609E-02  0.8606649E-01
        1   -1    0    0  501    0  0.00000000000E+00  0.00000000000E+00  0.10318937322E+04  0.10318937322E+04  0.50400001928E-02 0.  1.
       -1   -1    0    0    0  501  0.00000000000E+00  0.00000000000E+00 -0.96903240660E+03  0.96903240662E+03  0.50400001928E-02 0. -1.
    10030    2    1    2    0    0  0.00000000000E+00  0.00000000000E+00  0.62861325623E+02  0.20009261389E+04  0.19999384658E+04 0.  0.
        5    1    3    3  502    0 -0.11534251523E+03  0.22180240095E+02 -0.96209576010E+03  0.96925032910E+03  0.46999998093E+01 0. -1.
       -5    1    3    3    0  502  0.11534251523E+03 -0.22180240095E+02  0.10249570857E+04  0.10316758098E+04  0.46999998093E+01 0.  1.
</event>
<event>
 5   0  0.2313821E-06  0.2000368E+04  0.7818609E-02  0.8606449E-01
        1   -1    0    0  501    0  0.00000000000E+00  0.00000000000E+00  0.10434653597E+04  0.10434653597E+04  0.50400001928E-02 0. -1.
       -1   -1    0    0    0  501  0.00000000000E+00  0.00000000000E+00 -0.95869759904E+03  0.95869759906E+03  0.50400001928E-02 0.  1.
    10030    2    1    2    0    0  0.00000000000E+00  0.00000000000E+00  0.84767760669E+02  0.20021629588E+04  0.20003677013E+04 0.  0.
        1    1    3    3  502    0 -0.86766912907E+03  0.39392951908E+03 -0.26175977827E+03  0.98820461702E+03  0.50400001928E-02 0.  1.
       -1    1    3    3    0  502  0.86766912907E+03 -0.39392951908E+03  0.34652753894E+03  0.10139583418E+04  0.50400001928E-02 0. -1.
</event>
<event>
 5   0  0.2379743E-06  0.2000862E+04  0.7818609E-02  0.8606218E-01
        1   -1    0    0  501    0  0.00000000000E+00  0.00000000000E+00  0.10059969532E+04  0.10059969533E+04  0.50400001928E-02 0. -1.
       -1   -1    0    0    0  501  0.00000000000E+00  0.00000000000E+00 -0.99489633388E+03  0.99489633389E+03  0.50400001928E-02 0.  1.
    10030    2    1    2    0    0  0.00000000000E+00  0.00000000000E+00  0.11100619369E+02  0.20008932872E+04  0.20008624947E+04 0.  0.
        5    1    3    3  502    0 -0.47228984838E+00 -0.88157780391E+03  0.47848564084E+03  0.10030704092E+04  0.46999998093E+01 0.  1.
       -5    1    3    3    0  502  0.47228984838E+00  0.88157780391E+03 -0.46738502147E+03  0.99782287792E+03  0.46999998093E+01 0. -1.
</event>
<event>
 5   0  0.5251252E-06  0.1999689E+04  0.7818609E-02  0.8606766E-01
       -2   -1    0    0    0  501  0.00000000000E+00  0.00000000000E+00  0.59534787302E+03  0.59534787302E+03  0.25500000920E-02 0.  1.
        2   -1    0    0  501    0  0.00000000000E+00  0.00000000000E+00 -0.16791676772E+04  0.16791676772E+04  0.25500000920E-02 0. -1.
    10030    2    1    2    0    0  0.00000000000E+00  0.00000000000E+00 -0.10838198042E+04  0.22745155502E+04  0.19996888809E+04 0.  0.
        5    1    3    3  502    0 -0.75926665367E+03 -0.54357614246E+03 -0.13543659644E+03  0.94357089595E+03  0.46999998093E+01 0.  1.
       -5    1    3    3    0  502  0.75926665367E+03  0.54357614246E+03 -0.94838320776E+03  0.13309446543E+04  0.46999998093E+01 0. -1.
</event>
<event>
 5   0  0.2313821E-06  0.1999519E+04  0.7818609E-02  0.8606846E-01
       -1   -1    0    0    0  501  0.00000000000E+00  0.00000000000E+00  0.81558748930E+03  0.81558748932E+03  0.50400001928E-02 0. -1.
        1   -1    0    0  501    0  0.00000000000E+00  0.00000000000E+00 -0.12255203667E+04  0.12255203667E+04  0.50400001928E-02 0.  1.
    10030    2    1    2    0    0  0.00000000000E+00  0.00000000000E+00 -0.40993287735E+03  0.20411078560E+04  0.19995190211E+04 0.  0.
        1    1    3    3  502    0  0.64501555775E+03 -0.70865649084E+03  0.86059854433E+02  0.96210466703E+03  0.50400001928E-02 0. -1.
       -1    1    3    3    0  502 -0.64501555775E+03  0.70865649084E+03 -0.49599273178E+03  0.10790031889E+04  0.50400001928E-02 0.  1.
</event>
<event>
 5   0  0.1777750E-06  0.2000773E+04  0.7818609E-02  0.8606260E-01
        3   -1    0    0  501    0  0.00000000000E+00  0.00000000000E+00  0.48467278602E+03  0.48467279654E+03  0.10100000352E+00 0.  1.
       -3   -1    0    0    0  501  0.00000000000E+00  0.00000000000E+00 -0.20648419382E+04  0.20648419406E+04  0.10100000352E+00 0. -1.
    10030    2    1    2    0    0  0.00000000000E+00  0.00000000000E+00 -0.15801691521E+04  0.25495147372E+04  0.20007725622E+04 0.  0.
        2    1    3    3  502    0  0.19296522035E+02  0.39632996618E+03  0.38010642482E+03  0.54948220357E+03  0.25500000920E-02 0.  1.
       -2    1    3    3    0  502 -0.19296522035E+02 -0.39632996618E+03 -0.19602755770E+04  0.20000325336E+04  0.25500000920E-02 0. -1.
</event>
<event>
 5   0  0.5251252E-06  0.1999538E+04  0.7818609E-02  0.8606837E-01
        2   -1    0    0  501    0  0.00000000000E+00  0.00000000000E+00  0.11262100086E+04  0.11262100086E+04  0.25500000920E-02 0.  1.
       -2   -1    0    0    0  501  0.00000000000E+00  0.00000000000E+00 -0.88752374198E+03  0.88752374198E+03  0.25500000920E-02 0. -1.
    10030    2    1    2    0    0  0.00000000000E+00  0.00000000000E+00  0.23868626663E+03  0.20137337506E+04  0.19995380678E+04 0.  0.
        5    1    3    3  502    0 -0.81144191136E+03 -0.38325771536E+03 -0.32445714372E+03  0.95426357994E+03  0.46999998093E+01 0. -1.
       -5    1    3    3    0  502  0.81144191136E+03  0.38325771536E+03  0.56314341035E+03  0.10594701707E+04  0.46999998093E+01 0.  1.
</event>
<event>
 5   0  0.2379743E-06  0.2000088E+04  0.7818609E-02  0.8606579E-01
       -1   -1    0    0    0  501  0.00000000000E+00  0.00000000000E+00  0.69908875311E+03  0.69908875313E+03  0.50400001928E-02 0. -1.
        1   -1    0    0  501    0  0.00000000000E+00  0.00000000000E+00 -0.14305596507E+04  0.14305596507E+04  0.50400001928E-02 0.  1.
    10030    2    1    2    0    0  0.00000000000E+00  0.00000000000E+00 -0.73147089762E+03  0.21296484039E+04  0.20000881606E+04 0.  0.
        5    1    3    3  502    0  0.50838446242E+03 -0.74967487854E+03  0.85507668721E+02  0.90983560963E+03  0.46999998093E+01 0. -1.
       -5    1    3    3    0  502 -0.50838446242E+03  0.74967487854E+03 -0.81697856634E+03  0.12198127942E+04  0.46999998093E+01 0.  1.
</event>
<event>
 5   0  0.5118981E-06  0.2000851E+04  0.7818609E-02  0.8606223E-01
       -2   -1    0    0    0  501  0.00000000000E+00  0.00000000000E+00  0.10112307551E+04  0.10112307551E+04  0.25500000920E-02 0.  1.
        2   -1    0    0  501    0  0.00000000000E+00  0.00000000000E+00 -0.98973542764E+03  0.98973542765E+03  0.25500000920E-02 0. -1.
    10030    2    1    2    0    0  0.00000000000E+00  0.00000000000E+00  0.21495327411E+02  0.20009661827E+04  0.20008507229E+04 0.  0.
        4    1    3    3  502    0 -0.16037616263E+03 -0.50240241653E+03 -0.83943114181E+03  0.99135006755E+03  0.12699999809E+01 0. -1.
       -4    1    3    3    0  502  0.16037616263E+03  0.50240241653E+03  0.86092646922E+03  0.10096161152E+04  0.12699999809E+01 0.  1.
</event>
<event>
 5   0  0.2356996E-06  0.2000180E+04  0.7818609E-02  0.8606537E-01
       -1   -1    0    0    0  501  0.00000000000E+00  0.00000000000E+00  0.78821986061E+03  0.78821986063E+03  0.50400001928E-02 0. -1.
        1   -1    0    0  501    0  0.00000000000E+00  0.00000000000E+00 -0.12689097933E+04  0.12689097933E+04  0.50400001928E-02 0.  1.
    10030    2    1    2    0    0  0.00000000000E+00  0.00000000000E+00 -0.48068993271E+03  0.20571296540E+04  0.20001798924E+04 0.  0.
        4    1    3    3  502    0 -0.15097754031E+03 -0.65789977876E+03 -0.99929339620E+03  0.12059084713E+04  0.12699999809E+01 0.  1.
       -4    1    3    3    0  502  0.15097754031E+03  0.65789977876E+03  0.51860346349E+03  0.85122118266E+03  0.12699999809E+01 0. -1.
</event>
<event>
 5   0  0.2386776E-06  0.2002632E+04  0.7818609E-02  0.8605391E-01
       -1   -1    0    0    0  501  0.00000000000E+00  0.00000000000E+00  0.93573986237E+03  0.93573986238E+03  0.50400001928E-02 0. -1.
        1   -1    0    0  501    0  0.00000000000E+00  0.00000000000E+00 -0.10714881868E+04  0.10714881868E+04  0.50400001928E-02 0.  1.
    10030    2    1    2    0    0  0.00000000000E+00  0.00000000000E+00 -0.13574832441E+03  0.20072280492E+04  0.20026324760E+04 0.  0.
        2    1    3    3  502    0 -0.87031004010E+03 -0.44643546182E+03 -0.28258530855E+03  0.10181348850E+04  0.25500000920E-02 0.  1.
       -2    1    3    3    0  502  0.87031004010E+03  0.44643546182E+03  0.14683698414E+03  0.98909316416E+03  0.25500000920E-02 0. -1.
</event>
<event>
 5   0  0.2311520E-06  0.2000027E+04  0.7818609E-02  0.8606608E-01
        1   -1    0    0  501    0  0.00000000000E+00  0.00000000000E+00  0.14525267003E+04  0.14525267003E+04  0.50400001928E-02 0.  1.
       -1   -1    0    0    0  501  0.00000000000E+00  0.00000000000E+00 -0.68847420889E+03  0.68847420891E+03  0.50400001928E-02 0. -1.
    10030    2    1    2    0    0  0.00000000000E+00  0.00000000000E+00  0.76405249139E+03  0.21410009092E+04  0.20000271707E+04 0.  0.
        3    1    3    3  502    0  0.45637164555E+03 -0.57425696183E+03  0.11096268054E+04  0.13301570563E+04  0.10100000352E+00 0.  1.
       -3    1    3    3    0  502 -0.45637164555E+03  0.57425696183E+03 -0.34557431399E+03  0.81084385288E+03  0.10100000352E+00 0. -1.
</event>
<event>
 5   0  0.5030137E-06  0.1998265E+04  0.7818609E-02  0.8607432E-01
        2   -1    0    0  501    0  0.00000000000E+00  0.00000000000E+00  0.22437924721E+04  0.22437924721E+04  0.25500000920E-02 0.  1.
       -2   -1    0    0    0  501  0.00000000000E+00  0.00000000000E+00 -0.44490109176E+03  0.44490109177E+03  0.25500000920E-02 0. -1.
    10030    2    1    2    0    0  0.00000000000E+00  0.00000000000E+00  0.17988913804E+04  0.26886935639E+04  0.19982649680E+04 0.  0.
        3    1    3    3  502    0  0.48245961208E+03  0.43601017401E+03 -0.12118995486E+03  0.66148255040E+03  0.10100000352E+00 0. -1.
       -3    1    3    3    0  502 -0.48245961208E+03 -0.43601017401E+03  0.19200813352E+04  0.20272110135E+04  0.10100000352E+00 0.  1.
</event>
<event>
 5   0  0.2386776E-06  0.1999505E+04  0.7818609E-02  0.8606852E-01
       -1   -1    0    0    0  501  0.00000000000E+00  0.00000000000E+00  0.93236218098E+03  0.93236218100E+03  0.50400001928E-02 0. -1.
        1   -1    0    0  501    0  0.00000000000E+00  0.00000000000E+00 -0.10720141040E+04  0.10720141041E+04  0.50400001928E-02 0.  1.
    10030    2    1    2    0    0  0.00000000000E+00  0.00000000000E+00 -0.13965192306E+03  0.20043762851E+04  0.19995053470E+04 0.  0.
        2    1    3    3  502    0 -0.19260645995E+03  0.69750006694E+03 -0.76136287471E+03  0.10503699438E+04  0.25500000920E-02 0.  1.
       -2    1    3    3    0  502  0.19260645995E+03 -0.69750006694E+03  0.62171095165E+03  0.95400634128E+03  0.25500000920E-02 0. -1.
</event>
<event>
 5   0  0.2356996E-06  0.2000954E+04  0.7818609E-02  0.8606175E-01
        1   -1    0    0  501    0  0.00000000000E+00  0.00000000000E+00  0.14260268724E+04  0.14260268724E+04  0.50400001928E-02 0.  1.
       -1   -1    0    0    0  501  0.00000000000E+00  0.00000000000E+00 -0.70191841422E+03  0.70191841424E+03  0.50400001928E-02 0. -1.
    10030    2    1    2    0    0  0.00000000000E+00  0.00000000000E+00  0.72410845815E+03  0.21279452866E+04  0.20009542933E+04 0.  0.
        4    1    3    3  502    0  0.63875062510E+03  0.76986614089E+03  0.34501646532E+03  0.10581749431E+04  0.12699999809E+01 0. -1.
       -4    1    3    3    0  502 -0.63875062510E+03 -0.76986614089E+03  0.37909199282E+03  0.10697703435E+04  0.12699999809E+01 0.  1.
</event>
<event>
 5   0  0.5251252E-06  0.2000247E+04  0.7818609E-02  0.8606505E-01
       -2   -1    0    0    0  501  0.00000000000E+00  0.00000000000E+00  0.57628372741E+03  0.57628372741E+03  0.25500000920E-02 0.  1.
        2   -1    0    0  501    0  0.00000000000E+00  0.00000000000E+00 -0.17356855196E+04  0.17356855196E+04  0.25500000920E-02 0. -1.
    10030    2    1    2    0    0  0.00000000000E+00  0.00000000000E+00 -0.11594017922E+04  0.23119692470E+04  0.20002473056E+04 0.  0.
        5    1    3    3  502    0 -0.18741995829E+03 -0.88751313018E+03 -0.92846659661E+02  0.91183791828E+03  0.46999998093E+01 0.  1.
       -5    1    3    3    0  502  0.18741995829E+03  0.88751313018E+03 -0.10665551326E+04  0.14001313288E+04  0.46999998093E+01 0. -1.
</event>
<event>
 5   0  0.5118981E-06  0.1997793E+04  0.7818609E-02  0.8607653E-01
        2   -1    0    0  501    0  0.00000000000E+00  0.00000000000E+00  0.55668882622E+03  0.55668882623E+03  0.25500000920E-02 0. -1.
       -2   -1    0    0    0  501  0.00000000000E+00  0.00000000000E+00 -0.17923725374E+04  0.17923725374E+04  0.25500000920E-02 0.  1.
    10030    2    1    2    0    0  0.00000000000E+00  0.00000000000E+00 -0.12356837111E+04  0.23490613636E+04  0.19977925458E+04 0.  0.
        4    1    3    3  502    0  0.87306972766E+03 -0.39728433180E+02 -0.49096826697E+02  0.87535204864E+03  0.12699999809E+01 0. -1.
       -4    1    3    3    0  502 -0.87306972766E+03  0.39728433180E+02 -0.11865868844E+04  0.14737093150E+04  0.12699999809E+01 0.  1.
</event>
<event>
 5   0  0.2386776E-06  0.1998436E+04  0.7818609E-02  0.8607352E-01
        1   -1    0    0  501    0  0.00000000000E+00  0.00000000000E+00  0.87875188222E+03  0.87875188224E+03  0.50400001928E-02 0. -1.
       -1   -1    0    0    0  501  0.00000000000E+00  0.00000000000E+00 -0.11361981297E+04  0.11361981297E+04  0.50400001928E-02 0.  1.
    10030    2    1    2    0    0  0.00000000000E+00  0.00000000000E+00 -0.25744624745E+03  0.20149500119E+04  0.19984356332E+04 0.  0.
        2    1    3    3  502    0 -0.69606540871E+03 -0.58130151523E+03  0.29428853000E+03  0.95342762899E+03  0.25500000920E-02 0.  1.
       -2    1    3    3    0  502  0.69606540871E+03  0.58130151523E+03 -0.55173477745E+03  0.10615223829E+04  0.25500000920E-02 0. -1.
</event>
<event>
 5   0  0.2311520E-06  0.2001451E+04  0.7818609E-02  0.8605943E-01
        1   -1    0    0  501    0  0.00000000000E+00  0.00000000000E+00  0.70339117021E+03  0.70339117023E+03  0.50400001928E-02 0. -1.
       -1   -1    0    0    0  501  0.00000000000E+00  0.00000000000E+00 -0.14237474623E+04  0.14237474623E+04  0.50400001928E-02 0.  1.
    10030    2    1    2    0    0  0.00000000000E+00  0.00000000000E+00 -0.72035629206E+03  0.21271386325E+04  0.20014508674E+04 0.  0.
        3    1    3    3  502    0 -0.28169785393E+03 -0.67019643582E+03  0.37071069714E+03  0.81605353664E+03  0.10100000352E+00 0. -1.
       -3    1    3    3    0  502  0.28169785393E+03  0.67019643582E+03 -0.10910669892E+04  0.13110850959E+04  0.10100000352E+00 0.  1.
</event>
<event>
 5   0  0.2311520E-06  0.2000524E+04  0.7818609E-02  0.8606376E-01
        1   -1    0    0  501    0  0.00000000000E+00  0.00000000000E+00  0.59158006369E+03  0.59158006372E+03  0.50400001928E-02 0.  1.
       -1   -1    0    0    0  501  0.00000000000E+00  0.00000000000E+00 -0.16912738004E+04  0.16912738004E+04  0.50400001928E-02 0. -1.
    10030    2    1    2    0    0  0.00000000000E+00  0.00000000000E+00 -0.10996937367E+04  0.22828538641E+04  0.20005237940E+04 0.  0.
        3    1    3    3  502    0  0.64112092518E+03 -0.48716967286E+03 -0.12270210754E+04  0.14676345119E+04  0.10100000352E+00 0. -1.
       -3    1    3    3    0  502 -0.64112092518E+03  0.48716967286E+03  0.12732733869E+03  0.81521935222E+03  0.10100000352E+00 0.  1.
</event>
<event>
 5   0  0.5129100E-06  0.2001012E+04  0.7818609E-02  0.8606148E-01
       -2   -1    0    0    0  501  0.00000000000E+00  0.00000000000E+00  0.66419924431E+03  0.66419924431E+03  0.25500000920E-02 0. -1.
        2   -1    0    0  501    0  0.00000000000E+00  0.00000000000E+00 -0.15070961410E+04  0.15070961410E+04  0.25500000920E-02 0.  1.
    10030    2    1    2    0    0  0.00000000000E+00  0.00000000000E+00 -0.84289689666E+03  0.21712953853E+04  0.20010118620E+04 0.  0.
        2    1    3    3  502    0  0.49216919566E+03 -0.84913802527E+03 -0.63226560412E+03  0.11674869152E+04  0.25500000920E-02 0.  1.
       -2    1    3    3    0  502 -0.49216919566E+03  0.84913802527E+03 -0.21063129254E+03  0.10038084700E+04  0.25500000920E-02 0. -1.
</event>
<event>
 5   0  0.2313821E-06  0.2000424E+04  0.7818609E-02  0.8606423E-01
       -1   -1    0    0    0  501  0.00000000000E+00  0.00000000000E+00  0.60684391471E+03  0.60684391473E+03  0.50400001928E-02 0.  1.
        1   -1    0    0  501    0  0.00000000000E+00  0.00000000000E+00 -0.16485686025E+04  0.16485686025E+04  0.50400001928E-02 0. -1.
    10030    2    1    2    0    0  0.00000000000E+00  0.00000000000E+00 -0.10417246878E+04  0.22554125172E+04  0.20004237795E+04 0.  0.
        1    1    3    3  502    0 -0.27133514260E+03 -0.40522438673E+03 -0.15054417424E+04  0.15824615012E+04  0.50400001928E-02 0. -1.
       -1    1    3    3    0  502  0.27133514260E+03  0.40522438673E+03  0.46371705457E+03  0.67295101600E+03  0.50400001928E-02 0.  1.
</event>
<event>
 5   0  0.5251252E-06  0.2000365E+04  0.7818609E-02  0.8606450E-01
       -2   -1    0    0    0  501  0.00000000000E+00  0.00000000000E+00  0.10067942216E+04  0.10067942216E+04  0.25500000920E-02 0. -1.
        2   -1    0    0  501    0  0.00000000000E+00  0.00000000000E+00 -0.99361390658E+03  0.99361390659E+03  0.25500000920E-02 0.  1.
    10030    2    1    2    0    0  0.00000000000E+00  0.00000000000E+00  0.13180315025E+02  0.20004081282E+04  0.20003647064E+04 0.  0.
        5    1    3    3  502    0  0.77225948817E+03 -0.44664749403E+03  0.45877687264E+03  0.10031834378E+04  0.46999998093E+01 0. -1.
       -5    1    3    3    0  502 -0.77225948817E+03  0.44664749403E+03 -0.44559655761E+03  0.99722469040E+03  0.46999998093E+01 0.  1.
</event>
<event>
 5   0  0.2311520E-06  0.1998634E+04  0.7818609E-02  0.8607259E-01
        1   -1    0    0  501    0  0.00000000000E+00  0.00000000000E+00  0.10354916765E+04  0.10354916765E+04  0.50400001928E-02 0.  1.
       -1   -1    0    0    0  501  0.00000000000E+00  0.00000000000E+00 -0.96440655097E+03  0.96440655098E+03  0.50400001928E-02 0. -1.
    10030    2    1    2    0    0  0.00000000000E+00  0.00000000000E+00  0.71085125480E+02  0.19998982274E+04  0.19986344901E+04 0.  0.
        3    1    3    3  502    0 -0.13240150208E+03  0.56931158627E+03 -0.77551859256E+03  0.97112045474E+03  0.10100000352E+00 0. -1.
       -3    1    3    3    0  502  0.13240150208E+03 -0.56931158627E+03  0.84660371804E+03  0.10287777727E+04  0.10100000352E+00 0.  1.
</event>
<event>
 5   0  0.5129100E-06  0.1998913E+04  0.7818609E-02  0.8607129E-01
        2   -1    0    0  501    0  0.00000000000E+00  0.00000000000E+00  0.10168606765E+04  0.10168606765E+04  0.25500000920E-02 0. -1.
       -2   -1    0    0    0  501  0.00000000000E+00  0.00000000000E+00 -0.98234999812E+03  0.98234999812E+03  0.25500000920E-02 0.  1.
    10030    2    1    2    0    0  0.00000000000E+00  0.00000000000E+00  0.34510678414E+02  0.19992106747E+04  0.19989127882E+04 0.  0.
        2    1    3    3  502    0  0.79792815538E+03  0.41892739373E+03  0.44943497562E+03  0.10070656879E+04  0.25500000920E-02 0. -1.
       -2    1    3    3    0  502 -0.79792815538E+03 -0.41892739373E+03 -0.41492429721E+03  0.99214498678E+03  0.25500000920E-02 0.  1.
</event>
<event>
 5   0  0.1777750E-06  0.1996965E+04  0.7818609E-02  0.8608041E-01
        3   -1    0    0  501    0  0.00000000000E+00  0.00000000000E+00  0.12884664372E+04  0.12884664412E+04  0.10100000352E+00 0.  1.
       -3   -1    0    0    0  501  0.00000000000E+00  0.00000000000E+00 -0.77376278401E+03  0.77376279061E+03  0.10100000352E+00 0. -1.
    10030    2    1    2    0    0  0.00000000000E+00  0.00000000000E+00  0.51470365321E+03  0.20622292318E+04  0.19969650858E+04 0.  0.
        5    1    3    3  502    0 -0.98784007037E+02 -0.73246683926E+03 -0.43591480200E+03  0.85808493476E+03  0.46999998093E+01 0. -1.
       -5    1    3    3    0  502  0.98784007037E+02  0.73246683926E+03  0.95061845521E+03  0.12041442970E+04  0.46999998093E+01 0.  1.
</event>
<event>
 5   0  0.5251252E-06  0.1999145E+04  0.7818609E-02  0.8607021E-01
        2   -1    0    0  501    0  0.00000000000E+00  0.00000000000E+00  0.74061318873E+03  0.74061318874E+03  0.25500000920E-02 0.  1.
       -2   -1    0    0    0  501  0.00000000000E+00  0.00000000000E+00 -0.13490777240E+04  0.13490777240E+04  0.25500000920E-02 0. -1.
    10030    2    1    2    0    0  0.00000000000E+00  0.00000000000E+00 -0.60846453524E+03  0.20896909127E+04  0.19991445721E+04 0.  0.
        5    1    3    3  502    0  0.86768555851E+03  0.49206669144E+03 -0.37128440498E+03  0.10643693234E+04  0.46999998093E+01 0. -1.
       -5    1    3    3    0  502 -0.86768555851E+03 -0.49206669144E+03 -0.23718013026E+03  0.10253215893E+04  0.46999998093E+01 0.  1.
</event>
<event>
 5   0  0.2313821E-06  0.2002398E+04  0.7818609E-02  0.8605500E-01
        1   -1    0    0  501    0  0.00000000000E+00  0.00000000000E+00  0.18270575291E+04  0.18270575291E+04  0.50400001928E-02 0.  1.
       -1   -1    0    0    0  501  0.00000000000E+00  0.00000000000E+00 -0.54864141322E+03  0.54864141325E+03  0.50400001928E-02 0. -1.
    10030    2    1    2    0    0  0.00000000000E+00  0.00000000000E+00  0.12784161159E+04  0.23756989423E+04  0.20023979872E+04 0.  0.
        1    1    3    3  502    0 -0.54783524147E+03  0.62858538256E+03  0.12967459446E+04  0.15416851429E+04  0.50400001928E-02 0.  1.
       -1    1    3    3    0  502  0.54783524147E+03 -0.62858538256E+03 -0.18329828776E+02  0.83401379941E+03  0.50400001928E-02 0. -1.
</event>
<event>
 5   0  0.2356996E-06  0.1995729E+04  0.7818609E-02  0.8608620E-01
       -1   -1    0    0    0  501  0.00000000000E+00  0.00000000000E+00  0.12819637832E+04  0.12819637832E+04  0.50400001928E-02 0.  1.
        1   -1    0    0  501    0  0.00000000000E+00  0.00000000000E+00 -0.77672506648E+03  0.77672506650E+03  0.50400001928E-02 0. -1.
    10030    2    1    2    0    0  0.00000000000E+00  0.00000000000E+00  0.50523871670E+03  0.20586888497E+04  0.19957288441E+04 0.  0.
        4    1    3    3  502    0 -0.65465841468E+03 -0.69002807740E+03 -0.58585687149E+02  0.95296919318E+03  0.12699999809E+01 0. -1.
       -4    1    3    3    0  502  0.65465841468E+03  0.69002807740E+03  0.56382440385E+03  0.11057196565E+04  0.12699999809E+01 0.  1.
</event>
<event>
 5   0  0.5030137E-06  0.1999653E+04  0.7818609E-02  0.8606783E-01
        2   -1    0    0  501    0  0.00000000000E+00  0.00000000000E+00  0.11681620963E+04  0.11681620963E+04  0.25500000920E-02 0. -1.
       -2   -1    0    0    0  501  0.00000000000E+00  0.00000000000E+00 -0.85574858729E+03  0.85574858729E+03  0.25500000920E-02 0.  1.
    10030    2    1    2    0    0  0.00000000000E+00  0.00000000000E+00  0.31241350903E+03  0.20239106836E+04  0.19996530336E+04 0.  0.
        3    1    3    3  502    0  0.22999203804E+03  0.97234357432E+03  0.19276541373E+03  0.10175985844E+04  0.10100000352E+00 0. -1.
       -3    1    3    3    0  502 -0.22999203804E+03 -0.97234357432E+03  0.11964809531E+03  0.10063120992E+04  0.10100000352E+00 0.  1.
</event>
<event>
 5   0  0.2379743E-06  0.2000252E+04  0.7818609E-02  0.8606503E-01
       -1   -1    0    0    0  501  0.00000000000E+00  0.00000000000E+00  0.68711096981E+03  0.68711096983E+03  0.50400001928E-02 0. -1.
        1   -1    0    0  501    0  0.00000000000E+00  0.00000000000E+00 -0.14557353870E+04  0.14557353870E+04  0.50400001928E-02 0.  1.
    10030    2    1    2    0    0  0.00000000000E+00  0.00000000000E+00 -0.76862441722E+03  0.21428463569E+04  0.20002517378E+04 0.  0.
        5    1    3    3  502    0 -0.86737158669E+03 -0.21726201647E+03  0.95612304729E+02  0.89927751891E+03  0.46999998093E+01 0. -1.
       -5    1    3    3    0  502  0.86737158669E+03  0.21726201647E+03 -0.86423672195E+03  0.12435688380E+04  0.46999998093E+01 0.  1.
</event>
<event>
 5   0  0.4956214E-06  0.1999813E+04  0.7818609E-02  0.8606708E-01
       -2   -1    0    0    0  501  0.00000000000E+00  0.00000000000E+00  0.14209569482E+04  0.14209569482E+04  0.25500000920E-02 0. -1.
        2   -1    0    0  501    0  0.00000000000E+00  0.00000000000E+00 -0.70361930280E+03  0.70361930280E+03  0.25500000920E-02 0.  1.
    10030    2    1    2    0    0  0.00000000000E+00  0.00000000000E+00  0.71733764542E+03  0.21245762510E+04  0.19998127285E+04 0.  0.
        1    1    3    3  502    0 -0.47426175877E+03  0.67097483263E+03 -0.24668826168E+03  0.85789657904E+03  0.50400001928E-02 0.  1.
       -1    1    3    3    0  502  0.47426175877E+03 -0.67097483263E+03  0.96402590709E+03  0.12666796720E+04  0.50400001928E-02 0. -1.
</event>
<event>
 5   0  0.2313821E-06  0.2000312E+04  0.7818609E-02  0.8606475E-01
       -1   -1    0    0    0  501  0.00000000000E+00  0.00000000000E+00  0.10752509426E+04  0.10752509426E+04  0.50400001928E-02 0.  1.
        1   -1    0    0  501    0  0.00000000000E+00  0.00000000000E+00 -0.93030592218E+03  0.93030592219E+03  0.50400001928E-02 0. -1.
    10030    2    1    2    0    0  0.00000000000E+00  0.00000000000E+00  0.14494502040E+03  0.20055568648E+04  0.20003122953E+04 0.  0.
        1    1    3    3  502    0  0.29668959190E+03 -0.44662117314E+03 -0.77402608332E+03  0.94160053309E+03  0.50400001928E-02 0. -1.
       -1    1    3    3    0  502 -0.29668959190E+03  0.44662117314E+03  0.91897110372E+03  0.10639563317E+04  0.50400001928E-02 0.  1.
</event>
<event>
 5   0  0.5129100E-06  0.1990168E+04  0.7818609E-02  0.8611231E-01
        2   -1    0    0  501    0  0.00000000000E+00  0.00000000000E+00  0.90261106707E+03  0.90261106707E+03  0.25500000920E-02 0. -1.
       -2   -1    0    0    0  501  0.00000000000E+00  0.00000000000E+00 -0.10970305719E+04  0.10970305719E+04  0.25500000920E-02 0.  1.
    10030    2    1    2    0    0  0.00000000000E+00  0.00000000000E+00 -0.19441950480E+03  0.19996416389E+04  0.19901677669E+04 0.  0.
        2    1    3    3  502    0  0.61142446028E+03  0.28628443844E+03  0.63729224236E+03  0.92840726651E+03  0.25500000920E-02 0.  1.
       -2    1    3    3    0  502 -0.61142446028E+03 -0.28628443844E+03 -0.83171174716E+03  0.10712343724E+04  0.25500000920E-02 0. -1.
</event>
<event>
 5   0  0.2311520E-06  0.2000195E+04  0.7818609E-02  0.8606529E-01
        1   -1    0    0  501    0  0.00000000000E+00  0.00000000000E+00  0.13469517210E+04  0.13469517210E+04  0.50400001928E-02 0.  1.
       -1   -1    0    0    0  501  0.00000000000E+00  0.00000000000E+00 -0.74256202351E+03  0.74256202353E+03  0.50400001928E-02 0. -1.
    10030    2    1    2    0    0  0.00000000000E+00  0.00000000000E+00  0.60438969751E+03  0.20895137446E+04  0.20001951860E+04 0.  0.
        3    1    3    3  502    0 -0.56096160307E+03 -0.39013362789E+03 -0.46069870769E+03  0.82409069719E+03  0.10100000352E+00 0. -1.
       -3    1    3    3    0  502  0.56096160307E+03  0.39013362789E+03  0.10650884052E+04  0.12654230474E+04  0.10100000352E+00 0.  1.
</event>
<event>
 5   0  0.5118981E-06  0.2000672E+04  0.7818609E-02  0.8606307E-01
        2   -1    0    0  501    0  0.00000000000E+00  0.00000000000E+00  0.98584017805E+03  0.98584017805E+03  0.25500000920E-02 0. -1.
       -2   -1    0    0    0  501  0.00000000000E+00  0.00000000000E+00 -0.10150450413E+04  0.10150450413E+04  0.25500000920E-02 0.  1.
    10030    2    1    2    0    0  0.00000000000E+00  0.00000000000E+00 -0.29204863253E+02  0.20008852194E+04  0.20006720713E+04 0.  0.
        4    1    3    3  502    0  0.15466873690E+03  0.72027682520E+03  0.66218928796E+03  0.99056417716E+03  0.12699999809E+01 0. -1.
       -4    1    3    3    0  502 -0.15466873690E+03 -0.72027682520E+03 -0.69139415121E+03  0.10103210422E+04  0.12699999809E+01 0.  1.
</event>
<event>
 5   0  0.4956214E-06  0.1996448E+04  0.7818609E-02  0.8608283E-01
       -2   -1    0    0    0  501  0.00000000000E+00  0.00000000000E+00  0.85216596029E+03  0.85216596029E+03  0.25500000920E-02 0.  1.
        2   -1    0    0  501    0  0.00000000000E+00  0.00000000000E+00 -0.11693160253E+04  0.11693160253E+04  0.25500000920E-02 0. -1.
    10030    2    1    2    0    0  0.00000000000E+00  0.00000000000E+00 -0.31715006504E+03  0.20214819856E+04  0.19964481597E+04 0.  0.
        1    1    3    3  502    0  0.82286099813E+02  0.48342444499E+03 -0.10389492427E+04  0.11488627965E+04  0.50400001928E-02 0. -1.
       -1    1    3    3    0  502 -0.82286099813E+02 -0.48342444499E+03  0.72179917770E+03  0.87261918910E+03  0.50400001928E-02 0.  1.
</event>
<event>
 5   0  0.2311520E-06  0.2000292E+04  0.7818609E-02  0.8606484E-01
       -1   -1    0    0    0  501  0.00000000000E+00  0.00000000000E+00  0.11984344569E+04  0.11984344569E+04  0.50400001928E-02 0. -1.
        1   -1    0    0  501    0  0.00000000000E+00  0.00000000000E+00 -0.83466536351E+03  0.83466536352E+03  0.50400001928E-02 0.  1.
    10030    2    1    2    0    0  0.00000000000E+00  0.00000000000E+00  0.36376909342E+03  0.20330998205E+04  0.20002917104E+04 0.  0.
        3    1    3    3  502    0  0.95830197919E+03  0.16612140844E+03  0.41884506513E+03  0.10589476873E+04  0.10100000352E+00 0.  1.
       -3    1    3    3    0  502 -0.95830197919E+03 -0.16612140844E+03 -0.55075971709E+02  0.97415213315E+03  0.10100000352E+00 0. -1.
</event>
<event>
 5   0  0.2379743E-06  0.2001354E+04  0.7818609E-02  0.8605988E-01
        1   -1    0    0  501    0  0.00000000000E+00  0.00000000000E+00  0.16799145685E+04  0.16799145685E+04  0.50400001928E-02 0.  1.
       -1   -1    0    0    0  501  0.00000000000E+00  0.00000000000E+00 -0.59607480769E+03  0.59607480771E+03  0.50400001928E-02 0. -1.
    10030    2    1    2    0    0  0.00000000000E+00  0.00000000000E+00  0.10838397608E+04  0.22759893762E+04  0.20013542949E+04 0.  0.
        5    1    3    3  502    0 -0.44660552828E+03  0.65843793208E+03 -0.14826927861E+03  0.80932248039E+03  0.46999998093E+01 0. -1.
       -5    1    3    3    0  502  0.44660552828E+03 -0.65843793208E+03  0.12321090394E+04  0.14666668958E+04  0.46999998093E+01 0.  1.
</event>
<event>
 5   0  0.2311520E-06  0.1999711E+04  0.7818609E-02  0.8606756E-01
        1   -1    0    0  501    0  0.00000000000E+00  0.00000000000E+00  0.10939019465E+04  0.10939019465E+04  0.50400001928E-02 0.  1.
       -1   -1    0    0    0  501  0.00000000000E+00  0.00000000000E+00 -0.91389468600E+03  0.91389468601E+03  0.50400001928E-02 0. -1.
    10030    2    1    2    0    0  0.00000000000E+00  0.00000000000E+00  0.18000726049E+03  0.20077966325E+04  0.19997111551E+04 0.  0.
        3    1    3    3  502    0  0.22931860006E+03  0.44195213289E+03  0.96057488424E+03  0.10819486247E+04  0.10100000352E+00 0.  1.
       -3    1    3    3    0  502 -0.22931860006E+03 -0.44195213289E+03 -0.78056762375E+03  0.92584800779E+03  0.10100000352E+00 0. -1.
</event>
<event>
 5   0  0.1777750E-06  0.1998765E+04  0.7818609E-02  0.8607198E-01
        3   -1    0    0  501    0  0.00000000000E+00  0.00000000000E+00  0.95683569128E+03  0.95683569661E+03  0.10100000352E+00 0. -1.
       -3   -1    0    0    0  501  0.00000000000E+00  0.00000000000E+00 -0.10438211237E+04  0.10438211285E+04  0.10100000352E+00 0.  1.
    10030    2    1    2    0    0  0.00000000000E+00  0.00000000000E+00 -0.86985432384E+02  0.20006568252E+04  0.19987649353E+04 0.  0.
        2    1    3    3  502    0  0.98605666344E+03 -0.11653552308E+03  0.70091761332E+02  0.99538993699E+03  0.25500000920E-02 0.  1.
       -2    1    3    3    0  502 -0.98605666344E+03  0.11653552308E+03 -0.15707719372E+03  0.10052668882E+04  0.25500000920E-02 0. -1.
</event>
<event>
 5   0  0.5129100E-06  0.2002236E+04  0.7818609E-02  0.8605576E-01
        2   -1    0    0  501    0  0.00000000000E+00  0.00000000000E+00  0.14812807803E+04  0.14812807803E+04  0.25500000920E-02 0.  1.
       -2   -1    0    0    0  501  0.00000000000E+00  0.00000000000E+00 -0.67660162122E+03  0.67660162122E+03  0.25500000920E-02 0. -1.
    10030    2    1    2    0    0  0.00000000000E+00  0.00000000000E+00  0.80467915913E+03  0.21578824016E+04  0.20022357278E+04 0.  0.
        2    1    3    3  502    0  0.72847879455E+03  0.25749980591E+03 -0.28373889871E+03  0.82310100644E+03  0.25500000920E-02 0. -1.
       -2    1    3    3    0  502 -0.72847879455E+03 -0.25749980591E+03  0.10884180578E+04  0.13347813951E+04  0.25500000920E-02 0.  1.
</event>
<event>
 5   0  0.2311520E-06  0.2005994E+04  0.7818609E-02  0.8603823E-01
       -1   -1    0    0    0  501  0.00000000000E+00  0.00000000000E+00  0.89426363522E+03  0.89426363524E+03  0.50400001928E-02 0.  1.
        1   -1    0    0  501    0  0.00000000000E+00  0.00000000000E+00 -0.11249514236E+04  0.11249514236E+04  0.50400001928E-02 0. -1.
    10030    2    1    2    0    0  0.00000000000E+00  0.00000000000E+00 -0.23068778841E+03  0.20192150589E+04  0.20059941671E+04 0.  0.
        3    1    3    3  502    0 -0.89138991359E+03 -0.90639539875E+02  0.33841713664E+03  0.95776702428E+03  0.10100000352E+00 0.  1.
       -3    1    3    3    0  502  0.89138991359E+03  0.90639539875E+02 -0.56910492505E+03  0.10614480346E+04  0.10100000352E+00 0. -1.
</event>
<event>
 5   0  0.4956214E-06  0.2000308E+04  0.7818609E-02  0.8606476E-01
        2   -1    0    0  501    0  0.00000000000E+00  0.00000000000E+00  0.14456390965E+04  0.14456390965E+04  0.25500000920E-02 0. -1.
       -2   -1    0    0    0  501  0.00000000000E+00  0.00000000000E+00 -0.69194897769E+03  0.69194897769E+03  0.25500000920E-02 0.  1.
    10030    2    1    2    0    0  0.00000000000E+00  0.00000000000E+00  0.75369011884E+03  0.21375880742E+04  0.20003084712E+04 0.  0.
        1    1    3    3  502    0  0.74011866040E+03  0.45086308617E+03  0.91036330982E+03  0.12569067228E+04  0.50400001928E-02 0. -1.
       -1    1    3    3    0  502 -0.74011866040E+03 -0.45086308617E+03 -0.15667319098E+03  0.88068135142E+03  0.50400001928E-02 0.  1.
</event>
<event>
 5   0  0.5118981E-06  0.2000309E+04  0.7818609E-02  0.8606476E-01
        2   -1    0    0  501    0  0.00000000000E+00  0.00000000000E+00  0.14846960795E+04  0.14846960796E+04  0.25500000920E-02 0. -1.
       -2   -1    0    0    0  501  0.00000000000E+00  0.00000000000E+00 -0.67374637474E+03  0.67374637475E+03  0.25500000920E-02 0.  1.
    10030    2    1    2    0    0  0.00000000000E+00  0.00000000000E+00  0.81094970481E+03  0.21584424543E+04  0.20003085774E+04 0.  0.
        4    1    3    3  502    0  0.23093996817E+03  0.34452670647E+03  0.13875184569E+04  0.14481854169E+04  0.12699999809E+01 0. -1.
       -4    1    3    3    0  502 -0.23093996817E+03 -0.34452670647E+03 -0.57656875214E+03  0.71025703743E+03  0.12699999809E+01 0.  1.
</event>
<event>
 5   0  0.2379743E-06  0.1998482E+04  0.7818609E-02  0.8607331E-01
       -1   -1    0    0    0  501  0.00000000000E+00  0.00000000000E+00  0.13184056557E+04  0.13184056557E+04  0.50400001928E-02 0. -1.
        1   -1    0    0  501    0  0.00000000000E+00  0.00000000000E+00 -0.75734102949E+03  0.75734102950E+03  0.50400001928E-02 0.  1.
    10030    2    1    2    0    0  0.00000000000E+00  0.00000000000E+00  0.56106462625E+03  0.20757466853E+04  0.19984821206E+04 0.  0.
        5    1    3    3  502    0  0.48647089453E+02  0.20188420679E+03 -0.73466941255E+03  0.76346906159E+03  0.46999998093E+01 0.  1.
       -5    1    3    3    0  502 -0.48647089453E+02 -0.20188420679E+03  0.12957340388E+04  0.13122776237E+04  0.46999998093E+01 0. -1.
</event>
<event>
 5   0  0.5030137E-06  0.1999258E+04  0.7818609E-02  0.8606967E-01
       -2   -1    0    0    0  501  0.00000000000E+00  0.00000000000E+00  0.58043586428E+03  0.58043586429E+03  0.25500000920E-02 0. -1.
        2   -1    0    0  501    0  0.00000000000E+00  0.00000000000E+00 -0.17215659317E+04  0.17215659318E+04  0.25500000920E-02 0.  1.
    10030    2    1    2    0    0  0.00000000000E+00  0.00000000000E+00 -0.11411300675E+04  0.23020017960E+04  0.19992584721E+04 0.  0.
        3    1    3    3  502    0  0.11851083729E+03 -0.20787694488E+03  0.54697318619E+03  0.59702371760E+03  0.10100000352E+00 0. -1.
       -3    1    3    3    0  502 -0.11851083729E+03  0.20787694488E+03 -0.16881032537E+04  0.17049780784E+04  0.10100000352E+00 0.  1.
</event>
<event>
 5   0  0.5030137E-06  0.1994436E+04  0.7818609E-02  0.8609226E-01
       -2   -1    0    0    0  501  0.00000000000E+00  0.00000000000E+00  0.45509261443E+03  0.45509261444E+03  0.25500000920E-02 0.  1.
        2   -1    0    0  501    0  0.00000000000E+00  0.00000000000E+00 -0.21851467196E+04  0.21851467196E+04  0.25500000920E-02 0. -1.
    10030    2    1    2    0    0  0.00000000000E+00  0.00000000000E+00 -0.17300541052E+04  0.26402393340E+04  0.19944363951E+04 0.  0.
        3    1    3    3  502    0  0.34887982497E+03 -0.60008209316E+03  0.82789891372E+02  0.69904923083E+03  0.10100000352E+00 0.  1.
       -3    1    3    3    0  502 -0.34887982497E+03  0.60008209316E+03 -0.18128439965E+04  0.19411901032E+04  0.10100000352E+00 0. -1.
</event>
<event>
 5   0  0.2386776E-06  0.2008955E+04  0.7818609E-02  0.8602445E-01
       -1   -1    0    0    0  501  0.00000000000E+00  0.00000000000E+00  0.77411572898E+03  0.77411572900E+03  0.50400001928E-02 0. -1.
        1   -1    0    0  501    0  0.00000000000E+00  0.00000000000E+00 -0.13033900715E+04  0.13033900715E+04  0.50400001928E-02 0.  1.
    10030    2    1    2    0    0  0.00000000000E+00  0.00000000000E+00 -0.52927434255E+03  0.20775058005E+04  0.20089547087E+04 0.  0.
        2    1    3    3  502    0  0.27739683524E+03  0.30450007679E+03 -0.12120344261E+04  0.12801159131E+04  0.25500000920E-02 0.  1.
       -2    1    3    3    0  502 -0.27739683524E+03 -0.30450007679E+03  0.68276008352E+03  0.79738988745E+03  0.25500000920E-02 0. -1.
</event>
<event>
 5   0  0.2379743E-06  0.1999894E+04  0.7818609E-02  0.8606670E-01
       -1   -1    0    0    0  501  0.00000000000E+00  0.00000000000E+00  0.86581801873E+03  0.86581801874E+03  0.50400001928E-02 0. -1.
        1   -1    0    0  501    0  0.00000000000E+00  0.00000000000E+00 -0.11548551485E+04  0.11548551485E+04  0.50400001928E-02 0.  1.
    10030    2    1    2    0    0  0.00000000000E+00  0.00000000000E+00 -0.28903712980E+03  0.20206731673E+04  0.19998943939E+04 0.  0.
        5    1    3    3  502    0 -0.63529093400E+03  0.68323460780E+03  0.21903681644E+03  0.95833361471E+03  0.46999998093E+01 0. -1.
       -5    1    3    3    0  502  0.63529093400E+03 -0.68323460780E+03 -0.50807394624E+03  0.10623395526E+04  0.46999998093E+01 0.  1.
</event>
<event>
 5   0  0.2313821E-06  0.1999618E+04  0.7818609E-02  0.8606799E-01
       -1   -1    0    0    0  501  0.00000000000E+00  0.00000000000E+00  0.78110577007E+03  0.78110577009E+03  0.50400001928E-02 0.  1.
        1   -1    0    0  501    0  0.00000000000E+00  0.00000000000E+00 -0.12797478875E+04  0.12797478875E+04  0.50400001928E-02 0. -1.
    10030    2    1    2    0    0  0.00000000000E+00  0.00000000000E+00 -0.49864211745E+03  0.20608536576E+04  0.19996184228E+04 0.  0.
        1    1    3    3  502    0  0.41611298046E+03  0.42217652584E+03 -0.10791076360E+04  0.12312011703E+04  0.50400001928E-02 0. -1.
       -1    1    3    3    0  502 -0.41611298046E+03 -0.42217652584E+03  0.58046551859E+03  0.82965248736E+03  0.50400001928E-02 0.  1.
</event>
<event>
 5   0  0.5251252E-06  0.1998746E+04  0.7818609E-02  0.8607207E-01
       -2   -1    0    0    0  501  0.00000000000E+00  0.00000000000E+00  0.63007503760E+03  0.63007503761E+03  0.25500000920E-02 0. -1.
        2   -1    0    0  501    0  0.00000000000E+00  0.00000000000E+00 -0.15851224688E+04  0.15851224688E+04  0.25500000920E-02 0.  1.
    10030    2    1    2    0    0  0.00000000000E+00  0.00000000000E+00 -0.95504743116E+03  0.22151975064E+04  0.19987457058E+04 0.  0.
        5    1    3    3  502    0  0.36522230283E+02 -0.38735664992E+03  0.54267561887E+03  0.66775591713E+03  0.46999998093E+01 0. -1.
       -5    1    3    3    0  502 -0.36522230283E+02  0.38735664992E+03 -0.14977230500E+04  0.15474415893E+04  0.46999998093E+01 0.  1.
</event>
<event>
 5   0  0.5030137E-06  0.2000270E+04  0.7818609E-02  0.8606495E-01
        2   -1    0    0  501    0  0.00000000000E+00  0.00000000000E+00  0.75787853506E+03  0.75787853506E+03  0.25500000920E-02 0. -1.
       -2   -1    0    0    0  501  0.00000000000E+00  0.00000000000E+00 -0.13198284062E+04  0.13198284062E+04  0.25500000920E-02 0.  1.
    10030    2    1    2    0    0  0.00000000000E+00  0.00000000000E+00 -0.56194987119E+03  0.20777069413E+04  0.20002696009E+04 0.  0.
        3    1    3    3  502    0  0.29422035444E+02  0.52379581537E+03 -0.11654331247E+04  0.12780696737E+04  0.10100000352E+00 0.  1.
       -3    1    3    3    0  502 -0.29422035444E+02 -0.52379581537E+03  0.60348325351E+03  0.79963726766E+03  0.10100000352E+00 0. -1.
</event>
<event>
 5   0  0.5118981E-06  0.1999046E+04  0.7818609E-02  0.8607067E-01
       -2   -1    0    0    0  501  0.00000000000E+00  0.00000000000E+00  0.10811986565E+04  0.10811986565E+04  0.25500000920E-02 0.  1.
        2   -1    0    0  501    0  0.00000000000E+00  0.00000000000E+00 -0.92401740450E+03  0.92401740451E+03  0.25500000920E-02 0. -1.
    10030    2    1    2    0    0  0.00000000000E+00  0.00000000000E+00  0.15718125201E+03  0.20052160610E+04  0.19990461489E+04 0.  0.
        4    1    3    3  502    0 -0.62900296097E+03 -0.33665766609E+03  0.78079529904E+03  0.10576511811E+04  0.12699999809E+01 0.  1.
       -4    1    3    3    0  502  0.62900296097E+03  0.33665766609E+03 -0.62361404703E+03  0.94756487989E+03  0.12699999809E+01 0. -1.
</event>
<event>
 5   0  0.5030137E-06  0.2000086E+04  0.7818609E-02  0.8606580E-01
       -2   -1    0    0    0  501  0.00000000000E+00  0.00000000000E+00  0.64694095868E+03  0.64694095868E+03  0.25500000920E-02 0. -1.
        2   -1    0    0  501    0  0.00000000000E+00  0.00000000000E+00 -0.15458694200E+04  0.15458694200E+04  0.25500000920E-02 0.  1.
    10030    2    1    2    0    0  0.00000000000E+00  0.00000000000E+00 -0.89892846134E+03  0.21928103787E+04  0.20000862427E+04 0.  0.
        3    1    3    3  502    0  0.39926932349E+03 -0.82277276733E+03 -0.89306968452E+03  0.12782583819E+04  0.10100000352E+00 0.  1.
       -3    1    3    3    0  502 -0.39926932349E+03  0.82277276733E+03 -0.58587768148E+01  0.91455199678E+03  0.10100000352E+00 0. -1.
</event>
<event>
 5   0  0.2379743E-06  0.2001436E+04  0.7818609E-02  0.8605950E-01
       -1   -1    0    0    0  501  0.00000000000E+00  0.00000000000E+00  0.56417036241E+03  0.56417036243E+03  0.50400001928E-02 0.  1.
        1   -1    0    0  501    0  0.00000000000E+00  0.00000000000E+00 -0.17750597075E+04  0.17750597075E+04  0.50400001928E-02 0. -1.
    10030    2    1    2    0    0  0.00000000000E+00  0.00000000000E+00 -0.12108893451E+04  0.23392300699E+04  0.20014355633E+04 0.  0.
        5    1    3    3  502    0  0.59166338205E+03 -0.20717490282E+03  0.30622091389E+03  0.69769644984E+03  0.46999998093E+01 0.  1.
       -5    1    3    3    0  502 -0.59166338205E+03  0.20717490282E+03 -0.15171102590E+04  0.16415336201E+04  0.46999998093E+01 0. -1.
</event>
<event>
 5   0  0.2356996E-06  0.1999872E+04  0.7818609E-02  0.8606680E-01
        1   -1    0    0  501    0  0.00000000000E+00  0.00000000000E+00  0.10773318712E+04  0.10773318712E+04  0.50400001928E-02 0. -1.
       -1   -1    0    0    0  501  0.00000000000E+00  0.00000000000E+00 -0.92810033318E+03  0.92810033320E+03  0.50400001928E-02 0.  1.
    10030    2    1    2    0    0  0.00000000000E+00  0.00000000000E+00  0.14923153802E+03  0.20054322044E+04  0.19998720645E+04 0.  0.
        4    1    3    3  502    0 -0.82926207438E+03 -0.55852316554E+03  0.58864095666E+02  0.10015439626E+04  0.12699999809E+01 0. -1.
       -4    1    3    3    0  502  0.82926207438E+03  0.55852316554E+03  0.90367442354E+02  0.10038882418E+04  0.12699999809E+01 0.  1.
</event>
<event>
 5   0  0.2379743E-06  0.1999854E+04  0.7818609E-02  0.8606689E-01
       -1   -1    0    0    0  501  0.00000000000E+00  0.00000000000E+00  0.17942947797E+04  0.17942947797E+04  0.50400001928E-02 0.  1.
        1   -1    0    0  501    0  0.00000000000E+00  0.00000000000E+00 -0.55724084311E+03  0.55724084313E+03  0.50400001928E-02 0. -1.
    10030    2    1    2    0    0  0.00000000000E+00  0.00000000000E+00  0.12370539366E+04  0.23515356229E+04  0.19998543306E+04 0.  0.
        5    1    3    3  502    0 -0.22540198357E+03  0.51543307556E+03  0.15905495789E+04  0.16871121369E+04  0.46999998093E+01 0.  1.
       -5    1    3    3    0  502  0.22540198357E+03 -0.51543307556E+03 -0.35349564228E+03  0.66442348596E+03  0.46999998093E+01 0. -1.
</event>
<event>
 5   0  0.2356996E-06  0.1999896E+04  0.7818609E-02  0.8606669E-01
        1   -1    0    0  501    0  0.00000000000E+00  0.00000000000E+00  0.16037421372E+04  0.16037421372E+04  0.50400001928E-02 0.  1.
       -1   -1    0    0    0  501  0.00000000000E+00  0.00000000000E+00 -0.62347671471E+03  0.62347671473E+03  0.50400001928E-02 0. -1.
    10030    2    1    2    0    0  0.00000000000E+00  0.00000000000E+00  0.98026542246E+03  0.22272188519E+04  0.19998958762E+04 0.  0.
        4    1    3    3  502    0  0.43910000339E+03  0.81906321333E+03  0.90116637362E+03  0.12945175960E+04  0.12699999809E+01 0.  1.
       -4    1    3    3    0  502 -0.43910000339E+03 -0.81906321333E+03  0.79099048840E+02  0.93270125594E+03  0.12699999809E+01 0. -1.
</event>
<event>
 5   0  0.5030137E-06  0.1999881E+04  0.7818609E-02  0.8606676E-01
        2   -1    0    0  501    0  0.00000000000E+00  0.00000000000E+00  0.27397052613E+04  0.27397052613E+04  0.25500000920E-02 0. -1.
       -2   -1    0    0    0  501  0.00000000000E+00  0.00000000000E+00 -0.36495918123E+03  0.36495918124E+03  0.25500000920E-02 0.  1.
    10030    2    1    2    0    0  0.00000000000E+00  0.00000000000E+00  0.23747460801E+04  0.31046644426E+04  0.19998805855E+04 0.  0.
        3    1    3    3  502    0  0.13928000096E+02  0.99509417896E+03  0.10362672635E+04  0.14367519848E+04  0.10100000352E+00 0.  1.
       -3    1    3    3    0  502 -0.13928000096E+02 -0.99509417896E+03  0.13384788166E+04  0.16679124578E+04  0.10100000352E+00 0. -1.
</event>
<event>
 5   0  0.2311520E-06  0.2000478E+04  0.7818609E-02  0.8606397E-01
       -1   -1    0    0    0  501  0.00000000000E+00  0.00000000000E+00  0.70739868832E+03  0.70739868833E+03  0.50400001928E-02 0.  1.
        1   -1    0    0  501    0  0.00000000000E+00  0.00000000000E+00 -0.14143059467E+04  0.14143059467E+04  0.50400001928E-02 0. -1.
    10030    2    1    2    0    0  0.00000000000E+00  0.00000000000E+00 -0.70690725834E+03  0.21217046350E+04  0.20004781144E+04 0.  0.
        3    1    3    3  502    0 -0.91705423518E+03  0.45672916768E+02 -0.77423698769E+03  0.12010484623E+04  0.10100000352E+00 0.  1.
       -3    1    3    3    0  502  0.91705423518E+03 -0.45672916768E+02  0.67329729346E+02  0.92065617266E+03  0.10100000352E+00 0. -1.
</event>
<event>
 5   0  0.1777750E-06  0.1999934E+04  0.7818609E-02  0.8606651E-01
       -4   -1    0    0    0  501  0.00000000000E+00  0.00000000000E+00  0.13553068495E+04  0.13553074446E+04  0.12699999809E+01 0.  1.
        4   -1    0    0  501    0  0.00000000000E+00  0.00000000000E+00 -0.73779037309E+03  0.73779146615E+03  0.12699999809E+01 0. -1.
    10030    2    1    2    0    0  0.00000000000E+00  0.00000000000E+00  0.61751647645E+03  0.20930989107E+04  0.19999341118E+04 0.  0.
        5    1    3    3  502    0  0.30316246695E+03 -0.51878601938E+03  0.11452830334E+04  0.12933451712E+04  0.46999998093E+01 0.  1.
       -5    1    3    3    0  502 -0.30316246695E+03  0.51878601938E+03 -0.52776655694E+03  0.79975373953E+03  0.46999998093E+01 0. -1.
</event>
<event>
 5   0  0.5030137E-06  0.2000290E+04  0.7818609E-02  0.8606485E-01
       -2   -1    0    0    0  501  0.00000000000E+00  0.00000000000E+00  0.48231973692E+03  0.48231973693E+03  0.25500000920E-02 0. -1.
        2   -1    0    0  501    0  0.00000000000E+00  0.00000000000E+00 -0.20739146077E+04  0.20739146077E+04  0.25500000920E-02 0.  1.
    10030    2    1    2    0    0  0.00000000000E+00  0.00000000000E+00 -0.15915948707E+04  0.25562343446E+04  0.20002899270E+04 0.  0.
        3    1    3    3  502    0 -0.65876744411E+03 -0.42781050527E+03 -0.46207496358E+01  0.78550476471E+03  0.10100000352E+00 0. -1.
       -3    1    3    3    0  502  0.65876744411E+03  0.42781050527E+03 -0.15869741211E+04  0.17707295799E+04  0.10100000352E+00 0.  1.
</event>
<event>
 5   0  0.2311520E-06  0.1995481E+04  0.7818609E-02  0.8608736E-01
       -1   -1    0    0    0  501  0.00000000000E+00  0.00000000000E+00  0.16503740242E+04  0.16503740242E+04  0.50400001928E-02 0. -1.
        1   -1    0    0  501    0  0.00000000000E+00  0.00000000000E+00 -0.60318811507E+03  0.60318811509E+03  0.50400001928E-02 0.  1.
    10030    2    1    2    0    0  0.00000000000E+00  0.00000000000E+00  0.10471859091E+04  0.22535621393E+04  0.19954808912E+04 0.  0.
        3    1    3    3  502    0 -0.73481015326E+02  0.10673597535E+03 -0.59364432365E+03  0.60762292686E+03  0.10100000352E+00 0.  1.
       -3    1    3    3    0  502  0.73481015326E+02 -0.10673597535E+03  0.16408302327E+04  0.16459392124E+04  0.10100000352E+00 0. -1.
</event>
<event>
 5   0  0.5118981E-06  0.2000362E+04  0.7818609E-02  0.8606452E-01
        2   -1    0    0  501    0  0.00000000000E+00  0.00000000000E+00  0.33430663212E+04  0.33430663212E+04  0.25500000920E-02 0. -1.
       -2   -1    0    0    0  501  0.00000000000E+00  0.00000000000E+00 -0.29923482339E+03  0.29923482340E+03  0.25500000920E-02 0.  1.
    10030    2    1    2    0    0  0.00000000000E+00  0.00000000000E+00  0.30438314978E+04  0.36423011446E+04  0.20003618275E+04 0.  0.
        4    1    3    3  502    0  0.36373530509E+03  0.91527682120E+03  0.12048354628E+04  0.15561700219E+04  0.12699999809E+01 0. -1.
       -4    1    3    3    0  502 -0.36373530509E+03 -0.91527682120E+03  0.18389960349E+04  0.20861311227E+04  0.12699999809E+01 0.  1.
</event>
<event>
 5   0  0.2386776E-06  0.2000331E+04  0.7818609E-02  0.8606466E-01
       -1   -1    0    0    0  501  0.00000000000E+00  0.00000000000E+00  0.96610634435E+03  0.96610634436E+03  0.50400001928E-02 0.  1.
        1   -1    0    0  501    0  0.00000000000E+00  0.00000000000E+00 -0.10354250941E+04  0.10354250941E+04  0.50400001928E-02 0. -1.
    10030    2    1    2    0    0  0.00000000000E+00  0.00000000000E+00 -0.69318749702E+02  0.20015314384E+04  0.20003307251E+04 0.  0.
        2    1    3    3  502    0 -0.67949165280E+03  0.59055792805E+03 -0.47065384940E+03  0.10158654530E+04  0.25500000920E-02 0. -1.
       -2    1    3    3    0  502  0.67949165280E+03 -0.59055792805E+03  0.40133509970E+03  0.98566598544E+03  0.25500000920E-02 0.  1.
</event>
<event>
 5   0  0.2386776E-06  0.1999984E+04  0.7818609E-02  0.8606628E-01
       -1   -1    0    0    0  501  0.00000000000E+00  0.00000000000E+00  0.68077382398E+03  0.68077382400E+03  0.50400001928E-02 0.  1.
        1   -1    0    0  501    0  0.00000000000E+00  0.00000000000E+00 -0.14688924751E+04  0.14688924751E+04  0.50400001928E-02 0. -1.
    10030    2    1    2    0    0  0.00000000000E+00  0.00000000000E+00 -0.78811865112E+03  0.21496662991E+04  0.19999835472E+04 0.  0.
        2    1    3    3  502    0  0.65636768709E+03  0.16010717604E+03 -0.11864815806E+04  0.13653539429E+04  0.25500000920E-02 0. -1.
       -2    1    3    3    0  502 -0.65636768709E+03 -0.16010717604E+03  0.39836292944E+03  0.78431235617E+03  0.25500000920E-02 0.  1.
</event>
<event>
 5   0  0.2356996E-06  0.1996979E+04  0.7818609E-02  0.8608034E-01
        1   -1    0    0  501    0  0.00000000000E+00  0.00000000000E+00  0.14268954912E+04  0.14268954912E+04  0.50400001928E-02 0.  1.
       -1   -1    0    0    0  501  0.00000000000E+00  0.00000000000E+00 -0.69870658031E+03  0.69870658033E+03  0.50400001928E-02 0. -1.
    10030    2    1    2    0    0  0.00000000000E+00  0.00000000000E+00  0.72818891086E+03  0.21256020715E+04  0.19969789875E+04 0.  0.
        4    1    3    3  502    0 -0.26024430866E+03 -0.48391937857E+03  0.12515041643E+04  0.13668099178E+04  0.12699999809E+01 0.  1.
       -4    1    3    3    0  502  0.26024430866E+03  0.48391937857E+03 -0.52331525346E+03  0.75879215372E+03  0.12699999809E+01 0. -1.
</event>
<event>
 5   0  0.2311520E-06  0.1999348E+04  0.7818609E-02  0.8606926E-01
        1   -1    0    0  501    0  0.00000000000E+00  0.00000000000E+00  0.17621670310E+04  0.17621670310E+04  0.50400001928E-02 0. -1.
       -1   -1    0    0    0  501  0.00000000000E+00  0.00000000000E+00 -0.56711309379E+03  0.56711309381E+03  0.50400001928E-02 0.  1.
    10030    2    1    2    0    0  0.00000000000E+00  0.00000000000E+00  0.11950539372E+04  0.23292801248E+04  0.19993478904E+04 0.  0.
        3    1    3    3  502    0  0.19567498183E+03  0.95069549798E+03  0.31880375397E+03  0.10216391105E+04  0.10100000352E+00 0.  1.
       -3    1    3    3    0  502 -0.19567498183E+03 -0.95069549798E+03  0.87625018320E+03  0.13076410143E+04  0.10100000352E+00 0. -1.
</event>
<event>
 5   0  0.2379743E-06  0.2000299E+04  0.7818609E-02  0.8606481E-01
       -1   -1    0    0    0  501  0.00000000000E+00  0.00000000000E+00  0.56702442404E+03  0.56702442406E+03  0.50400001928E-02 0. -1.
        1   -1    0    0  501    0  0.00000000000E+00  0.00000000000E+00 -0.17641204483E+04  0.17641204483E+04  0.50400001928E-02 0.  1.
    10030    2    1    2    0    0  0.00000000000E+00  0.00000000000E+00 -0.11970960242E+04  0.23311448723E+04  0.20002993587E+04 0.  0.
        5    1    3    3  502    0 -0.44143968316E+03 -0.78160583478E+03 -0.84581575420E+02  0.90163895642E+03  0.46999998093E+01 0. -1.
       -5    1    3    3    0  502  0.44143968316E+03  0.78160583478E+03 -0.11125144488E+04  0.14295059159E+04  0.46999998093E+01 0.  1.
</event>
<event>
 5   0  0.5030137E-06  0.2000163E+04  0.7818609E-02  0.8606545E-01
       -2   -1    0    0    0  501  0.00000000000E+00  0.00000000000E+00  0.40293279736E+03  0.40293279737E+03  0.25500000920E-02 0.  1.
        2   -1    0    0  501    0  0.00000000000E+00  0.00000000000E+00 -0.24822074843E+04  0.24822074843E+04  0.25500000920E-02 0. -1.
    10030    2    1    2    0    0  0.00000000000E+00  0.00000000000E+00 -0.20792746869E+04  0.28851402817E+04  0.20001627987E+04 0.  0.
        3    1    3    3  502    0 -0.71031539352E+03 -0.68645361486E+03 -0.81433624078E+03  0.12801992216E+04  0.10100000352E+00 0.  1.
       -3    1    3    3    0  502  0.71031539352E+03  0.68645361486E+03 -0.12649384461E+04  0.16049410601E+04  0.10100000352E+00 0. -1.
</event>
<event>
 5   0  0.2313821E-06  0.1998954E+04  0.7818609E-02  0.8607110E-01
        1   -1    0    0  501    0  0.00000000000E+00  0.00000000000E+00  0.15502613449E+04  0.15502613449E+04  0.50400001928E-02 0. -1.
       -1   -1    0    0    0  501  0.00000000000E+00  0.00000000000E+00 -0.64437773310E+03  0.64437773312E+03  0.50400001928E-02 0.  1.
    10030    2    1    2    0    0  0.00000000000E+00  0.00000000000E+00  0.90588361180E+03  0.21946390780E+04  0.19989536174E+04 0.  0.
        1    1    3    3  502    0  0.21088549263E+02 -0.35532590359E+03 -0.57243040631E+03  0.67407551118E+03  0.50400001928E-02 0.  1.
       -1    1    3    3    0  502 -0.21088549263E+02  0.35532590359E+03  0.14783140181E+04  0.15205635669E+04  0.50400001928E-02 0. -1.
</event>
<event>
 5   0  0.4956214E-06  0.1999035E+04  0.7818609E-02  0.8607072E-01
       -2   -1    0    0    0  501  0.00000000000E+00  0.00000000000E+00  0.14591893628E+04  0.14591893628E+04  0.25500000920E-02 0. -1.
        2   -1    0    0  501    0  0.00000000000E+00  0.00000000000E+00 -0.68465084786E+03  0.68465084786E+03  0.25500000920E-02 0.  1.
    10030    2    1    2    0    0  0.00000000000E+00  0.00000000000E+00  0.77453851495E+03  0.21438402107E+04  0.19990350016E+04 0.  0.
        1    1    3    3  502    0 -0.21323281048E+03  0.66584875110E+03  0.11533023602E+04  0.13486768052E+04  0.50400001928E-02 0. -1.
       -1    1    3    3    0  502  0.21323281048E+03 -0.66584875110E+03 -0.37876384530E+03  0.79516340544E+03  0.50400001928E-02 0.  1.
</event>
<event>
 5   0  0.2311520E-06  0.2000689E+04  0.7818609E-02  0.8606298E-01
       -1   -1    0    0    0  501  0.00000000000E+00  0.00000000000E+00  0.80736162253E+03  0.80736162254E+03  0.50400001928E-02 0.  1.
        1   -1    0    0  501    0  0.00000000000E+00  0.00000000000E+00 -0.12394564096E+04  0.12394564096E+04  0.50400001928E-02 0. -1.
    10030    2    1    2    0    0  0.00000000000E+00  0.00000000000E+00 -0.43209478710E+03  0.20468180322E+04  0.20006894191E+04 0.  0.
        3    1    3    3  502    0 -0.38031187619E+03  0.50363508156E+02  0.72911269111E+03  0.82388041162E+03  0.10100000352E+00 0.  1.
       -3    1    3    3    0  502  0.38031187619E+03 -0.50363508156E+02 -0.11612074782E+04  0.12229376206E+04  0.10100000352E+00 0. -1.
</event>
<event>
 5   0  0.2386776E-06  0.1999745E+04  0.7818609E-02  0.8606740E-01
        1   -1    0    0  501    0  0.00000000000E+00  0.00000000000E+00  0.13108220173E+04  0.13108220173E+04  0.50400001928E-02 0.  1.
       -1   -1    0    0    0  501  0.00000000000E+00  0.00000000000E+00 -0.76268531725E+03  0.76268531727E+03  0.50400001928E-02 0. -1.
    10030    2    1    2    0    0  0.00000000000E+00  0.00000000000E+00  0.54813670006E+03  0.20735073346E+04  0.19997446899E+04 0.  0.
        2    1    3    3  502    0 -0.11209295778E+02 -0.18641163145E+03 -0.74444182433E+03  0.76750802893E+03  0.25500000920E-02 0. -1.
       -2    1    3    3    0  502  0.11209295778E+02  0.18641163145E+03  0.12925785244E+04  0.13059993057E+04  0.25500000920E-02 0.  1.
</event>
<event>
 5   0  0.2379743E-06  0.1999420E+04  0.7818609E-02  0.8606892E-01
       -1   -1    0    0    0  501  0.00000000000E+00  0.00000000000E+00  0.72381871978E+03  0.72381871980E+03  0.50400001928E-02 0. -1.
        1   -1    0    0  501    0  0.00000000000E+00  0.00000000000E+00 -0.13807595624E+04  0.13807595624E+04  0.50400001928E-02 0.  1.
    10030    2    1    2    0    0  0.00000000000E+00  0.00000000000E+00 -0.65694084259E+03  0.21045782822E+04  0.19994195345E+04 0.  0.
        5    1    3    3  502    0  0.46836434953E+03  0.63522828711E+03  0.31741230865E+03  0.85067784992E+03  0.46999998093E+01 0. -1.
       -5    1    3    3    0  502 -0.46836434953E+03 -0.63522828711E+03 -0.97435315124E+03  0.12539004322E+04  0.46999998093E+01 0.  1.
</event>
<event>
 5   0  0.5251252E-06  0.1997645E+04  0.7818609E-02  0.8607723E-01
        2   -1    0    0  501    0  0.00000000000E+00  0.00000000000E+00  0.11868841561E+04  0.11868841561E+04  0.25500000920E-02 0. -1.
       -2   -1    0    0    0  501  0.00000000000E+00  0.00000000000E+00 -0.84055906874E+03  0.84055906874E+03  0.25500000920E-02 0.  1.
    10030    2    1    2    0    0  0.00000000000E+00  0.00000000000E+00  0.34632508733E+03  0.20274432248E+04  0.19976448543E+04 0.  0.
        5    1    3    3  502    0  0.17959864606E+03  0.57808996970E+03 -0.63315701536E+03  0.87598720472E+03  0.46999998093E+01 0.  1.
       -5    1    3    3    0  502 -0.17959864606E+03 -0.57808996970E+03  0.97948210269E+03  0.11514560201E+04  0.46999998093E+01 0. -1.
</event>
<event>
 5   0  0.5251252E-06  0.2000041E+04  0.7818609E-02  0.8606601E-01
       -2   -1    0    0    0  501  0.00000000000E+00  0.00000000000E+00  0.46265185950E+03  0.46265185950E+03  0.25500000920E-02 0.  1.
        2   -1    0    0  501    0  0.00000000000E+00  0.00000000000E+00 -0.21615416324E+04  0.21615416324E+04  0.25500000920E-02 0. -1.
    10030    2    1    2    0    0  0.00000000000E+00  0.00000000000E+00 -0.16988897729E+04  0.26241934919E+04  0.20000412552E+04 0.  0.
        5    1    3    3  502    0 -0.17123709503E+03  0.52082931534E+02  0.44145058488E+03  0.47637745891E+03  0.46999998093E+01 0.  1.
       -5    1    3    3    0  502  0.17123709503E+03 -0.52082931534E+02 -0.21403403578E+04  0.21478160330E+04  0.46999998093E+01 0. -1.
</event>
<event>
 5   0  0.5251252E-06  0.2000073E+04  0.7818609E-02  0.8606586E-01
        2   -1    0    0  501    0  0.00000000000E+00  0.00000000000E+00  0.17500127672E+04  0.17500127672E+04  0.25500000920E-02 0. -1.
       -2   -1    0    0    0  501  0.00000000000E+00  0.00000000000E+00 -0.57146634175E+03  0.57146634176E+03  0.25500000920E-02 0.  1.
    10030    2    1    2    0    0  0.00000000000E+00  0.00000000000E+00  0.11785464254E+04  0.23214791089E+04  0.20000733927E+04 0.  0.
        5    1    3    3  502    0  0.43008288340E+03 -0.58584036925E+03  0.13865893014E+04  0.15655134000E+04  0.46999998093E+01 0. -1.
       -5    1    3    3    0  502 -0.43008288340E+03  0.58584036925E+03 -0.20804287597E+03  0.75596570893E+03  0.46999998093E+01 0.  1.
</event>
<event>
 5   0  0.2356996E-06  0.1998959E+04  0.7818609E-02  0.8607108E-01
       -1   -1    0    0    0  501  0.00000000000E+00  0.00000000000E+00  0.16111638827E+04  0.16111638827E+04  0.50400001928E-02 0. -1.
        1   -1    0    0  501    0  0.00000000000E+00  0.00000000000E+00 -0.62002339849E+03  0.62002339851E+03  0.50400001928E-02 0.  1.
    10030    2    1    2    0    0  0.00000000000E+00  0.00000000000E+00  0.99114048417E+03  0.22311872812E+04  0.19989590352E+04 0.  0.
        4    1    3    3  502    0 -0.46310305064E+03 -0.82876977896E+03  0.84433490465E+03  0.12705222651E+04  0.12699999809E+01 0. -1.
       -4    1    3    3    0  502  0.46310305064E+03  0.82876977896E+03  0.14680557953E+03  0.96066501607E+03  0.12699999809E+01 0.  1.
</event>
<event>
 5   0  0.5129100E-06  0.2000657E+04  0.7818609E-02  0.8606314E-01
       -2   -1    0    0    0  501  0.00000000000E+00  0.00000000000E+00  0.49416577641E+03  0.49416577642E+03  0.25500000920E-02 0.  1.
        2   -1    0    0  501    0  0.00000000000E+00  0.00000000000E+00 -0.20249412761E+04  0.20249412761E+04  0.25500000920E-02 0. -1.
    10030    2    1    2    0    0  0.00000000000E+00  0.00000000000E+00 -0.15307754997E+04  0.25191070525E+04  0.20006565701E+04 0.  0.
        2    1    3    3  502    0  0.39074471561E+03  0.21000913753E+03  0.36354317516E+03  0.57354067932E+03  0.25500000920E-02 0.  1.
       -2    1    3    3    0  502 -0.39074471561E+03 -0.21000913753E+03 -0.18943186748E+04  0.19455663732E+04  0.25500000920E-02 0. -1.
</event>
<event>
 5   0  0.5030137E-06  0.1997413E+04  0.7818609E-02  0.8607831E-01
        2   -1    0    0  501    0  0.00000000000E+00  0.00000000000E+00  0.10952077996E+04  0.10952077996E+04  0.25500000920E-02 0.  1.
       -2   -1    0    0    0  501  0.00000000000E+00  0.00000000000E+00 -0.91070837190E+03  0.91070837190E+03  0.25500000920E-02 0. -1.
    10030    2    1    2    0    0  0.00000000000E+00  0.00000000000E+00  0.18449942772E+03  0.20059161715E+04  0.19974132393E+04 0.  0.
        3    1    3    3  502    0  0.84332919091E+03 -0.51909892287E+03  0.22221114338E+03  0.10149116308E+04  0.10100000352E+00 0.  1.
       -3    1    3    3    0  502 -0.84332919091E+03  0.51909892287E+03 -0.37711715655E+02  0.99100454069E+03  0.10100000352E+00 0. -1.
</event>
<event>
 5   0  0.2311520E-06  0.2000358E+04  0.7818609E-02  0.8606453E-01
       -1   -1    0    0    0  501  0.00000000000E+00  0.00000000000E+00  0.92436888284E+03  0.92436888286E+03  0.50400001928E-02 0. -1.
        1   -1    0    0  501    0  0.00000000000E+00  0.00000000000E+00 -0.10822062957E+04  0.10822062958E+04  0.50400001928E-02 0.  1.
    10030    2    1    2    0    0  0.00000000000E+00  0.00000000000E+00 -0.15783741290E+03  0.20065751786E+04  0.20003577926E+04 0.  0.
        3    1    3    3  502    0 -0.32027505350E+03 -0.62852554370E+03  0.63232482090E+03  0.94734109924E+03  0.10100000352E+00 0. -1.
       -3    1    3    3    0  502  0.32027505350E+03  0.62852554370E+03 -0.79016223380E+03  0.10592340794E+04  0.10100000352E+00 0.  1.
</event>
<event>
 5   0  0.5030137E-06  0.1994668E+04  0.7818609E-02  0.8609118E-01
        2   -1    0    0  501    0  0.00000000000E+00  0.00000000000E+00  0.69356109570E+03  0.69356109570E+03  0.25500000920E-02 0. -1.
       -2   -1    0    0    0  501  0.00000000000E+00  0.00000000000E+00 -0.14341559691E+04  0.14341559691E+04  0.25500000920E-02 0.  1.
    10030    2    1    2    0    0  0.00000000000E+00  0.00000000000E+00 -0.74059487342E+03  0.21277170648E+04  0.19946676769E+04 0.  0.
        3    1    3    3  502    0 -0.94185320757E+02 -0.97855592549E+03 -0.19106537654E+03  0.10014731960E+04  0.10100000352E+00 0. -1.
       -3    1    3    3    0  502  0.94185320757E+02  0.97855592549E+03 -0.54952949689E+03  0.11262438688E+04  0.10100000352E+00 0.  1.
</event>
<event>
 5   0  0.2313821E-06  0.2002356E+04  0.7818609E-02  0.8605520E-01
        1   -1    0    0  501    0  0.00000000000E+00  0.00000000000E+00  0.13440871973E+04  0.13440871973E+04  0.50400001928E-02 0.  1.
       -1   -1    0    0    0  501  0.00000000000E+00  0.00000000000E+00 -0.74575335349E+03  0.74575335351E+03  0.50400001928E-02 0. -1.
    10030    2    1    2    0    0  0.00000000000E+00  0.00000000000E+00  0.59833384382E+03  0.20898405508E+04  0.20023561469E+04 0.  0.
        1    1    3    3  502    0 -0.32897316283E+03  0.54263132669E+03 -0.50906049284E+03  0.81351993458E+03  0.50400001928E-02 0. -1.
       -1    1    3    3    0  502  0.32897316283E+03 -0.54263132669E+03  0.11073943367E+04  0.12763206162E+04  0.50400001928E-02 0.  1.
</event>
<event>
 5   0  0.5251252E-06  0.1999405E+04  0.7818609E-02  0.8606899E-01
        2   -1    0    0  501    0  0.00000000000E+00  0.00000000000E+00  0.72007017782E+03  0.72007017782E+03  0.25500000920E-02 0. -1.
       -2   -1    0    0    0  501  0.00000000000E+00  0.00000000000E+00 -0.13879272883E+04  0.13879272883E+04  0.25500000920E-02 0.  1.
    10030    2    1    2    0    0  0.00000000000E+00  0.00000000000E+00 -0.66785711047E+03  0.21079974661E+04  0.19994049608E+04 0.  0.
        5    1    3    3  502    0 -0.25676215416E+03  0.23245666729E+03 -0.13226353105E+04  0.13672414420E+04  0.46999998093E+01 0.  1.
       -5    1    3    3    0  502  0.25676215416E+03 -0.23245666729E+03  0.65477820008E+03  0.74075602412E+03  0.46999998093E+01 0. -1.
</event>
<event>
 5   0  0.2311520E-06  0.2000235E+04  0.7818609E-02  0.8606511E-01
        1   -1    0    0  501    0  0.00000000000E+00  0.00000000000E+00  0.11524623155E+04  0.11524623155E+04  0.50400001928E-02 0.  1.
       -1   -1    0    0    0  501  0.00000000000E+00  0.00000000000E+00 -0.86791168052E+03  0.86791168053E+03  0.50400001928E-02 0. -1.
    10030    2    1    2    0    0  0.00000000000E+00  0.00000000000E+00  0.28455063496E+03  0.20203739960E+04  0.20002354911E+04 0.  0.
        3    1    3    3  502    0  0.50335953335E+03  0.28428951430E+03  0.96660729879E+03  0.11262863881E+04  0.10100000352E+00 0.  1.
       -3    1    3    3    0  502 -0.50335953335E+03 -0.28428951430E+03 -0.68205666383E+03  0.89408760792E+03  0.10100000352E+00 0. -1.
</event>
<event>
 5   0  0.5129100E-06  0.2002098E+04  0.7818609E-02  0.8605640E-01
        2   -1    0    0  501    0  0.00000000000E+00  0.00000000000E+00  0.95493739600E+03  0.95493739601E+03  0.25500000920E-02 0. -1.
       -2   -1    0    0    0  501  0.00000000000E+00  0.00000000000E+00 -0.10493875804E+04  0.10493875804E+04  0.25500000920E-02 0.  1.
    10030    2    1    2    0    0  0.00000000000E+00  0.00000000000E+00 -0.94450184408E+02  0.20043249764E+04  0.20020983427E+04 0.  0.
        2    1    3    3  502    0 -0.57822446031E+03  0.68214471659E+03  0.40320251356E+03  0.98093690308E+03  0.25500000920E-02 0. -1.
       -2    1    3    3    0  502  0.57822446031E+03 -0.68214471659E+03 -0.49765269797E+03  0.10233880733E+04  0.25500000920E-02 0.  1.
</event>
<event>
 5   0  0.2379743E-06  0.2000139E+04  0.7818609E-02  0.8606556E-01
        1   -1    0    0  501    0  0.00000000000E+00  0.00000000000E+00  0.11494597046E+04  0.11494597046E+04  0.50400001928E-02 0.  1.
       -1   -1    0    0    0  501  0.00000000000E+00  0.00000000000E+00 -0.87009467098E+03  0.87009467099E+03  0.50400001928E-02 0. -1.
    10030    2    1    2    0    0  0.00000000000E+00  0.00000000000E+00  0.27936503361E+03  0.20195543756E+04  0.20001387587E+04 0.  0.
        5    1    3    3  502    0 -0.22002126768E+03  0.62599205463E+03 -0.61580601732E+03  0.90527043013E+03  0.46999998093E+01 0. -1.
       -5    1    3    3    0  502  0.22002126768E+03 -0.62599205463E+03  0.89517105093E+03  0.11142839455E+04  0.46999998093E+01 0.  1.
</event>
<event>
 5   0  0.2386776E-06  0.2002427E+04  0.7818609E-02  0.8605487E-01
        1   -1    0    0  501    0  0.00000000000E+00  0.00000000000E+00  0.10907402790E+04  0.10907402790E+04  0.50400001928E-02 0.  1.
       -1   -1    0    0    0  501  0.00000000000E+00  0.00000000000E+00 -0.91903496480E+03  0.91903496482E+03  0.50400001928E-02 0. -1.
    10030    2    1    2    0    0  0.00000000000E+00  0.00000000000E+00  0.17170531415E+03  0.20097752438E+04  0.20024269813E+04 0.  0.
        2    1    3    3  502    0  0.41967075352E+03  0.15623291193E+03  0.98462537045E+03  0.10816743430E+04  0.25500000920E-02 0.  1.
       -2    1    3    3    0  502 -0.41967075352E+03 -0.15623291193E+03 -0.81292005630E+03  0.92810090080E+03  0.25500000920E-02 0. -1.
</event>
<event>
 5   0  0.2379743E-06  0.2001208E+04  0.7818609E-02  0.8606056E-01
        1   -1    0    0  501    0  0.00000000000E+00  0.00000000000E+00  0.16125238200E+04  0.16125238200E+04  0.50400001928E-02 0. -1.
       -1   -1    0    0    0  501  0.00000000000E+00  0.00000000000E+00 -0.62089534638E+03  0.62089534640E+03  0.50400001928E-02 0.  1.
    10030    2    1    2    0    0  0.00000000000E+00  0.00000000000E+00  0.99162847364E+03  0.22334191664E+04  0.20012081709E+04 0.  0.
        5    1    3    3  502    0 -0.39678379688E+03 -0.38463277707E+03 -0.43512700766E+03  0.70337568728E+03  0.46999998093E+01 0.  1.
       -5    1    3    3    0  502  0.39678379688E+03  0.38463277707E+03  0.14267554813E+04  0.15300434791E+04  0.46999998093E+01 0. -1.
</event>
<event>
 5   0  0.5251252E-06  0.1995527E+04  0.7818609E-02  0.8608715E-01
        2   -1    0    0  501    0  0.00000000000E+00  0.00000000000E+00  0.88218584781E+03  0.88218584781E+03  0.25500000920E-02 0. -1.
       -2   -1    0    0    0  501  0.00000000000E+00  0.00000000000E+00 -0.11284835770E+04  0.11284835770E+04  0.25500000920E-02 0.  1.
    10030    2    1    2    0    0  0.00000000000E+00  0.00000000000E+00 -0.24629772916E+03  0.20106694248E+04  0.19955272397E+04 0.  0.
        5    1    3    3  502    0  0.96407732928E+02 -0.85236117362E+03 -0.63661966574E+03  0.10682325169E+04  0.46999998093E+01 0.  1.
       -5    1    3    3    0  502 -0.96407732928E+02  0.85236117362E+03  0.39032193658E+03  0.94243690793E+03  0.46999998093E+01 0. -1.
</event>
<event>
 5   0  0.2379743E-06  0.2000090E+04  0.7818609E-02  0.8606578E-01
        1   -1    0    0  501    0  0.00000000000E+00  0.00000000000E+00  0.66869388217E+03  0.66869388219E+03  0.50400001928E-02 0.  1.
       -1   -1    0    0    0  501  0.00000000000E+00  0.00000000000E+00 -0.14955876183E+04  0.14955876183E+04  0.50400001928E-02 0. -1.
    10030    2    1    2    0    0  0.00000000000E+00  0.00000000000E+00 -0.82689373613E+03  0.21642815005E+04  0.20000902886E+04 0.  0.
        5    1    3    3  502    0  0.93133967174E+03  0.14573866082E+03 -0.52224462490E+02  0.94413072500E+03  0.46999998093E+01 0.  1.
       -5    1    3    3    0  502 -0.93133967174E+03 -0.14573866082E+03 -0.77466927364E+03  0.12201507755E+04  0.46999998093E+01 0. -1.
</event>
<event>
 5   0  0.4956214E-06  0.1998816E+04  0.7818609E-02  0.8607175E-01
       -2   -1    0    0    0  501  0.00000000000E+00  0.00000000000E+00  0.15615492089E+04  0.15615492089E+04  0.25500000920E-02 0.  1.
        2   -1    0    0  501    0  0.00000000000E+00  0.00000000000E+00 -0.63963152495E+03  0.63963152496E+03  0.25500000920E-02 0. -1.
    10030    2    1    2    0    0  0.00000000000E+00  0.00000000000E+00  0.92191768398E+03  0.22011807339E+04  0.19988157512E+04 0.  0.
        1    1    3    3  502    0 -0.27152736963E+03  0.94476819334E+03  0.65949440788E+03  0.11837427616E+04  0.50400001928E-02 0. -1.
       -1    1    3    3    0  502  0.27152736963E+03 -0.94476819334E+03  0.26242327611E+03  0.10174379723E+04  0.50400001928E-02 0.  1.
</event>
<event>
 5   0  0.5251252E-06  0.1999794E+04  0.7818609E-02  0.8606717E-01
        2   -1    0    0  501    0  0.00000000000E+00  0.00000000000E+00  0.37885834463E+03  0.37885834463E+03  0.25500000920E-02 0. -1.
       -2   -1    0    0    0  501  0.00000000000E+00  0.00000000000E+00 -0.26389650994E+04  0.26389650994E+04  0.25500000920E-02 0.  1.
    10030    2    1    2    0    0  0.00000000000E+00  0.00000000000E+00 -0.22601067548E+04  0.30178234440E+04  0.19997939385E+04 0.  0.
        5    1    3    3  502    0  0.13151113295E+03 -0.66821708310E+03 -0.25273316702E+02  0.68152041699E+03  0.46999998093E+01 0. -1.
       -5    1    3    3    0  502 -0.13151113295E+03  0.66821708310E+03 -0.22348334381E+04  0.23363030270E+04  0.46999998093E+01 0.  1.
</event>
<event>
 5   0  0.5251252E-06  0.2001503E+04  0.7818609E-02  0.8605918E-01
       -2   -1    0    0    0  501  0.00000000000E+00  0.00000000000E+00  0.10605108275E+04  0.10605108275E+04  0.25500000920E-02 0.  1.
        2   -1    0    0  501    0  0.00000000000E+00  0.00000000000E+00 -0.94435915367E+03  0.94435915368E+03  0.25500000920E-02 0. -1.
    10030    2    1    2    0    0  0.00000000000E+00  0.00000000000E+00  0.11615167383E+03  0.20048699812E+04  0.20015025431E+04 0.  0.
        5    1    3    3  502    0 -0.23908491246E+03 -0.59909041456E+03 -0.70833241382E+03  0.95803330769E+03  0.46999998093E+01 0. -1.
       -5    1    3    3    0  502  0.23908491246E+03  0.59909041456E+03  0.82448408764E+03  0.10468366735E+04  0.46999998093E+01 0.  1.
</event>
<event>
 5   0  0.2379743E-06  0.1999681E+04  0.7818609E-02  0.8606770E-01
       -1   -1    0    0    0  501  0.00000000000E+00  0.00000000000E+00  0.90043603549E+03  0.90043603550E+03  0.50400001928E-02 0.  1.
        1   -1    0    0  501    0  0.00000000000E+00  0.00000000000E+00 -0.11102188989E+04  0.11102188989E+04  0.50400001928E-02 0. -1.
    10030    2    1    2    0    0  0.00000000000E+00  0.00000000000E+00 -0.20978286344E+03  0.20106549344E+04  0.19996810785E+04 0.  0.
        5    1    3    3  502    0 -0.89482453079E+03 -0.42430241627E+03  0.33397076989E+02  0.99089905445E+03  0.46999998093E+01 0.  1.
       -5    1    3    3    0  502  0.89482453079E+03  0.42430241627E+03 -0.24317994043E+03  0.10197558800E+04  0.46999998093E+01 0. -1.
</event>
<event>
 5   0  0.2379743E-06  0.2000043E+04  0.7818609E-02  0.8606600E-01
        1   -1    0    0  501    0  0.00000000000E+00  0.00000000000E+00  0.18376799644E+04  0.18376799644E+04  0.50400001928E-02 0.  1.
       -1   -1    0    0    0  501  0.00000000000E+00  0.00000000000E+00 -0.54418805751E+03  0.54418805753E+03  0.50400001928E-02 0. -1.
    10030    2    1    2    0    0  0.00000000000E+00  0.00000000000E+00  0.12934919069E+04  0.23818680219E+04  0.20000434897E+04 0.  0.
        5    1    3    3  502    0  0.34045506136E+03  0.38288964201E+03 -0.37598501919E+03  0.63553202234E+03  0.46999998093E+01 0. -1.
       -5    1    3    3    0  502 -0.34045506136E+03 -0.38288964201E+03  0.16694769260E+04  0.17463359996E+04  0.46999998093E+01 0.  1.
</event>
<event>
 5   0  0.5251252E-06  0.2000065E+04  0.7818609E-02  0.8606590E-01
       -2   -1    0    0    0  501  0.00000000000E+00  0.00000000000E+00  0.10425717543E+04  0.10425717543E+04  0.25500000920E-02 0. -1.
        2   -1    0    0  501    0  0.00000000000E+00  0.00000000000E+00 -0.95922890965E+03  0.95922890966E+03  0.25500000920E-02 0.  1.
    10030    2    1    2    0    0  0.00000000000E+00  0.00000000000E+00  0.83342844632E+02  0.20018006639E+04  0.20000649660E+04 0.  0.
        5    1    3    3  502    0  0.32446251038E+03  0.69376278562E+03 -0.60189526711E+03  0.97410611636E+03  0.46999998093E+01 0.  1.
       -5    1    3    3    0  502 -0.32446251038E+03 -0.69376278562E+03  0.68523811174E+03  0.10276945476E+04  0.46999998093E+01 0. -1.
</event>
<event>
 5   0  0.2356996E-06  0.1998955E+04  0.7818609E-02  0.8607110E-01
       -1   -1    0    0    0  501  0.00000000000E+00  0.00000000000E+00  0.93911931106E+03  0.93911931107E+03  0.50400001928E-02 0.  1.
        1   -1    0    0  501    0  0.00000000000E+00  0.00000000000E+00 -0.10637146122E+04  0.10637146122E+04  0.50400001928E-02 0. -1.
    10030    2    1    2    0    0  0.00000000000E+00  0.00000000000E+00 -0.12459530114E+03  0.20028339233E+04  0.19989546606E+04 0.  0.
        4    1    3    3  502    0  0.31409254284E+03 -0.29558908614E+03 -0.96567163341E+03  0.10576154073E+04  0.12699999809E+01 0. -1.
       -4    1    3    3    0  502 -0.31409254284E+03  0.29558908614E+03  0.84107633228E+03  0.94521851597E+03  0.12699999809E+01 0.  1.
</event>
<event>
 5   0  0.4956214E-06  0.1998999E+04  0.7818609E-02  0.8607089E-01
       -2   -1    0    0    0  501  0.00000000000E+00  0.00000000000E+00  0.86805444930E+03  0.86805444931E+03  0.25500000920E-02 0.  1.
        2   -1    0    0  501    0  0.00000000000E+00  0.00000000000E+00 -0.11508490683E+04  0.11508490683E+04  0.25500000920E-02 0. -1.
    10030    2    1    2    0    0  0.00000000000E+00  0.00000000000E+00 -0.28279461899E+03  0.20189035176E+04  0.19989994039E+04 0.  0.
        1    1    3    3  502    0  0.28318878282E+03 -0.39102246134E+03 -0.10252714131E+04  0.11332589830E+04  0.50400001928E-02 0. -1.
       -1    1    3    3    0  502 -0.28318878282E+03  0.39102246134E+03  0.74247679407E+03  0.88564453465E+03  0.50400001928E-02 0.  1.
</event>
<event>
 5   0  0.2379743E-06  0.2000488E+04  0.7818609E-02  0.8606393E-01
       -1   -1    0    0    0  501  0.00000000000E+00  0.00000000000E+00  0.65471054406E+03  0.65471054408E+03  0.50400001928E-02 0. -1.
        1   -1    0    0  501    0  0.00000000000E+00  0.00000000000E+00 -0.15281375856E+04  0.15281375856E+04  0.50400001928E-02 0.  1.
    10030    2    1    2    0    0  0.00000000000E+00  0.00000000000E+00 -0.87342704156E+03  0.21828481297E+04  0.20004877306E+04 0.  0.
        5    1    3    3  502    0 -0.53171688650E+03  0.37884442665E+03  0.39013640725E+03  0.76057508062E+03  0.46999998093E+01 0. -1.
       -5    1    3    3    0  502  0.53171688650E+03 -0.37884442665E+03 -0.12635634488E+04  0.14222730491E+04  0.46999998093E+01 0.  1.
</event>
<event>
 5   0  0.2313821E-06  0.2000083E+04  0.7818609E-02  0.8606582E-01
       -1   -1    0    0    0  501  0.00000000000E+00  0.00000000000E+00  0.11004277382E+04  0.11004277382E+04  0.50400001928E-02 0. -1.
        1   -1    0    0  501    0  0.00000000000E+00  0.00000000000E+00 -0.90881300205E+03  0.90881300207E+03  0.50400001928E-02 0.  1.
    10030    2    1    2    0    0  0.00000000000E+00  0.00000000000E+00  0.19161473610E+03  0.20092407402E+04  0.20000830346E+04 0.  0.
        1    1    3    3  502    0  0.87211669840E+03 -0.48762445274E+02  0.58498428872E+03  0.10512715776E+04  0.50400001928E-02 0. -1.
       -1    1    3    3    0  502 -0.87211669840E+03  0.48762445274E+02 -0.39336955262E+03  0.95796916268E+03  0.50400001928E-02 0.  1.
</event>
<event>
 5   0  0.2313821E-06  0.2000455E+04  0.7818609E-02  0.8606408E-01
       -1   -1    0    0    0  501  0.00000000000E+00  0.00000000000E+00  0.65680700694E+03  0.65680700696E+03  0.50400001928E-02 0.  1.
        1   -1    0    0  501    0  0.00000000000E+00  0.00000000000E+00 -0.15232097756E+04  0.15232097756E+04  0.50400001928E-02 0. -1.
    10030    2    1    2    0    0  0.00000000000E+00  0.00000000000E+00 -0.86640276864E+03  0.21800167825E+04  0.20004548020E+04 0.  0.
        1    1    3    3  502    0 -0.41493454354E+03 -0.30116146360E+03 -0.13691185474E+04  0.14619693908E+04  0.50400001928E-02 0. -1.
       -1    1    3    3    0  502  0.41493454354E+03  0.30116146360E+03  0.50271577879E+03  0.71804739179E+03  0.50400001928E-02 0.  1.
</event>
<event>
 5   0  0.2356996E-06  0.2000973E+04  0.7818609E-02  0.8606166E-01
        1   -1    0    0  501    0  0.00000000000E+00  0.00000000000E+00  0.15339809081E+04  0.15339809081E+04  0.50400001928E-02 0. -1.
       -1   -1    0    0    0  501  0.00000000000E+00  0.00000000000E+00 -0.65253317513E+03  0.65253317514E+03  0.50400001928E-02 0.  1.
    10030    2    1    2    0    0  0.00000000000E+00  0.00000000000E+00  0.88144773294E+03  0.21865140832E+04  0.20009731958E+04 0.  0.
        4    1    3    3  502    0 -0.63047174418E+03  0.58844665912E+03 -0.11345889854E+03  0.86984977175E+03  0.12699999809E+01 0.  1.
       -4    1    3    3    0  502  0.63047174418E+03 -0.58844665912E+03  0.99490663148E+03  0.13166643115E+04  0.12699999809E+01 0. -1.
</event>
<event>
 5   0  0.5118981E-06  0.1999437E+04  0.7818609E-02  0.8606884E-01
       -2   -1    0    0    0  501  0.00000000000E+00  0.00000000000E+00  0.11132377777E+04  0.11132377777E+04  0.25500000920E-02 0. -1.
        2   -1    0    0  501    0  0.00000000000E+00  0.00000000000E+00 -0.89777534529E+03  0.89777534529E+03  0.25500000920E-02 0.  1.
    10030    2    1    2    0    0  0.00000000000E+00  0.00000000000E+00  0.21546243240E+03  0.20110131230E+04  0.19994373511E+04 0.  0.
        4    1    3    3  502    0 -0.78158872140E+03  0.52587314618E+03  0.44435128469E+03  0.10415724518E+04  0.12699999809E+01 0. -1.
       -4    1    3    3    0  502  0.78158872140E+03 -0.52587314618E+03 -0.22888885228E+03  0.96944067116E+03  0.12699999809E+01 0.  1.
</event>
<event>
 5   0  0.5030137E-06  0.2000534E+04  0.7818609E-02  0.8606371E-01
       -2   -1    0    0    0  501  0.00000000000E+00  0.00000000000E+00  0.55851537189E+03  0.55851537189E+03  0.25500000920E-02 0. -1.
        2   -1    0    0  501    0  0.00000000000E+00  0.00000000000E+00 -0.17914164362E+04  0.17914164362E+04  0.25500000920E-02 0.  1.
    10030    2    1    2    0    0  0.00000000000E+00  0.00000000000E+00 -0.12329010643E+04  0.23499318080E+04  0.20005335459E+04 0.  0.
        3    1    3    3  502    0 -0.59497188176E+03 -0.46383593022E+03 -0.13879731007E+04  0.15797482865E+04  0.10100000352E+00 0.  1.
       -3    1    3    3    0  502  0.59497188176E+03  0.46383593022E+03  0.15507203639E+03  0.77018352158E+03  0.10100000352E+00 0. -1.
</event>
<event>
 5   0  0.2313821E-06  0.2001188E+04  0.7818609E-02  0.8606065E-01
        1   -1    0    0  501    0  0.00000000000E+00  0.00000000000E+00  0.15044915852E+04  0.15044915852E+04  0.50400001928E-02 0. -1.
       -1   -1    0    0    0  501  0.00000000000E+00  0.00000000000E+00 -0.66546614824E+03  0.66546614826E+03  0.50400001928E-02 0.  1.
    10030    2    1    2    0    0  0.00000000000E+00  0.00000000000E+00  0.83902543697E+03  0.21699577335E+04  0.20011878675E+04 0.  0.
        1    1    3    3  502    0  0.96214237127E+03  0.17942631417E+03  0.19393855513E+03  0.99775944395E+03  0.50400001928E-02 0.  1.
       -1    1    3    3    0  502 -0.96214237127E+03 -0.17942631417E+03  0.64508688183E+03  0.11721982895E+04  0.50400001928E-02 0. -1.
</event>
<event>
 5   0  0.5251252E-06  0.2000032E+04  0.7818609E-02  0.8606606E-01
       -2   -1    0    0    0  501  0.00000000000E+00  0.00000000000E+00  0.83528837847E+03  0.83528837848E+03  0.25500000920E-02 0.  1.
        2   -1    0    0  501    0  0.00000000000E+00  0.00000000000E+00 -0.11972291258E+04  0.11972291258E+04  0.25500000920E-02 0. -1.
    10030    2    1    2    0    0  0.00000000000E+00  0.00000000000E+00 -0.36194074736E+03  0.20325175043E+04  0.20000315749E+04 0.  0.
        5    1    3    3  502    0 -0.13888335434E+03 -0.78220389394E+03  0.43624793554E+03  0.90634754320E+03  0.46999998093E+01 0.  1.
       -5    1    3    3    0  502  0.13888335434E+03  0.78220389394E+03 -0.79818868290E+03  0.11261699611E+04  0.46999998093E+01 0. -1.
</event>
<event>
 5   0  0.5030137E-06  0.2001045E+04  0.7818609E-02  0.8606132E-01
        2   -1    0    0  501    0  0.00000000000E+00  0.00000000000E+00  0.12208775115E+04  0.12208775115E+04  0.25500000920E-02 0.  1.
       -2   -1    0    0    0  501  0.00000000000E+00  0.00000000000E+00 -0.81993887457E+03  0.81993887458E+03  0.25500000920E-02 0. -1.
    10030    2    1    2    0    0  0.00000000000E+00  0.00000000000E+00  0.40093863690E+03  0.20408163861E+04  0.20010446599E+04 0.  0.
        3    1    3    3  502    0 -0.39644643703E+03 -0.90791889505E+03  0.34310037270E+03  0.10484294794E+04  0.10100000352E+00 0. -1.
       -3    1    3    3    0  502  0.39644643703E+03  0.90791889505E+03  0.57838264205E+02  0.99238690661E+03  0.10100000352E+00 0.  1.
</event>
<event>
 5   0  0.5118981E-06  0.1999660E+04  0.7818609E-02  0.8606780E-01
       -2   -1    0    0    0  501  0.00000000000E+00  0.00000000000E+00  0.68904019545E+03  0.68904019545E+03  0.25500000920E-02 0. -1.
        2   -1    0    0  501    0  0.00000000000E+00  0.00000000000E+00 -0.14508007222E+04  0.14508007222E+04  0.25500000920E-02 0.  1.
    10030    2    1    2    0    0  0.00000000000E+00  0.00000000000E+00 -0.76176052677E+03  0.21398409177E+04  0.19996599843E+04 0.  0.
        4    1    3    3  502    0  0.94284337926E+03  0.18551529568E+03 -0.67644718650E+03  0.11751391287E+04  0.12699999809E+01 0.  1.
       -4    1    3    3    0  502 -0.94284337926E+03 -0.18551529568E+03 -0.85313340269E+02  0.96470178899E+03  0.12699999809E+01 0. -1.
</event>
<event>
 5   0  0.5129100E-06  0.2002052E+04  0.7818609E-02  0.8605662E-01
       -2   -1    0    0    0  501  0.00000000000E+00  0.00000000000E+00  0.72705386578E+03  0.72705386578E+03  0.25500000920E-02 0.  1.
        2   -1    0    0  501    0  0.00000000000E+00  0.00000000000E+00 -0.13782375379E+04  0.13782375379E+04  0.25500000920E-02 0. -1.
    10030    2    1    2    0    0  0.00000000000E+00  0.00000000000E+00 -0.65118367208E+03  0.21052914036E+04  0.20020518773E+04 0.  0.
        2    1    3    3  502    0  0.59121998801E+03 -0.22442319666E+03  0.49040377662E+03  0.80025165389E+03  0.25500000920E-02 0.  1.
       -2    1    3    3    0  502 -0.59121998801E+03  0.22442319666E+03 -0.11415874487E+04  0.13050397498E+04  0.25500000920E-02 0. -1.
</event>
<event>
 5   0  0.5129100E-06  0.1999280E+04  0.7818609E-02  0.8606957E-01
        2   -1    0    0  501    0  0.00000000000E+00  0.00000000000E+00  0.14157918124E+04  0.14157918124E+04  0.25500000920E-02 0.  1.
       -2   -1    0    0    0  501  0.00000000000E+00  0.00000000000E+00 -0.70580994668E+03  0.70580994669E+03  0.25500000920E-02 0. -1.
    10030    2    1    2    0    0  0.00000000000E+00  0.00000000000E+00  0.70998186569E+03  0.21216017591E+04  0.19992798139E+04 0.  0.
        2    1    3    3  502    0  0.35104991871E+03 -0.83906624460E+03 -0.85127263348E+02  0.91351784834E+03  0.25500000920E-02 0. -1.
       -2    1    3    3    0  502 -0.35104991871E+03  0.83906624460E+03  0.79510912904E+03  0.12080839107E+04  0.25500000920E-02 0.  1.
</event>
<event>
 5   0  0.5129100E-06  0.2000229E+04  0.7818609E-02  0.8606514E-01
        2   -1    0    0  501    0  0.00000000000E+00  0.00000000000E+00  0.14557931624E+04  0.14557931624E+04  0.25500000920E-02 0.  1.
       -2   -1    0    0    0  501  0.00000000000E+00  0.00000000000E+00 -0.68706777603E+03  0.68706777603E+03  0.25500000920E-02 0. -1.
    10030    2    1    2    0    0  0.00000000000E+00  0.00000000000E+00  0.76872538633E+03  0.21428609384E+04  0.20002285574E+04 0.  0.
        2    1    3    3  502    0  0.69231599301E+02  0.53664394740E+03  0.12854396448E+04  0.13946809029E+04  0.25500000920E-02 0.  1.
       -2    1    3    3    0  502 -0.69231599301E+02 -0.53664394740E+03 -0.51671425842E+03  0.74818003548E+03  0.25500000920E-02 0. -1.
</event>
<event>
 5   0  0.5030137E-06  0.1999113E+04  0.7818609E-02  0.8607035E-01
       -2   -1    0    0    0  501  0.00000000000E+00  0.00000000000E+00  0.73012783452E+03  0.73012783452E+03  0.25500000920E-02 0.  1.
        2   -1    0    0  501    0  0.00000000000E+00  0.00000000000E+00 -0.13684090651E+04  0.13684090651E+04  0.25500000920E-02 0. -1.
    10030    2    1    2    0    0  0.00000000000E+00  0.00000000000E+00 -0.63828123060E+03  0.20985368996E+04  0.19991133509E+04 0.  0.
        3    1    3    3  502    0 -0.65871006594E+03  0.75027749218E+03 -0.26881607563E+03  0.10339619717E+04  0.10100000352E+00 0. -1.
       -3    1    3    3    0  502  0.65871006594E+03 -0.75027749218E+03 -0.36946515497E+03  0.10645749279E+04  0.10100000352E+00 0.  1.
</event>
<event>
 5   0  0.5118981E-06  0.1999546E+04  0.7818609E-02  0.8606833E-01
       -2   -1    0    0    0  501  0.00000000000E+00  0.00000000000E+00  0.11452604330E+04  0.11452604330E+04  0.25500000920E-02 0.  1.
        2   -1    0    0  501    0  0.00000000000E+00  0.00000000000E+00 -0.87276762089E+03  0.87276762089E+03  0.25500000920E-02 0. -1.
    10030    2    1    2    0    0  0.00000000000E+00  0.00000000000E+00  0.27249281207E+03  0.20180280539E+04  0.19995461719E+04 0.  0.
        4    1    3    3  502    0 -0.35897506953E+03 -0.21471828809E+03  0.10527021974E+04  0.11327623640E+04  0.12699999809E+01 0.  1.
       -4    1    3    3    0  502  0.35897506953E+03  0.21471828809E+03 -0.78020938538E+03  0.88526568990E+03  0.12699999809E+01 0. -1.
</event>
<event>
 5   0  0.4956214E-06  0.2000967E+04  0.7818609E-02  0.8606169E-01
       -2   -1    0    0    0  501  0.00000000000E+00  0.00000000000E+00  0.69160328971E+03  0.69160328971E+03  0.25500000920E-02 0.  1.
        2   -1    0    0  501    0  0.00000000000E+00  0.00000000000E+00 -0.14473136893E+04  0.14473136893E+04  0.25500000920E-02 0. -1.
    10030    2    1    2    0    0  0.00000000000E+00  0.00000000000E+00 -0.75571039962E+03  0.21389169790E+04  0.20009666752E+04 0.  0.
        1    1    3    3  502    0 -0.80120392606E+03 -0.46002952980E+03 -0.78826762942E+03  0.12144631551E+04  0.50400001928E-02 0. -1.
       -1    1    3    3    0  502  0.80120392606E+03  0.46002952980E+03  0.32557229796E+02  0.92445382397E+03  0.50400001928E-02 0.  1.
</event>
<event>
 5   0  0.2313821E-06  0.1999853E+04  0.7818609E-02  0.8606689E-01
       -1   -1    0    0    0  501  0.00000000000E+00  0.00000000000E+00  0.70143972002E+03  0.70143972004E+03  0.50400001928E-02 0.  1.
        1   -1    0    0  501    0  0.00000000000E+00  0.00000000000E+00 -0.14254301320E+04  0.14254301321E+04  0.50400001928E-02 0. -1.
    10030    2    1    2    0    0  0.00000000000E+00  0.00000000000E+00 -0.72399041203E+03  0.21268698521E+04  0.19998533074E+04 0.  0.
        1    1    3    3  502    0  0.21009168913E+03  0.25460788495E+03  0.64182220477E+03  0.72173363195E+03  0.50400001928E-02 0.  1.
       -1    1    3    3    0  502 -0.21009168913E+03 -0.25460788495E+03 -0.13658126168E+04  0.14051362201E+04  0.50400001928E-02 0. -1.
</event>
<event>
 5   0  0.2311520E-06  0.2000157E+04  0.7818609E-02  0.8606547E-01
       -1   -1    0    0    0  501  0.00000000000E+00  0.00000000000E+00  0.85129759513E+03  0.85129759514E+03  0.50400001928E-02 0.  1.
        1   -1    0    0  501    0  0.00000000000E+00  0.00000000000E+00 -0.11748622075E+04  0.11748622075E+04  0.50400001928E-02 0. -1.
    10030    2    1    2    0    0  0.00000000000E+00  0.00000000000E+00 -0.32356461233E+03  0.20261598026E+04  0.20001573656E+04 0.  0.
        3    1    3    3  502    0 -0.29611171239E+03 -0.94887238760E+02  0.80108577118E+03  0.85931609858E+03  0.10100000352E+00 0.  1.
       -3    1    3    3    0  502  0.29611171239E+03  0.94887238760E+02 -0.11246503835E+04  0.11668437040E+04  0.10100000352E+00 0. -1.
</event>
<event>
 5   0  0.2313821E-06  0.2000435E+04  0.7818609E-02  0.8606417E-01
        1   -1    0    0  501    0  0.00000000000E+00  0.00000000000E+00  0.16792226558E+04  0.16792226558E+04  0.50400001928E-02 0. -1.
       -1   -1    0    0    0  501  0.00000000000E+00  0.00000000000E+00 -0.59577271536E+03  0.59577271538E+03  0.50400001928E-02 0.  1.
    10030    2    1    2    0    0  0.00000000000E+00  0.00000000000E+00  0.10834499405E+04  0.22749953712E+04  0.20004349941E+04 0.  0.
        1    1    3    3  502    0  0.18517850606E+03 -0.45622820053E+03 -0.44840137701E+03  0.66595723962E+03  0.50400001928E-02 0.  1.
       -1    1    3    3    0  502 -0.18517850606E+03  0.45622820053E+03  0.15318513175E+04  0.16090381316E+04  0.50400001928E-02 0. -1.
</event>
<event>
 5   0  0.5118981E-06  0.1999432E+04  0.7818609E-02  0.8606886E-01
       -2   -1    0    0    0  501  0.00000000000E+00  0.00000000000E+00  0.11375499771E+04  0.11375499771E+04  0.25500000920E-02 0.  1.
        2   -1    0    0  501    0  0.00000000000E+00  0.00000000000E+00 -0.87858268453E+03  0.87858268453E+03  0.25500000920E-02 0. -1.
    10030    2    1    2    0    0  0.00000000000E+00  0.00000000000E+00  0.25896729253E+03  0.20161326616E+04  0.19994316319E+04 0.  0.
        4    1    3    3  502    0 -0.18576350496E+03 -0.39496832832E+03  0.10363971758E+04  0.11245571480E+04  0.12699999809E+01 0.  1.
       -4    1    3    3    0  502  0.18576350496E+03  0.39496832832E+03 -0.77742988328E+03  0.89157551361E+03  0.12699999809E+01 0. -1.
</event>
<event>
 5   0  0.5129100E-06  0.2000661E+04  0.7818609E-02  0.8606312E-01
       -2   -1    0    0    0  501  0.00000000000E+00  0.00000000000E+00  0.79612371233E+03  0.79612371234E+03  0.25500000920E-02 0.  1.
        2   -1    0    0  501    0  0.00000000000E+00  0.00000000000E+00 -0.12569167877E+04  0.12569167877E+04  0.25500000920E-02 0. -1.
    10030    2    1    2    0    0  0.00000000000E+00  0.00000000000E+00 -0.46079307541E+03  0.20530405001E+04  0.20006611499E+04 0.  0.
        2    1    3    3  502    0  0.16183534643E+03 -0.49822677676E+02  0.78130985040E+03  0.79944859804E+03  0.25500000920E-02 0.  1.
       -2    1    3    3    0  502 -0.16183534643E+03  0.49822677676E+02 -0.12421029258E+04  0.12535919020E+04  0.25500000920E-02 0. -1.
</event>
<event>
 5   0  0.5129100E-06  0.2000972E+04  0.7818609E-02  0.8606166E-01
       -2   -1    0    0    0  501  0.00000000000E+00  0.00000000000E+00  0.57664080001E+03  0.57664080002E+03  0.25500000920E-02 0.  1.
        2   -1    0    0  501    0  0.00000000000E+00  0.00000000000E+00 -0.17358678391E+04  0.17358678391E+04  0.25500000920E-02 0. -1.
    10030    2    1    2    0    0  0.00000000000E+00  0.00000000000E+00 -0.11592270391E+04  0.23125086392E+04  0.20009719833E+04 0.  0.
        2    1    3    3  502    0 -0.98566473968E+03  0.94775046832E+02 -0.41432550433E+03  0.10733978350E+04  0.25500000920E-02 0. -1.
       -2    1    3    3    0  502  0.98566473968E+03 -0.94775046832E+02 -0.74490153481E+03  0.12391108042E+04  0.25500000920E-02 0.  1.
</event>
<event>
 5   0  0.4956214E-06  0.1999707E+04  0.7818609E-02  0.8606758E-01
       -2   -1    0    0    0  501  0.00000000000E+00  0.00000000000E+00  0.65818290344E+03  0.65818290345E+03  0.25500000920E-02 0.  1.
        2   -1    0    0  501    0  0.00000000000E+00  0.00000000000E+00 -0.15188890412E+04  0.15188890412E+04  0.25500000920E-02 0. -1.
    10030    2    1    2    0    0  0.00000000000E+00  0.00000000000E+00 -0.86070613780E+03  0.21770719447E+04  0.19997067777E+04 0.  0.
        1    1    3    3  502    0  0.41188399475E+03 -0.71186167900E+03  0.18868437720E+03  0.84379930635E+03  0.50400001928E-02 0.  1.
       -1    1    3    3    0  502 -0.41188399475E+03  0.71186167900E+03 -0.10493905150E+04  0.13332726383E+04  0.50400001928E-02 0. -1.
</event>
<event>
 5   0  0.5251252E-06  0.2000808E+04  0.7818609E-02  0.8606243E-01
       -2   -1    0    0    0  501  0.00000000000E+00  0.00000000000E+00  0.72936930761E+03  0.72936930761E+03  0.25500000920E-02 0. -1.
        2   -1    0    0  501    0  0.00000000000E+00  0.00000000000E+00 -0.13721551118E+04  0.13721551118E+04  0.25500000920E-02 0.  1.
    10030    2    1    2    0    0  0.00000000000E+00  0.00000000000E+00 -0.64278580416E+03  0.21015244194E+04  0.20008076607E+04 0.  0.
        5    1    3    3  502    0 -0.49822930131E+03 -0.68581422028E+03 -0.87937074648E+03  0.12214289096E+04  0.46999998093E+01 0.  1.
       -5    1    3    3    0  502  0.49822930131E+03  0.68581422028E+03  0.23658494232E+03  0.88009550979E+03  0.46999998093E+01 0. -1.
</event>
<event>
 5   0  0.2386776E-06  0.2000512E+04  0.7818609E-02  0.8606381E-01
       -1   -1    0    0    0  501  0.00000000000E+00  0.00000000000E+00  0.49396526824E+03  0.49396526826E+03  0.50400001928E-02 0.  1.
        1   -1    0    0  501    0  0.00000000000E+00  0.00000000000E+00 -0.20254700419E+04  0.20254700419E+04  0.50400001928E-02 0. -1.
    10030    2    1    2    0    0  0.00000000000E+00  0.00000000000E+00 -0.15315047736E+04  0.25194353101E+04  0.20005117871E+04 0.  0.
        2    1    3    3  502    0 -0.96630572519E+03  0.25500093335E+03 -0.71322454652E+03  0.12277872309E+04  0.25500000920E-02 0. -1.
       -2    1    3    3    0  502  0.96630572519E+03 -0.25500093335E+03 -0.81828022711E+03  0.12916480793E+04  0.25500000920E-02 0.  1.
</event>
<event>
 5   0  0.2311520E-06  0.1993760E+04  0.7818609E-02  0.8609544E-01
        1   -1    0    0  501    0  0.00000000000E+00  0.00000000000E+00  0.82045545747E+03  0.82045545749E+03  0.50400001928E-02 0.  1.
       -1   -1    0    0    0  501  0.00000000000E+00  0.00000000000E+00 -0.12112414140E+04  0.12112414140E+04  0.50400001928E-02 0. -1.
    10030    2    1    2    0    0  0.00000000000E+00  0.00000000000E+00 -0.39078595649E+03  0.20316968715E+04  0.19937598937E+04 0.  0.
        3    1    3    3  502    0 -0.34472062304E+03 -0.54818997468E+03 -0.96772269639E+03  0.11644018995E+04  0.10100000352E+00 0. -1.
       -3    1    3    3    0  502  0.34472062304E+03  0.54818997468E+03  0.57693673991E+03  0.86729497194E+03  0.10100000352E+00 0.  1.
</event>
<event>
 5   0  0.2313821E-06  0.2001274E+04  0.7818609E-02  0.8606025E-01
       -1   -1    0    0    0  501  0.00000000000E+00  0.00000000000E+00  0.45752969340E+03  0.45752969343E+03  0.50400001928E-02 0.  1.
        1   -1    0    0  501    0  0.00000000000E+00  0.00000000000E+00 -0.21884357029E+04  0.21884357029E+04  0.50400001928E-02 0. -1.
    10030    2    1    2    0    0  0.00000000000E+00  0.00000000000E+00 -0.17309060095E+04  0.26459653963E+04  0.20012739105E+04 0.  0.
        1    1    3    3  502    0  0.12014585264E+02  0.94196555868E+03 -0.13115277335E+04  0.16147905312E+04  0.50400001928E-02 0.  1.
       -1    1    3    3    0  502 -0.12014585264E+02 -0.94196555868E+03 -0.41937827600E+03  0.10311748651E+04  0.50400001928E-02 0. -1.
</event>
<event>
 5   0  0.2386776E-06  0.2000493E+04  0.7818609E-02  0.8606390E-01
        1   -1    0    0  501    0  0.00000000000E+00  0.00000000000E+00  0.12169554550E+04  0.12169554550E+04  0.50400001928E-02 0.  1.
       -1   -1    0    0    0  501  0.00000000000E+00  0.00000000000E+00 -0.82212825542E+03  0.82212825543E+03  0.50400001928E-02 0. -1.
    10030    2    1    2    0    0  0.00000000000E+00  0.00000000000E+00  0.39482719958E+03  0.20390837104E+04  0.20004934043E+04 0.  0.
        2    1    3    3  502    0 -0.53532012425E+03 -0.16686528120E+03  0.10416923978E+04  0.11830193190E+04  0.25500000920E-02 0.  1.
       -2    1    3    3    0  502  0.53532012425E+03  0.16686528120E+03 -0.64686519826E+03  0.85606439140E+03  0.25500000920E-02 0. -1.
</event>
<event>
 5   0  0.5030137E-06  0.2000324E+04  0.7818609E-02  0.8606469E-01
        2   -1    0    0  501    0  0.00000000000E+00  0.00000000000E+00  0.20943379625E+04  0.20943379625E+04  0.25500000920E-02 0. -1.
       -2   -1    0    0    0  501  0.00000000000E+00  0.00000000000E+00 -0.47763279940E+03  0.47763279941E+03  0.25500000920E-02 0.  1.
    10030    2    1    2    0    0  0.00000000000E+00  0.00000000000E+00  0.16167051631E+04  0.25719707619E+04  0.20003244776E+04 0.  0.
        3    1    3    3  502    0  0.29568485979E+03 -0.80415677454E+03  0.14717770666E+04  0.17030048145E+04  0.10100000352E+00 0.  1.
       -3    1    3    3    0  502 -0.29568485979E+03  0.80415677454E+03  0.14492809650E+03  0.86896594738E+03  0.10100000352E+00 0. -1.
</event>
<event>
 5   0  0.2386776E-06  0.2000095E+04  0.7818609E-02  0.8606576E-01
       -1   -1    0    0    0  501  0.00000000000E+00  0.00000000000E+00  0.56855786751E+03  0.56855786754E+03  0.50400001928E-02 0. -1.
        1   -1    0    0  501    0  0.00000000000E+00  0.00000000000E+00 -0.17590034615E+04  0.17590034616E+04  0.50400001928E-02 0.  1.
    10030    2    1    2    0    0  0.00000000000E+00  0.00000000000E+00 -0.11904455940E+04  0.23275613291E+04  0.20000952548E+04 0.  0.
        2    1    3    3  502    0  0.61772587073E+02 -0.64803816692E+03  0.28823241401E+03  0.71193204928E+03  0.25500000920E-02 0. -1.
       -2    1    3    3    0  502 -0.61772587073E+02  0.64803816692E+03 -0.14786780080E+04  0.16156292798E+04  0.25500000920E-02 0.  1.
</event>
<event>
 5   0  0.5251252E-06  0.1998946E+04  0.7818609E-02  0.8607114E-01
       -2   -1    0    0    0  501  0.00000000000E+00  0.00000000000E+00  0.58170304267E+03  0.58170304268E+03  0.25500000920E-02 0.  1.
        2   -1    0    0  501    0  0.00000000000E+00  0.00000000000E+00 -0.17172787205E+04  0.17172787205E+04  0.25500000920E-02 0. -1.
    10030    2    1    2    0    0  0.00000000000E+00  0.00000000000E+00 -0.11355756778E+04  0.22989817631E+04  0.19989459791E+04 0.  0.
        5    1    3    3  502    0 -0.11630825387E+03  0.79059893730E+03 -0.12581812816E+04  0.14905088114E+04  0.46999998093E+01 0. -1.
       -5    1    3    3    0  502  0.11630825387E+03 -0.79059893730E+03  0.12260560381E+03  0.80847295172E+03  0.46999998093E+01 0.  1.
</event>
<event>
 5   0  0.4956214E-06  0.2000984E+04  0.7818609E-02  0.8606161E-01
        2   -1    0    0  501    0  0.00000000000E+00  0.00000000000E+00  0.22703524087E+04  0.22703524087E+04  0.25500000920E-02 0.  1.
       -2   -1    0    0    0  501  0.00000000000E+00  0.00000000000E+00 -0.44089387241E+03  0.44089387241E+03  0.25500000920E-02 0. -1.
    10030    2    1    2    0    0  0.00000000000E+00  0.00000000000E+00  0.18294585363E+04  0.27112462811E+04  0.20009842230E+04 0.  0.
        1    1    3    3  502    0  0.60606177930E+03 -0.66004152659E+03  0.15176753566E+04  0.17624710452E+04  0.50400001928E-02 0.  1.
       -1    1    3    3    0  502 -0.60606177930E+03  0.66004152659E+03  0.31178317973E+03  0.94877523594E+03  0.50400001928E-02 0. -1.
</event>
<event>
 5   0  0.2379743E-06  0.1999849E+04  0.7818609E-02  0.8606691E-01
       -1   -1    0    0    0  501  0.00000000000E+00  0.00000000000E+00  0.45370488575E+03  0.45370488578E+03  0.50400001928E-02 0. -1.
        1   -1    0    0  501    0  0.00000000000E+00  0.00000000000E+00 -0.22037433228E+04  0.22037433228E+04  0.50400001928E-02 0.  1.
    10030    2    1    2    0    0  0.00000000000E+00  0.00000000000E+00 -0.17500384371E+04  0.26574482086E+04  0.19998491069E+04 0.  0.
        5    1    3    3  502    0  0.63800457884E+03 -0.76989015513E+03 -0.86597452457E+03  0.13227678030E+04  0.46999998093E+01 0. -1.
       -5    1    3    3    0  502 -0.63800457884E+03  0.76989015513E+03 -0.88406391250E+03  0.13346804056E+04  0.46999998093E+01 0.  1.
</event>
<event>
 5   0  0.2311520E-06  0.1999266E+04  0.7818609E-02  0.8606964E-01
        1   -1    0    0  501    0  0.00000000000E+00  0.00000000000E+00  0.13955022130E+04  0.13955022130E+04  0.50400001928E-02 0.  1.
       -1   -1    0    0    0  501  0.00000000000E+00  0.00000000000E+00 -0.71606169103E+03  0.71606169105E+03  0.50400001928E-02 0. -1.
    10030    2    1    2    0    0  0.00000000000E+00  0.00000000000E+00  0.67944052195E+03  0.21115639040E+04  0.19992655396E+04 0.  0.
        3    1    3    3  502    0  0.63648314574E+02 -0.39787836726E+03 -0.62649177460E+03  0.74488271354E+03  0.10100000352E+00 0. -1.
       -3    1    3    3    0  502 -0.63648314574E+02  0.39787836726E+03  0.13059322965E+04  0.13666811905E+04  0.10100000352E+00 0.  1.
</event>
<event>
 5   0  0.2313821E-06  0.1999958E+04  0.7818609E-02  0.8606640E-01
        1   -1    0    0  501    0  0.00000000000E+00  0.00000000000E+00  0.20461710155E+04  0.20461710155E+04  0.50400001928E-02 0.  1.
       -1   -1    0    0    0  501  0.00000000000E+00  0.00000000000E+00 -0.48869716517E+03  0.48869716520E+03  0.50400001928E-02 0. -1.
    10030    2    1    2    0    0  0.00000000000E+00  0.00000000000E+00  0.15574738503E+04  0.25348681807E+04  0.19999579743E+04 0.  0.
        1    1    3    3  502    0  0.26725938460E+03 -0.74200705336E+03 -0.47410438490E+00  0.78867120569E+03  0.50400001928E-02 0. -1.
       -1    1    3    3    0  502 -0.26725938460E+03  0.74200705336E+03  0.15579479547E+04  0.17461969750E+04  0.50400001928E-02 0.  1.
</event>
<event>
 5   0  0.2379743E-06  0.1999329E+04  0.7818609E-02  0.8606934E-01
        1   -1    0    0  501    0  0.00000000000E+00  0.00000000000E+00  0.15381366790E+04  0.15381366790E+04  0.50400001928E-02 0.  1.
       -1   -1    0    0    0  501  0.00000000000E+00  0.00000000000E+00 -0.64970139525E+03  0.64970139527E+03  0.50400001928E-02 0. -1.
    10030    2    1    2    0    0  0.00000000000E+00  0.00000000000E+00  0.88843528376E+03  0.21878380743E+04  0.19993294341E+04 0.  0.
        5    1    3    3  502    0 -0.41410616364E+02  0.72360528997E+03  0.11975983420E+04  0.13998511827E+04  0.46999998093E+01 0.  1.
       -5    1    3    3    0  502  0.41410616364E+02 -0.72360528997E+03 -0.30916305824E+03  0.78798689164E+03  0.46999998093E+01 0. -1.
</event>
<event>
 5   0  0.5129100E-06  0.1999530E+04  0.7818609E-02  0.8606841E-01
       -2   -1    0    0    0  501  0.00000000000E+00  0.00000000000E+00  0.10028484025E+04  0.10028484025E+04  0.25500000920E-02 0.  1.
        2   -1    0    0  501    0  0.00000000000E+00  0.00000000000E+00 -0.99669078391E+03  0.99669078391E+03  0.25500000920E-02 0. -1.
    10030    2    1    2    0    0  0.00000000000E+00  0.00000000000E+00  0.61576185463E+01  0.19995391864E+04  0.19995297051E+04 0.  0.
        2    1    3    3  502    0  0.24287679519E+03 -0.84400962836E+03  0.48077173785E+03  0.10012406575E+04  0.25500000920E-02 0.  1.
       -2    1    3    3    0  502 -0.24287679519E+03  0.84400962836E+03 -0.47461411930E+03  0.99829852883E+03  0.25500000920E-02 0. -1.
</event>
<event>
 5   0  0.2386776E-06  0.2000200E+04  0.7818609E-02  0.8606527E-01
        1   -1    0    0  501    0  0.00000000000E+00  0.00000000000E+00  0.10244136277E+04  0.10244136277E+04  0.50400001928E-02 0. -1.
       -1   -1    0    0    0  501  0.00000000000E+00  0.00000000000E+00 -0.97636356684E+03  0.97636356685E+03  0.50400001928E-02 0.  1.
    10030    2    1    2    0    0  0.00000000000E+00  0.00000000000E+00  0.48050060888E+02  0.20007771946E+04  0.20002001335E+04 0.  0.
        2    1    3    3  502    0 -0.28433243375E+03  0.22911660467E+03 -0.90729717257E+03  0.97802224452E+03  0.25500000920E-02 0.  1.
       -2    1    3    3    0  502  0.28433243375E+03 -0.22911660467E+03  0.95534723346E+03  0.10227549501E+04  0.25500000920E-02 0. -1.
</event>
<event>
 5   0  0.5251252E-06  0.1999568E+04  0.7818609E-02  0.8606823E-01
        2   -1    0    0  501    0  0.00000000000E+00  0.00000000000E+00  0.14280246550E+04  0.14280246550E+04  0.25500000920E-02 0.  1.
       -2   -1    0    0    0  501  0.00000000000E+00  0.00000000000E+00 -0.69996528711E+03  0.69996528712E+03  0.25500000920E-02 0. -1.
    10030    2    1    2    0    0  0.00000000000E+00  0.00000000000E+00  0.72805936788E+03  0.21279899421E+04  0.19995676409E+04 0.  0.
        5    1    3    3  502    0 -0.73943487209E+03  0.49412160318E+03  0.85012023102E+03  0.12303034528E+04  0.46999998093E+01 0.  1.
       -5    1    3    3    0  502  0.73943487209E+03 -0.49412160318E+03 -0.12206086314E+03  0.89768648931E+03  0.46999998093E+01 0. -1.
</event>
<event>
 5   0  0.2313821E-06  0.1998962E+04  0.7818609E-02  0.8607106E-01
        1   -1    0    0  501    0  0.00000000000E+00  0.00000000000E+00  0.11020376647E+04  0.11020376647E+04  0.50400001928E-02 0. -1.
       -1   -1    0    0    0  501  0.00000000000E+00  0.00000000000E+00 -0.90646824361E+03  0.90646824363E+03  0.50400001928E-02 0.  1.
    10030    2    1    2    0    0  0.00000000000E+00  0.00000000000E+00  0.19556942112E+03  0.20085059084E+04  0.19989618769E+04 0.  0.
        1    1    3    3  502    0 -0.22614049414E+03  0.75129857945E+03  0.71991221508E+03  0.10648298813E+04  0.50400001928E-02 0. -1.
       -1    1    3    3    0  502  0.22614049414E+03 -0.75129857945E+03 -0.52434279396E+03  0.94367602712E+03  0.50400001928E-02 0.  1.
</event>
<event>
 5   0  0.5030137E-06  0.1999347E+04  0.7818609E-02  0.8606926E-01
       -2   -1    0    0    0  501  0.00000000000E+00  0.00000000000E+00  0.63319139945E+03  0.63319139946E+03  0.25500000920E-02 0. -1.
        2   -1    0    0  501    0  0.00000000000E+00  0.00000000000E+00 -0.15782695165E+04  0.15782695165E+04  0.25500000920E-02 0.  1.
    10030    2    1    2    0    0  0.00000000000E+00  0.00000000000E+00 -0.94507811703E+03  0.22114609159E+04  0.19993465771E+04 0.  0.
        3    1    3    3  502    0  0.99454508507E+03 -0.70986980673E+01 -0.36095880889E+03  0.10580461189E+04  0.10100000352E+00 0.  1.
       -3    1    3    3    0  502 -0.99454508507E+03  0.70986980673E+01 -0.58411930814E+03  0.11534147971E+04  0.10100000352E+00 0. -1.
</event>
<event>
 5   0  0.5251252E-06  0.1999844E+04  0.7818609E-02  0.8606694E-01
       -2   -1    0    0    0  501  0.00000000000E+00  0.00000000000E+00  0.76256230368E+03  0.76256230368E+03  0.25500000920E-02 0. -1.
        2   -1    0    0  501    0  0.00000000000E+00  0.00000000000E+00 -0.13111631760E+04  0.13111631760E+04  0.25500000920E-02 0.  1.
    10030    2    1    2    0    0  0.00000000000E+00  0.00000000000E+00 -0.54860087230E+03  0.20737254797E+04  0.19998436059E+04 0.  0.
        5    1    3    3  502    0  0.38325551962E+03 -0.86921004874E+03  0.49336725347E+02  0.95124502869E+03  0.46999998093E+01 0. -1.
       -5    1    3    3    0  502 -0.38325551962E+03  0.86921004874E+03 -0.59793759765E+03  0.11224804510E+04  0.46999998093E+01 0.  1.
</event>
<event>
 5   0  0.5251252E-06  0.1999756E+04  0.7818609E-02  0.8606735E-01
        2   -1    0    0  501    0  0.00000000000E+00  0.00000000000E+00  0.68167854279E+03  0.68167854280E+03  0.25500000920E-02 0.  1.
       -2   -1    0    0    0  501  0.00000000000E+00  0.00000000000E+00 -0.14666094450E+04  0.14666094450E+04  0.25500000920E-02 0. -1.
    10030    2    1    2    0    0  0.00000000000E+00  0.00000000000E+00 -0.78493090220E+03  0.21482879878E+04  0.19997561745E+04 0.  0.
        5    1    3    3  502    0 -0.38568785685E+03  0.77496680818E+03  0.14510738870E+03  0.87772827285E+03  0.46999998093E+01 0.  1.
       -5    1    3    3    0  502  0.38568785685E+03 -0.77496680818E+03 -0.93003829091E+03  0.12705597149E+04  0.46999998093E+01 0. -1.
</event>
<event>
 5   0  0.5030137E-06  0.2000539E+04  0.7818609E-02  0.8606369E-01
       -2   -1    0    0    0  501  0.00000000000E+00  0.00000000000E+00  0.13104046759E+04  0.13104046759E+04  0.25500000920E-02 0. -1.
        2   -1    0    0  501    0  0.00000000000E+00  0.00000000000E+00 -0.76353406800E+03  0.76353406800E+03  0.25500000920E-02 0.  1.
    10030    2    1    2    0    0  0.00000000000E+00  0.00000000000E+00  0.54687060788E+03  0.20739387439E+04  0.20005385404E+04 0.  0.
        3    1    3    3  502    0 -0.55921937899E+03  0.23363227973E+03 -0.55151757424E+03  0.81944005325E+03  0.10100000352E+00 0.  1.
       -3    1    3    3    0  502  0.55921937899E+03 -0.23363227973E+03  0.10983881821E+04  0.12544986906E+04  0.10100000352E+00 0. -1.
</event>
<event>
 5   0  0.2313821E-06  0.1999697E+04  0.7818609E-02  0.8606762E-01
        1   -1    0    0  501    0  0.00000000000E+00  0.00000000000E+00  0.88959357903E+03  0.88959357904E+03  0.50400001928E-02 0. -1.
       -1   -1    0    0    0  501  0.00000000000E+00  0.00000000000E+00 -0.11237683830E+04  0.11237683830E+04  0.50400001928E-02 0.  1.
    10030    2    1    2    0    0  0.00000000000E+00  0.00000000000E+00 -0.23417480399E+03  0.20133619621E+04  0.19996971149E+04 0.  0.
        1    1    3    3  502    0  0.31239039997E+03 -0.11085613357E+03  0.83266148307E+03  0.89621537019E+03  0.50400001928E-02 0. -1.
       -1    1    3    3    0  502 -0.31239039997E+03  0.11085613357E+03 -0.10668362871E+04  0.11171465919E+04  0.50400001928E-02 0.  1.
</event>
<event>
 5   0  0.2356996E-06  0.2000590E+04  0.7818609E-02  0.8606345E-01
        1   -1    0    0  501    0  0.00000000000E+00  0.00000000000E+00  0.10515390593E+04  0.10515390593E+04  0.50400001928E-02 0. -1.
       -1   -1    0    0    0  501  0.00000000000E+00  0.00000000000E+00 -0.95154802366E+03  0.95154802368E+03  0.50400001928E-02 0.  1.
    10030    2    1    2    0    0  0.00000000000E+00  0.00000000000E+00  0.99991035599E+02  0.20030870830E+04  0.20005898267E+04 0.  0.
        4    1    3    3  502    0  0.51780179438E+03 -0.35193986724E+02 -0.80619234591E+03  0.95880395622E+03  0.12699999809E+01 0.  1.
       -4    1    3    3    0  502 -0.51780179438E+03  0.35193986724E+02  0.90618338151E+03  0.10442831267E+04  0.12699999809E+01 0. -1.
</event>
<event>
 5   0  0.2379743E-06  0.1989100E+04  0.7818609E-02  0.8611734E-01
       -1   -1    0    0    0  501  0.00000000000E+00  0.00000000000E+00  0.70743846606E+03  0.70743846607E+03  0.50400001928E-02 0. -1.
        1   -1    0    0  501    0  0.00000000000E+00  0.00000000000E+00 -0.13981841085E+04  0.13981841085E+04  0.50400001928E-02 0.  1.
    10030    2    1    2    0    0  0.00000000000E+00  0.00000000000E+00 -0.69074564244E+03  0.21056225746E+04  0.19890995159E+04 0.  0.
        5    1    3    3  502    0 -0.22981762741E+03  0.22113936633E+03  0.65182399360E+03  0.72568269226E+03  0.46999998093E+01 0. -1.
       -5    1    3    3    0  502  0.22981762741E+03 -0.22113936633E+03 -0.13425696360E+04  0.13799398823E+04  0.46999998093E+01 0.  1.
</event>
<event>
 5   0  0.5129100E-06  0.1999426E+04  0.7818609E-02  0.8606889E-01
       -2   -1    0    0    0  501  0.00000000000E+00  0.00000000000E+00  0.67190201715E+03  0.67190201715E+03  0.25500000920E-02 0.  1.
        2   -1    0    0  501    0  0.00000000000E+00  0.00000000000E+00 -0.14874585897E+04  0.14874585897E+04  0.25500000920E-02 0. -1.
    10030    2    1    2    0    0  0.00000000000E+00  0.00000000000E+00 -0.81555657258E+03  0.21593606069E+04  0.19994263446E+04 0.  0.
        2    1    3    3  502    0 -0.99261632577E+03  0.89656630477E+02 -0.32342182955E+03  0.10478201952E+04  0.25500000920E-02 0.  1.
       -2    1    3    3    0  502  0.99261632577E+03 -0.89656630477E+02 -0.49213474303E+03  0.11115404117E+04  0.25500000920E-02 0. -1.
</event>
<event>
 5   0  0.2311520E-06  0.2003325E+04  0.7818609E-02  0.8605068E-01
        1   -1    0    0  501    0  0.00000000000E+00  0.00000000000E+00  0.15847827393E+04  0.15847827393E+04  0.50400001928E-02 0.  1.
       -1   -1    0    0    0  501  0.00000000000E+00  0.00000000000E+00 -0.63310138281E+03  0.63310138283E+03  0.50400001928E-02 0. -1.
    10030    2    1    2    0    0  0.00000000000E+00  0.00000000000E+00  0.95168135646E+03  0.22178841221E+04  0.20033253792E+04 0.  0.
        3    1    3    3  502    0 -0.10319403690E+03 -0.59859599031E+03  0.13576119120E+04  0.14873050402E+04  0.10100000352E+00 0.  1.
       -3    1    3    3    0  502  0.10319403690E+03  0.59859599031E+03 -0.40593055550E+03  0.73057908193E+03  0.10100000352E+00 0. -1.
</event>
<event>
 5   0  0.2356996E-06  0.2000506E+04  0.7818609E-02  0.8606384E-01
       -1   -1    0    0    0  501  0.00000000000E+00  0.00000000000E+00  0.57925263108E+03  0.57925263111E+03  0.50400001928E-02 0.  1.
        1   -1    0    0  501    0  0.00000000000E+00  0.00000000000E+00 -0.17272359121E+04  0.17272359121E+04  0.50400001928E-02 0. -1.
    10030    2    1    2    0    0  0.00000000000E+00  0.00000000000E+00 -0.11479832810E+04  0.23064885432E+04  0.20005058826E+04 0.  0.
        4    1    3    3  502    0  0.15979982275E+03 -0.55179504833E+03 -0.15180694890E+04  0.16231297992E+04  0.12699999809E+01 0. -1.
       -4    1    3    3    0  502 -0.15979982275E+03  0.55179504833E+03  0.37008620802E+03  0.68335874398E+03  0.12699999809E+01 0.  1.
</event>
<event>
 5   0  0.5118981E-06  0.2000503E+04  0.7818609E-02  0.8606386E-01
       -2   -1    0    0    0  501  0.00000000000E+00  0.00000000000E+00  0.66023898770E+03  0.66023898771E+03  0.25500000920E-02 0. -1.
        2   -1    0    0  501    0  0.00000000000E+00  0.00000000000E+00 -0.15153647047E+04  0.15153647047E+04  0.25500000920E-02 0.  1.
    10030    2    1    2    0    0  0.00000000000E+00  0.00000000000E+00 -0.85512571702E+03  0.21756036924E+04  0.20005027955E+04 0.  0.
        4    1    3    3  502    0  0.13815533100E+03  0.10056968525E+03 -0.14993717088E+04  0.15090786232E+04  0.12699999809E+01 0.  1.
       -4    1    3    3    0  502 -0.13815533100E+03 -0.10056968525E+03  0.64424599177E+03  0.66652506921E+03  0.12699999809E+01 0. -1.
</event>
<event>
 5   0  0.2356996E-06  0.2000420E+04  0.7818609E-02  0.8606424E-01
        1   -1    0    0  501    0  0.00000000000E+00  0.00000000000E+00  0.98600495034E+03  0.98600495036E+03  0.50400001928E-02 0.  1.
       -1   -1    0    0    0  501  0.00000000000E+00  0.00000000000E+00 -0.10146199135E+04  0.10146199135E+04  0.50400001928E-02 0. -1.
    10030    2    1    2    0    0  0.00000000000E+00  0.00000000000E+00 -0.28614963156E+02  0.20006248639E+04  0.20004202133E+04 0.  0.
        4    1    3    3  502    0 -0.90065319044E+03 -0.40890869153E+03 -0.16276847338E+03  0.10024358714E+04  0.12699999809E+01 0. -1.
       -4    1    3    3    0  502  0.90065319044E+03  0.40890869153E+03  0.13415351022E+03  0.99818899246E+03  0.12699999809E+01 0.  1.
</event>
<event>
 5   0  0.2356996E-06  0.2000187E+04  0.7818609E-02  0.8606533E-01
        1   -1    0    0  501    0  0.00000000000E+00  0.00000000000E+00  0.96960482103E+03  0.96960482105E+03  0.50400001928E-02 0.  1.
       -1   -1    0    0    0  501  0.00000000000E+00  0.00000000000E+00 -0.10315413106E+04  0.10315413107E+04  0.50400001928E-02 0. -1.
    10030    2    1    2    0    0  0.00000000000E+00  0.00000000000E+00 -0.61936489617E+02  0.20011461317E+04  0.20001874191E+04 0.  0.
        4    1    3    3  502    0 -0.85446966391E+03  0.92135339374E+02  0.48072434152E+03  0.98473592030E+03  0.12699999809E+01 0.  1.
       -4    1    3    3    0  502  0.85446966391E+03 -0.92135339374E+02 -0.54266083114E+03  0.10164102114E+04  0.12699999809E+01 0. -1.
</event>
<event>
 5   0  0.2313821E-06  0.1998685E+04  0.7818609E-02  0.8607236E-01
       -1   -1    0    0    0  501  0.00000000000E+00  0.00000000000E+00  0.17993466538E+04  0.17993466538E+04  0.50400001928E-02 0. -1.
        1   -1    0    0  501    0  0.00000000000E+00  0.00000000000E+00 -0.55502691227E+03  0.55502691230E+03  0.50400001928E-02 0.  1.
    10030    2    1    2    0    0  0.00000000000E+00  0.00000000000E+00  0.12443197415E+04  0.23543735661E+04  0.19986853853E+04 0.  0.
        1    1    3    3  502    0  0.41419556846E+03 -0.50741922712E+03 -0.26691093643E+03  0.70730028206E+03  0.50400001928E-02 0.  1.
       -1    1    3    3    0  502 -0.41419556846E+03  0.50741922712E+03  0.15112306780E+04  0.16470732840E+04  0.50400001928E-02 0. -1.
</event>
<event>
 5   0  0.4956214E-06  0.1999592E+04  0.7818609E-02  0.8606811E-01
       -2   -1    0    0    0  501  0.00000000000E+00  0.00000000000E+00  0.79350170718E+03  0.79350170718E+03  0.25500000920E-02 0.  1.
        2   -1    0    0  501    0  0.00000000000E+00  0.00000000000E+00 -0.12597228277E+04  0.12597228277E+04  0.25500000920E-02 0. -1.
    10030    2    1    2    0    0  0.00000000000E+00  0.00000000000E+00 -0.46622112053E+03  0.20532245349E+04  0.19995921728E+04 0.  0.
        1    1    3    3  502    0  0.66608016774E+03 -0.37010149821E+03 -0.89773812020E+03  0.11775277667E+04  0.50400001928E-02 0. -1.
       -1    1    3    3    0  502 -0.66608016774E+03  0.37010149821E+03  0.43151699967E+03  0.87569676821E+03  0.50400001928E-02 0.  1.
</event>
<event>
 5   0  0.2311520E-06  0.2000429E+04  0.7818609E-02  0.8606420E-01
       -1   -1    0    0    0  501  0.00000000000E+00  0.00000000000E+00  0.83945246267E+03  0.83945246268E+03  0.50400001928E-02 0.  1.
        1   -1    0    0  501    0  0.00000000000E+00  0.00000000000E+00 -0.11917634974E+04  0.11917634974E+04  0.50400001928E-02 0. -1.
    10030    2    1    2    0    0  0.00000000000E+00  0.00000000000E+00 -0.35231103472E+03  0.20312159601E+04  0.20004287569E+04 0.  0.
        3    1    3    3  502    0 -0.54799289898E+03  0.97358201093E+02  0.66769061287E+03  0.86924427026E+03  0.10100000352E+00 0.  1.
       -3    1    3    3    0  502  0.54799289898E+03 -0.97358201093E+02 -0.10200016476E+04  0.11619716898E+04  0.10100000352E+00 0. -1.
</event>
<event>
 5   0  0.5129100E-06  0.1999402E+04  0.7818609E-02  0.8606900E-01
       -2   -1    0    0    0  501  0.00000000000E+00  0.00000000000E+00  0.68106156762E+03  0.68106156763E+03  0.25500000920E-02 0.  1.
        2   -1    0    0  501    0  0.00000000000E+00  0.00000000000E+00 -0.14674176763E+04  0.14674176763E+04  0.25500000920E-02 0. -1.
    10030    2    1    2    0    0  0.00000000000E+00  0.00000000000E+00 -0.78635610864E+03  0.21484792439E+04  0.19994016935E+04 0.  0.
        2    1    3    3  502    0  0.79378441067E+03 -0.24521899284E+03 -0.99067241378E+03  0.12929260909E+04  0.25500000920E-02 0. -1.
       -2    1    3    3    0  502 -0.79378441067E+03  0.24521899284E+03  0.20431630514E+03  0.85555315301E+03  0.25500000920E-02 0.  1.
</event>
<event>
 5   0  0.5030137E-06  0.2001487E+04  0.7818609E-02  0.8605926E-01
       -2   -1    0    0    0  501  0.00000000000E+00  0.00000000000E+00  0.23553115933E+04  0.23553115933E+04  0.25500000920E-02 0. -1.
        2   -1    0    0  501    0  0.00000000000E+00  0.00000000000E+00 -0.42520368827E+03  0.42520368828E+03  0.25500000920E-02 0.  1.
    10030    2    1    2    0    0  0.00000000000E+00  0.00000000000E+00  0.19301079050E+04  0.27805152816E+04  0.20014866240E+04 0.  0.
        3    1    3    3  502    0 -0.98522489714E+03 -0.10849102002E+03  0.77331690812E+03  0.12571624596E+04  0.10100000352E+00 0. -1.
       -3    1    3    3    0  502  0.98522489714E+03  0.10849102002E+03  0.11567909969E+04  0.15233528219E+04  0.10100000352E+00 0.  1.
</event>
<event>
 5   0  0.2379743E-06  0.2000716E+04  0.7818609E-02  0.8606286E-01
        1   -1    0    0  501    0  0.00000000000E+00  0.00000000000E+00  0.16169589498E+04  0.16169589498E+04  0.50400001928E-02 0. -1.
       -1   -1    0    0    0  501  0.00000000000E+00  0.00000000000E+00 -0.61888776581E+03  0.61888776583E+03  0.50400001928E-02 0.  1.
    10030    2    1    2    0    0  0.00000000000E+00  0.00000000000E+00  0.99807118399E+03  0.22358467156E+04  0.20007159837E+04 0.  0.
        5    1    3    3  502    0 -0.15900536227E+03  0.26879266572E+03 -0.56300072805E+03  0.64383546979E+03  0.46999998093E+01 0.  1.
       -5    1    3    3    0  502  0.15900536227E+03 -0.26879266572E+03  0.15610719120E+04  0.15920112459E+04  0.46999998093E+01 0. -1.
</event>
<event>
 5   0  0.5118981E-06  0.2001584E+04  0.7818609E-02  0.8605880E-01
       -2   -1    0    0    0  501  0.00000000000E+00  0.00000000000E+00  0.93404009595E+03  0.93404009595E+03  0.25500000920E-02 0. -1.
        2   -1    0    0  501    0  0.00000000000E+00  0.00000000000E+00 -0.10723143057E+04  0.10723143057E+04  0.25500000920E-02 0.  1.
    10030    2    1    2    0    0  0.00000000000E+00  0.00000000000E+00 -0.13827420972E+03  0.20063544016E+04  0.20015839297E+04 0.  0.
        4    1    3    3  502    0  0.23713694588E+03 -0.84428713861E+03  0.41422399515E+03  0.96986485377E+03  0.12699999809E+01 0. -1.
       -4    1    3    3    0  502 -0.23713694588E+03  0.84428713861E+03 -0.55249820487E+03  0.10364895479E+04  0.12699999809E+01 0.  1.
</event>
<event>
 5   0  0.5118981E-06  0.1999662E+04  0.7818609E-02  0.8606779E-01
       -2   -1    0    0    0  501  0.00000000000E+00  0.00000000000E+00  0.99761619696E+03  0.99761619696E+03  0.25500000920E-02 0. -1.
        2   -1    0    0  501    0  0.00000000000E+00  0.00000000000E+00 -0.10020503329E+04  0.10020503329E+04  0.25500000920E-02 0.  1.
    10030    2    1    2    0    0  0.00000000000E+00  0.00000000000E+00 -0.44341359061E+01  0.19996665298E+04  0.19996616136E+04 0.  0.
        4    1    3    3  502    0 -0.42838316233E+03 -0.57037667339E+03  0.69836894347E+03  0.99827975910E+03  0.12699999809E+01 0. -1.
       -4    1    3    3    0  502  0.42838316233E+03  0.57037667339E+03 -0.70280307938E+03  0.10013867707E+04  0.12699999809E+01 0.  1.
</event>
<event>
 5   0  0.5129100E-06  0.2000375E+04  0.7818609E-02  0.8606446E-01
       -2   -1    0    0    0  501  0.00000000000E+00  0.00000000000E+00  0.96640305577E+03  0.96640305578E+03  0.25500000920E-02 0.  1.
        2   -1    0    0  501    0  0.00000000000E+00  0.00000000000E+00 -0.10351525218E+04  0.10351525218E+04  0.25500000920E-02 0. -1.
    10030    2    1    2    0    0  0.00000000000E+00  0.00000000000E+00 -0.68749466071E+02  0.20015555776E+04  0.20003745252E+04 0.  0.
        2    1    3    3  502    0 -0.42344150643E+03  0.88872496435E+03 -0.21122689866E+03  0.10068523101E+04  0.25500000920E-02 0.  1.
       -2    1    3    3    0  502  0.42344150643E+03 -0.88872496435E+03  0.14247743259E+03  0.99470326753E+03  0.25500000920E-02 0. -1.
</event>
<event>
 5   0  0.2379743E-06  0.1992423E+04  0.7818609E-02  0.8610172E-01
        1   -1    0    0  501    0  0.00000000000E+00  0.00000000000E+00  0.22925484953E+04  0.22925484953E+04  0.50400001928E-02 0.  1.
       -1   -1    0    0    0  501  0.00000000000E+00  0.00000000000E+00 -0.43289681023E+03  0.43289681026E+03  0.50400001928E-02 0. -1.
    10030    2    1    2    0    0  0.00000000000E+00  0.00000000000E+00  0.18596516851E+04  0.27254453056E+04  0.19924225766E+04 0.  0.
        5    1    3    3  502    0 -0.78632187825E+03  0.11340556168E+03  0.17519948486E+04  0.19237128052E+04  0.46999998093E+01 0.  1.
       -5    1    3    3    0  502  0.78632187825E+03 -0.11340556168E+03  0.10765683650E+03  0.80173250033E+03  0.46999998093E+01 0. -1.
</event>
<event>
 5   0  0.5030137E-06  0.2004399E+04  0.7818609E-02  0.8604567E-01
        2   -1    0    0  501    0  0.00000000000E+00  0.00000000000E+00  0.12403829988E+04  0.12403829988E+04  0.25500000920E-02 0.  1.
       -2   -1    0    0    0  501  0.00000000000E+00  0.00000000000E+00 -0.80975331812E+03  0.80975331813E+03  0.25500000920E-02 0. -1.
    10030    2    1    2    0    0  0.00000000000E+00  0.00000000000E+00  0.43062968063E+03  0.20501363169E+04  0.20043994103E+04 0.  0.
        3    1    3    3  502    0  0.98784679751E+02  0.30314109325E+03 -0.75649778014E+03  0.82093960614E+03  0.10100000352E+00 0. -1.
       -3    1    3    3    0  502 -0.98784679751E+02 -0.30314109325E+03  0.11871274608E+04  0.12291967107E+04  0.10100000352E+00 0.  1.
</event>
<event>
 5   0  0.1777750E-06  0.1998467E+04  0.7818609E-02  0.8607338E-01
        3   -1    0    0  501    0  0.00000000000E+00  0.00000000000E+00  0.11054243780E+04  0.11054243826E+04  0.10100000352E+00 0. -1.
       -3   -1    0    0    0  501  0.00000000000E+00  0.00000000000E+00 -0.90324367228E+03  0.90324367793E+03  0.10100000352E+00 0.  1.
    10030    2    1    2    0    0  0.00000000000E+00  0.00000000000E+00  0.20218070572E+03  0.20086680605E+04  0.19984669974E+04 0.  0.
        1    1    3    3  502    0  0.61847607785E+03  0.57401027151E+03 -0.43686792544E+03  0.95018631593E+03  0.50400001928E-02 0.  1.
       -1    1    3    3    0  502 -0.61847607785E+03 -0.57401027151E+03  0.63904863116E+03  0.10584817446E+04  0.50400001928E-02 0. -1.
</event>
<event>
 5   0  0.2311520E-06  0.1999995E+04  0.7818609E-02  0.8606623E-01
       -1   -1    0    0    0  501  0.00000000000E+00  0.00000000000E+00  0.84762942280E+03  0.84762942281E+03  0.50400001928E-02 0.  1.
        1   -1    0    0  501    0  0.00000000000E+00  0.00000000000E+00 -0.11797546214E+04  0.11797546215E+04  0.50400001928E-02 0. -1.
    10030    2    1    2    0    0  0.00000000000E+00  0.00000000000E+00 -0.33212519865E+03  0.20273840443E+04  0.19999947288E+04 0.  0.
        3    1    3    3  502    0 -0.76447247665E+03  0.18441468395E+03  0.46010849880E+03  0.91111293706E+03  0.10100000352E+00 0.  1.
       -3    1    3    3    0  502  0.76447247665E+03 -0.18441468395E+03 -0.79223369745E+03  0.11162711072E+04  0.10100000352E+00 0. -1.
</event>
<event>
 5   0  0.1777750E-06  0.2001437E+04  0.7818609E-02  0.8605949E-01
       -3   -1    0    0    0  501  0.00000000000E+00  0.00000000000E+00  0.16742768601E+04  0.16742768631E+04  0.10100000352E+00 0. -1.
        3   -1    0    0  501    0  0.00000000000E+00  0.00000000000E+00 -0.59813132430E+03  0.59813133282E+03  0.10100000352E+00 0.  1.
    10030    2    1    2    0    0  0.00000000000E+00  0.00000000000E+00  0.10761455358E+04  0.22724081959E+04  0.20014369325E+04 0.  0.
        3    1    3    3  502    0  0.98072794701E+03  0.19652833567E+03  0.50240737084E+03  0.11193140173E+04  0.10100000352E+00 0.  1.
       -3    1    3    3    0  502 -0.98072794701E+03 -0.19652833567E+03  0.57373816493E+03  0.11530941787E+04  0.10100000352E+00 0. -1.
</event>
<event>
 5   0  0.5118981E-06  0.1999100E+04  0.7818609E-02  0.8607042E-01
        2   -1    0    0  501    0  0.00000000000E+00  0.00000000000E+00  0.15580141265E+04  0.15580141265E+04  0.25500000920E-02 0. -1.
       -2   -1    0    0    0  501  0.00000000000E+00  0.00000000000E+00 -0.64126501850E+03  0.64126501851E+03  0.25500000920E-02 0.  1.
    10030    2    1    2    0    0  0.00000000000E+00  0.00000000000E+00  0.91674910798E+03  0.21992791450E+04  0.19990997550E+04 0.  0.
        4    1    3    3  502    0  0.19527582300E+03  0.14662665996E+03  0.15246919581E+04  0.15441240897E+04  0.12699999809E+01 0. -1.
       -4    1    3    3    0  502 -0.19527582300E+03 -0.14662665996E+03 -0.60794285015E+03  0.65515505524E+03  0.12699999809E+01 0.  1.
</event>
<event>
 5   0  0.2356996E-06  0.2006251E+04  0.7818609E-02  0.8603704E-01
       -1   -1    0    0    0  501  0.00000000000E+00  0.00000000000E+00  0.50530011544E+03  0.50530011547E+03  0.50400001928E-02 0. -1.
        1   -1    0    0  501    0  0.00000000000E+00  0.00000000000E+00 -0.19914128169E+04  0.19914128169E+04  0.50400001928E-02 0.  1.
    10030    2    1    2    0    0  0.00000000000E+00  0.00000000000E+00 -0.14861127015E+04  0.24967129324E+04  0.20062513565E+04 0.  0.
        4    1    3    3  502    0 -0.45482077507E+03  0.89039836469E+03 -0.84406786413E+03  0.13084813172E+04  0.12699999809E+01 0. -1.
       -4    1    3    3    0  502  0.45482077507E+03 -0.89039836469E+03 -0.64204483734E+03  0.11882316152E+04  0.12699999809E+01 0.  1.
</event>
<event>
 5   0  0.2311520E-06  0.1994074E+04  0.7818609E-02  0.8609396E-01
        1   -1    0    0  501    0  0.00000000000E+00  0.00000000000E+00  0.12270456717E+04  0.12270456718E+04  0.50400001928E-02 0.  1.
       -1   -1    0    0    0  501  0.00000000000E+00  0.00000000000E+00 -0.81014302076E+03  0.81014302078E+03  0.50400001928E-02 0. -1.
    10030    2    1    2    0    0  0.00000000000E+00  0.00000000000E+00  0.41690265098E+03  0.20371886925E+04  0.19940737069E+04 0.  0.
        3    1    3    3  502    0  0.53086422331E+02 -0.14887918458E+03  0.12141646155E+04  0.12244096143E+04  0.10100000352E+00 0.  1.
       -3    1    3    3    0  502 -0.53086422331E+02  0.14887918458E+03 -0.79726196449E+03  0.81277907827E+03  0.10100000352E+00 0. -1.
</event>
<event>
 5   0  0.5129100E-06  0.1992849E+04  0.7818609E-02  0.8609971E-01
        2   -1    0    0  501    0  0.00000000000E+00  0.00000000000E+00  0.12241980564E+04  0.12241980564E+04  0.25500000920E-02 0. -1.
       -2   -1    0    0    0  501  0.00000000000E+00  0.00000000000E+00 -0.81103048619E+03  0.81103048619E+03  0.25500000920E-02 0.  1.
    10030    2    1    2    0    0  0.00000000000E+00  0.00000000000E+00  0.41316757016E+03  0.20352285425E+04  0.19928491612E+04 0.  0.
        2    1    3    3  502    0 -0.73397505736E+03 -0.63739340831E+03 -0.16866268668E+02  0.97225213438E+03  0.25500000920E-02 0.  1.
       -2    1    3    3    0  502  0.73397505736E+03  0.63739340831E+03  0.43003383883E+03  0.10629764082E+04  0.25500000920E-02 0. -1.
</event>
<event>
 5   0  0.2311520E-06  0.2000397E+04  0.7818609E-02  0.8606435E-01
        1   -1    0    0  501    0  0.00000000000E+00  0.00000000000E+00  0.72112886756E+03  0.72112886758E+03  0.50400001928E-02 0. -1.
       -1   -1    0    0    0  501  0.00000000000E+00  0.00000000000E+00 -0.13872646202E+04  0.13872646202E+04  0.50400001928E-02 0.  1.
    10030    2    1    2    0    0  0.00000000000E+00  0.00000000000E+00 -0.66613575262E+03  0.21083934878E+04  0.20003965253E+04 0.  0.
        3    1    3    3  502    0  0.57133997704E+03 -0.34154123272E+03 -0.11199082408E+04  0.13027947885E+04  0.10100000352E+00 0.  1.
       -3    1    3    3    0  502 -0.57133997704E+03  0.34154123272E+03  0.45377248816E+03  0.80559869925E+03  0.10100000352E+00 0. -1.
</event>
<event>
 5   0  0.4956214E-06  0.2000236E+04  0.7818609E-02  0.8606510E-01
        2   -1    0    0  501    0  0.00000000000E+00  0.00000000000E+00  0.11557289418E+04  0.11557289418E+04  0.25500000920E-02 0. -1.
       -2   -1    0    0    0  501  0.00000000000E+00  0.00000000000E+00 -0.86545888983E+03  0.86545888983E+03  0.25500000920E-02 0.  1.
    10030    2    1    2    0    0  0.00000000000E+00  0.00000000000E+00  0.29027005199E+03  0.20211878316E+04  0.20002358730E+04 0.  0.
        1    1    3    3  502    0 -0.10234873231E+03 -0.69702836508E+03  0.86243835905E+03  0.11136084267E+04  0.50400001928E-02 0. -1.
       -1    1    3    3    0  502  0.10234873231E+03  0.69702836508E+03 -0.57216830706E+03  0.90757940499E+03  0.50400001928E-02 0.  1.
</event>
<event>
 5   0  0.4956214E-06  0.1998269E+04  0.7818609E-02  0.8607430E-01
        2   -1    0    0  501    0  0.00000000000E+00  0.00000000000E+00  0.10981847862E+04  0.10981847862E+04  0.25500000920E-02 0.  1.
       -2   -1    0    0    0  501  0.00000000000E+00  0.00000000000E+00 -0.90901825012E+03  0.90901825012E+03  0.25500000920E-02 0. -1.
    10030    2    1    2    0    0  0.00000000000E+00  0.00000000000E+00  0.18916653612E+03  0.20072030364E+04  0.19982692638E+04 0.  0.
        1    1    3    3  502    0  0.22993532054E+03  0.78746716322E+02  0.10680386307E+04  0.10953436966E+04  0.50400001928E-02 0.  1.
       -1    1    3    3    0  502 -0.22993532054E+03 -0.78746716322E+02 -0.87887209456E+03  0.91185933980E+03  0.50400001928E-02 0. -1.
</event>
<event>
 5   0  0.5030137E-06  0.2000661E+04  0.7818609E-02  0.8606312E-01
       -2   -1    0    0    0  501  0.00000000000E+00  0.00000000000E+00  0.46489251140E+03  0.46489251141E+03  0.25500000920E-02 0. -1.
        2   -1    0    0  501    0  0.00000000000E+00  0.00000000000E+00 -0.21524566864E+04  0.21524566864E+04  0.25500000920E-02 0.  1.
    10030    2    1    2    0    0  0.00000000000E+00  0.00000000000E+00 -0.16875641750E+04  0.26173491978E+04  0.20006608854E+04 0.  0.
        3    1    3    3  502    0  0.13697622048E+03  0.64561035530E+03  0.13965225940E+03  0.67459467801E+03  0.10100000352E+00 0. -1.
       -3    1    3    3    0  502 -0.13697622048E+03 -0.64561035530E+03 -0.18272164344E+04  0.19427545198E+04  0.10100000352E+00 0.  1.
</event>
<event>
 5   0  0.5030137E-06  0.2002319E+04  0.7818609E-02  0.8605537E-01
        2   -1    0    0  501    0  0.00000000000E+00  0.00000000000E+00  0.13155793088E+04  0.13155793088E+04  0.25500000920E-02 0.  1.
       -2   -1    0    0    0  501  0.00000000000E+00  0.00000000000E+00 -0.76188522186E+03  0.76188522187E+03  0.25500000920E-02 0. -1.
    10030    2    1    2    0    0  0.00000000000E+00  0.00000000000E+00  0.55369408695E+03  0.20774645307E+04  0.20023190890E+04 0.  0.
        3    1    3    3  502    0 -0.38342989032E+02  0.74778155457E+03  0.96637320454E+03  0.12225075128E+04  0.10100000352E+00 0.  1.
       -3    1    3    3    0  502  0.38342989032E+02 -0.74778155457E+03 -0.41267911759E+03  0.85495701790E+03  0.10100000352E+00 0. -1.
</event>
<event>
 5   0  0.5251252E-06  0.2010965E+04  0.7818609E-02  0.8601511E-01
       -2   -1    0    0    0  501  0.00000000000E+00  0.00000000000E+00  0.56621724472E+03  0.56621724473E+03  0.25500000920E-02 0.  1.
        2   -1    0    0  501    0  0.00000000000E+00  0.00000000000E+00 -0.17855257452E+04  0.17855257452E+04  0.25500000920E-02 0. -1.
    10030    2    1    2    0    0  0.00000000000E+00  0.00000000000E+00 -0.12193085004E+04  0.23517429899E+04  0.20109654078E+04 0.  0.
        5    1    3    3  502    0  0.10914189136E+03 -0.91440805196E+03 -0.10816863998E+04  0.14206060663E+04  0.46999998093E+01 0. -1.
       -5    1    3    3    0  502 -0.10914189136E+03  0.91440805196E+03 -0.13762210060E+03  0.93113692361E+03  0.46999998093E+01 0.  1.
</event>
<event>
 5   0  0.2311520E-06  0.1999183E+04  0.7818609E-02  0.8607003E-01
       -1   -1    0    0    0  501  0.00000000000E+00  0.00000000000E+00  0.70502508038E+03  0.70502508040E+03  0.50400001928E-02 0. -1.
        1   -1    0    0  501    0  0.00000000000E+00  0.00000000000E+00 -0.14172301899E+04  0.14172301899E+04  0.50400001928E-02 0.  1.
    10030    2    1    2    0    0  0.00000000000E+00  0.00000000000E+00 -0.71220510954E+03  0.21222552703E+04  0.19991826616E+04 0.  0.
        3    1    3    3  502    0 -0.25618732177E+03 -0.67122780906E+03 -0.10938718117E+04  0.13087147383E+04  0.10100000352E+00 0.  1.
       -3    1    3    3    0  502  0.25618732177E+03  0.67122780906E+03  0.38166670221E+03  0.81354053204E+03  0.10100000352E+00 0. -1.
</event>
<event>
 5   0  0.2356996E-06  0.1986069E+04  0.7818609E-02  0.8613162E-01
        1   -1    0    0  501    0  0.00000000000E+00  0.00000000000E+00  0.13419922402E+04  0.13419922402E+04  0.50400001928E-02 0. -1.
       -1   -1    0    0    0  501  0.00000000000E+00  0.00000000000E+00 -0.73481623075E+03  0.73481623077E+03  0.50400001928E-02 0.  1.
    10030    2    1    2    0    0  0.00000000000E+00  0.00000000000E+00  0.60717600941E+03  0.20768084709E+04  0.19860691626E+04 0.  0.
        4    1    3    3  502    0 -0.50547991819E+03  0.80145068101E+03 -0.71114099781E+01  0.94756811198E+03  0.12699999809E+01 0.  1.
       -4    1    3    3    0  502  0.50547991819E+03 -0.80145068101E+03  0.61428741939E+03  0.11292403590E+04  0.12699999809E+01 0. -1.
</event>
<event>
 5   0  0.5118981E-06  0.2000024E+04  0.7818609E-02  0.8606610E-01
       -2   -1    0    0    0  501  0.00000000000E+00  0.00000000000E+00  0.64147661602E+03  0.64147661603E+03  0.25500000920E-02 0.  1.
        2   -1    0    0  501    0  0.00000000000E+00  0.00000000000E+00 -0.15589404088E+04  0.15589404088E+04  0.25500000920E-02 0. -1.
    10030    2    1    2    0    0  0.00000000000E+00  0.00000000000E+00 -0.91746379282E+03  0.22004170249E+04  0.20000238179E+04 0.  0.
        4    1    3    3  502    0  0.16276748845E+03  0.37657545616E+03  0.54463176640E+03  0.68185607231E+03  0.12699999809E+01 0.  1.
       -4    1    3    3    0  502 -0.16276748845E+03 -0.37657545616E+03 -0.14620955592E+04  0.15185609526E+04  0.12699999809E+01 0. -1.
</event>
<event>
 5   0  0.2311520E-06  0.2000644E+04  0.7818609E-02  0.8606320E-01
        1   -1    0    0  501    0  0.00000000000E+00  0.00000000000E+00  0.64606520929E+03  0.64606520931E+03  0.50400001928E-02 0.  1.
       -1   -1    0    0    0  501  0.00000000000E+00  0.00000000000E+00 -0.15488279958E+04  0.15488279958E+04  0.50400001928E-02 0. -1.
    10030    2    1    2    0    0  0.00000000000E+00  0.00000000000E+00 -0.90276278648E+03  0.21948932051E+04  0.20006437797E+04 0.  0.
        3    1    3    3  502    0 -0.87047288074E+03  0.26085098153E+03  0.74052028530E+01  0.90874700434E+03  0.10100000352E+00 0.  1.
       -3    1    3    3    0  502  0.87047288074E+03 -0.26085098153E+03 -0.91016798933E+03  0.12861462007E+04  0.10100000352E+00 0. -1.
</event>
<event>
 5   0  0.2356996E-06  0.2000219E+04  0.7818609E-02  0.8606518E-01
       -1   -1    0    0    0  501  0.00000000000E+00  0.00000000000E+00  0.98523215062E+03  0.98523215064E+03  0.50400001928E-02 0. -1.
        1   -1    0    0  501    0  0.00000000000E+00  0.00000000000E+00 -0.10152119274E+04  0.10152119274E+04  0.50400001928E-02 0.  1.
    10030    2    1    2    0    0  0.00000000000E+00  0.00000000000E+00 -0.29979776780E+02  0.20004440781E+04  0.20002194186E+04 0.  0.
        4    1    3    3  502    0 -0.59068939491E+03 -0.32740194520E+03  0.72273231953E+03  0.98916612031E+03  0.12699999809E+01 0. -1.
       -4    1    3    3    0  502  0.59068939491E+03  0.32740194520E+03 -0.75271209631E+03  0.10112779577E+04  0.12699999809E+01 0.  1.
</event>
<event>
 5   0  0.2379743E-06  0.1999268E+04  0.7818609E-02  0.8606963E-01
       -1   -1    0    0    0  501  0.00000000000E+00  0.00000000000E+00  0.12944245375E+04  0.12944245375E+04  0.50400001928E-02 0.  1.
        1   -1    0    0  501    0  0.00000000000E+00  0.00000000000E+00 -0.77197835313E+03  0.77197835314E+03  0.50400001928E-02 0. -1.
    10030    2    1    2    0    0  0.00000000000E+00  0.00000000000E+00  0.52244618433E+03  0.20664028906E+04  0.19992675886E+04 0.  0.
        5    1    3    3  502    0 -0.23574230468E+03  0.53546013683E+03 -0.57652112187E+03  0.82139557238E+03  0.46999998093E+01 0. -1.
       -5    1    3    3    0  502  0.23574230468E+03 -0.53546013683E+03  0.10989673062E+04  0.12450073182E+04  0.46999998093E+01 0.  1.
</event>
<event>
 5   0  0.2311520E-06  0.1999902E+04  0.7818609E-02  0.8606666E-01
       -1   -1    0    0    0  501  0.00000000000E+00  0.00000000000E+00  0.10117671602E+04  0.10117671602E+04  0.50400001928E-02 0. -1.
        1   -1    0    0  501    0  0.00000000000E+00  0.00000000000E+00 -0.98827331841E+03  0.98827331843E+03  0.50400001928E-02 0.  1.
    10030    2    1    2    0    0  0.00000000000E+00  0.00000000000E+00  0.23493841820E+02  0.20000404787E+04  0.19999024866E+04 0.  0.
        3    1    3    3  502    0  0.46073330866E+03  0.47511139886E+03  0.76139617185E+03  0.10088261316E+04  0.10100000352E+00 0. -1.
       -3    1    3    3    0  502 -0.46073330866E+03 -0.47511139886E+03 -0.73790233003E+03  0.99121434710E+03  0.10100000352E+00 0.  1.
</event>
<event>
 5   0  0.2379743E-06  0.2000595E+04  0.7818609E-02  0.8606343E-01
        1   -1    0    0  501    0  0.00000000000E+00  0.00000000000E+00  0.94579707793E+03  0.94579707794E+03  0.50400001928E-02 0.  1.
       -1   -1    0    0    0  501  0.00000000000E+00  0.00000000000E+00 -0.10579380498E+04  0.10579380498E+04  0.50400001928E-02 0. -1.
    10030    2    1    2    0    0  0.00000000000E+00  0.00000000000E+00 -0.11214097185E+03  0.20037351277E+04  0.20005946277E+04 0.  0.
        5    1    3    3  502    0  0.51371468145E+03 -0.85812588387E+03 -0.39019672473E+02  0.10009132986E+04  0.46999998093E+01 0. -1.
       -5    1    3    3    0  502 -0.51371468145E+03  0.85812588387E+03 -0.73121299373E+02  0.10028218291E+04  0.46999998093E+01 0.  1.
</event>
<event>
 5   0  0.2386776E-06  0.1999987E+04  0.7818609E-02  0.8606627E-01
       -1   -1    0    0    0  501  0.00000000000E+00  0.00000000000E+00  0.71798890759E+03  0.71798890761E+03  0.50400001928E-02 0.  1.
        1   -1    0    0  501    0  0.00000000000E+00  0.00000000000E+00 -0.13927608873E+04  0.13927608874E+04  0.50400001928E-02 0. -1.
    10030    2    1    2    0    0  0.00000000000E+00  0.00000000000E+00 -0.67477197975E+03  0.21107497950E+04  0.19999868680E+04 0.  0.
        2    1    3    3  502    0  0.51079192945E+03 -0.29320240566E+03 -0.11902956863E+04  0.13280360939E+04  0.25500000920E-02 0.  1.
       -2    1    3    3    0  502 -0.51079192945E+03  0.29320240566E+03  0.51552370652E+03  0.78271370109E+03  0.25500000920E-02 0. -1.
</event>
<event>
 5   0  0.2386776E-06  0.1997803E+04  0.7818609E-02  0.8607648E-01
       -1   -1    0    0    0  501  0.00000000000E+00  0.00000000000E+00  0.79432212611E+03  0.79432212613E+03  0.50400001928E-02 0. -1.
        1   -1    0    0  501    0  0.00000000000E+00  0.00000000000E+00 -0.12561710789E+04  0.12561710789E+04  0.50400001928E-02 0.  1.
    10030    2    1    2    0    0  0.00000000000E+00  0.00000000000E+00 -0.46184895281E+03  0.20504932051E+04  0.19978032758E+04 0.  0.
        2    1    3    3  502    0  0.39409012974E+03  0.85396102317E+03  0.11447440572E+03  0.94744965513E+03  0.25500000920E-02 0. -1.
       -2    1    3    3    0  502 -0.39409012974E+03 -0.85396102317E+03 -0.57632335853E+03  0.11030435499E+04  0.25500000920E-02 0.  1.
</event>
<event>
 5   0  0.5251252E-06  0.1999772E+04  0.7818609E-02  0.8606727E-01
       -2   -1    0    0    0  501  0.00000000000E+00  0.00000000000E+00  0.63316544515E+03  0.63316544516E+03  0.25500000920E-02 0. -1.
        2   -1    0    0  501    0  0.00000000000E+00  0.00000000000E+00 -0.15790056647E+04  0.15790056647E+04  0.25500000920E-02 0.  1.
    10030    2    1    2    0    0  0.00000000000E+00  0.00000000000E+00 -0.94584021951E+03  0.22121711098E+04  0.19997718116E+04 0.  0.
        5    1    3    3  502    0 -0.45931069892E+03  0.84100156594E+03 -0.15711692975E+03  0.97106012773E+03  0.46999998093E+01 0. -1.
       -5    1    3    3    0  502  0.45931069892E+03 -0.84100156594E+03 -0.78872328976E+03  0.12411109821E+04  0.46999998093E+01 0.  1.
</event>
<event>
 5   0  0.2311520E-06  0.1998438E+04  0.7818609E-02  0.8607351E-01
        1   -1    0    0  501    0  0.00000000000E+00  0.00000000000E+00  0.12511870206E+04  0.12511870206E+04  0.50400001928E-02 0.  1.
       -1   -1    0    0    0  501  0.00000000000E+00  0.00000000000E+00 -0.79799310503E+03  0.79799310505E+03  0.50400001928E-02 0. -1.
    10030    2    1    2    0    0  0.00000000000E+00  0.00000000000E+00  0.45319391554E+03  0.20491801256E+04  0.19984380056E+04 0.  0.
        3    1    3    3  502    0 -0.88804392144E+03 -0.41217948777E+03  0.43148193500E+03  0.10699021483E+04  0.10100000352E+00 0.  1.
       -3    1    3    3    0  502  0.88804392144E+03  0.41217948777E+03  0.21711980543E+02  0.97927797731E+03  0.10100000352E+00 0. -1.
</event>
<event>
 5   0  0.5251252E-06  0.1994193E+04  0.7818609E-02  0.8609340E-01
        2   -1    0    0  501    0  0.00000000000E+00  0.00000000000E+00  0.98868595501E+03  0.98868595501E+03  0.25500000920E-02 0.  1.
       -2   -1    0    0    0  501  0.00000000000E+00  0.00000000000E+00 -0.10055786824E+04  0.10055786824E+04  0.25500000920E-02 0. -1.
    10030    2    1    2    0    0  0.00000000000E+00  0.00000000000E+00 -0.16892727395E+02  0.19942646374E+04  0.19941930899E+04 0.  0.
        5    1    3    3  502    0 -0.61483790095E+02  0.86524059041E+03  0.48326009556E+03  0.99296724301E+03  0.46999998093E+01 0.  1.
       -5    1    3    3    0  502  0.61483790095E+02 -0.86524059041E+03 -0.50015282296E+03  0.10012973944E+04  0.46999998093E+01 0. -1.
</event>
<event>
 5   0  0.2311520E-06  0.2000213E+04  0.7818609E-02  0.8606521E-01
       -1   -1    0    0    0  501  0.00000000000E+00  0.00000000000E+00  0.10270595086E+04  0.10270595086E+04  0.50400001928E-02 0. -1.
        1   -1    0    0  501    0  0.00000000000E+00  0.00000000000E+00 -0.97386069704E+03  0.97386069706E+03  0.50400001928E-02 0.  1.
    10030    2    1    2    0    0  0.00000000000E+00  0.00000000000E+00  0.53198811579E+02  0.20009202057E+04  0.20002128777E+04 0.  0.
        3    1    3    3  502    0 -0.89761227793E+03 -0.35210969374E+03  0.29225656809E+03  0.10075231758E+04  0.10100000352E+00 0. -1.
       -3    1    3    3    0  502  0.89761227793E+03  0.35210969374E+03 -0.23905775651E+03  0.99339702992E+03  0.10100000352E+00 0.  1.
</event>
<event>
 5   0  0.5118981E-06  0.1998697E+04  0.7818609E-02  0.8607230E-01
       -2   -1    0    0    0  501  0.00000000000E+00  0.00000000000E+00  0.10732418603E+04  0.10732418603E+04  0.25500000920E-02 0. -1.
        2   -1    0    0  501    0  0.00000000000E+00  0.00000000000E+00 -0.93054257324E+03  0.93054257324E+03  0.25500000920E-02 0.  1.
    10030    2    1    2    0    0  0.00000000000E+00  0.00000000000E+00  0.14269928703E+03  0.20037844335E+04  0.19986968178E+04 0.  0.
        4    1    3    3  502    0 -0.51124052236E+03  0.71669982464E+03 -0.40279195763E+03  0.96812627502E+03  0.12699999809E+01 0.  1.
       -4    1    3    3    0  502  0.51124052236E+03 -0.71669982464E+03  0.54549124466E+03  0.10356581585E+04  0.12699999809E+01 0. -1.
</event>
<event>
 5   0  0.2356996E-06  0.2000043E+04  0.7818609E-02  0.8606600E-01
       -1   -1    0    0    0  501  0.00000000000E+00  0.00000000000E+00  0.58808722654E+03  0.58808722656E+03  0.50400001928E-02 0. -1.
        1   -1    0    0  501    0  0.00000000000E+00  0.00000000000E+00 -0.17005018716E+04  0.17005018716E+04  0.50400001928E-02 0.  1.
    10030    2    1    2    0    0  0.00000000000E+00  0.00000000000E+00 -0.11124146451E+04  0.22885890982E+04  0.20000434290E+04 0.  0.
        4    1    3    3  502    0 -0.59809985811E+03  0.72817860854E+03 -0.93928019437E+03  0.13304948037E+04  0.12699999809E+01 0.  1.
       -4    1    3    3    0  502  0.59809985811E+03 -0.72817860854E+03 -0.17313445071E+03  0.95809429449E+03  0.12699999809E+01 0. -1.
</event>
<event>
 5   0  0.5118981E-06  0.1999917E+04  0.7818609E-02  0.8606659E-01
       -2   -1    0    0    0  501  0.00000000000E+00  0.00000000000E+00  0.57666019302E+03  0.57666019302E+03  0.25500000920E-02 0.  1.
        2   -1    0    0  501    0  0.00000000000E+00  0.00000000000E+00 -0.17339796756E+04  0.17339796756E+04  0.25500000920E-02 0. -1.
    10030    2    1    2    0    0  0.00000000000E+00  0.00000000000E+00 -0.11573194826E+04  0.23106398686E+04  0.19999170527E+04 0.  0.
        4    1    3    3  502    0 -0.59864239629E+03  0.21954923536E+02 -0.15037196452E+04  0.16186504013E+04  0.12699999809E+01 0. -1.
       -4    1    3    3    0  502  0.59864239629E+03 -0.21954923536E+02  0.34640016264E+03  0.69198946732E+03  0.12699999809E+01 0.  1.
</event>
<event>
 5   0  0.5129100E-06  0.1999055E+04  0.7818609E-02  0.8607063E-01
        2   -1    0    0  501    0  0.00000000000E+00  0.00000000000E+00  0.16923857635E+04  0.16923857635E+04  0.25500000920E-02 0.  1.
       -2   -1    0    0    0  501  0.00000000000E+00  0.00000000000E+00 -0.59032366149E+03  0.59032366150E+03  0.25500000920E-02 0. -1.
    10030    2    1    2    0    0  0.00000000000E+00  0.00000000000E+00  0.11020621020E+04  0.22827094250E+04  0.19990551374E+04 0.  0.
        2    1    3    3  502    0 -0.19384820810E+03 -0.12214533416E+03 -0.55993207973E+03  0.60499631764E+03  0.25500000920E-02 0. -1.
       -2    1    3    3    0  502  0.19384820810E+03  0.12214533416E+03  0.16619941817E+04  0.16777131073E+04  0.25500000920E-02 0.  1.
</event>
<event>
 5   0  0.2313821E-06  0.1999856E+04  0.7818609E-02  0.8606688E-01
       -1   -1    0    0    0  501  0.00000000000E+00  0.00000000000E+00  0.10241633573E+04  0.10241633574E+04  0.50400001928E-02 0.  1.
        1   -1    0    0  501    0  0.00000000000E+00  0.00000000000E+00 -0.97626583883E+03  0.97626583884E+03  0.50400001928E-02 0. -1.
    10030    2    1    2    0    0  0.00000000000E+00  0.00000000000E+00  0.47897518511E+02  0.20004291962E+04  0.19998556940E+04 0.  0.
        1    1    3    3  502    0  0.58700755360E+03  0.12624022679E+03 -0.77586870677E+03  0.98106407182E+03  0.50400001928E-02 0. -1.
       -1    1    3    3    0  502 -0.58700755360E+03 -0.12624022679E+03  0.82376622528E+03  0.10193651244E+04  0.50400001928E-02 0.  1.
</event>
<event>
 5   0  0.1777750E-06  0.2000462E+04  0.7818609E-02  0.8606404E-01
       -3   -1    0    0    0  501  0.00000000000E+00  0.00000000000E+00  0.93290520725E+03  0.93290521271E+03  0.10100000352E+00 0.  1.
        3   -1    0    0  501    0  0.00000000000E+00  0.00000000000E+00 -0.10724160069E+04  0.10724160117E+04  0.10100000352E+00 0. -1.
    10030    2    1    2    0    0  0.00000000000E+00  0.00000000000E+00 -0.13951079970E+03  0.20053212244E+04  0.20004624340E+04 0.  0.
        5    1    3    3  502    0 -0.53942995518E+03 -0.40557421951E+03  0.67025524076E+03  0.95117784975E+03  0.46999998093E+01 0.  1.
       -5    1    3    3    0  502  0.53942995518E+03  0.40557421951E+03 -0.80976604046E+03  0.10541433747E+04  0.46999998093E+01 0. -1.
</event>
<event>
 5   0  0.2313821E-06  0.2001960E+04  0.7818609E-02  0.8605705E-01
       -1   -1    0    0    0  501  0.00000000000E+00  0.00000000000E+00  0.99567280351E+03  0.99567280352E+03  0.50400001928E-02 0. -1.
        1   -1    0    0  501    0  0.00000000000E+00  0.00000000000E+00 -0.10063156350E+04  0.10063156351E+04  0.50400001928E-02 0.  1.
    10030    2    1    2    0    0  0.00000000000E+00  0.00000000000E+00 -0.10642831535E+02  0.20019884386E+04  0.20019601490E+04 0.  0.
        1    1    3    3  502    0 -0.69050890243E+03  0.25391410050E+03 -0.68406968628E+03  0.10046025336E+04  0.50400001928E-02 0.  1.
       -1    1    3    3    0  502  0.69050890243E+03 -0.25391410050E+03  0.67342685475E+03  0.99738590500E+03  0.50400001928E-02 0. -1.
</event>
<event>
 5   0  0.5251252E-06  0.2000439E+04  0.7818609E-02  0.8606415E-01
        2   -1    0    0  501    0  0.00000000000E+00  0.00000000000E+00  0.12160737173E+04  0.12160737173E+04  0.25500000920E-02 0. -1.
       -2   -1    0    0    0  501  0.00000000000E+00  0.00000000000E+00 -0.82267961221E+03  0.82267961221E+03  0.25500000920E-02 0.  1.
    10030    2    1    2    0    0  0.00000000000E+00  0.00000000000E+00  0.39339410512E+03  0.20387533295E+04  0.20004390060E+04 0.  0.
        5    1    3    3  502    0 -0.23975997531E+03  0.97049323233E+03  0.16328181940E+03  0.10129289226E+04  0.46999998093E+01 0.  1.
       -5    1    3    3    0  502  0.23975997531E+03 -0.97049323233E+03  0.23011228572E+03  0.10258244069E+04  0.46999998093E+01 0. -1.
</event>
<event>
 5   0  0.5030137E-06  0.1998437E+04  0.7818609E-02  0.8607352E-01
       -2   -1    0    0    0  501  0.00000000000E+00  0.00000000000E+00  0.91226640914E+03  0.91226640915E+03  0.25500000920E-02 0.  1.
        2   -1    0    0  501    0  0.00000000000E+00  0.00000000000E+00 -0.10944584974E+04  0.10944584974E+04  0.25500000920E-02 0. -1.
    10030    2    1    2    0    0  0.00000000000E+00  0.00000000000E+00 -0.18219208822E+03  0.20067249065E+04  0.19984371127E+04 0.  0.
        3    1    3    3  502    0 -0.95075304047E+03 -0.45630620420E+02  0.21417825409E+03  0.97564636637E+03  0.10100000352E+00 0.  1.
       -3    1    3    3    0  502  0.95075304047E+03  0.45630620420E+02 -0.39637034231E+03  0.10310785401E+04  0.10100000352E+00 0. -1.
</event>
<event>
 5   0  0.5251252E-06  0.1999825E+04  0.7818609E-02  0.8606702E-01
       -2   -1    0    0    0  501  0.00000000000E+00  0.00000000000E+00  0.13293993459E+04  0.13293993459E+04  0.25500000920E-02 0. -1.
        2   -1    0    0  501    0  0.00000000000E+00  0.00000000000E+00 -0.75208811069E+03  0.75208811069E+03  0.25500000920E-02 0.  1.
    10030    2    1    2    0    0  0.00000000000E+00  0.00000000000E+00  0.57731123518E+03  0.20814874566E+04  0.19998254348E+04 0.  0.
        5    1    3    3  502    0  0.20564925356E+03  0.97672427554E+03  0.35042041516E+03  0.10578745121E+04  0.46999998093E+01 0. -1.
       -5    1    3    3    0  502 -0.20564925356E+03 -0.97672427554E+03  0.22689082002E+03  0.10236129445E+04  0.46999998093E+01 0.  1.
</event>
<event>
 5   0  0.2386776E-06  0.1999537E+04  0.7818609E-02  0.8606837E-01
       -1   -1    0    0    0  501  0.00000000000E+00  0.00000000000E+00  0.59430869858E+03  0.59430869860E+03  0.50400001928E-02 0.  1.
        1   -1    0    0  501    0  0.00000000000E+00  0.00000000000E+00 -0.16818480701E+04  0.16818480701E+04  0.50400001928E-02 0. -1.
    10030    2    1    2    0    0  0.00000000000E+00  0.00000000000E+00 -0.10875393715E+04  0.22761567687E+04  0.19995368842E+04 0.  0.
        2    1    3    3  502    0  0.93579513852E+03  0.53174954829E+02 -0.93973735774E+03  0.13272702885E+04  0.25500000920E-02 0. -1.
       -2    1    3    3    0  502 -0.93579513852E+03 -0.53174954829E+02 -0.14780201378E+03  0.94888648024E+03  0.25500000920E-02 0.  1.
</event>
<event>
 5   0  0.5118981E-06  0.1999340E+04  0.7818609E-02  0.8606929E-01
        2   -1    0    0  501    0  0.00000000000E+00  0.00000000000E+00  0.10790766290E+04  0.10790766290E+04  0.25500000920E-02 0.  1.
       -2   -1    0    0    0  501  0.00000000000E+00  0.00000000000E+00 -0.92610713061E+03  0.92610713061E+03  0.25500000920E-02 0. -1.
    10030    2    1    2    0    0  0.00000000000E+00  0.00000000000E+00  0.15296949837E+03  0.20051837596E+04  0.19993404518E+04 0.  0.
        4    1    3    3  502    0  0.86938187330E+03 -0.97734636169E+02  0.56159464253E+03  0.10395994691E+04  0.12699999809E+01 0.  1.
       -4    1    3    3    0  502 -0.86938187330E+03  0.97734636169E+02 -0.40862514415E+03  0.96558429050E+03  0.12699999809E+01 0. -1.
</event>
<event>
 5   0  0.2311520E-06  0.2002762E+04  0.7818609E-02  0.8605330E-01
        1   -1    0    0  501    0  0.00000000000E+00  0.00000000000E+00  0.77596378628E+03  0.77596378630E+03  0.50400001928E-02 0.  1.
       -1   -1    0    0    0  501  0.00000000000E+00  0.00000000000E+00 -0.12922820358E+04  0.12922820358E+04  0.50400001928E-02 0. -1.
    10030    2    1    2    0    0  0.00000000000E+00  0.00000000000E+00 -0.51631824951E+03  0.20682458221E+04  0.20027621541E+04 0.  0.
        3    1    3    3  502    0  0.78559157040E+03  0.42810285925E+03  0.20636831706E+03  0.91815797446E+03  0.10100000352E+00 0.  1.
       -3    1    3    3    0  502 -0.78559157040E+03 -0.42810285925E+03 -0.72268656657E+03  0.11500878476E+04  0.10100000352E+00 0. -1.
</event>
<event>
 5   0  0.5030137E-06  0.2001292E+04  0.7818609E-02  0.8606017E-01
        2   -1    0    0  501    0  0.00000000000E+00  0.00000000000E+00  0.13446390943E+04  0.13446390943E+04  0.25500000920E-02 0. -1.
       -2   -1    0    0    0  501  0.00000000000E+00  0.00000000000E+00 -0.74465527155E+03  0.74465527155E+03  0.25500000920E-02 0.  1.
    10030    2    1    2    0    0  0.00000000000E+00  0.00000000000E+00  0.59998382277E+03  0.20892943659E+04  0.20012921725E+04 0.  0.
        3    1    3    3  502    0 -0.83103041274E+03 -0.33822454387E+03  0.76251445306E+03  0.11774700380E+04  0.10100000352E+00 0. -1.
       -3    1    3    3    0  502  0.83103041274E+03  0.33822454387E+03 -0.16253063030E+03  0.91182432791E+03  0.10100000352E+00 0.  1.
</event>
<event>
 5   0  0.2313821E-06  0.1999524E+04  0.7818609E-02  0.8606843E-01
        1   -1    0    0  501    0  0.00000000000E+00  0.00000000000E+00  0.80772272076E+03  0.80772272078E+03  0.50400001928E-02 0. -1.
       -1   -1    0    0    0  501  0.00000000000E+00  0.00000000000E+00 -0.12374593592E+04  0.12374593592E+04  0.50400001928E-02 0.  1.
    10030    2    1    2    0    0  0.00000000000E+00  0.00000000000E+00 -0.42973663842E+03  0.20451820800E+04  0.19995239838E+04 0.  0.
        1    1    3    3  502    0 -0.57237860829E+03  0.61557758427E+03  0.33875921704E+03  0.90626201545E+03  0.50400001928E-02 0. -1.
       -1    1    3    3    0  502  0.57237860829E+03 -0.61557758427E+03 -0.76849585546E+03  0.11389200645E+04  0.50400001928E-02 0.  1.
</event>
<event>
 5   0  0.5251252E-06  0.2000567E+04  0.7818609E-02  0.8606356E-01
       -2   -1    0    0    0  501  0.00000000000E+00  0.00000000000E+00  0.87547633913E+03  0.87547633913E+03  0.25500000920E-02 0.  1.
        2   -1    0    0  501    0  0.00000000000E+00  0.00000000000E+00 -0.11428830690E+04  0.11428830690E+04  0.25500000920E-02 0. -1.
    10030    2    1    2    0    0  0.00000000000E+00  0.00000000000E+00 -0.26740672988E+03  0.20183594081E+04  0.20005670049E+04 0.  0.
        5    1    3    3  502    0  0.27204584157E+02 -0.85105588553E+03 -0.66326087056E+03  0.10793392804E+04  0.46999998093E+01 0. -1.
       -5    1    3    3    0  502 -0.27204584157E+02  0.85105588553E+03  0.39585414068E+03  0.93902012779E+03  0.46999998093E+01 0.  1.
</event>
<event>
 5   0  0.2356996E-06  0.2001100E+04  0.7818609E-02  0.8606107E-01
        1   -1    0    0  501    0  0.00000000000E+00  0.00000000000E+00  0.12126425874E+04  0.12126425874E+04  0.50400001928E-02 0.  1.
       -1   -1    0    0    0  501  0.00000000000E+00  0.00000000000E+00 -0.82555258528E+03  0.82555258530E+03  0.50400001928E-02 0. -1.
    10030    2    1    2    0    0  0.00000000000E+00  0.00000000000E+00  0.38709000210E+03  0.20381951727E+04  0.20010999206E+04 0.  0.
        4    1    3    3  502    0 -0.60452030690E+03 -0.13378420608E+03 -0.60699923999E+03  0.86705980503E+03  0.12699999809E+01 0. -1.
       -4    1    3    3    0  502  0.60452030690E+03  0.13378420608E+03  0.99408924209E+03  0.11711353677E+04  0.12699999809E+01 0.  1.
</event>
<event>
 5   0  0.5129100E-06  0.2000069E+04  0.7818609E-02  0.8606588E-01
        2   -1    0    0  501    0  0.00000000000E+00  0.00000000000E+00  0.17078129515E+04  0.17078129515E+04  0.25500000920E-02 0. -1.
       -2   -1    0    0    0  501  0.00000000000E+00  0.00000000000E+00 -0.58558461794E+03  0.58558461794E+03  0.25500000920E-02 0.  1.
    10030    2    1    2    0    0  0.00000000000E+00  0.00000000000E+00  0.11222283335E+04  0.22933975694E+04  0.20000689935E+04 0.  0.
        2    1    3    3  502    0  0.21222519767E+03 -0.73279943934E+03  0.13024933766E+04  0.15094779061E+04  0.25500000920E-02 0. -1.
       -2    1    3    3    0  502 -0.21222519767E+03  0.73279943934E+03 -0.18026504307E+03  0.78391966335E+03  0.25500000920E-02 0.  1.
</event>
<event>
 5   0  0.5030137E-06  0.1995263E+04  0.7818609E-02  0.8608839E-01
       -2   -1    0    0    0  501  0.00000000000E+00  0.00000000000E+00  0.77013128588E+03  0.77013128589E+03  0.25500000920E-02 0.  1.
        2   -1    0    0  501    0  0.00000000000E+00  0.00000000000E+00 -0.12923356614E+04  0.12923356614E+04  0.25500000920E-02 0. -1.
    10030    2    1    2    0    0  0.00000000000E+00  0.00000000000E+00 -0.52220437551E+03  0.20624669473E+04  0.19952625138E+04 0.  0.
        3    1    3    3  502    0 -0.30690347289E+03 -0.16468075725E+02  0.71997431101E+03  0.78283073388E+03  0.10100000352E+00 0.  1.
       -3    1    3    3    0  502  0.30690347289E+03  0.16468075725E+02 -0.12421786865E+04  0.12796362134E+04  0.10100000352E+00 0. -1.
</event>
<event>
 5   0  0.2379743E-06  0.1999936E+04  0.7818609E-02  0.8606650E-01
       -1   -1    0    0    0  501  0.00000000000E+00  0.00000000000E+00  0.16626146766E+04  0.16626146766E+04  0.50400001928E-02 0. -1.
        1   -1    0    0  501    0  0.00000000000E+00  0.00000000000E+00 -0.60142403096E+03  0.60142403098E+03  0.50400001928E-02 0.  1.
    10030    2    1    2    0    0  0.00000000000E+00  0.00000000000E+00  0.10611906457E+04  0.22640387076E+04  0.19999364198E+04 0.  0.
        5    1    3    3  502    0 -0.26324380404E+03  0.41845119469E+03  0.15145823767E+04  0.15932296032E+04  0.46999998093E+01 0. -1.
       -5    1    3    3    0  502  0.26324380404E+03 -0.41845119469E+03 -0.45339173108E+03  0.67080910437E+03  0.46999998093E+01 0.  1.
</event>
<event>
 5   0  0.2386776E-06  0.2000466E+04  0.7818609E-02  0.8606403E-01
       -1   -1    0    0    0  501  0.00000000000E+00  0.00000000000E+00  0.10192320598E+04  0.10192320599E+04  0.50400001928E-02 0.  1.
        1   -1    0    0  501    0  0.00000000000E+00  0.00000000000E+00 -0.98158841985E+03  0.98158841986E+03  0.50400001928E-02 0. -1.
    10030    2    1    2    0    0  0.00000000000E+00  0.00000000000E+00  0.37643639997E+02  0.20008204797E+04  0.20004663327E+04 0.  0.
        2    1    3    3  502    0  0.50273295537E+03 -0.36486641389E+03  0.80292391119E+03  0.10151624164E+04  0.25500000920E-02 0.  1.
       -2    1    3    3    0  502 -0.50273295537E+03  0.36486641389E+03 -0.76528027120E+03  0.98565806337E+03  0.25500000920E-02 0. -1.
</event>
<event>
 5   0  0.4956214E-06  0.2000599E+04  0.7818609E-02  0.8606341E-01
        2   -1    0    0  501    0  0.00000000000E+00  0.00000000000E+00  0.43636974006E+03  0.43636974006E+03  0.25500000920E-02 0. -1.
       -2   -1    0    0    0  501  0.00000000000E+00  0.00000000000E+00 -0.22930069808E+04  0.22930069808E+04  0.25500000920E-02 0.  1.
    10030    2    1    2    0    0  0.00000000000E+00  0.00000000000E+00 -0.18566372407E+04  0.27293767208E+04  0.20005987705E+04 0.  0.
        1    1    3    3  502    0  0.61314924592E+03  0.76432528801E+03 -0.12027177305E+04  0.15513462163E+04  0.50400001928E-02 0.  1.
       -1    1    3    3    0  502 -0.61314924592E+03 -0.76432528801E+03 -0.65391951023E+03  0.11780305045E+04  0.50400001928E-02 0. -1.
</event>
<event>
 5   0  0.5129100E-06  0.2000232E+04  0.7818609E-02  0.8606512E-01
       -2   -1    0    0    0  501  0.00000000000E+00  0.00000000000E+00  0.13353469214E+04  0.13353469214E+04  0.25500000920E-02 0.  1.
        2   -1    0    0  501    0  0.00000000000E+00  0.00000000000E+00 -0.74904291749E+03  0.74904291750E+03  0.25500000920E-02 0. -1.
    10030    2    1    2    0    0  0.00000000000E+00  0.00000000000E+00  0.58630400386E+03  0.20843898389E+04  0.20002321404E+04 0.  0.
        2    1    3    3  502    0 -0.13930514463E+03  0.80120990075E+03 -0.31348267809E+03  0.87155872885E+03  0.25500000920E-02 0. -1.
       -2    1    3    3    0  502  0.13930514463E+03 -0.80120990075E+03  0.89978668195E+03  0.12128311100E+04  0.25500000920E-02 0.  1.
</event>
<event>
 5   0  0.2386776E-06  0.2000269E+04  0.7818609E-02  0.8606495E-01
       -1   -1    0    0    0  501  0.00000000000E+00  0.00000000000E+00  0.91841713409E+03  0.91841713411E+03  0.50400001928E-02 0.  1.
        1   -1    0    0  501    0  0.00000000000E+00  0.00000000000E+00 -0.10891232310E+04  0.10891232311E+04  0.50400001928E-02 0. -1.
    10030    2    1    2    0    0  0.00000000000E+00  0.00000000000E+00 -0.17070609695E+03  0.20075403652E+04  0.20002694184E+04 0.  0.
        2    1    3    3  502    0 -0.83037185271E+03 -0.51711709644E+03 -0.29429705641E+03  0.10215372057E+04  0.25500000920E-02 0. -1.
       -2    1    3    3    0  502  0.83037185271E+03  0.51711709644E+03  0.12359095946E+03  0.98600315947E+03  0.25500000920E-02 0.  1.
</event>
<event>
 5   0  0.5118981E-06  0.2001049E+04  0.7818609E-02  0.8606130E-01
       -2   -1    0    0    0  501  0.00000000000E+00  0.00000000000E+00  0.84226800267E+03  0.84226800267E+03  0.25500000920E-02 0.  1.
        2   -1    0    0  501    0  0.00000000000E+00  0.00000000000E+00 -0.11885162323E+04  0.11885162323E+04  0.25500000920E-02 0. -1.
    10030    2    1    2    0    0  0.00000000000E+00  0.00000000000E+00 -0.34624822960E+03  0.20307842349E+04  0.20010489180E+04 0.  0.
        4    1    3    3  502    0  0.62776610088E+02 -0.70315964700E+03  0.54640593865E+03  0.89271241430E+03  0.12699999809E+01 0.  1.
       -4    1    3    3    0  502 -0.62776610088E+02  0.70315964700E+03 -0.89265416825E+03  0.11380718206E+04  0.12699999809E+01 0. -1.
</event>
<event>
 5   0  0.5251252E-06  0.1996743E+04  0.7818609E-02  0.8608145E-01
        2   -1    0    0  501    0  0.00000000000E+00  0.00000000000E+00  0.20405769103E+04  0.20405769103E+04  0.25500000920E-02 0. -1.
       -2   -1    0    0    0  501  0.00000000000E+00  0.00000000000E+00 -0.48846242865E+03  0.48846242866E+03  0.25500000920E-02 0.  1.
    10030    2    1    2    0    0  0.00000000000E+00  0.00000000000E+00  0.15521144816E+04  0.25290393389E+04  0.19967425006E+04 0.  0.
        5    1    3    3  502    0  0.79430425527E+02 -0.49844726279E+03  0.18670578610E+04  0.19340853168E+04  0.46999998093E+01 0. -1.
       -5    1    3    3    0  502 -0.79430425527E+02  0.49844726279E+03 -0.31494337936E+03  0.59495402216E+03  0.46999998093E+01 0.  1.
</event>
<event>
 5   0  0.5118981E-06  0.1999365E+04  0.7818609E-02  0.8606918E-01
        2   -1    0    0  501    0  0.00000000000E+00  0.00000000000E+00  0.84398977794E+03  0.84398977794E+03  0.25500000920E-02 0. -1.
       -2   -1    0    0    0  501  0.00000000000E+00  0.00000000000E+00 -0.11840961335E+04  0.11840961335E+04  0.25500000920E-02 0.  1.
    10030    2    1    2    0    0  0.00000000000E+00  0.00000000000E+00 -0.34010635559E+03  0.20280859115E+04  0.19993649320E+04 0.  0.
        4    1    3    3  502    0  0.25022873941E+03  0.63798146733E+03  0.56822665761E+03  0.89023475668E+03  0.12699999809E+01 0. -1.
       -4    1    3    3    0  502 -0.25022873941E+03 -0.63798146733E+03 -0.90833301320E+03  0.11378511548E+04  0.12699999809E+01 0.  1.
</event>
<event>
 5   0  0.5129100E-06  0.2000357E+04  0.7818609E-02  0.8606454E-01
        2   -1    0    0  501    0  0.00000000000E+00  0.00000000000E+00  0.21375383927E+04  0.21375383927E+04  0.25500000920E-02 0.  1.
       -2   -1    0    0    0  501  0.00000000000E+00  0.00000000000E+00 -0.46799492555E+03  0.46799492556E+03  0.25500000920E-02 0. -1.
    10030    2    1    2    0    0  0.00000000000E+00  0.00000000000E+00  0.16695434672E+04  0.26055333183E+04  0.20003570891E+04 0.  0.
        2    1    3    3  502    0 -0.19094884877E+02  0.79334713620E+03  0.41836699803E+02  0.79467893051E+03  0.25500000920E-02 0. -1.
       -2    1    3    3    0  502  0.19094884877E+02 -0.79334713620E+03  0.16277067674E+04  0.18108543878E+04  0.25500000920E-02 0.  1.
</event>
<event>
 5   0  0.1777750E-06  0.1999594E+04  0.7818609E-02  0.8606811E-01
        4   -1    0    0  501    0  0.00000000000E+00  0.00000000000E+00  0.90792559102E+03  0.90792647925E+03  0.12699999809E+01 0.  1.
       -4   -1    0    0    0  501  0.00000000000E+00  0.00000000000E+00 -0.11009626031E+04  0.11009633356E+04  0.12699999809E+01 0. -1.
    10030    2    1    2    0    0  0.00000000000E+00  0.00000000000E+00 -0.19303701206E+03  0.20088898148E+04  0.19995937087E+04 0.  0.
        5    1    3    3  502    0 -0.80482179924E+03 -0.10344858937E+03  0.49026180777E+03  0.94806037219E+03  0.46999998093E+01 0.  1.
       -5    1    3    3    0  502  0.80482179924E+03  0.10344858937E+03 -0.68329881983E+03  0.10608294426E+04  0.46999998093E+01 0. -1.
</event>
<event>
 5   0  0.2313821E-06  0.1998981E+04  0.7818609E-02  0.8607097E-01
        1   -1    0    0  501    0  0.00000000000E+00  0.00000000000E+00  0.17933218271E+04  0.17933218271E+04  0.50400001928E-02 0. -1.
       -1   -1    0    0    0  501  0.00000000000E+00  0.00000000000E+00 -0.55705641655E+03  0.55705641658E+03  0.50400001928E-02 0.  1.
    10030    2    1    2    0    0  0.00000000000E+00  0.00000000000E+00  0.12362654105E+04  0.23503782437E+04  0.19989811713E+04 0.  0.
        1    1    3    3  502    0  0.74669390278E+02 -0.40590873899E+03  0.16884512549E+04  0.17381614029E+04  0.50400001928E-02 0. -1.
       -1    1    3    3    0  502 -0.74669390278E+02  0.40590873899E+03 -0.45218584439E+03  0.61221684077E+03  0.50400001928E-02 0.  1.
</event>
<event>
 5   0  0.5030137E-06  0.1998252E+04  0.7818609E-02  0.8607438E-01
       -2   -1    0    0    0  501  0.00000000000E+00  0.00000000000E+00  0.56468508007E+03  0.56468508008E+03  0.25500000920E-02 0.  1.
        2   -1    0    0  501    0  0.00000000000E+00  0.00000000000E+00 -0.17678041746E+04  0.17678041746E+04  0.25500000920E-02 0. -1.
    10030    2    1    2    0    0  0.00000000000E+00  0.00000000000E+00 -0.12031190946E+04  0.23324892547E+04  0.19982518779E+04 0.  0.
        3    1    3    3  502    0 -0.18617646981E+03  0.49176864883E+03 -0.15932227243E+04  0.16777534805E+04  0.10100000352E+00 0. -1.
       -3    1    3    3    0  502  0.18617646981E+03 -0.49176864883E+03  0.39010362975E+03  0.65473577421E+03  0.10100000352E+00 0.  1.
</event>
<event>
 5   0  0.2313821E-06  0.1999794E+04  0.7818609E-02  0.8606717E-01
       -1   -1    0    0    0  501  0.00000000000E+00  0.00000000000E+00  0.61695165635E+03  0.61695165637E+03  0.50400001928E-02 0. -1.
        1   -1    0    0  501    0  0.00000000000E+00  0.00000000000E+00 -0.16205394242E+04  0.16205394242E+04  0.50400001928E-02 0.  1.
    10030    2    1    2    0    0  0.00000000000E+00  0.00000000000E+00 -0.10035877678E+04  0.22374910806E+04  0.19997944714E+04 0.  0.
        1    1    3    3  502    0 -0.10318927874E+03  0.90849709107E+03 -0.48994625591E+02  0.91565029629E+03  0.50400001928E-02 0. -1.
       -1    1    3    3    0  502  0.10318927874E+03 -0.90849709107E+03 -0.95459314224E+03  0.13218407843E+04  0.50400001928E-02 0.  1.
</event>
<event>
 5   0  0.5129100E-06  0.1999763E+04  0.7818609E-02  0.8606731E-01
       -2   -1    0    0    0  501  0.00000000000E+00  0.00000000000E+00  0.45428738624E+03  0.45428738625E+03  0.25500000920E-02 0. -1.
        2   -1    0    0  501    0  0.00000000000E+00  0.00000000000E+00 -0.22007280897E+04  0.22007280897E+04  0.25500000920E-02 0.  1.
    10030    2    1    2    0    0  0.00000000000E+00  0.00000000000E+00 -0.17464407035E+04  0.26550154760E+04  0.19997629977E+04 0.  0.
        2    1    3    3  502    0 -0.74703404836E+03 -0.19481618590E+03 -0.17168361161E+04  0.18824291395E+04  0.25500000920E-02 0.  1.
       -2    1    3    3    0  502  0.74703404836E+03  0.19481618590E+03 -0.29604587366E+02  0.77258633646E+03  0.25500000920E-02 0. -1.
</event>
<event>
 5   0  0.5251252E-06  0.1995406E+04  0.7818609E-02  0.8608772E-01
        2   -1    0    0  501    0  0.00000000000E+00  0.00000000000E+00  0.86252261828E+03  0.86252261828E+03  0.25500000920E-02 0. -1.
       -2   -1    0    0    0  501  0.00000000000E+00  0.00000000000E+00 -0.11540697495E+04  0.11540697495E+04  0.25500000920E-02 0.  1.
    10030    2    1    2    0    0  0.00000000000E+00  0.00000000000E+00 -0.29154713126E+03  0.20165923678E+04  0.19954059858E+04 0.  0.
        5    1    3    3  502    0 -0.42177672453E+03  0.47039348859E+02  0.76674240382E+03  0.87636996155E+03  0.46999998093E+01 0. -1.
       -5    1    3    3    0  502  0.42177672453E+03 -0.47039348859E+02 -0.10582895351E+04  0.11402224063E+04  0.46999998093E+01 0.  1.
</event>
<event>
 5   0  0.2311520E-06  0.1999404E+04  0.7818609E-02  0.8606899E-01
        1   -1    0    0  501    0  0.00000000000E+00  0.00000000000E+00  0.90945080652E+03  0.90945080654E+03  0.50400001928E-02 0.  1.
       -1   -1    0    0    0  501  0.00000000000E+00  0.00000000000E+00 -0.10989094650E+04  0.10989094650E+04  0.50400001928E-02 0. -1.
    10030    2    1    2    0    0  0.00000000000E+00  0.00000000000E+00 -0.18945865846E+03  0.20083602715E+04  0.19994040105E+04 0.  0.
        3    1    3    3  502    0  0.84770094052E+03  0.35096601328E+03 -0.49353432141E+03  0.10418014032E+04  0.10100000352E+00 0. -1.
       -3    1    3    3    0  502 -0.84770094052E+03 -0.35096601328E+03  0.30407566295E+03  0.96655886837E+03  0.10100000352E+00 0.  1.
</event>
<event>
 5   0  0.2313821E-06  0.1999200E+04  0.7818609E-02  0.8606995E-01
       -1   -1    0    0    0  501  0.00000000000E+00  0.00000000000E+00  0.82146072345E+03  0.82146072347E+03  0.50400001928E-02 0.  1.
        1   -1    0    0  501    0  0.00000000000E+00  0.00000000000E+00 -0.12163697540E+04  0.12163697540E+04  0.50400001928E-02 0. -1.
    10030    2    1    2    0    0  0.00000000000E+00  0.00000000000E+00 -0.39490903051E+03  0.20378304774E+04  0.19991998180E+04 0.  0.
        1    1    3    3  502    0 -0.82581319525E+03 -0.22117615735E+03  0.33054464870E+03  0.91659483461E+03  0.50400001928E-02 0.  1.
       -1    1    3    3    0  502  0.82581319525E+03  0.22117615735E+03 -0.72545367921E+03  0.11212356428E+04  0.50400001928E-02 0. -1.
</event>
<event>
 5   0  0.2379743E-06  0.1999309E+04  0.7818609E-02  0.8606944E-01
       -1   -1    0    0    0  501  0.00000000000E+00  0.00000000000E+00  0.74587167511E+03  0.74587167513E+03  0.50400001928E-02 0. -1.
        1   -1    0    0  501    0  0.00000000000E+00  0.00000000000E+00 -0.13397874103E+04  0.13397874103E+04  0.50400001928E-02 0.  1.
    10030    2    1    2    0    0  0.00000000000E+00  0.00000000000E+00 -0.59391573516E+03  0.20856590854E+04  0.19993093608E+04 0.  0.
        5    1    3    3  502    0 -0.33076895846E+03 -0.62980416893E+03  0.43567483608E+03  0.83420384072E+03  0.46999998093E+01 0. -1.
       -5    1    3    3    0  502  0.33076895846E+03  0.62980416893E+03 -0.10295905712E+04  0.12514552447E+04  0.46999998093E+01 0.  1.
</event>
<event>
 5   0  0.1777750E-06  0.1999981E+04  0.7818609E-02  0.8606630E-01
       -3   -1    0    0    0  501  0.00000000000E+00  0.00000000000E+00  0.27091713885E+04  0.27091713904E+04  0.10100000352E+00 0.  1.
        3   -1    0    0  501    0  0.00000000000E+00  0.00000000000E+00 -0.36910944976E+03  0.36910946358E+03  0.10100000352E+00 0. -1.
    10030    2    1    2    0    0  0.00000000000E+00  0.00000000000E+00  0.23400619388E+04  0.30782808540E+04  0.19999807846E+04 0.  0.
        1    1    3    3  502    0 -0.19176215317E+03 -0.24728414467E+03 -0.29180888142E+03  0.42787217121E+03  0.50400001928E-02 0. -1.
       -1    1    3    3    0  502  0.19176215317E+03  0.24728414467E+03  0.26318708202E+04  0.26504086828E+04  0.50400001928E-02 0.  1.
</event>
<event>
 5   0  0.2311520E-06  0.1998892E+04  0.7818609E-02  0.8607139E-01
        1   -1    0    0  501    0  0.00000000000E+00  0.00000000000E+00  0.16996538535E+04  0.16996538535E+04  0.50400001928E-02 0. -1.
       -1   -1    0    0    0  501  0.00000000000E+00  0.00000000000E+00 -0.58770326401E+03  0.58770326404E+03  0.50400001928E-02 0.  1.
    10030    2    1    2    0    0  0.00000000000E+00  0.00000000000E+00  0.11119505895E+04  0.22873571176E+04  0.19988918104E+04 0.  0.
        3    1    3    3  502    0 -0.50685779952E+03 -0.82683533395E+03  0.27960399501E+03  0.10093264599E+04  0.10100000352E+00 0.  1.
       -3    1    3    3    0  502  0.50685779952E+03  0.82683533395E+03  0.83234659449E+03  0.12780306577E+04  0.10100000352E+00 0. -1.
</event>
<event>
 5   0  0.5251252E-06  0.2000980E+04  0.7818609E-02  0.8606163E-01
       -2   -1    0    0    0  501  0.00000000000E+00  0.00000000000E+00  0.13022018407E+04  0.13022018407E+04  0.25500000920E-02 0. -1.
        2   -1    0    0  501    0  0.00000000000E+00  0.00000000000E+00 -0.76868273971E+03  0.76868273971E+03  0.25500000920E-02 0.  1.
    10030    2    1    2    0    0  0.00000000000E+00  0.00000000000E+00  0.53351910104E+03  0.20708845805E+04  0.20009798386E+04 0.  0.
        5    1    3    3  502    0  0.32691334443E+03 -0.51686385676E+03 -0.55269575882E+03  0.82432716382E+03  0.46999998093E+01 0.  1.
       -5    1    3    3    0  502 -0.32691334443E+03  0.51686385676E+03  0.10862148599E+04  0.12465574166E+04  0.46999998093E+01 0. -1.
</event>
<event>
 5   0  0.1777750E-06  0.2000331E+04  0.7818609E-02  0.8606466E-01
        3   -1    0    0  501    0  0.00000000000E+00  0.00000000000E+00  0.11733802413E+04  0.11733802456E+04  0.10100000352E+00 0. -1.
       -3   -1    0    0    0  501  0.00000000000E+00  0.00000000000E+00 -0.85252081553E+03  0.85252082151E+03  0.10100000352E+00 0.  1.
    10030    2    1    2    0    0  0.00000000000E+00  0.00000000000E+00  0.32085942577E+03  0.20259010672E+04  0.20003310633E+04 0.  0.
        1    1    3    3  502    0  0.45935654338E+03 -0.79636244555E+03 -0.23846985627E+03  0.94977336823E+03  0.50400001928E-02 0.  1.
       -1    1    3    3    0  502 -0.45935654338E+03  0.79636244555E+03  0.55932928204E+03  0.10761276989E+04  0.50400001928E-02 0. -1.
</event>
<event>
 5   0  0.5251252E-06  0.2000178E+04  0.7818609E-02  0.8606538E-01
        2   -1    0    0  501    0  0.00000000000E+00  0.00000000000E+00  0.10956006396E+04  0.10956006396E+04  0.25500000920E-02 0.  1.
       -2   -1    0    0    0  501  0.00000000000E+00  0.00000000000E+00 -0.91290341178E+03  0.91290341178E+03  0.25500000920E-02 0. -1.
    10030    2    1    2    0    0  0.00000000000E+00  0.00000000000E+00  0.18269722782E+03  0.20085040514E+04  0.20001775540E+04 0.  0.
        5    1    3    3  502    0  0.61139821103E+03 -0.61805674250E+03  0.58772772879E+03  0.10494035842E+04  0.46999998093E+01 0.  1.
       -5    1    3    3    0  502 -0.61139821103E+03  0.61805674250E+03 -0.40503050097E+03  0.95910046716E+03  0.46999998093E+01 0. -1.
</event>
<event>
 5   0  0.2313821E-06  0.1999732E+04  0.7818609E-02  0.8606746E-01
        1   -1    0    0  501    0  0.00000000000E+00  0.00000000000E+00  0.13625539828E+04  0.13625539828E+04  0.50400001928E-02 0. -1.
       -1   -1    0    0    0  501  0.00000000000E+00  0.00000000000E+00 -0.73371892056E+03  0.73371892058E+03  0.50400001928E-02 0.  1.
    10030    2    1    2    0    0  0.00000000000E+00  0.00000000000E+00  0.62883506220E+03  0.20962729033E+04  0.19997316195E+04 0.  0.
        1    1    3    3  502    0 -0.37053671417E+03  0.37858299054E+03 -0.57452461922E+03  0.78147365624E+03  0.50400001928E-02 0.  1.
       -1    1    3    3    0  502  0.37053671417E+03 -0.37858299054E+03  0.12033596814E+04  0.13147992471E+04  0.50400001928E-02 0. -1.
</event>
<event>
 5   0  0.2379743E-06  0.1999540E+04  0.7818609E-02  0.8606836E-01
        1   -1    0    0  501    0  0.00000000000E+00  0.00000000000E+00  0.86158863243E+03  0.86158863245E+03  0.50400001928E-02 0. -1.
       -1   -1    0    0    0  501  0.00000000000E+00  0.00000000000E+00 -0.11601134173E+04  0.11601134173E+04  0.50400001928E-02 0.  1.
    10030    2    1    2    0    0  0.00000000000E+00  0.00000000000E+00 -0.29852478483E+03  0.20217020497E+04  0.19995404799E+04 0.  0.
        5    1    3    3  502    0 -0.52687643654E+02 -0.91989324038E+02  0.85587874125E+03  0.86243175571E+03  0.46999998093E+01 0. -1.
       -5    1    3    3    0  502  0.52687643654E+02  0.91989324038E+02 -0.11544035261E+04  0.11592702940E+04  0.46999998093E+01 0.  1.
</event>
<event>
 5   0  0.5030137E-06  0.1999625E+04  0.7818609E-02  0.8606796E-01
       -2   -1    0    0    0  501  0.00000000000E+00  0.00000000000E+00  0.75804748124E+03  0.75804748124E+03  0.25500000920E-02 0.  1.
        2   -1    0    0  501    0  0.00000000000E+00  0.00000000000E+00 -0.13186836177E+04  0.13186836177E+04  0.25500000920E-02 0. -1.
    10030    2    1    2    0    0  0.00000000000E+00  0.00000000000E+00 -0.56063613646E+03  0.20767310989E+04  0.19996247598E+04 0.  0.
        3    1    3    3  502    0  0.28520472400E+02 -0.78561584325E+03  0.36125602741E+03  0.86516564775E+03  0.10100000352E+00 0.  1.
       -3    1    3    3    0  502 -0.28520472400E+02  0.78561584325E+03 -0.92189216387E+03  0.12115654512E+04  0.10100000352E+00 0. -1.
</event>
<event>
 5   0  0.5251252E-06  0.2000204E+04  0.7818609E-02  0.8606525E-01
        2   -1    0    0  501    0  0.00000000000E+00  0.00000000000E+00  0.20197017007E+04  0.20197017007E+04  0.25500000920E-02 0.  1.
       -2   -1    0    0    0  501  0.00000000000E+00  0.00000000000E+00 -0.49522365214E+03  0.49522365215E+03  0.25500000920E-02 0. -1.
    10030    2    1    2    0    0  0.00000000000E+00  0.00000000000E+00  0.15244780486E+04  0.25149253529E+04  0.20002040421E+04 0.  0.
        5    1    3    3  502    0 -0.91531880262E+03 -0.25738389364E+03  0.11520674061E+04  0.14937658375E+04  0.46999998093E+01 0.  1.
       -5    1    3    3    0  502  0.91531880262E+03  0.25738389364E+03  0.37241064245E+03  0.10211595153E+04  0.46999998093E+01 0. -1.
</event>
<event>
 5   0  0.1777750E-06  0.2001176E+04  0.7818609E-02  0.8606071E-01
       -3   -1    0    0    0  501  0.00000000000E+00  0.00000000000E+00  0.70481151260E+03  0.70481151984E+03  0.10100000352E+00 0. -1.
        3   -1    0    0  501    0  0.00000000000E+00  0.00000000000E+00 -0.14204882728E+04  0.14204882764E+04  0.10100000352E+00 0.  1.
    10030    2    1    2    0    0  0.00000000000E+00  0.00000000000E+00 -0.71567676022E+03  0.21252997963E+04  0.20011761539E+04 0.  0.
        3    1    3    3  502    0 -0.17704929958E+03  0.18887118808E+03  0.66862859815E+03  0.71699581075E+03  0.10100000352E+00 0. -1.
       -3    1    3    3    0  502  0.17704929958E+03 -0.18887118808E+03 -0.13843053584E+04  0.14083039855E+04  0.10100000352E+00 0.  1.
</event>
<event>
 5   0  0.5118981E-06  0.1999456E+04  0.7818609E-02  0.8606875E-01
       -2   -1    0    0    0  501  0.00000000000E+00  0.00000000000E+00  0.40094363449E+03  0.40094363450E+03  0.25500000920E-02 0. -1.
        2   -1    0    0  501    0  0.00000000000E+00  0.00000000000E+00 -0.24927595093E+04  0.24927595093E+04  0.25500000920E-02 0.  1.
    10030    2    1    2    0    0  0.00000000000E+00  0.00000000000E+00 -0.20918158748E+04  0.28937031438E+04  0.19994559836E+04 0.  0.
        4    1    3    3  502    0  0.38530466748E+03 -0.87935277708E+03 -0.64240555479E+03  0.11551655739E+04  0.12699999809E+01 0. -1.
       -4    1    3    3    0  502 -0.38530466748E+03  0.87935277708E+03 -0.14494103200E+04  0.17385375699E+04  0.12699999809E+01 0.  1.
</event>
<event>
 5   0  0.2311520E-06  0.1999868E+04  0.7818609E-02  0.8606682E-01
       -1   -1    0    0    0  501  0.00000000000E+00  0.00000000000E+00  0.13102170055E+04  0.13102170055E+04  0.50400001928E-02 0. -1.
        1   -1    0    0  501    0  0.00000000000E+00  0.00000000000E+00 -0.76313179173E+03  0.76313179175E+03  0.50400001928E-02 0.  1.
    10030    2    1    2    0    0  0.00000000000E+00  0.00000000000E+00  0.54708521378E+03  0.20733487973E+04  0.19998682467E+04 0.  0.
        3    1    3    3  502    0  0.46476276108E+03  0.48772603919E+03 -0.49251633465E+03  0.83453787421E+03  0.10100000352E+00 0.  1.
       -3    1    3    3    0  502 -0.46476276108E+03 -0.48772603919E+03  0.10396015484E+04  0.12388109231E+04  0.10100000352E+00 0. -1.
</event>
<event>
 5   0  0.2356996E-06  0.1999283E+04  0.7818609E-02  0.8606956E-01
        1   -1    0    0  501    0  0.00000000000E+00  0.00000000000E+00  0.11958598196E+04  0.11958598196E+04  0.50400001928E-02 0. -1.
       -1   -1    0    0    0  501  0.00000000000E+00  0.00000000000E+00 -0.83561900620E+03  0.83561900622E+03  0.50400001928E-02 0.  1.
    10030    2    1    2    0    0  0.00000000000E+00  0.00000000000E+00  0.36024081337E+03  0.20314788258E+04  0.19992830655E+04 0.  0.
        4    1    3    3  502    0  0.15662459703E+03 -0.27337861029E+03 -0.78384789737E+03  0.84479954313E+03  0.12699999809E+01 0.  1.
       -4    1    3    3    0  502 -0.15662459703E+03  0.27337861029E+03  0.11440887107E+04  0.11866792827E+04  0.12699999809E+01 0. -1.
</event>
<event>
 5   0  0.2356996E-06  0.2000183E+04  0.7818609E-02  0.8606535E-01
        1   -1    0    0  501    0  0.00000000000E+00  0.00000000000E+00  0.79058014858E+03  0.79058014859E+03  0.50400001928E-02 0. -1.
       -1   -1    0    0    0  501  0.00000000000E+00  0.00000000000E+00 -0.12651250524E+04  0.12651250524E+04  0.50400001928E-02 0.  1.
    10030    2    1    2    0    0  0.00000000000E+00  0.00000000000E+00 -0.47454490385E+03  0.20557052010E+04  0.20001827436E+04 0.  0.
        4    1    3    3  502    0  0.88954943679E+03 -0.43490749464E+03 -0.38166581702E+03  0.10611847804E+04  0.12699999809E+01 0. -1.
       -4    1    3    3    0  502 -0.88954943679E+03  0.43490749464E+03 -0.92879086839E+02  0.99452042063E+03  0.12699999809E+01 0.  1.
</event>
<event>
 5   0  0.2356996E-06  0.1999695E+04  0.7818609E-02  0.8606763E-01
        1   -1    0    0  501    0  0.00000000000E+00  0.00000000000E+00  0.22867069866E+04  0.22867069866E+04  0.50400001928E-02 0. -1.
       -1   -1    0    0    0  501  0.00000000000E+00  0.00000000000E+00 -0.43717665834E+03  0.43717665837E+03  0.50400001928E-02 0.  1.
    10030    2    1    2    0    0  0.00000000000E+00  0.00000000000E+00  0.18495303283E+04  0.27238836450E+04  0.19996948958E+04 0.  0.
        4    1    3    3  502    0 -0.48089332141E+03  0.70755663857E+03  0.16296674235E+04  0.18405739071E+04  0.12699999809E+01 0.  1.
       -4    1    3    3    0  502  0.48089332141E+03 -0.70755663857E+03  0.21986290484E+03  0.88330973796E+03  0.12699999809E+01 0. -1.
</event>
<event>
 5   0  0.2313821E-06  0.2002577E+04  0.7818609E-02  0.8605417E-01
        1   -1    0    0  501    0  0.00000000000E+00  0.00000000000E+00  0.21954144922E+04  0.21954144922E+04  0.50400001928E-02 0.  1.
       -1   -1    0    0    0  501  0.00000000000E+00  0.00000000000E+00 -0.45666958883E+03  0.45666958886E+03  0.50400001928E-02 0. -1.
    10030    2    1    2    0    0  0.00000000000E+00  0.00000000000E+00  0.17387449034E+04  0.26520840811E+04  0.20025773728E+04 0.  0.
        1    1    3    3  502    0 -0.49345172002E+03  0.80131438103E+03  0.41641935967E+03  0.10290794043E+04  0.50400001928E-02 0. -1.
       -1    1    3    3    0  502  0.49345172002E+03 -0.80131438103E+03  0.13223255437E+04  0.16230046768E+04  0.50400001928E-02 0.  1.
</event>
<event>
 5   0  0.2379743E-06  0.1999473E+04  0.7818609E-02  0.8606867E-01
        1   -1    0    0  501    0  0.00000000000E+00  0.00000000000E+00  0.13769920079E+04  0.13769920079E+04  0.50400001928E-02 0. -1.
       -1   -1    0    0    0  501  0.00000000000E+00  0.00000000000E+00 -0.72583769610E+03  0.72583769612E+03  0.50400001928E-02 0.  1.
    10030    2    1    2    0    0  0.00000000000E+00  0.00000000000E+00  0.65115431183E+03  0.21028297041E+04  0.19994726371E+04 0.  0.
        5    1    3    3  502    0 -0.55190383303E+03  0.28894410052E+03 -0.49673857457E+03  0.79677966566E+03  0.46999998093E+01 0.  1.
       -5    1    3    3    0  502  0.55190383303E+03 -0.28894410052E+03  0.11478928864E+04  0.13060500384E+04  0.46999998093E+01 0. -1.
</event>
<event>
 5   0  0.5118981E-06  0.2000064E+04  0.7818609E-02  0.8606591E-01
       -2   -1    0    0    0  501  0.00000000000E+00  0.00000000000E+00  0.63880333314E+03  0.63880333314E+03  0.25500000920E-02 0. -1.
        2   -1    0    0  501    0  0.00000000000E+00  0.00000000000E+00 -0.15655266520E+04  0.15655266520E+04  0.25500000920E-02 0.  1.
    10030    2    1    2    0    0  0.00000000000E+00  0.00000000000E+00 -0.92672331884E+03  0.22043299851E+04  0.20000636424E+04 0.  0.
        4    1    3    3  502    0 -0.26097579130E+03 -0.57012201907E+03  0.39524957730E+03  0.74119587258E+03  0.12699999809E+01 0. -1.
       -4    1    3    3    0  502  0.26097579130E+03  0.57012201907E+03 -0.13219728961E+04  0.14631341125E+04  0.12699999809E+01 0.  1.
</event>
<event>
 5   0  0.2379743E-06  0.1999742E+04  0.7818609E-02  0.8606741E-01
        1   -1    0    0  501    0  0.00000000000E+00  0.00000000000E+00  0.13848958754E+04  0.13848958754E+04  0.50400001928E-02 0. -1.
       -1   -1    0    0    0  501  0.00000000000E+00  0.00000000000E+00 -0.72188965928E+03  0.72188965930E+03  0.50400001928E-02 0.  1.
    10030    2    1    2    0    0  0.00000000000E+00  0.00000000000E+00  0.66300621613E+03  0.21067855347E+04  0.19997419950E+04 0.  0.
        5    1    3    3  502    0  0.55654876185E+03 -0.31721165822E+03 -0.47728184740E+03  0.79886783155E+03  0.46999998093E+01 0.  1.
       -5    1    3    3    0  502 -0.55654876185E+03  0.31721165822E+03  0.11402880635E+04  0.13079177032E+04  0.46999998093E+01 0. -1.
</event>
<event>
 5   0  0.5118981E-06  0.1999912E+04  0.7818609E-02  0.8606662E-01
        2   -1    0    0  501    0  0.00000000000E+00  0.00000000000E+00  0.66541713921E+03  0.66541713921E+03  0.25500000920E-02 0.  1.
       -2   -1    0    0    0  501  0.00000000000E+00  0.00000000000E+00 -0.15026845430E+04  0.15026845430E+04  0.25500000920E-02 0. -1.
    10030    2    1    2    0    0  0.00000000000E+00  0.00000000000E+00 -0.83726740381E+03  0.21681016822E+04  0.19999120478E+04 0.  0.
        4    1    3    3  502    0  0.64565287133E+03 -0.14406802552E+03 -0.12315537842E+04  0.13979805301E+04  0.12699999809E+01 0. -1.
       -4    1    3    3    0  502 -0.64565287133E+03  0.14406802552E+03  0.39428638043E+03  0.77012115211E+03  0.12699999809E+01 0.  1.
</event>
<event>
 5   0  0.2313821E-06  0.1999459E+04  0.7818609E-02  0.8606874E-01
        1   -1    0    0  501    0  0.00000000000E+00  0.00000000000E+00  0.11144091253E+04  0.11144091254E+04  0.50400001928E-02 0. -1.
       -1   -1    0    0    0  501  0.00000000000E+00  0.00000000000E+00 -0.89685080706E+03  0.89685080708E+03  0.50400001928E-02 0.  1.
    10030    2    1    2    0    0  0.00000000000E+00  0.00000000000E+00  0.21755831829E+03  0.20112599324E+04  0.19994586502E+04 0.  0.
        1    1    3    3  502    0 -0.38015122020E+01  0.94488983178E+03 -0.21968678116E+03  0.97009975133E+03  0.50400001928E-02 0. -1.
       -1    1    3    3    0  502  0.38015122020E+01 -0.94488983178E+03  0.43724509945E+03  0.10411601811E+04  0.50400001928E-02 0.  1.
</event>
<event>
 5   0  0.4956214E-06  0.1999116E+04  0.7818609E-02  0.8607034E-01
        2   -1    0    0  501    0  0.00000000000E+00  0.00000000000E+00  0.19844831953E+04  0.19844831953E+04  0.25500000920E-02 0. -1.
       -2   -1    0    0    0  501  0.00000000000E+00  0.00000000000E+00 -0.50346403773E+03  0.50346403774E+03  0.25500000920E-02 0.  1.
    10030    2    1    2    0    0  0.00000000000E+00  0.00000000000E+00  0.14810191575E+04  0.24879472330E+04  0.19991157268E+04 0.  0.
        1    1    3    3  502    0  0.44552422479E+03  0.85486016149E+03  0.41162029558E+03  0.10481932066E+04  0.50400001928E-02 0.  1.
       -1    1    3    3    0  502 -0.44552422479E+03 -0.85486016149E+03  0.10693988620E+04  0.14397540264E+04  0.50400001928E-02 0. -1.
</event>
<event>
 5   0  0.2311520E-06  0.2000087E+04  0.7818609E-02  0.8606580E-01
        1   -1    0    0  501    0  0.00000000000E+00  0.00000000000E+00  0.13718312705E+04  0.13718312705E+04  0.50400001928E-02 0. -1.
       -1   -1    0    0    0  501  0.00000000000E+00  0.00000000000E+00 -0.72901594491E+03  0.72901594493E+03  0.50400001928E-02 0.  1.
    10030    2    1    2    0    0  0.00000000000E+00  0.00000000000E+00  0.64281532562E+03  0.21008472155E+04  0.20000868681E+04 0.  0.
        3    1    3    3  502    0  0.29101858672E+03  0.26745367638E+03  0.12863063845E+04  0.13456624435E+04  0.10100000352E+00 0. -1.
       -3    1    3    3    0  502 -0.29101858672E+03 -0.26745367638E+03 -0.64349105886E+03  0.75518477200E+03  0.10100000352E+00 0.  1.
</event>
<event>
 5   0  0.5129100E-06  0.1999214E+04  0.7818609E-02  0.8606988E-01
       -2   -1    0    0    0  501  0.00000000000E+00  0.00000000000E+00  0.64941140625E+03  0.64941140625E+03  0.25500000920E-02 0.  1.
        2   -1    0    0  501    0  0.00000000000E+00  0.00000000000E+00 -0.15386453514E+04  0.15386453514E+04  0.25500000920E-02 0. -1.
    10030    2    1    2    0    0  0.00000000000E+00  0.00000000000E+00 -0.88923394517E+03  0.21880567577E+04  0.19992136868E+04 0.  0.
        2    1    3    3  502    0 -0.93220603923E+03 -0.35847959083E+03 -0.48971776417E+03  0.11123574988E+04  0.25500000920E-02 0.  1.
       -2    1    3    3    0  502  0.93220603923E+03  0.35847959083E+03 -0.39951618100E+03  0.10756992589E+04  0.25500000920E-02 0. -1.
</event>
<event>
 5   0  0.2313821E-06  0.1990194E+04  0.7818609E-02  0.8611219E-01
        1   -1    0    0  501    0  0.00000000000E+00  0.00000000000E+00  0.10864833639E+04  0.10864833639E+04  0.50400001928E-02 0.  1.
       -1   -1    0    0    0  501  0.00000000000E+00  0.00000000000E+00 -0.91139751760E+03  0.91139751761E+03  0.50400001928E-02 0. -1.
    10030    2    1    2    0    0  0.00000000000E+00  0.00000000000E+00  0.17508584626E+03  0.19978808815E+04  0.19901942023E+04 0.  0.
        1    1    3    3  502    0 -0.48475422926E+03 -0.19039571349E+03 -0.76365950978E+03  0.92434465293E+03  0.50400001928E-02 0. -1.
       -1    1    3    3    0  502  0.48475422926E+03  0.19039571349E+03  0.93874535604E+03  0.10735362286E+04  0.50400001928E-02 0.  1.
</event>
<event>
 5   0  0.2311520E-06  0.1999355E+04  0.7818609E-02  0.8606922E-01
       -1   -1    0    0    0  501  0.00000000000E+00  0.00000000000E+00  0.66880793637E+03  0.66880793639E+03  0.50400001928E-02 0. -1.
        1   -1    0    0  501    0  0.00000000000E+00  0.00000000000E+00 -0.14942332456E+04  0.14942332456E+04  0.50400001928E-02 0.  1.
    10030    2    1    2    0    0  0.00000000000E+00  0.00000000000E+00 -0.82542530921E+03  0.21630411820E+04  0.19993549494E+04 0.  0.
        3    1    3    3  502    0  0.15150185778E+03  0.96240270048E+03 -0.17035632029E+03  0.98903642848E+03  0.10100000352E+00 0. -1.
       -3    1    3    3    0  502 -0.15150185778E+03 -0.96240270048E+03 -0.65506898892E+03  0.11740047535E+04  0.10100000352E+00 0.  1.
</event>
<event>
 5   0  0.2313821E-06  0.1997932E+04  0.7818609E-02  0.8607588E-01
        1   -1    0    0  501    0  0.00000000000E+00  0.00000000000E+00  0.17181632931E+04  0.17181632931E+04  0.50400001928E-02 0. -1.
       -1   -1    0    0    0  501  0.00000000000E+00  0.00000000000E+00 -0.58081367963E+03  0.58081367965E+03  0.50400001928E-02 0.  1.
    10030    2    1    2    0    0  0.00000000000E+00  0.00000000000E+00  0.11373496135E+04  0.22989769728E+04  0.19979316750E+04 0.  0.
        1    1    3    3  502    0  0.16065614528E+03  0.85775615748E+03  0.92311657837E+01  0.87272059512E+03  0.50400001928E-02 0.  1.
       -1    1    3    3    0  502 -0.16065614528E+03 -0.85775615748E+03  0.11281184477E+04  0.14262563776E+04  0.50400001928E-02 0. -1.
</event>
<event>
 5   0  0.5251252E-06  0.2004184E+04  0.7818609E-02  0.8604667E-01
       -2   -1    0    0    0  501  0.00000000000E+00  0.00000000000E+00  0.11526968556E+04  0.11526968556E+04  0.25500000920E-02 0. -1.
        2   -1    0    0  501    0  0.00000000000E+00  0.00000000000E+00 -0.87116474195E+03  0.87116474195E+03  0.25500000920E-02 0.  1.
    10030    2    1    2    0    0  0.00000000000E+00  0.00000000000E+00  0.28153211362E+03  0.20238615975E+04  0.20041844813E+04 0.  0.
        5    1    3    3  502    0  0.59925273006E+03  0.54958641822E+03 -0.45066126310E+03  0.92965946972E+03  0.46999998093E+01 0.  1.
       -5    1    3    3    0  502 -0.59925273006E+03 -0.54958641822E+03  0.73219337672E+03  0.10942021278E+04  0.46999998093E+01 0. -1.
</event>
<event>
 5   0  0.5030137E-06  0.1999995E+04  0.7818609E-02  0.8606623E-01
        2   -1    0    0  501    0  0.00000000000E+00  0.00000000000E+00  0.10291685687E+04  0.10291685687E+04  0.25500000920E-02 0.  1.
       -2   -1    0    0    0  501  0.00000000000E+00  0.00000000000E+00 -0.97165297783E+03  0.97165297783E+03  0.25500000920E-02 0. -1.
    10030    2    1    2    0    0  0.00000000000E+00  0.00000000000E+00  0.57515590836E+02  0.20008215465E+04  0.19999947044E+04 0.  0.
        3    1    3    3  502    0  0.65335693504E+03  0.30632921679E+03 -0.66383024516E+03  0.98050164621E+03  0.10100000352E+00 0. -1.
       -3    1    3    3    0  502 -0.65335693504E+03 -0.30632921679E+03  0.72134583600E+03  0.10203199003E+04  0.10100000352E+00 0.  1.
</event>
<event>
 5   0  0.4956214E-06  0.1999782E+04  0.7818609E-02  0.8606723E-01
        2   -1    0    0  501    0  0.00000000000E+00  0.00000000000E+00  0.10396203869E+04  0.10396203869E+04  0.25500000920E-02 0.  1.
       -2   -1    0    0    0  501  0.00000000000E+00  0.00000000000E+00 -0.96167975904E+03  0.96167975905E+03  0.25500000920E-02 0. -1.
    10030    2    1    2    0    0  0.00000000000E+00  0.00000000000E+00  0.77940627874E+02  0.20013001460E+04  0.19997818713E+04 0.  0.
        1    1    3    3  502    0  0.17968021121E+03  0.56595654339E+03  0.84406235117E+03  0.10320043798E+04  0.50400001928E-02 0.  1.
       -1    1    3    3    0  502 -0.17968021121E+03 -0.56595654339E+03 -0.76612172330E+03  0.96929576613E+03  0.50400001928E-02 0. -1.
</event>
<event>
 5   0  0.2386776E-06  0.2000719E+04  0.7818609E-02  0.8606285E-01
       -1   -1    0    0    0  501  0.00000000000E+00  0.00000000000E+00  0.61263796194E+03  0.61263796196E+03  0.50400001928E-02 0.  1.
        1   -1    0    0  501    0  0.00000000000E+00  0.00000000000E+00 -0.16334586728E+04  0.16334586728E+04  0.50400001928E-02 0. -1.
    10030    2    1    2    0    0  0.00000000000E+00  0.00000000000E+00 -0.10208207109E+04  0.22460966348E+04  0.20007186631E+04 0.  0.
        2    1    3    3  502    0 -0.78624961639E+03  0.57665543456E+03 -0.25938222585E+03  0.10089594088E+04  0.25500000920E-02 0. -1.
       -2    1    3    3    0  502  0.78624961639E+03 -0.57665543456E+03 -0.76143848503E+03  0.12371372260E+04  0.25500000920E-02 0.  1.
</event>
<event>
 5   0  0.2313821E-06  0.1998203E+04  0.7818609E-02  0.8607461E-01
        1   -1    0    0  501    0  0.00000000000E+00  0.00000000000E+00  0.13834701140E+04  0.13834701140E+04  0.50400001928E-02 0.  1.
       -1   -1    0    0    0  501  0.00000000000E+00  0.00000000000E+00 -0.72152182394E+03  0.72152182395E+03  0.50400001928E-02 0. -1.
    10030    2    1    2    0    0  0.00000000000E+00  0.00000000000E+00  0.66194829007E+03  0.21049919380E+04  0.19982030728E+04 0.  0.
        1    1    3    3  502    0  0.42616917239E+02  0.15167876911E+03 -0.70835306607E+03  0.72566294991E+03  0.50400001928E-02 0. -1.
       -1    1    3    3    0  502 -0.42616917239E+02 -0.15167876911E+03  0.13703013561E+04  0.13793289881E+04  0.50400001928E-02 0.  1.
</event>
<event>
 5   0  0.5251252E-06  0.1998722E+04  0.7818609E-02  0.8607218E-01
       -2   -1    0    0    0  501  0.00000000000E+00  0.00000000000E+00  0.87017019015E+03  0.87017019015E+03  0.25500000920E-02 0. -1.
        2   -1    0    0  501    0  0.00000000000E+00  0.00000000000E+00 -0.11477326884E+04  0.11477326884E+04  0.25500000920E-02 0.  1.
    10030    2    1    2    0    0  0.00000000000E+00  0.00000000000E+00 -0.27756249824E+03  0.20179028785E+04  0.19987223636E+04 0.  0.
        5    1    3    3  502    0  0.95233520299E+03 -0.28441576754E+03 -0.24402175295E+03  0.10234272683E+04  0.46999998093E+01 0.  1.
       -5    1    3    3    0  502 -0.95233520299E+03  0.28441576754E+03 -0.33540745292E+02  0.99447561020E+03  0.46999998093E+01 0. -1.
</event>
<event>
 5   0  0.2379743E-06  0.2000323E+04  0.7818609E-02  0.8606470E-01
        1   -1    0    0  501    0  0.00000000000E+00  0.00000000000E+00  0.11448077212E+04  0.11448077212E+04  0.50400001928E-02 0. -1.
       -1   -1    0    0    0  501  0.00000000000E+00  0.00000000000E+00 -0.87379110946E+03  0.87379110948E+03  0.50400001928E-02 0.  1.
    10030    2    1    2    0    0  0.00000000000E+00  0.00000000000E+00  0.27101661174E+03  0.20185988307E+04  0.20003227828E+04 0.  0.
        5    1    3    3  502    0  0.84739430324E+03  0.36462871146E+02 -0.39932842242E+03  0.93749236001E+03  0.46999998093E+01 0.  1.
       -5    1    3    3    0  502 -0.84739430324E+03 -0.36462871146E+02  0.67034503416E+03  0.10811064707E+04  0.46999998093E+01 0. -1.
</event>
<event>
 5   0  0.2356996E-06  0.2000563E+04  0.7818609E-02  0.8606357E-01
       -1   -1    0    0    0  501  0.00000000000E+00  0.00000000000E+00  0.10217120988E+04  0.10217120988E+04  0.50400001928E-02 0.  1.
        1   -1    0    0  501    0  0.00000000000E+00  0.00000000000E+00 -0.97930080982E+03  0.97930080983E+03  0.50400001928E-02 0. -1.
    10030    2    1    2    0    0  0.00000000000E+00  0.00000000000E+00  0.42411288952E+02  0.20010129086E+04  0.20005634064E+04 0.  0.
        4    1    3    3  502    0  0.41261490953E+02 -0.57315946157E+03  0.84013718346E+03  0.10178636348E+04  0.12699999809E+01 0.  1.
       -4    1    3    3    0  502 -0.41261490953E+02  0.57315946157E+03 -0.79772589450E+03  0.98314927386E+03  0.12699999809E+01 0. -1.
</event>
<event>
 5   0  0.5251252E-06  0.2000086E+04  0.7818609E-02  0.8606581E-01
        2   -1    0    0  501    0  0.00000000000E+00  0.00000000000E+00  0.12403086403E+04  0.12403086403E+04  0.25500000920E-02 0.  1.
       -2   -1    0    0    0  501  0.00000000000E+00  0.00000000000E+00 -0.80632002750E+03  0.80632002750E+03  0.25500000920E-02 0. -1.
    10030    2    1    2    0    0  0.00000000000E+00  0.00000000000E+00  0.43398861281E+03  0.20466286678E+04  0.20000856951E+04 0.  0.
        5    1    3    3  502    0 -0.27569377145E+02  0.24214831832E+03 -0.77545554683E+03  0.81286485576E+03  0.46999998093E+01 0. -1.
       -5    1    3    3    0  502  0.27569377145E+02 -0.24214831832E+03  0.12094441596E+04  0.12337638120E+04  0.46999998093E+01 0.  1.
</event>
<event>
 5   0  0.1777750E-06  0.1997876E+04  0.7818609E-02  0.8607614E-01
        3   -1    0    0  501    0  0.00000000000E+00  0.00000000000E+00  0.82534863128E+03  0.82534863746E+03  0.10100000352E+00 0. -1.
       -3   -1    0    0    0  501  0.00000000000E+00  0.00000000000E+00 -0.12090375509E+04  0.12090375551E+04  0.10100000352E+00 0.  1.
    10030    2    1    2    0    0  0.00000000000E+00  0.00000000000E+00 -0.38368891961E+03  0.20343861926E+04  0.19978763709E+04 0.  0.
        4    1    3    3  502    0 -0.12669748684E+01  0.74270392874E+03  0.48839414890E+03  0.88889886296E+03  0.12699999809E+01 0. -1.
       -4    1    3    3    0  502  0.12669748684E+01 -0.74270392874E+03 -0.87208306851E+03  0.11454873296E+04  0.12699999809E+01 0.  1.
</event>
<event>
 5   0  0.5251252E-06  0.2000201E+04  0.7818609E-02  0.8606527E-01
       -2   -1    0    0    0  501  0.00000000000E+00  0.00000000000E+00  0.41801700320E+03  0.41801700320E+03  0.25500000920E-02 0.  1.
        2   -1    0    0  501    0  0.00000000000E+00  0.00000000000E+00 -0.23927272573E+04  0.23927272573E+04  0.25500000920E-02 0. -1.
    10030    2    1    2    0    0  0.00000000000E+00  0.00000000000E+00 -0.19747102541E+04  0.28107442605E+04  0.20002006675E+04 0.  0.
        5    1    3    3  502    0  0.47203872299E+03 -0.68338519849E+03 -0.17701870605E+04  0.19553567973E+04  0.46999998093E+01 0. -1.
       -5    1    3    3    0  502 -0.47203872299E+03  0.68338519849E+03 -0.20452319360E+03  0.85538746322E+03  0.46999998093E+01 0.  1.
</event>
<event>
 5   0  0.5118981E-06  0.1999954E+04  0.7818609E-02  0.8606642E-01
       -2   -1    0    0    0  501  0.00000000000E+00  0.00000000000E+00  0.66894605097E+03  0.66894605098E+03  0.25500000920E-02 0.  1.
        2   -1    0    0  501    0  0.00000000000E+00  0.00000000000E+00 -0.14948201579E+04  0.14948201579E+04  0.25500000920E-02 0. -1.
    10030    2    1    2    0    0  0.00000000000E+00  0.00000000000E+00 -0.82587410692E+03  0.21637662089E+04  0.19999540410E+04 0.  0.
        4    1    3    3  502    0 -0.68715254147E+02 -0.99626202508E+03 -0.35679635105E+03  0.10604551182E+04  0.12699999809E+01 0.  1.
       -4    1    3    3    0  502  0.68715254147E+02  0.99626202508E+03 -0.46907775587E+03  0.11033110906E+04  0.12699999809E+01 0. -1.
</event>
<event>
 5   0  0.4956214E-06  0.1999632E+04  0.7818609E-02  0.8606793E-01
        2   -1    0    0  501    0  0.00000000000E+00  0.00000000000E+00  0.17347965128E+04  0.17347965128E+04  0.25500000920E-02 0. -1.
       -2   -1    0    0    0  501  0.00000000000E+00  0.00000000000E+00 -0.57622425206E+03  0.57622425207E+03  0.25500000920E-02 0.  1.
    10030    2    1    2    0    0  0.00000000000E+00  0.00000000000E+00  0.11585722607E+04  0.23110207648E+04  0.19996317892E+04 0.  0.
        1    1    3    3  502    0  0.44624591340E+03  0.52065571440E+03  0.14202000483E+04  0.15770814707E+04  0.50400001928E-02 0. -1.
       -1    1    3    3    0  502 -0.44624591340E+03 -0.52065571440E+03 -0.26162778758E+03  0.73393929410E+03  0.50400001928E-02 0.  1.
</event>
<event>
 5   0  0.4956214E-06  0.2000142E+04  0.7818609E-02  0.8606554E-01
       -2   -1    0    0    0  501  0.00000000000E+00  0.00000000000E+00  0.16117059760E+04  0.16117059760E+04  0.25500000920E-02 0.  1.
        2   -1    0    0  501    0  0.00000000000E+00  0.00000000000E+00 -0.62054880284E+03  0.62054880284E+03  0.25500000920E-02 0. -1.
    10030    2    1    2    0    0  0.00000000000E+00  0.00000000000E+00  0.99115717314E+03  0.22322547788E+04  0.20001422089E+04 0.  0.
        1    1    3    3  502    0  0.27452058586E+02 -0.45207344373E+03  0.14906893459E+04  0.15579726378E+04  0.50400001928E-02 0.  1.
       -1    1    3    3    0  502 -0.27452058586E+02  0.45207344373E+03 -0.49953217278E+03  0.67428214103E+03  0.50400001928E-02 0. -1.
</event>
<event>
 5   0  0.2386776E-06  0.2000084E+04  0.7818609E-02  0.8606582E-01
       -1   -1    0    0    0  501  0.00000000000E+00  0.00000000000E+00  0.74355347400E+03  0.74355347402E+03  0.50400001928E-02 0.  1.
        1   -1    0    0  501    0  0.00000000000E+00  0.00000000000E+00 -0.13450057273E+04  0.13450057274E+04  0.50400001928E-02 0. -1.
    10030    2    1    2    0    0  0.00000000000E+00  0.00000000000E+00 -0.60145225334E+03  0.20885592014E+04  0.20000836794E+04 0.  0.
        2    1    3    3  502    0  0.87255633900E+03 -0.19851836498E+03 -0.76692755577E+03  0.11785338272E+04  0.25500000920E-02 0. -1.
       -2    1    3    3    0  502 -0.87255633900E+03  0.19851836498E+03  0.16547530243E+03  0.91002537420E+03  0.25500000920E-02 0.  1.
</event>
<event>
 5   0  0.4956214E-06  0.2008889E+04  0.7818609E-02  0.8602476E-01
       -2   -1    0    0    0  501  0.00000000000E+00  0.00000000000E+00  0.73870910541E+03  0.73870910541E+03  0.25500000920E-02 0. -1.
        2   -1    0    0  501    0  0.00000000000E+00  0.00000000000E+00 -0.13657729915E+04  0.13657729915E+04  0.25500000920E-02 0.  1.
    10030    2    1    2    0    0  0.00000000000E+00  0.00000000000E+00 -0.62706388606E+03  0.21044820969E+04  0.20088891903E+04 0.  0.
        1    1    3    3  502    0  0.55410944709E+03 -0.11216978337E+03 -0.11832732930E+04  0.13113943060E+04  0.50400001928E-02 0.  1.
       -1    1    3    3    0  502 -0.55410944709E+03  0.11216978337E+03  0.55620940699E+03  0.79308779092E+03  0.50400001928E-02 0. -1.
</event>
<event>
 5   0  0.2379743E-06  0.2001174E+04  0.7818609E-02  0.8606072E-01
        1   -1    0    0  501    0  0.00000000000E+00  0.00000000000E+00  0.13387263076E+04  0.13387263076E+04  0.50400001928E-02 0.  1.
       -1   -1    0    0    0  501  0.00000000000E+00  0.00000000000E+00 -0.74785589098E+03  0.74785589100E+03  0.50400001928E-02 0. -1.
    10030    2    1    2    0    0  0.00000000000E+00  0.00000000000E+00  0.59087041659E+03  0.20865821986E+04  0.20011740110E+04 0.  0.
        5    1    3    3  502    0  0.81094517977E+03  0.56480573430E+03  0.45868912587E+03  0.10895207232E+04  0.46999998093E+01 0.  1.
       -5    1    3    3    0  502 -0.81094517977E+03 -0.56480573430E+03  0.13218129072E+03  0.99706147539E+03  0.46999998093E+01 0. -1.
</event>
<event>
 5   0  0.2311520E-06  0.1998378E+04  0.7818609E-02  0.8607379E-01
        1   -1    0    0  501    0  0.00000000000E+00  0.00000000000E+00  0.72256310857E+03  0.72256310859E+03  0.50400001928E-02 0.  1.
       -1   -1    0    0    0  501  0.00000000000E+00  0.00000000000E+00 -0.13817185022E+04  0.13817185022E+04  0.50400001928E-02 0. -1.
    10030    2    1    2    0    0  0.00000000000E+00  0.00000000000E+00 -0.65915539363E+03  0.21042816108E+04  0.19983781586E+04 0.  0.
        3    1    3    3  502    0  0.37074785798E+03  0.68533789193E+03  0.32905917190E+03  0.84582619322E+03  0.10100000352E+00 0.  1.
       -3    1    3    3    0  502 -0.37074785798E+03 -0.68533789193E+03 -0.98821456554E+03  0.12584554176E+04  0.10100000352E+00 0. -1.
</event>
<event>
 5   0  0.5118981E-06  0.1999863E+04  0.7818609E-02  0.8606685E-01
       -2   -1    0    0    0  501  0.00000000000E+00  0.00000000000E+00  0.45340305180E+03  0.45340305181E+03  0.25500000920E-02 0. -1.
        2   -1    0    0  501    0  0.00000000000E+00  0.00000000000E+00 -0.22052401642E+04  0.22052401642E+04  0.25500000920E-02 0.  1.
    10030    2    1    2    0    0  0.00000000000E+00  0.00000000000E+00 -0.17518371124E+04  0.26586432160E+04  0.19998626157E+04 0.  0.
        4    1    3    3  502    0  0.38811400791E+03  0.70506206709E+03 -0.16647837259E+04  0.18491218101E+04  0.12699999809E+01 0.  1.
       -4    1    3    3    0  502 -0.38811400791E+03 -0.70506206709E+03 -0.87053386452E+02  0.80952140589E+03  0.12699999809E+01 0. -1.
</event>
<event>
 5   0  0.2313821E-06  0.1999418E+04  0.7818609E-02  0.8606893E-01
        1   -1    0    0  501    0  0.00000000000E+00  0.00000000000E+00  0.11251425154E+04  0.11251425155E+04  0.50400001928E-02 0.  1.
       -1   -1    0    0    0  501  0.00000000000E+00  0.00000000000E+00 -0.88825881033E+03  0.88825881034E+03  0.50400001928E-02 0. -1.
    10030    2    1    2    0    0  0.00000000000E+00  0.00000000000E+00  0.23688370512E+03  0.20134013258E+04  0.19994176675E+04 0.  0.
        1    1    3    3  502    0 -0.10723001654E+03  0.15051725450E+02  0.11192199581E+04  0.11244457059E+04  0.50400001928E-02 0.  1.
       -1    1    3    3    0  502  0.10723001654E+03 -0.15051725450E+02 -0.88233625295E+03  0.88895561992E+03  0.50400001928E-02 0. -1.
</event>
<event>
 5   0  0.5030137E-06  0.1999886E+04  0.7818609E-02  0.8606674E-01
       -2   -1    0    0    0  501  0.00000000000E+00  0.00000000000E+00  0.43399299569E+03  0.43399299569E+03  0.25500000920E-02 0. -1.
        2   -1    0    0  501    0  0.00000000000E+00  0.00000000000E+00 -0.23039209901E+04  0.23039209901E+04  0.25500000920E-02 0.  1.
    10030    2    1    2    0    0  0.00000000000E+00  0.00000000000E+00 -0.18699279944E+04  0.27379139858E+04  0.19998855690E+04 0.  0.
        3    1    3    3  502    0  0.31374965146E+03 -0.25949684355E+03  0.31536937997E+03  0.51501001119E+03  0.10100000352E+00 0. -1.
       -3    1    3    3    0  502 -0.31374965146E+03  0.25949684355E+03 -0.21852973744E+04  0.22229039746E+04  0.10100000352E+00 0.  1.
</event>
<event>
 5   0  0.5030137E-06  0.1999947E+04  0.7818609E-02  0.8606645E-01
        2   -1    0    0  501    0  0.00000000000E+00  0.00000000000E+00  0.11882239686E+04  0.11882239686E+04  0.25500000920E-02 0.  1.
       -2   -1    0    0    0  501  0.00000000000E+00  0.00000000000E+00 -0.84154785420E+03  0.84154785421E+03  0.25500000920E-02 0. -1.
    10030    2    1    2    0    0  0.00000000000E+00  0.00000000000E+00  0.34667611440E+03  0.20297718228E+04  0.19999473304E+04 0.  0.
        3    1    3    3  502    0  0.60011881317E+03 -0.54410798359E+02  0.98326390371E+03  0.11532176895E+04  0.10100000352E+00 0.  1.
       -3    1    3    3    0  502 -0.60011881317E+03  0.54410798359E+02 -0.63658778930E+03  0.87655413329E+03  0.10100000352E+00 0. -1.
</event>
<event>
 5   0  0.5030137E-06  0.2002199E+04  0.7818609E-02  0.8605593E-01
        2   -1    0    0  501    0  0.00000000000E+00  0.00000000000E+00  0.11701606252E+04  0.11701606252E+04  0.25500000920E-02 0. -1.
       -2   -1    0    0    0  501  0.00000000000E+00  0.00000000000E+00 -0.85646399619E+03  0.85646399619E+03  0.25500000920E-02 0.  1.
    10030    2    1    2    0    0  0.00000000000E+00  0.00000000000E+00  0.31369662900E+03  0.20266246214E+04  0.20021992361E+04 0.  0.
        3    1    3    3  502    0  0.20866109388E+03 -0.49500733522E+03 -0.69822269741E+03  0.88095780796E+03  0.10100000352E+00 0.  1.
       -3    1    3    3    0  502 -0.20866109388E+03  0.49500733522E+03  0.10119193264E+04  0.11456668134E+04  0.10100000352E+00 0. -1.
</event>
<event>
 5   0  0.2386776E-06  0.1999514E+04  0.7818609E-02  0.8606848E-01
        1   -1    0    0  501    0  0.00000000000E+00  0.00000000000E+00  0.15598136817E+04  0.15598136817E+04  0.50400001928E-02 0.  1.
       -1   -1    0    0    0  501  0.00000000000E+00  0.00000000000E+00 -0.64079087826E+03  0.64079087828E+03  0.50400001928E-02 0. -1.
    10030    2    1    2    0    0  0.00000000000E+00  0.00000000000E+00  0.91902280339E+03  0.22006045599E+04  0.19995143201E+04 0.  0.
        2    1    3    3  502    0 -0.32342428859E+03  0.25512694133E+02  0.15002686487E+04  0.15349463138E+04  0.25500000920E-02 0.  1.
       -2    1    3    3    0  502  0.32342428859E+03 -0.25512694133E+02 -0.58124584529E+03  0.66565824616E+03  0.25500000920E-02 0. -1.
</event>
<event>
 5   0  0.5251252E-06  0.1999789E+04  0.7818609E-02  0.8606719E-01
        2   -1    0    0  501    0  0.00000000000E+00  0.00000000000E+00  0.79575641730E+03  0.79575641730E+03  0.25500000920E-02 0. -1.
       -2   -1    0    0    0  501  0.00000000000E+00  0.00000000000E+00 -0.12564007631E+04  0.12564007631E+04  0.25500000920E-02 0.  1.
    10030    2    1    2    0    0  0.00000000000E+00  0.00000000000E+00 -0.46064434577E+03  0.20521571804E+04  0.19997889588E+04 0.  0.
        5    1    3    3  502    0  0.81644885102E+03  0.46088633486E+03 -0.58693051286E+03  0.11061258775E+04  0.46999998093E+01 0.  1.
       -5    1    3    3    0  502 -0.81644885102E+03 -0.46088633486E+03  0.12628616709E+03  0.94603130286E+03  0.46999998093E+01 0. -1.
</event>
<event>
 5   0  0.5251252E-06  0.1999661E+04  0.7818609E-02  0.8606779E-01
        2   -1    0    0  501    0  0.00000000000E+00  0.00000000000E+00  0.15103060079E+04  0.15103060079E+04  0.25500000920E-02 0. -1.
       -2   -1    0    0    0  501  0.00000000000E+00  0.00000000000E+00 -0.66189336653E+03  0.66189336654E+03  0.25500000920E-02 0.  1.
    10030    2    1    2    0    0  0.00000000000E+00  0.00000000000E+00  0.84841264139E+03  0.21721993745E+04  0.19996614994E+04 0.  0.
        5    1    3    3  502    0  0.16347951897E+03 -0.72056465995E+03 -0.30748483762E+03  0.80031743556E+03  0.46999998093E+01 0.  1.
       -5    1    3    3    0  502 -0.16347951897E+03  0.72056465995E+03  0.11558974790E+04  0.13718819389E+04  0.46999998093E+01 0. -1.
</event>
<event>
 5   0  0.5118981E-06  0.1998519E+04  0.7818609E-02  0.8607313E-01
        2   -1    0    0  501    0  0.00000000000E+00  0.00000000000E+00  0.16735248390E+04  0.16735248390E+04  0.25500000920E-02 0. -1.
       -2   -1    0    0    0  501  0.00000000000E+00  0.00000000000E+00 -0.59665649130E+03  0.59665649131E+03  0.25500000920E-02 0.  1.
    10030    2    1    2    0    0  0.00000000000E+00  0.00000000000E+00  0.10768683477E+04  0.22701813303E+04  0.19985189102E+04 0.  0.
        4    1    3    3  502    0 -0.25537231253E+03 -0.50473303281E+03 -0.39727821381E+03  0.69123226523E+03  0.12699999809E+01 0.  1.
       -4    1    3    3    0  502  0.25537231253E+03  0.50473303281E+03  0.14741465615E+04  0.15789490651E+04  0.12699999809E+01 0. -1.
</event>
<event>
 5   0  0.5118981E-06  0.2000182E+04  0.7818609E-02  0.8606536E-01
        2   -1    0    0  501    0  0.00000000000E+00  0.00000000000E+00  0.15761180390E+04  0.15761180390E+04  0.25500000920E-02 0.  1.
       -2   -1    0    0    0  501  0.00000000000E+00  0.00000000000E+00 -0.63458578751E+03  0.63458578752E+03  0.25500000920E-02 0. -1.
    10030    2    1    2    0    0  0.00000000000E+00  0.00000000000E+00  0.94153225152E+03  0.22107038266E+04  0.20001820987E+04 0.  0.
        4    1    3    3  502    0 -0.14398001516E+03  0.91976224080E+03  0.66951910822E+02  0.93336862795E+03  0.12699999809E+01 0. -1.
       -4    1    3    3    0  502  0.14398001516E+03 -0.91976224080E+03  0.87458034070E+03  0.12773351986E+04  0.12699999809E+01 0.  1.
</event>
<event>
 5   0  0.2356996E-06  0.1999092E+04  0.7818609E-02  0.8607045E-01
       -1   -1    0    0    0  501  0.00000000000E+00  0.00000000000E+00  0.83269230106E+03  0.83269230108E+03  0.50400001928E-02 0. -1.
        1   -1    0    0  501    0  0.00000000000E+00  0.00000000000E+00 -0.11998335611E+04  0.11998335611E+04  0.50400001928E-02 0.  1.
    10030    2    1    2    0    0  0.00000000000E+00  0.00000000000E+00 -0.36714126002E+03  0.20325258622E+04  0.19990919628E+04 0.  0.
        4    1    3    3  502    0 -0.85654346639E+03 -0.14453491513E+03  0.31920300219E+03  0.92544541763E+03  0.12699999809E+01 0. -1.
       -4    1    3    3    0  502  0.85654346639E+03  0.14453491513E+03 -0.68634426220E+03  0.11070804445E+04  0.12699999809E+01 0.  1.
</event>
<event>
 5   0  0.5030137E-06  0.2000425E+04  0.7818609E-02  0.8606422E-01
        2   -1    0    0  501    0  0.00000000000E+00  0.00000000000E+00  0.22239395507E+04  0.22239395507E+04  0.25500000920E-02 0. -1.
       -2   -1    0    0    0  501  0.00000000000E+00  0.00000000000E+00 -0.44984348982E+03  0.44984348983E+03  0.25500000920E-02 0.  1.
    10030    2    1    2    0    0  0.00000000000E+00  0.00000000000E+00  0.17740960609E+04  0.26737830405E+04  0.20004246836E+04 0.  0.
        3    1    3    3  502    0 -0.28597476063E+03 -0.85098313429E+03  0.29761940040E+03  0.94579658292E+03  0.10100000352E+00 0.  1.
       -3    1    3    3    0  502  0.28597476063E+03  0.85098313429E+03  0.14764766605E+04  0.17279864576E+04  0.10100000352E+00 0. -1.
</event>
<event>
 5   0  0.2356996E-06  0.2000502E+04  0.7818609E-02  0.8606386E-01
       -1   -1    0    0    0  501  0.00000000000E+00  0.00000000000E+00  0.13369759065E+04  0.13369759065E+04  0.50400001928E-02 0. -1.
        1   -1    0    0  501    0  0.00000000000E+00  0.00000000000E+00 -0.74833192772E+03  0.74833192774E+03  0.50400001928E-02 0.  1.
    10030    2    1    2    0    0  0.00000000000E+00  0.00000000000E+00  0.58864397877E+03  0.20853078342E+04  0.20005016945E+04 0.  0.
        4    1    3    3  502    0  0.55486692021E+03 -0.66133103247E+03 -0.23233291248E+03  0.89398894220E+03  0.12699999809E+01 0.  1.
       -4    1    3    3    0  502 -0.55486692021E+03  0.66133103247E+03  0.82097689125E+03  0.11913188920E+04  0.12699999809E+01 0. -1.
</event>
<event>
 5   0  0.4956214E-06  0.1999689E+04  0.7818609E-02  0.8606766E-01
       -2   -1    0    0    0  501  0.00000000000E+00  0.00000000000E+00  0.64096938070E+03  0.64096938071E+03  0.25500000920E-02 0. -1.
        2   -1    0    0  501    0  0.00000000000E+00  0.00000000000E+00 -0.15596520839E+04  0.15596520839E+04  0.25500000920E-02 0.  1.
    10030    2    1    2    0    0  0.00000000000E+00  0.00000000000E+00 -0.91868270324E+03  0.22006214647E+04  0.19996892062E+04 0.  0.
        1    1    3    3  502    0 -0.80994404264E+03  0.35085391699E+03 -0.97619465181E+03  0.13160789572E+04  0.50400001928E-02 0. -1.
       -1    1    3    3    0  502  0.80994404264E+03 -0.35085391699E+03  0.57511948566E+02  0.88454250748E+03  0.50400001928E-02 0.  1.
</event>
<event>
 5   0  0.5129100E-06  0.2000501E+04  0.7818609E-02  0.8606386E-01
       -2   -1    0    0    0  501  0.00000000000E+00  0.00000000000E+00  0.55914201326E+03  0.55914201327E+03  0.25500000920E-02 0.  1.
        2   -1    0    0  501    0  0.00000000000E+00  0.00000000000E+00 -0.17893512580E+04  0.17893512580E+04  0.25500000920E-02 0. -1.
    10030    2    1    2    0    0  0.00000000000E+00  0.00000000000E+00 -0.12302092448E+04  0.23484932713E+04  0.20005014020E+04 0.  0.
        2    1    3    3  502    0 -0.46661387373E+03  0.10816921058E+03 -0.16459606946E+04  0.17142391004E+04  0.25500000920E-02 0. -1.
       -2    1    3    3    0  502  0.46661387373E+03 -0.10816921058E+03  0.41575144981E+03  0.63425417089E+03  0.25500000920E-02 0.  1.
</event>
<event>
 5   0  0.2313821E-06  0.2000853E+04  0.7818609E-02  0.8606222E-01
        1   -1    0    0  501    0  0.00000000000E+00  0.00000000000E+00  0.11715203817E+04  0.11715203818E+04  0.50400001928E-02 0. -1.
       -1   -1    0    0    0  501  0.00000000000E+00  0.00000000000E+00 -0.85432022885E+03  0.85432022887E+03  0.50400001928E-02 0.  1.
    10030    2    1    2    0    0  0.00000000000E+00  0.00000000000E+00  0.31720015290E+03  0.20258406106E+04  0.20008533786E+04 0.  0.
        1    1    3    3  502    0 -0.18901607517E+03 -0.97798645397E+03  0.64329968627E+02  0.99815976963E+03  0.50400001928E-02 0.  1.
       -1    1    3    3    0  502  0.18901607517E+03  0.97798645397E+03  0.25287018427E+03  0.10276808410E+04  0.50400001928E-02 0. -1.
</event>
<event>
 5   0  0.2386776E-06  0.2000054E+04  0.7818609E-02  0.8606595E-01
        1   -1    0    0  501    0  0.00000000000E+00  0.00000000000E+00  0.94381278884E+03  0.94381278886E+03  0.50400001928E-02 0. -1.
       -1   -1    0    0    0  501  0.00000000000E+00  0.00000000000E+00 -0.10595896612E+04  0.10595896612E+04  0.50400001928E-02 0.  1.
    10030    2    1    2    0    0  0.00000000000E+00  0.00000000000E+00 -0.11577687237E+03  0.20034024501E+04  0.20000542725E+04 0.  0.
        2    1    3    3  502    0 -0.86988529911E+03 -0.12504414327E+03 -0.53588515054E+03  0.10293247136E+04  0.25500000920E-02 0.  1.
       -2    1    3    3    0  502  0.86988529911E+03  0.12504414327E+03  0.42010827817E+03  0.97407773652E+03  0.25500000920E-02 0. -1.
</event>
<event>
 5   0  0.5118981E-06  0.1999854E+04  0.7818609E-02  0.8606689E-01
       -2   -1    0    0    0  501  0.00000000000E+00  0.00000000000E+00  0.98761554658E+03  0.98761554658E+03  0.25500000920E-02 0. -1.
        2   -1    0    0  501    0  0.00000000000E+00  0.00000000000E+00 -0.10123914755E+04  0.10123914755E+04  0.25500000920E-02 0.  1.
    10030    2    1    2    0    0  0.00000000000E+00  0.00000000000E+00 -0.24775928902E+02  0.20000070221E+04  0.19998535550E+04 0.  0.
        4    1    3    3  502    0  0.27470629939E+03 -0.60517665588E+03  0.73476347861E+03  0.99074785801E+03  0.12699999809E+01 0. -1.
       -4    1    3    3    0  502 -0.27470629939E+03  0.60517665588E+03 -0.75953940752E+03  0.10092591640E+04  0.12699999809E+01 0.  1.
</event>
<event>
 5   0  0.5118981E-06  0.2000742E+04  0.7818609E-02  0.8606274E-01
        2   -1    0    0  501    0  0.00000000000E+00  0.00000000000E+00  0.73039009301E+03  0.73039009301E+03  0.25500000920E-02 0. -1.
       -2   -1    0    0    0  501  0.00000000000E+00  0.00000000000E+00 -0.13701474788E+04  0.13701474788E+04  0.25500000920E-02 0.  1.
    10030    2    1    2    0    0  0.00000000000E+00  0.00000000000E+00 -0.63975738584E+03  0.21005375719E+04  0.20007420069E+04 0.  0.
        4    1    3    3  502    0  0.12423064027E+03  0.92321758589E+03  0.62969784950E+02  0.93366523422E+03  0.12699999809E+01 0. -1.
       -4    1    3    3    0  502 -0.12423064027E+03 -0.92321758589E+03 -0.70272717079E+03  0.11668723376E+04  0.12699999809E+01 0.  1.
</event>
<event>
 5   0  0.2356996E-06  0.2000239E+04  0.7818609E-02  0.8606509E-01
       -1   -1    0    0    0  501  0.00000000000E+00  0.00000000000E+00  0.55800084831E+03  0.55800084833E+03  0.50400001928E-02 0. -1.
        1   -1    0    0  501    0  0.00000000000E+00  0.00000000000E+00 -0.17925404914E+04  0.17925404914E+04  0.50400001928E-02 0.  1.
    10030    2    1    2    0    0  0.00000000000E+00  0.00000000000E+00 -0.12345396430E+04  0.23505413397E+04  0.20002391005E+04 0.  0.
        4    1    3    3  502    0  0.93431584838E+02 -0.96654856356E+03 -0.89854580457E+03  0.13230010441E+04  0.12699999809E+01 0. -1.
       -4    1    3    3    0  502 -0.93431584838E+02  0.96654856356E+03 -0.33599383847E+03  0.10275402956E+04  0.12699999809E+01 0.  1.
</event>
<event>
 5   0  0.2386776E-06  0.2000885E+04  0.7818609E-02  0.8606207E-01
        1   -1    0    0  501    0  0.00000000000E+00  0.00000000000E+00  0.80318069943E+03  0.80318069945E+03  0.50400001928E-02 0. -1.
       -1   -1    0    0    0  501  0.00000000000E+00  0.00000000000E+00 -0.12461518350E+04  0.12461518350E+04  0.50400001928E-02 0.  1.
    10030    2    1    2    0    0  0.00000000000E+00  0.00000000000E+00 -0.44297113557E+03  0.20493325345E+04  0.20008849067E+04 0.  0.
        2    1    3    3  502    0  0.90503856058E+03  0.34817115033E+03 -0.47354846206E+03  0.10791506345E+04  0.25500000920E-02 0. -1.
       -2    1    3    3    0  502 -0.90503856058E+03 -0.34817115033E+03  0.30577326493E+02  0.97018189994E+03  0.25500000920E-02 0.  1.
</event>
<event>
 5   0  0.5251252E-06  0.2008378E+04  0.7818609E-02  0.8602714E-01
        2   -1    0    0  501    0  0.00000000000E+00  0.00000000000E+00  0.10722729131E+04  0.10722729131E+04  0.25500000920E-02 0. -1.
       -2   -1    0    0    0  501  0.00000000000E+00  0.00000000000E+00 -0.94042804313E+03  0.94042804313E+03  0.25500000920E-02 0.  1.
    10030    2    1    2    0    0  0.00000000000E+00  0.00000000000E+00  0.13184486993E+03  0.20127009562E+04  0.20083779697E+04 0.  0.
        5    1    3    3  502    0  0.64973989577E+03  0.75959201372E+03  0.16220977410E+03  0.10126579187E+04  0.46999998093E+01 0. -1.
       -5    1    3    3    0  502 -0.64973989577E+03 -0.75959201372E+03 -0.30364904166E+02  0.10000430375E+04  0.46999998093E+01 0.  1.
</event>
<event>
 5   0  0.1777750E-06  0.1999803E+04  0.7818609E-02  0.8606713E-01
        4   -1    0    0  501    0  0.00000000000E+00  0.00000000000E+00  0.12230162383E+04  0.12230168976E+04  0.12699999809E+01 0. -1.
       -4   -1    0    0    0  501  0.00000000000E+00  0.00000000000E+00 -0.81748822291E+03  0.81748920941E+03  0.12699999809E+01 0.  1.
    10030    2    1    2    0    0  0.00000000000E+00  0.00000000000E+00  0.40552801534E+03  0.20405061071E+04  0.19998030407E+04 0.  0.
        5    1    3    3  502    0 -0.90105966685E+03  0.37632045680E+03  0.42221202680E+03  0.10638659197E+04  0.46999998093E+01 0.  1.
       -5    1    3    3    0  502  0.90105966685E+03 -0.37632045680E+03 -0.16684011460E+02  0.97664018741E+03  0.46999998093E+01 0. -1.
</event>
<event>
 5   0  0.2379743E-06  0.1999554E+04  0.7818609E-02  0.8606829E-01
        1   -1    0    0  501    0  0.00000000000E+00  0.00000000000E+00  0.11676104850E+04  0.11676104850E+04  0.50400001928E-02 0.  1.
       -1   -1    0    0    0  501  0.00000000000E+00  0.00000000000E+00 -0.85606799175E+03  0.85606799177E+03  0.50400001928E-02 0. -1.
    10030    2    1    2    0    0  0.00000000000E+00  0.00000000000E+00  0.31154249324E+03  0.20236784768E+04  0.19995539133E+04 0.  0.
        5    1    3    3  502    0 -0.19391477874E+02 -0.87098003220E+03  0.65214720476E+03  0.10882556283E+04  0.46999998093E+01 0.  1.
       -5    1    3    3    0  502  0.19391477874E+02  0.87098003220E+03 -0.34060471152E+03  0.93542284845E+03  0.46999998093E+01 0. -1.
</event>
<event>
 5   0  0.5129100E-06  0.1999592E+04  0.7818609E-02  0.8606812E-01
        2   -1    0    0  501    0  0.00000000000E+00  0.00000000000E+00  0.56475428247E+03  0.56475428248E+03  0.25500000920E-02 0. -1.
       -2   -1    0    0    0  501  0.00000000000E+00  0.00000000000E+00 -0.17699586610E+04  0.17699586610E+04  0.25500000920E-02 0.  1.
    10030    2    1    2    0    0  0.00000000000E+00  0.00000000000E+00 -0.12052043786E+04  0.23347129435E+04  0.19995916920E+04 0.  0.
        2    1    3    3  502    0  0.56816619898E+03  0.33265803305E+03  0.27590530694E+03  0.71386128556E+03  0.25500000920E-02 0. -1.
       -2    1    3    3    0  502 -0.56816619898E+03 -0.33265803305E+03 -0.14811096855E+04  0.16208516580E+04  0.25500000920E-02 0.  1.
</event>
<event>
 5   0  0.2356996E-06  0.1991112E+04  0.7818609E-02  0.8610788E-01
        1   -1    0    0  501    0  0.00000000000E+00  0.00000000000E+00  0.11884344827E+04  0.11884344827E+04  0.50400001928E-02 0.  1.
       -1   -1    0    0    0  501  0.00000000000E+00  0.00000000000E+00 -0.83398062626E+03  0.83398062628E+03  0.50400001928E-02 0. -1.
    10030    2    1    2    0    0  0.00000000000E+00  0.00000000000E+00  0.35445385644E+03  0.20224151090E+04  0.19911115832E+04 0.  0.
        4    1    3    3  502    0 -0.75791845264E+03 -0.64453575777E+03  0.14112952753E+03  0.10048810279E+04  0.12699999809E+01 0.  1.
       -4    1    3    3    0  502  0.75791845264E+03  0.64453575777E+03  0.21332432891E+03  0.10175340810E+04  0.12699999809E+01 0. -1.
</event>
<event>
 5   0  0.5030137E-06  0.1995805E+04  0.7818609E-02  0.8608585E-01
        2   -1    0    0  501    0  0.00000000000E+00  0.00000000000E+00  0.10964530391E+04  0.10964530391E+04  0.25500000920E-02 0. -1.
       -2   -1    0    0    0  501  0.00000000000E+00  0.00000000000E+00 -0.90820950883E+03  0.90820950883E+03  0.25500000920E-02 0.  1.
    10030    2    1    2    0    0  0.00000000000E+00  0.00000000000E+00  0.18824353029E+03  0.20046625480E+04  0.19958046759E+04 0.  0.
        3    1    3    3  502    0 -0.76867862508E+03 -0.41604286741E+03 -0.38952392794E+03  0.95691556410E+03  0.10100000352E+00 0.  1.
       -3    1    3    3    0  502  0.76867862508E+03  0.41604286741E+03  0.57776745823E+03  0.10477469839E+04  0.10100000352E+00 0. -1.
</event>
<event>
 5   0  0.2386776E-06  0.1999719E+04  0.7818609E-02  0.8606752E-01
       -1   -1    0    0    0  501  0.00000000000E+00  0.00000000000E+00  0.50443097607E+03  0.50443097610E+03  0.50400001928E-02 0.  1.
        1   -1    0    0  501    0  0.00000000000E+00  0.00000000000E+00 -0.19818748991E+04  0.19818748991E+04  0.50400001928E-02 0. -1.
    10030    2    1    2    0    0  0.00000000000E+00  0.00000000000E+00 -0.14774439230E+04  0.24863058752E+04  0.19997190701E+04 0.  0.
        2    1    3    3  502    0 -0.36617307279E+03  0.31101298051E+03 -0.18289630841E+04  0.18910097187E+04  0.25500000920E-02 0. -1.
       -2    1    3    3    0  502  0.36617307279E+03 -0.31101298051E+03  0.35151916109E+03  0.59529615646E+03  0.25500000920E-02 0.  1.
</event>
<event>
 5   0  0.5129100E-06  0.2000975E+04  0.7818609E-02  0.8606165E-01
       -2   -1    0    0    0  501  0.00000000000E+00  0.00000000000E+00  0.16870232565E+04  0.16870232565E+04  0.25500000920E-02 0. -1.
        2   -1    0    0  501    0  0.00000000000E+00  0.00000000000E+00 -0.59333826595E+03  0.59333826596E+03  0.25500000920E-02 0.  1.
    10030    2    1    2    0    0  0.00000000000E+00  0.00000000000E+00  0.10936849905E+04  0.22803615225E+04  0.20009752159E+04 0.  0.
        2    1    3    3  502    0  0.10381349140E+03 -0.64453522800E+03  0.14108350604E+04  0.15545605388E+04  0.25500000920E-02 0. -1.
       -2    1    3    3    0  502 -0.10381349140E+03  0.64453522800E+03 -0.31715006982E+03  0.72580098369E+03  0.25500000920E-02 0.  1.
</event>
<event>
 5   0  0.2311520E-06  0.2004591E+04  0.7818609E-02  0.8604477E-01
        1   -1    0    0  501    0  0.00000000000E+00  0.00000000000E+00  0.13187657478E+04  0.13187657478E+04  0.50400001928E-02 0. -1.
       -1   -1    0    0    0  501  0.00000000000E+00  0.00000000000E+00 -0.76176985745E+03  0.76176985747E+03  0.50400001928E-02 0.  1.
    10030    2    1    2    0    0  0.00000000000E+00  0.00000000000E+00  0.55699589035E+03  0.20805356053E+04  0.20045907271E+04 0.  0.
        3    1    3    3  502    0  0.48923698063E+03 -0.72021553636E+03 -0.23683361414E+03  0.90230450128E+03  0.10100000352E+00 0.  1.
       -3    1    3    3    0  502 -0.48923698063E+03  0.72021553636E+03  0.79382950449E+03  0.11782311040E+04  0.10100000352E+00 0. -1.
</event>
<event>
 5   0  0.5129100E-06  0.2000079E+04  0.7818609E-02  0.8606584E-01
        2   -1    0    0  501    0  0.00000000000E+00  0.00000000000E+00  0.13629916580E+04  0.13629916580E+04  0.25500000920E-02 0.  1.
       -2   -1    0    0    0  501  0.00000000000E+00  0.00000000000E+00 -0.73373846416E+03  0.73373846416E+03  0.25500000920E-02 0. -1.
    10030    2    1    2    0    0  0.00000000000E+00  0.00000000000E+00  0.62925319388E+03  0.20967301222E+04  0.20000794043E+04 0.  0.
        2    1    3    3  502    0  0.65516495398E+03 -0.74837039796E+03  0.42347082651E+03  0.10810304854E+04  0.25500000920E-02 0.  1.
       -2    1    3    3    0  502 -0.65516495398E+03  0.74837039796E+03  0.20578236737E+03  0.10156996368E+04  0.25500000920E-02 0. -1.
</event>
<event>
 5   0  0.2379743E-06  0.1999924E+04  0.7818609E-02  0.8606656E-01
       -1   -1    0    0    0  501  0.00000000000E+00  0.00000000000E+00  0.82958793657E+03  0.82958793658E+03  0.50400001928E-02 0.  1.
        1   -1    0    0  501    0  0.00000000000E+00  0.00000000000E+00 -0.12053256831E+04  0.12053256831E+04  0.50400001928E-02 0. -1.
    10030    2    1    2    0    0  0.00000000000E+00  0.00000000000E+00 -0.37573774652E+03  0.20349136197E+04  0.19999236449E+04 0.  0.
        5    1    3    3  502    0  0.65187846671E+03  0.38689429317E+03 -0.85140464055E+03  0.11399757372E+04  0.46999998093E+01 0. -1.
       -5    1    3    3    0  502 -0.65187846671E+03 -0.38689429317E+03  0.47566689403E+03  0.89493788249E+03  0.46999998093E+01 0.  1.
</event>
<event>
 5   0  0.2356996E-06  0.2000714E+04  0.7818609E-02  0.8606287E-01
       -1   -1    0    0    0  501  0.00000000000E+00  0.00000000000E+00  0.99024960237E+03  0.99024960239E+03  0.50400001928E-02 0. -1.
        1   -1    0    0  501    0  0.00000000000E+00  0.00000000000E+00 -0.10105679483E+04  0.10105679483E+04  0.50400001928E-02 0.  1.
    10030    2    1    2    0    0  0.00000000000E+00  0.00000000000E+00 -0.20318345934E+02  0.20008175507E+04  0.20007143814E+04 0.  0.
        4    1    3    3  502    0 -0.41941186513E+03 -0.72123470104E+03 -0.56211796424E+03  0.10060139289E+04  0.12699999809E+01 0.  1.
       -4    1    3    3    0  502  0.41941186513E+03  0.72123470104E+03  0.54179961831E+03  0.99480362177E+03  0.12699999809E+01 0. -1.
</event>
<event>
 5   0  0.5030137E-06  0.2000624E+04  0.7818609E-02  0.8606329E-01
       -2   -1    0    0    0  501  0.00000000000E+00  0.00000000000E+00  0.55151998576E+03  0.55151998577E+03  0.25500000920E-02 0.  1.
        2   -1    0    0  501    0  0.00000000000E+00  0.00000000000E+00 -0.18143023780E+04  0.18143023780E+04  0.25500000920E-02 0. -1.
    10030    2    1    2    0    0  0.00000000000E+00  0.00000000000E+00 -0.12627823922E+04  0.23658223637E+04  0.20006239243E+04 0.  0.
        3    1    3    3  502    0 -0.19918852339E+03  0.12001380791E+03 -0.17818927847E+04  0.17970034191E+04  0.10100000352E+00 0. -1.
       -3    1    3    3    0  502  0.19918852339E+03 -0.12001380791E+03  0.51911039250E+03  0.56881894461E+03  0.10100000352E+00 0.  1.
</event>
<event>
 5   0  0.2311520E-06  0.2000621E+04  0.7818609E-02  0.8606331E-01
        1   -1    0    0  501    0  0.00000000000E+00  0.00000000000E+00  0.25411471614E+04  0.25411471614E+04  0.50400001928E-02 0.  1.
       -1   -1    0    0    0  501  0.00000000000E+00  0.00000000000E+00 -0.39376735790E+03  0.39376735793E+03  0.50400001928E-02 0. -1.
    10030    2    1    2    0    0  0.00000000000E+00  0.00000000000E+00  0.21473798035E+04  0.29349145194E+04  0.20006207075E+04 0.  0.
        3    1    3    3  502    0  0.35182607094E+03  0.81105999219E+03  0.17602419628E+04  0.19697846768E+04  0.10100000352E+00 0.  1.
       -3    1    3    3    0  502 -0.35182607094E+03 -0.81105999219E+03  0.38713784077E+03  0.96512984261E+03  0.10100000352E+00 0. -1.
</event>
<event>
 5   0  0.2386776E-06  0.1999756E+04  0.7818609E-02  0.8606735E-01
        1   -1    0    0  501    0  0.00000000000E+00  0.00000000000E+00  0.65869637861E+03  0.65869637863E+03  0.50400001928E-02 0. -1.
       -1   -1    0    0    0  501  0.00000000000E+00  0.00000000000E+00 -0.15177793957E+04  0.15177793957E+04  0.50400001928E-02 0.  1.
    10030    2    1    2    0    0  0.00000000000E+00  0.00000000000E+00 -0.85908301706E+03  0.21764757743E+04  0.19997557766E+04 0.  0.
        2    1    3    3  502    0  0.18262459705E+03 -0.51026484173E+02  0.63894837954E+03  0.66649116818E+03  0.25500000920E-02 0. -1.
       -2    1    3    3    0  502 -0.18262459705E+03  0.51026484173E+02 -0.14980313966E+04  0.15099846061E+04  0.25500000920E-02 0.  1.
</event>
<event>
 5   0  0.2386776E-06  0.2000993E+04  0.7818609E-02  0.8606157E-01
        1   -1    0    0  501    0  0.00000000000E+00  0.00000000000E+00  0.11625370336E+04  0.11625370336E+04  0.50400001928E-02 0. -1.
       -1   -1    0    0    0  501  0.00000000000E+00  0.00000000000E+00 -0.86104195262E+03  0.86104195263E+03  0.50400001928E-02 0.  1.
    10030    2    1    2    0    0  0.00000000000E+00  0.00000000000E+00  0.30149508100E+03  0.20235789863E+04  0.20009929110E+04 0.  0.
        2    1    3    3  502    0 -0.78888958220E+02 -0.11822330723E+03 -0.85078087618E+03  0.86257076080E+03  0.25500000920E-02 0.  1.
       -2    1    3    3    0  502  0.78888958220E+02  0.11822330723E+03  0.11522759572E+04  0.11610082255E+04  0.25500000920E-02 0. -1.
</event>
<event>
 5   0  0.5118981E-06  0.2000376E+04  0.7818609E-02  0.8606445E-01
        2   -1    0    0  501    0  0.00000000000E+00  0.00000000000E+00  0.20761431287E+04  0.20761431287E+04  0.25500000920E-02 0.  1.
       -2   -1    0    0    0  501  0.00000000000E+00  0.00000000000E+00 -0.48184327912E+03  0.48184327913E+03  0.25500000920E-02 0. -1.
    10030    2    1    2    0    0  0.00000000000E+00  0.00000000000E+00  0.15942998496E+04  0.25579864078E+04  0.20003755778E+04 0.  0.
        4    1    3    3  502    0 -0.61584172985E+03 -0.39366580323E+03  0.16702116867E+04  0.18231408317E+04  0.12699999809E+01 0.  1.
       -4    1    3    3    0  502  0.61584172985E+03  0.39366580323E+03 -0.75911837127E+02  0.73484557614E+03  0.12699999809E+01 0. -1.
</event>
<event>
 5   0  0.2313821E-06  0.2000675E+04  0.7818609E-02  0.8606305E-01
       -1   -1    0    0    0  501  0.00000000000E+00  0.00000000000E+00  0.12247207509E+04  0.12247207509E+04  0.50400001928E-02 0.  1.
        1   -1    0    0  501    0  0.00000000000E+00  0.00000000000E+00 -0.81706399635E+03  0.81706399636E+03  0.50400001928E-02 0. -1.
    10030    2    1    2    0    0  0.00000000000E+00  0.00000000000E+00  0.40765675455E+03  0.20417847473E+04  0.20006751172E+04 0.  0.
        1    1    3    3  502    0  0.88486647354E+03  0.42815988596E+03  0.14639423974E+02  0.98311946207E+03  0.50400001928E-02 0.  1.
       -1    1    3    3    0  502 -0.88486647354E+03 -0.42815988596E+03  0.39301733058E+03  0.10586652852E+04  0.50400001928E-02 0. -1.
</event>
<event>
 5   0  0.2313821E-06  0.2000384E+04  0.7818609E-02  0.8606441E-01
       -1   -1    0    0    0  501  0.00000000000E+00  0.00000000000E+00  0.48554377978E+03  0.48554377981E+03  0.50400001928E-02 0. -1.
        1   -1    0    0  501    0  0.00000000000E+00  0.00000000000E+00 -0.20603380215E+04  0.20603380215E+04  0.50400001928E-02 0.  1.
    10030    2    1    2    0    0  0.00000000000E+00  0.00000000000E+00 -0.15747942417E+04  0.25458818013E+04  0.20003842737E+04 0.  0.
        1    1    3    3  502    0 -0.10157218205E+02  0.74307805168E+03  0.64564641655E+02  0.74594688346E+03  0.50400001928E-02 0. -1.
       -1    1    3    3    0  502  0.10157218205E+02 -0.74307805168E+03 -0.16393588833E+04  0.17999349178E+04  0.50400001928E-02 0.  1.
</event>
<event>
 5   0  0.5251252E-06  0.2000563E+04  0.7818609E-02  0.8606357E-01
        2   -1    0    0  501    0  0.00000000000E+00  0.00000000000E+00  0.61751024014E+03  0.61751024014E+03  0.25500000920E-02 0.  1.
       -2   -1    0    0    0  501  0.00000000000E+00  0.00000000000E+00 -0.16203189278E+04  0.16203189278E+04  0.25500000920E-02 0. -1.
    10030    2    1    2    0    0  0.00000000000E+00  0.00000000000E+00 -0.10028086876E+04  0.22378291679E+04  0.20005634508E+04 0.  0.
        5    1    3    3  502    0 -0.64487644585E+03  0.74678847654E+03 -0.31765831793E+03  0.10365749158E+04  0.46999998093E+01 0.  1.
       -5    1    3    3    0  502  0.64487644585E+03 -0.74678847654E+03 -0.68515036968E+03  0.12012542521E+04  0.46999998093E+01 0. -1.
</event>
<event>
 5   0  0.4956214E-06  0.1988670E+04  0.7818609E-02  0.8611936E-01
       -2   -1    0    0    0  501  0.00000000000E+00  0.00000000000E+00  0.10531975913E+04  0.10531975914E+04  0.25500000920E-02 0. -1.
        2   -1    0    0  501    0  0.00000000000E+00  0.00000000000E+00 -0.93876258244E+03  0.93876258245E+03  0.25500000920E-02 0.  1.
    10030    2    1    2    0    0  0.00000000000E+00  0.00000000000E+00  0.11443500890E+03  0.19919601738E+04  0.19886704007E+04 0.  0.
        1    1    3    3  502    0 -0.52646208899E+03 -0.22601203947E+03 -0.75681300025E+03  0.94921530250E+03  0.50400001928E-02 0.  1.
       -1    1    3    3    0  502  0.52646208899E+03  0.22601203947E+03  0.87124800916E+03  0.10427448713E+04  0.50400001928E-02 0. -1.
</event>
<event>
 5   0  0.4956214E-06  0.2000277E+04  0.7818609E-02  0.8606491E-01
       -2   -1    0    0    0  501  0.00000000000E+00  0.00000000000E+00  0.57410678267E+03  0.57410678267E+03  0.25500000920E-02 0.  1.
        2   -1    0    0  501    0  0.00000000000E+00  0.00000000000E+00 -0.17423187047E+04  0.17423187047E+04  0.25500000920E-02 0. -1.
    10030    2    1    2    0    0  0.00000000000E+00  0.00000000000E+00 -0.11682119221E+04  0.23164254874E+04  0.20002769668E+04 0.  0.
        1    1    3    3  502    0  0.85037356247E+03 -0.51893639158E+03 -0.48152309801E+03  0.11064784988E+04  0.50400001928E-02 0. -1.
       -1    1    3    3    0  502 -0.85037356247E+03  0.51893639158E+03 -0.68668882406E+03  0.12099469887E+04  0.50400001928E-02 0.  1.
</event>
<event>
 5   0  0.2311520E-06  0.2000120E+04  0.7818609E-02  0.8606564E-01
       -1   -1    0    0    0  501  0.00000000000E+00  0.00000000000E+00  0.66045472455E+03  0.66045472457E+03  0.50400001928E-02 0.  1.
        1   -1    0    0  501    0  0.00000000000E+00  0.00000000000E+00 -0.15142905462E+04  0.15142905462E+04  0.50400001928E-02 0. -1.
    10030    2    1    2    0    0  0.00000000000E+00  0.00000000000E+00 -0.85383582165E+03  0.21747452708E+04  0.20001203420E+04 0.  0.
        3    1    3    3  502    0  0.83014199650E+03  0.46848521832E+03 -0.98007567063E+02  0.95823777192E+03  0.10100000352E+00 0.  1.
       -3    1    3    3    0  502 -0.83014199650E+03 -0.46848521832E+03 -0.75582825459E+03  0.12165074989E+04  0.10100000352E+00 0. -1.
</event>
<event>
 5   0  0.5251252E-06  0.2000416E+04  0.7818609E-02  0.8606426E-01
       -2   -1    0    0    0  501  0.00000000000E+00  0.00000000000E+00  0.63522768006E+03  0.63522768006E+03  0.25500000920E-02 0.  1.
        2   -1    0    0  501    0  0.00000000000E+00  0.00000000000E+00 -0.15748932651E+04  0.15748932651E+04  0.25500000920E-02 0. -1.
    10030    2    1    2    0    0  0.00000000000E+00  0.00000000000E+00 -0.93966558508E+03  0.22101209452E+04  0.20004157519E+04 0.  0.
        5    1    3    3  502    0  0.88179985828E+03 -0.45356722372E+03 -0.61430600728E+03  0.11664853951E+04  0.46999998093E+01 0.  1.
       -5    1    3    3    0  502 -0.88179985828E+03  0.45356722372E+03 -0.32535957779E+03  0.10436355501E+04  0.46999998093E+01 0. -1.
</event>
<event>
 5   0  0.5129100E-06  0.2000113E+04  0.7818609E-02  0.8606568E-01
        2   -1    0    0  501    0  0.00000000000E+00  0.00000000000E+00  0.28098492735E+04  0.28098492735E+04  0.25500000920E-02 0.  1.
       -2   -1    0    0    0  501  0.00000000000E+00  0.00000000000E+00 -0.35593116549E+03  0.35593116550E+03  0.25500000920E-02 0. -1.
    10030    2    1    2    0    0  0.00000000000E+00  0.00000000000E+00  0.24539181080E+04  0.31657804390E+04  0.20001129236E+04 0.  0.
        2    1    3    3  502    0  0.13214363569E+03  0.70811434831E+03  0.12896398140E+03  0.73179203278E+03  0.25500000920E-02 0. -1.
       -2    1    3    3    0  502 -0.13214363569E+03 -0.70811434831E+03  0.23249541266E+04  0.24339884062E+04  0.25500000920E-02 0.  1.
</event>
<event>
 5   0  0.2379743E-06  0.2000928E+04  0.7818609E-02  0.8606187E-01
        1   -1    0    0  501    0  0.00000000000E+00  0.00000000000E+00  0.16517621535E+04  0.16517621535E+04  0.50400001928E-02 0. -1.
       -1   -1    0    0    0  501  0.00000000000E+00  0.00000000000E+00 -0.60597597880E+03  0.60597597882E+03  0.50400001928E-02 0.  1.
    10030    2    1    2    0    0  0.00000000000E+00  0.00000000000E+00  0.10457861747E+04  0.22577381324E+04  0.20009279725E+04 0.  0.
        5    1    3    3  502    0  0.16988225558E+01  0.16427160068E+03  0.16364266734E+04  0.16446587464E+04  0.46999998093E+01 0. -1.
       -5    1    3    3    0  502 -0.16988225558E+01 -0.16427160068E+03 -0.59064049867E+03  0.61307938593E+03  0.46999998093E+01 0.  1.
</event>
<event>
 5   0  0.4956214E-06  0.2000069E+04  0.7818609E-02  0.8606589E-01
       -2   -1    0    0    0  501  0.00000000000E+00  0.00000000000E+00  0.14327979919E+04  0.14327979919E+04  0.25500000920E-02 0.  1.
        2   -1    0    0  501    0  0.00000000000E+00  0.00000000000E+00 -0.69798296711E+03  0.69798296712E+03  0.25500000920E-02 0. -1.
    10030    2    1    2    0    0  0.00000000000E+00  0.00000000000E+00  0.73481502479E+03  0.21307809590E+04  0.20000685925E+04 0.  0.
        1    1    3    3  502    0  0.28351985900E+03  0.94566499988E+03  0.53720632010E+03  0.11239468105E+04  0.50400001928E-02 0.  1.
       -1    1    3    3    0  502 -0.28351985900E+03 -0.94566499988E+03  0.19760870470E+03  0.10068341485E+04  0.50400001928E-02 0. -1.
</event>
<event>
 5   0  0.5118981E-06  0.1999010E+04  0.7818609E-02  0.8607083E-01
       -2   -1    0    0    0  501  0.00000000000E+00  0.00000000000E+00  0.42907988250E+03  0.42907988251E+03  0.25500000920E-02 0.  1.
        2   -1    0    0  501    0  0.00000000000E+00  0.00000000000E+00 -0.23282627441E+04  0.23282627441E+04  0.25500000920E-02 0. -1.
    10030    2    1    2    0    0  0.00000000000E+00  0.00000000000E+00 -0.18991828616E+04  0.27573426266E+04  0.19990104599E+04 0.  0.
        4    1    3    3  502    0 -0.68438448836E+03 -0.69709740496E+03 -0.12411614099E+04  0.15794968117E+04  0.12699999809E+01 0. -1.
       -4    1    3    3    0  502  0.68438448836E+03  0.69709740496E+03 -0.65802145177E+03  0.11778458150E+04  0.12699999809E+01 0.  1.
</event>
<event>
 5   0  0.4956214E-06  0.1999863E+04  0.7818609E-02  0.8606685E-01
       -2   -1    0    0    0  501  0.00000000000E+00  0.00000000000E+00  0.50160507797E+03  0.50160507797E+03  0.25500000920E-02 0.  1.
        2   -1    0    0  501    0  0.00000000000E+00  0.00000000000E+00 -0.19933270200E+04  0.19933270200E+04  0.25500000920E-02 0. -1.
    10030    2    1    2    0    0  0.00000000000E+00  0.00000000000E+00 -0.14917219421E+04  0.24949320980E+04  0.19998629506E+04 0.  0.
        1    1    3    3  502    0  0.76838670550E+03  0.57544784645E+03 -0.10949628121E+04  0.14561943253E+04  0.50400001928E-02 0. -1.
       -1    1    3    3    0  502 -0.76838670550E+03 -0.57544784645E+03 -0.39675912993E+03  0.10387377727E+04  0.50400001928E-02 0.  1.
</event>
<event>
 5   0  0.5129100E-06  0.2000865E+04  0.7818609E-02  0.8606216E-01
       -2   -1    0    0    0  501  0.00000000000E+00  0.00000000000E+00  0.69488701680E+03  0.69488701680E+03  0.25500000920E-02 0.  1.
        2   -1    0    0  501    0  0.00000000000E+00  0.00000000000E+00 -0.14403277727E+04  0.14403277727E+04  0.25500000920E-02 0. -1.
    10030    2    1    2    0    0  0.00000000000E+00  0.00000000000E+00 -0.74544075590E+03  0.21352147895E+04  0.20008648822E+04 0.  0.
        2    1    3    3  502    0 -0.32398886718E+03 -0.93879850623E+03 -0.24398149455E+03  0.10226624033E+04  0.25500000920E-02 0.  1.
       -2    1    3    3    0  502  0.32398886718E+03  0.93879850623E+03 -0.50145926135E+03  0.11125523862E+04  0.25500000920E-02 0. -1.
</event>
<event>
 5   0  0.2386776E-06  0.1999775E+04  0.7818609E-02  0.8606726E-01
        1   -1    0    0  501    0  0.00000000000E+00  0.00000000000E+00  0.24033207398E+04  0.24033207398E+04  0.50400001928E-02 0. -1.
       -1   -1    0    0    0  501  0.00000000000E+00  0.00000000000E+00 -0.41599724193E+03  0.41599724196E+03  0.50400001928E-02 0.  1.
    10030    2    1    2    0    0  0.00000000000E+00  0.00000000000E+00  0.19873234979E+04  0.28193179818E+04  0.19997747866E+04 0.  0.
        2    1    3    3  502    0  0.27379145699E+03 -0.84985958095E+03  0.16281607626E+04  0.18569142517E+04  0.25500000920E-02 0. -1.
       -2    1    3    3    0  502 -0.27379145699E+03  0.84985958095E+03  0.35916273528E+03  0.96240373008E+03  0.25500000920E-02 0.  1.
</event>
<event>
 5   0  0.2386776E-06  0.1999741E+04  0.7818609E-02  0.8606742E-01
        1   -1    0    0  501    0  0.00000000000E+00  0.00000000000E+00  0.14229089381E+04  0.14229089381E+04  0.50400001928E-02 0. -1.
       -1   -1    0    0    0  501  0.00000000000E+00  0.00000000000E+00 -0.70260365997E+03  0.70260365999E+03  0.50400001928E-02 0.  1.
    10030    2    1    2    0    0  0.00000000000E+00  0.00000000000E+00  0.72030527808E+03  0.21255125980E+04  0.19997410109E+04 0.  0.
        2    1    3    3  502    0 -0.68453927623E+03  0.16625806501E+03  0.11143620328E+04  0.13183468834E+04  0.25500000920E-02 0. -1.
       -2    1    3    3    0  502  0.68453927623E+03 -0.16625806501E+03 -0.39405675473E+03  0.80716571461E+03  0.25500000920E-02 0.  1.
</event>
<event>
 5   0  0.4956214E-06  0.2003377E+04  0.7818609E-02  0.8605043E-01
       -2   -1    0    0    0  501  0.00000000000E+00  0.00000000000E+00  0.90075741048E+03  0.90075741049E+03  0.25500000920E-02 0. -1.
        2   -1    0    0  501    0  0.00000000000E+00  0.00000000000E+00 -0.11139291276E+04  0.11139291276E+04  0.25500000920E-02 0.  1.
    10030    2    1    2    0    0  0.00000000000E+00  0.00000000000E+00 -0.21317171713E+03  0.20146865381E+04  0.20033770653E+04 0.  0.
        1    1    3    3  502    0  0.24403629474E+03  0.97094778608E+03 -0.13973556121E+03  0.10108508018E+04  0.50400001928E-02 0. -1.
       -1    1    3    3    0  502 -0.24403629474E+03 -0.97094778608E+03 -0.73436155921E+02  0.10038357363E+04  0.50400001928E-02 0.  1.
</event>
<event>
 5   0  0.2313821E-06  0.2001826E+04  0.7818609E-02  0.8605768E-01
        1   -1    0    0  501    0  0.00000000000E+00  0.00000000000E+00  0.11687030954E+04  0.11687030954E+04  0.50400001928E-02 0.  1.
       -1   -1    0    0    0  501  0.00000000000E+00  0.00000000000E+00 -0.85721209971E+03  0.85721209973E+03  0.50400001928E-02 0. -1.
    10030    2    1    2    0    0  0.00000000000E+00  0.00000000000E+00  0.31149099566E+03  0.20259151951E+04  0.20018256011E+04 0.  0.
        1    1    3    3  502    0 -0.13165362976E+03  0.96004146330E+02  0.11551907402E+04  0.11666255272E+04  0.50400001928E-02 0.  1.
       -1    1    3    3    0  502  0.13165362976E+03 -0.96004146330E+02 -0.84369974458E+03  0.85928966791E+03  0.50400001928E-02 0. -1.
</event>
<event>
 5   0  0.2379743E-06  0.1998403E+04  0.7818609E-02  0.8607368E-01
       -1   -1    0    0    0  501  0.00000000000E+00  0.00000000000E+00  0.44894920623E+03  0.44894920626E+03  0.50400001928E-02 0.  1.
        1   -1    0    0  501    0  0.00000000000E+00  0.00000000000E+00 -0.22238676844E+04  0.22238676844E+04  0.50400001928E-02 0. -1.
    10030    2    1    2    0    0  0.00000000000E+00  0.00000000000E+00 -0.17749184782E+04  0.26728168907E+04  0.19984029941E+04 0.  0.
        5    1    3    3  502    0 -0.38287094233E+03  0.57006605885E+03  0.83309188462E+02  0.69175716896E+03  0.46999998093E+01 0.  1.
       -5    1    3    3    0  502  0.38287094233E+03 -0.57006605885E+03 -0.18582276667E+04  0.19810597217E+04  0.46999998093E+01 0. -1.
</event>
<event>
 5   0  0.5030137E-06  0.1999542E+04  0.7818609E-02  0.8606835E-01
        2   -1    0    0  501    0  0.00000000000E+00  0.00000000000E+00  0.22423545816E+04  0.22423545816E+04  0.25500000920E-02 0.  1.
       -2   -1    0    0    0  501  0.00000000000E+00  0.00000000000E+00 -0.44575535280E+03  0.44575535281E+03  0.25500000920E-02 0. -1.
    10030    2    1    2    0    0  0.00000000000E+00  0.00000000000E+00  0.17965992288E+04  0.26881099344E+04  0.19995415051E+04 0.  0.
        3    1    3    3  502    0  0.52494509774E+03 -0.10385143009E+03 -0.23702209549E+03  0.58526229942E+03  0.10100000352E+00 0. -1.
       -3    1    3    3    0  502 -0.52494509774E+03  0.10385143009E+03  0.20336213243E+04  0.21028476350E+04  0.10100000352E+00 0.  1.
</event>
<event>
 5   0  0.2356996E-06  0.2004090E+04  0.7818609E-02  0.8604711E-01
       -1   -1    0    0    0  501  0.00000000000E+00  0.00000000000E+00  0.80286175926E+03  0.80286175928E+03  0.50400001928E-02 0.  1.
        1   -1    0    0  501    0  0.00000000000E+00  0.00000000000E+00 -0.12506442340E+04  0.12506442340E+04  0.50400001928E-02 0. -1.
    10030    2    1    2    0    0  0.00000000000E+00  0.00000000000E+00 -0.44778247469E+03  0.20535059932E+04  0.20040902474E+04 0.  0.
        4    1    3    3  502    0 -0.71251944199E+03  0.23203959962E+03  0.45776900044E+03  0.87811183893E+03  0.12699999809E+01 0.  1.
       -4    1    3    3    0  502  0.71251944199E+03 -0.23203959962E+03 -0.90555147513E+03  0.11753941543E+04  0.12699999809E+01 0. -1.
</event>
<event>
 5   0  0.5129100E-06  0.2000843E+04  0.7818609E-02  0.8606227E-01
       -2   -1    0    0    0  501  0.00000000000E+00  0.00000000000E+00  0.64760779640E+03  0.64760779641E+03  0.25500000920E-02 0.  1.
        2   -1    0    0  501    0  0.00000000000E+00  0.00000000000E+00 -0.15454457509E+04  0.15454457509E+04  0.25500000920E-02 0. -1.
    10030    2    1    2    0    0  0.00000000000E+00  0.00000000000E+00 -0.89783795447E+03  0.21930535473E+04  0.20008425397E+04 0.  0.
        2    1    3    3  502    0  0.78443796007E+03 -0.11171533650E+03 -0.11183442190E+04  0.13705900269E+04  0.25500000920E-02 0. -1.
       -2    1    3    3    0  502 -0.78443796007E+03  0.11171533650E+03  0.22050626457E+03  0.82246352037E+03  0.25500000920E-02 0.  1.
</event>
<event>
 5   0  0.2313821E-06  0.2006313E+04  0.7818609E-02  0.8603675E-01
       -1   -1    0    0    0  501  0.00000000000E+00  0.00000000000E+00  0.80052777181E+03  0.80052777182E+03  0.50400001928E-02 0.  1.
        1   -1    0    0  501    0  0.00000000000E+00  0.00000000000E+00 -0.12570749840E+04  0.12570749840E+04  0.50400001928E-02 0. -1.
    10030    2    1    2    0    0  0.00000000000E+00  0.00000000000E+00 -0.45654721215E+03  0.20576027558E+04  0.20063134709E+04 0.  0.
        1    1    3    3  502    0 -0.29080009769E+03 -0.90388825773E+03  0.10364293020E+03  0.95515471851E+03  0.50400001928E-02 0.  1.
       -1    1    3    3    0  502  0.29080009769E+03  0.90388825773E+03 -0.56019014235E+03  0.11024480373E+04  0.50400001928E-02 0. -1.
</event>
<event>
 5   0  0.2313821E-06  0.2003894E+04  0.7818609E-02  0.8604802E-01
        1   -1    0    0  501    0  0.00000000000E+00  0.00000000000E+00  0.13792044993E+04  0.13792044993E+04  0.50400001928E-02 0.  1.
       -1   -1    0    0    0  501  0.00000000000E+00  0.00000000000E+00 -0.72788142862E+03  0.72788142863E+03  0.50400001928E-02 0. -1.
    10030    2    1    2    0    0  0.00000000000E+00  0.00000000000E+00  0.65132307064E+03  0.21070859279E+04  0.20038935514E+04 0.  0.
        1    1    3    3  502    0  0.57305369982E+03 -0.76714685325E+03  0.15528153588E+02  0.95767737830E+03  0.50400001928E-02 0.  1.
       -1    1    3    3    0  502 -0.57305369982E+03  0.76714685325E+03  0.63579491705E+03  0.11494085496E+04  0.50400001928E-02 0. -1.
</event>
<event>
 5   0  0.5251252E-06  0.1998940E+04  0.7818609E-02  0.8607117E-01
        2   -1    0    0  501    0  0.00000000000E+00  0.00000000000E+00  0.21219190680E+04  0.21219190680E+04  0.25500000920E-02 0. -1.
       -2   -1    0    0    0  501  0.00000000000E+00  0.00000000000E+00 -0.47077188217E+03  0.47077188218E+03  0.25500000920E-02 0.  1.
    10030    2    1    2    0    0  0.00000000000E+00  0.00000000000E+00  0.16511471858E+04  0.25926909502E+04  0.19989395523E+04 0.  0.
        5    1    3    3  502    0 -0.44600676110E+03  0.96408518493E+02  0.19789133547E+04  0.20308463233E+04  0.46999998093E+01 0. -1.
       -5    1    3    3    0  502  0.44600676110E+03 -0.96408518493E+02 -0.32776616884E+03  0.56184462694E+03  0.46999998093E+01 0.  1.
</event>
<event>
 5   0  0.2311520E-06  0.2001461E+04  0.7818609E-02  0.8605938E-01
        1   -1    0    0  501    0  0.00000000000E+00  0.00000000000E+00  0.14291546676E+04  0.14291546676E+04  0.50400001928E-02 0. -1.
       -1   -1    0    0    0  501  0.00000000000E+00  0.00000000000E+00 -0.70073721875E+03  0.70073721877E+03  0.50400001928E-02 0.  1.
    10030    2    1    2    0    0  0.00000000000E+00  0.00000000000E+00  0.72841744888E+03  0.21298918864E+04  0.20014613331E+04 0.  0.
        3    1    3    3  502    0 -0.29997569816E+03 -0.60647011537E+03 -0.42044531302E+03  0.79659631669E+03  0.10100000352E+00 0.  1.
       -3    1    3    3    0  502  0.29997569816E+03  0.60647011537E+03  0.11488627619E+04  0.13332955697E+04  0.10100000352E+00 0. -1.
</event>
<event>
 5   0  0.2379743E-06  0.1999904E+04  0.7818609E-02  0.8606666E-01
       -1   -1    0    0    0  501  0.00000000000E+00  0.00000000000E+00  0.76030617081E+03  0.76030617082E+03  0.50400001928E-02 0.  1.
        1   -1    0    0  501    0  0.00000000000E+00  0.00000000000E+00 -0.13151330780E+04  0.13151330780E+04  0.50400001928E-02 0. -1.
    10030    2    1    2    0    0  0.00000000000E+00  0.00000000000E+00 -0.55482690716E+03  0.20754392488E+04  0.19999037923E+04 0.  0.
        5    1    3    3  502    0  0.47172139020E+03 -0.49290008595E+03  0.48123096402E+03  0.83491130992E+03  0.46999998093E+01 0.  1.
       -5    1    3    3    0  502 -0.47172139020E+03  0.49290008595E+03 -0.10360578712E+04  0.12405279389E+04  0.46999998093E+01 0. -1.
</event>
<event>
 5   0  0.5129100E-06  0.1999839E+04  0.7818609E-02  0.8606696E-01
       -2   -1    0    0    0  501  0.00000000000E+00  0.00000000000E+00  0.99219818767E+03  0.99219818768E+03  0.25500000920E-02 0.  1.
        2   -1    0    0  501    0  0.00000000000E+00  0.00000000000E+00 -0.10077010975E+04  0.10077010975E+04  0.25500000920E-02 0. -1.
    10030    2    1    2    0    0  0.00000000000E+00  0.00000000000E+00 -0.15502909786E+02  0.19998992851E+04  0.19998391962E+04 0.  0.
        2    1    3    3  502    0 -0.42898931127E+03 -0.63228397137E+03  0.63726742378E+03  0.99494955603E+03  0.25500000920E-02 0.  1.
       -2    1    3    3    0  502  0.42898931127E+03  0.63228397137E+03 -0.65277033357E+03  0.10049497291E+04  0.25500000920E-02 0. -1.
</event>
<event>
 5   0  0.5118981E-06  0.1999818E+04  0.7818609E-02  0.8606706E-01
       -2   -1    0    0    0  501  0.00000000000E+00  0.00000000000E+00  0.53369539459E+03  0.53369539460E+03  0.25500000920E-02 0. -1.
        2   -1    0    0  501    0  0.00000000000E+00  0.00000000000E+00 -0.18733875357E+04  0.18733875357E+04  0.25500000920E-02 0.  1.
    10030    2    1    2    0    0  0.00000000000E+00  0.00000000000E+00 -0.13396921411E+04  0.24070829303E+04  0.19998182918E+04 0.  0.
        4    1    3    3  502    0  0.33934173493E+03 -0.91839310705E+03 -0.42547834721E+03  0.10675355493E+04  0.12699999809E+01 0. -1.
       -4    1    3    3    0  502 -0.33934173493E+03  0.91839310705E+03 -0.91421379390E+03  0.13395473810E+04  0.12699999809E+01 0.  1.
</event>
<event>
 5   0  0.2311520E-06  0.1999921E+04  0.7818609E-02  0.8606658E-01
       -1   -1    0    0    0  501  0.00000000000E+00  0.00000000000E+00  0.48002541293E+03  0.48002541296E+03  0.50400001928E-02 0.  1.
        1   -1    0    0  501    0  0.00000000000E+00  0.00000000000E+00 -0.20830577806E+04  0.20830577806E+04  0.50400001928E-02 0. -1.
    10030    2    1    2    0    0  0.00000000000E+00  0.00000000000E+00 -0.16030323676E+04  0.25630831935E+04  0.19999206697E+04 0.  0.
        3    1    3    3  502    0  0.13259971138E+03 -0.50832171564E+03 -0.18919600744E+04  0.19635393002E+04  0.10100000352E+00 0. -1.
       -3    1    3    3    0  502 -0.13259971138E+03  0.50832171564E+03  0.28892770680E+03  0.59954389331E+03  0.10100000352E+00 0.  1.
</event>
<event>
 5   0  0.5129100E-06  0.1999772E+04  0.7818609E-02  0.8606727E-01
       -2   -1    0    0    0  501  0.00000000000E+00  0.00000000000E+00  0.11000364448E+04  0.11000364448E+04  0.25500000920E-02 0.  1.
        2   -1    0    0  501    0  0.00000000000E+00  0.00000000000E+00 -0.90885367977E+03  0.90885367977E+03  0.25500000920E-02 0. -1.
    10030    2    1    2    0    0  0.00000000000E+00  0.00000000000E+00  0.19118276505E+03  0.20088901246E+04  0.19997721578E+04 0.  0.
        2    1    3    3  502    0 -0.53982600720E+03 -0.78797655597E+03 -0.20148150822E+03  0.97617312448E+03  0.25500000920E-02 0. -1.
       -2    1    3    3    0  502  0.53982600720E+03  0.78797655597E+03  0.39266427327E+03  0.10327170001E+04  0.25500000920E-02 0.  1.
</event>
<event>
 5   0  0.5118981E-06  0.1999757E+04  0.7818609E-02  0.8606734E-01
        2   -1    0    0  501    0  0.00000000000E+00  0.00000000000E+00  0.88585199087E+03  0.88585199087E+03  0.25500000920E-02 0. -1.
       -2   -1    0    0    0  501  0.00000000000E+00  0.00000000000E+00 -0.11285825121E+04  0.11285825121E+04  0.25500000920E-02 0.  1.
    10030    2    1    2    0    0  0.00000000000E+00  0.00000000000E+00 -0.24273052121E+03  0.20144345030E+04  0.19997570504E+04 0.  0.
        4    1    3    3  502    0  0.70883507804E+01 -0.57884987029E+03  0.69987174394E+03  0.90826179482E+03  0.12699999809E+01 0. -1.
       -4    1    3    3    0  502 -0.70883507804E+01  0.57884987029E+03 -0.94260226516E+03  0.11061727081E+04  0.12699999809E+01 0.  1.
</event>
<event>
 5   0  0.5030137E-06  0.2000561E+04  0.7818609E-02  0.8606358E-01
        2   -1    0    0  501    0  0.00000000000E+00  0.00000000000E+00  0.12391189923E+04  0.12391189924E+04  0.25500000920E-02 0.  1.
       -2   -1    0    0    0  501  0.00000000000E+00  0.00000000000E+00 -0.80747782137E+03  0.80747782138E+03  0.25500000920E-02 0. -1.
    10030    2    1    2    0    0  0.00000000000E+00  0.00000000000E+00  0.43164117098E+03  0.20465968137E+04  0.20005610257E+04 0.  0.
        3    1    3    3  502    0  0.19482665914E+03 -0.53349387813E+03  0.10581684461E+04  0.12009552929E+04  0.10100000352E+00 0.  1.
       -3    1    3    3    0  502 -0.19482665914E+03  0.53349387813E+03 -0.62652727508E+03  0.84564152082E+03  0.10100000352E+00 0. -1.
</event>
<event>
 5   0  0.2379743E-06  0.1999869E+04  0.7818609E-02  0.8606682E-01
       -1   -1    0    0    0  501  0.00000000000E+00  0.00000000000E+00  0.49116209635E+03  0.49116209638E+03  0.50400001928E-02 0.  1.
        1   -1    0    0  501    0  0.00000000000E+00  0.00000000000E+00 -0.20357207828E+04  0.20357207828E+04  0.50400001928E-02 0. -1.
    10030    2    1    2    0    0  0.00000000000E+00  0.00000000000E+00 -0.15445586865E+04  0.25268828792E+04  0.19998688830E+04 0.  0.
        5    1    3    3  502    0 -0.31055507500E+03 -0.54065060911E+03  0.21545344204E+03  0.65968917789E+03  0.46999998093E+01 0.  1.
       -5    1    3    3    0  502  0.31055507500E+03  0.54065060911E+03 -0.17600121285E+04  0.18671937013E+04  0.46999998093E+01 0. -1.
</event>
<event>
 5   0  0.5129100E-06  0.1999855E+04  0.7818609E-02  0.8606688E-01
       -2   -1    0    0    0  501  0.00000000000E+00  0.00000000000E+00  0.10018103221E+04  0.10018103221E+04  0.25500000920E-02 0.  1.
        2   -1    0    0  501    0  0.00000000000E+00  0.00000000000E+00 -0.99804864958E+03  0.99804864958E+03  0.25500000920E-02 0. -1.
    10030    2    1    2    0    0  0.00000000000E+00  0.00000000000E+00  0.37616725013E+01  0.19998589717E+04  0.19998554339E+04 0.  0.
        2    1    3    3  502    0 -0.59800621449E+03 -0.16901559776E+03 -0.78149640714E+03  0.99845597761E+03  0.25500000920E-02 0. -1.
       -2    1    3    3    0  502  0.59800621449E+03  0.16901559776E+03  0.78525807964E+03  0.10014029941E+04  0.25500000920E-02 0.  1.
</event>
<event>
 5   0  0.1777750E-06  0.2003048E+04  0.7818609E-02  0.8605197E-01
        3   -1    0    0  501    0  0.00000000000E+00  0.00000000000E+00  0.77431565667E+03  0.77431566325E+03  0.10100000352E+00 0.  1.
       -3   -1    0    0    0  501  0.00000000000E+00  0.00000000000E+00 -0.12954027698E+04  0.12954027737E+04  0.10100000352E+00 0. -1.
    10030    2    1    2    0    0  0.00000000000E+00  0.00000000000E+00 -0.52108711312E+03  0.20697184370E+04  0.20030483341E+04 0.  0.
        1    1    3    3  502    0 -0.38344668191E+03 -0.65548282178E+03  0.41415357768E+03  0.86499264358E+03  0.50400001928E-02 0.  1.
       -1    1    3    3    0  502  0.38344668191E+03  0.65548282178E+03 -0.93524069080E+03  0.12047257934E+04  0.50400001928E-02 0. -1.
</event>
<event>
 5   0  0.2356996E-06  0.1997173E+04  0.7818609E-02  0.8607943E-01
       -1   -1    0    0    0  501  0.00000000000E+00  0.00000000000E+00  0.55622478073E+03  0.55622478075E+03  0.50400001928E-02 0. -1.
        1   -1    0    0  501    0  0.00000000000E+00  0.00000000000E+00 -0.17927555827E+04  0.17927555827E+04  0.50400001928E-02 0.  1.
    10030    2    1    2    0    0  0.00000000000E+00  0.00000000000E+00 -0.12365308020E+04  0.23489803635E+04  0.19971730831E+04 0.  0.
        4    1    3    3  502    0  0.42936623298E+03 -0.72226551822E+03  0.16367447062E+02  0.84041201030E+03  0.12699999809E+01 0. -1.
       -4    1    3    3    0  502 -0.42936623298E+03  0.72226551822E+03 -0.12528982490E+04  0.15085683532E+04  0.12699999809E+01 0.  1.
</event>
<event>
 5   0  0.5129100E-06  0.1997042E+04  0.7818609E-02  0.8608005E-01
        2   -1    0    0  501    0  0.00000000000E+00  0.00000000000E+00  0.21991856551E+04  0.21991856551E+04  0.25500000920E-02 0. -1.
       -2   -1    0    0    0  501  0.00000000000E+00  0.00000000000E+00 -0.45336985333E+03  0.45336985333E+03  0.25500000920E-02 0.  1.
    10030    2    1    2    0    0  0.00000000000E+00  0.00000000000E+00  0.17458158018E+04  0.26525555085E+04  0.19970422909E+04 0.  0.
        2    1    3    3  502    0  0.49203002259E+03  0.47273760768E+03  0.18412228414E+04  0.19635875179E+04  0.25500000920E-02 0. -1.
       -2    1    3    3    0  502 -0.49203002259E+03 -0.47273760768E+03 -0.95407039555E+02  0.68896799058E+03  0.25500000920E-02 0.  1.
</event>
<event>
 5   0  0.2379743E-06  0.1996487E+04  0.7818609E-02  0.8608265E-01
       -1   -1    0    0    0  501  0.00000000000E+00  0.00000000000E+00  0.77159136078E+03  0.77159136080E+03  0.50400001928E-02 0. -1.
        1   -1    0    0  501    0  0.00000000000E+00  0.00000000000E+00 -0.12914734195E+04  0.12914734195E+04  0.50400001928E-02 0.  1.
    10030    2    1    2    0    0  0.00000000000E+00  0.00000000000E+00 -0.51988205872E+03  0.20630647803E+04  0.19964866473E+04 0.  0.
        5    1    3    3  502    0  0.28581326860E+03 -0.94343273928E+03 -0.42238737198E+03  0.10724680602E+04  0.46999998093E+01 0.  1.
       -5    1    3    3    0  502 -0.28581326860E+03  0.94343273928E+03 -0.97494686739E+02  0.99059672016E+03  0.46999998093E+01 0. -1.
</event>
<event>
 5   0  0.2379743E-06  0.2001791E+04  0.7818609E-02  0.8605784E-01
        1   -1    0    0  501    0  0.00000000000E+00  0.00000000000E+00  0.10591332926E+04  0.10591332926E+04  0.50400001928E-02 0.  1.
       -1   -1    0    0    0  501  0.00000000000E+00  0.00000000000E+00 -0.94585974028E+03  0.94585974030E+03  0.50400001928E-02 0. -1.
    10030    2    1    2    0    0  0.00000000000E+00  0.00000000000E+00  0.11327355232E+03  0.20049930329E+04  0.20017907394E+04 0.  0.
        5    1    3    3  502    0  0.37365045409E+02  0.40857218077E+02  0.10575872396E+04  0.10590459472E+04  0.46999998093E+01 0.  1.
       -5    1    3    3    0  502 -0.37365045409E+02 -0.40857218077E+02 -0.94431368731E+03  0.94594708569E+03  0.46999998093E+01 0. -1.
</event>
<event>
 5   0  0.2311520E-06  0.2003600E+04  0.7818609E-02  0.8604939E-01
       -1   -1    0    0    0  501  0.00000000000E+00  0.00000000000E+00  0.46675382793E+03  0.46675382795E+03  0.50400001928E-02 0.  1.
        1   -1    0    0  501    0  0.00000000000E+00  0.00000000000E+00 -0.21501767397E+04  0.21501767397E+04  0.50400001928E-02 0. -1.
    10030    2    1    2    0    0  0.00000000000E+00  0.00000000000E+00 -0.16834229118E+04  0.26169305677E+04  0.20035999840E+04 0.  0.
        3    1    3    3  502    0  0.93560019636E+03  0.32960035593E+03 -0.10246564918E+04  0.14261504333E+04  0.10100000352E+00 0.  1.
       -3    1    3    3    0  502 -0.93560019636E+03 -0.32960035593E+03 -0.65876641999E+03  0.11907801344E+04  0.10100000352E+00 0. -1.
</event>
<event>
 5   0  0.2386776E-06  0.1999409E+04  0.7818609E-02  0.8606897E-01
       -1   -1    0    0    0  501  0.00000000000E+00  0.00000000000E+00  0.92711118493E+03  0.92711118495E+03  0.50400001928E-02 0.  1.
        1   -1    0    0  501    0  0.00000000000E+00  0.00000000000E+00 -0.10779813942E+04  0.10779813942E+04  0.50400001928E-02 0. -1.
    10030    2    1    2    0    0  0.00000000000E+00  0.00000000000E+00 -0.15087020930E+03  0.20050925792E+04  0.19994085203E+04 0.  0.
        2    1    3    3  502    0  0.28410308177E+03  0.81655023329E+03  0.42792784933E+03  0.96467149269E+03  0.25500000920E-02 0.  1.
       -2    1    3    3    0  502 -0.28410308177E+03 -0.81655023329E+03 -0.57879805863E+03  0.10404210865E+04  0.25500000920E-02 0. -1.
</event>
<event>
 5   0  0.5251252E-06  0.2000086E+04  0.7818609E-02  0.8606580E-01
        2   -1    0    0  501    0  0.00000000000E+00  0.00000000000E+00  0.13192504248E+04  0.13192504248E+04  0.25500000920E-02 0. -1.
       -2   -1    0    0    0  501  0.00000000000E+00  0.00000000000E+00 -0.75807144840E+03  0.75807144840E+03  0.25500000920E-02 0.  1.
    10030    2    1    2    0    0  0.00000000000E+00  0.00000000000E+00  0.56117897644E+03  0.20773218732E+04  0.20000860785E+04 0.  0.
        5    1    3    3  502    0 -0.29254717664E+03  0.94247002080E+03  0.11237726094E+03  0.99321917493E+03  0.46999998093E+01 0. -1.
       -5    1    3    3    0  502  0.29254717664E+03 -0.94247002080E+03  0.44880171550E+03  0.10841026983E+04  0.46999998093E+01 0.  1.
</event>
<event>
 5   0  0.2356996E-06  0.1999842E+04  0.7818609E-02  0.8606694E-01
        1   -1    0    0  501    0  0.00000000000E+00  0.00000000000E+00  0.14957231449E+04  0.14957231449E+04  0.50400001928E-02 0. -1.
       -1   -1    0    0    0  501  0.00000000000E+00  0.00000000000E+00 -0.66846758006E+03  0.66846758008E+03  0.50400001928E-02 0.  1.
    10030    2    1    2    0    0  0.00000000000E+00  0.00000000000E+00  0.82725556480E+03  0.21641907249E+04  0.19998424249E+04 0.  0.
        4    1    3    3  502    0 -0.20417505520E+03  0.76247733478E+03 -0.25064222302E+03  0.82818009882E+03  0.12699999809E+01 0.  1.
       -4    1    3    3    0  502  0.20417505520E+03 -0.76247733478E+03  0.10778977878E+04  0.13360106261E+04  0.12699999809E+01 0. -1.
</event>
<event>
 5   0  0.2379743E-06  0.1999347E+04  0.7818609E-02  0.8606926E-01
       -1   -1    0    0    0  501  0.00000000000E+00  0.00000000000E+00  0.12630798480E+04  0.12630798480E+04  0.50400001928E-02 0. -1.
        1   -1    0    0  501    0  0.00000000000E+00  0.00000000000E+00 -0.79119833201E+03  0.79119833202E+03  0.50400001928E-02 0.  1.
    10030    2    1    2    0    0  0.00000000000E+00  0.00000000000E+00  0.47188151599E+03  0.20542781800E+04  0.19993465622E+04 0.  0.
        5    1    3    3  502    0  0.11740843788E+03 -0.94620943420E+03 -0.72691091726E+02  0.95624427813E+03  0.46999998093E+01 0.  1.
       -5    1    3    3    0  502 -0.11740843788E+03  0.94620943420E+03  0.54457260772E+03  0.10980339019E+04  0.46999998093E+01 0. -1.
</event>
<event>
 5   0  0.5129100E-06  0.2000123E+04  0.7818609E-02  0.8606563E-01
        2   -1    0    0  501    0  0.00000000000E+00  0.00000000000E+00  0.16680584073E+04  0.16680584073E+04  0.25500000920E-02 0. -1.
       -2   -1    0    0    0  501  0.00000000000E+00  0.00000000000E+00 -0.59957289852E+03  0.59957289852E+03  0.25500000920E-02 0.  1.
    10030    2    1    2    0    0  0.00000000000E+00  0.00000000000E+00  0.10684855088E+04  0.22676313059E+04  0.20001226104E+04 0.  0.
        2    1    3    3  502    0 -0.84989800660E+03  0.22677405366E+03 -0.51744584789E+01  0.87964758174E+03  0.25500000920E-02 0.  1.
       -2    1    3    3    0  502  0.84989800660E+03 -0.22677405366E+03  0.10736599673E+04  0.13879837241E+04  0.25500000920E-02 0. -1.
</event>
<event>
 5   0  0.2386776E-06  0.2002992E+04  0.7818609E-02  0.8605223E-01
        1   -1    0    0  501    0  0.00000000000E+00  0.00000000000E+00  0.19177494619E+04  0.19177494619E+04  0.50400001928E-02 0.  1.
       -1   -1    0    0    0  501  0.00000000000E+00  0.00000000000E+00 -0.52300569270E+03  0.52300569272E+03  0.50400001928E-02 0. -1.
    10030    2    1    2    0    0  0.00000000000E+00  0.00000000000E+00  0.13947437692E+04  0.24407551546E+04  0.20029916483E+04 0.  0.
        2    1    3    3  502    0  0.98645966777E+03  0.15872505791E+03  0.78089015746E+03  0.12681032127E+04  0.25500000920E-02 0.  1.
       -2    1    3    3    0  502 -0.98645966777E+03 -0.15872505791E+03  0.61385361175E+03  0.11726519419E+04  0.25500000920E-02 0. -1.
</event>
<event>
 5   0  0.5251252E-06  0.2001218E+04  0.7818609E-02  0.8606051E-01
       -2   -1    0    0    0  501  0.00000000000E+00  0.00000000000E+00  0.47050291047E+03  0.47050291048E+03  0.25500000920E-02 0. -1.
        2   -1    0    0  501    0  0.00000000000E+00  0.00000000000E+00 -0.21279757707E+04  0.21279757707E+04  0.25500000920E-02 0.  1.
    10030    2    1    2    0    0  0.00000000000E+00  0.00000000000E+00 -0.16574728603E+04  0.25984786812E+04  0.20012184224E+04 0.  0.
        5    1    3    3  502    0  0.54971660017E+03  0.14510773558E+03  0.24037795641E+03  0.61729105563E+03  0.46999998093E+01 0. -1.
       -5    1    3    3    0  502 -0.54971660017E+03 -0.14510773558E+03 -0.18978508167E+04  0.19811876256E+04  0.46999998093E+01 0.  1.
</event>
<event>
 5   0  0.2313821E-06  0.2000441E+04  0.7818609E-02  0.8606415E-01
       -1   -1    0    0    0  501  0.00000000000E+00  0.00000000000E+00  0.10237306375E+04  0.10237306375E+04  0.50400001928E-02 0. -1.
        1   -1    0    0  501    0  0.00000000000E+00  0.00000000000E+00 -0.97724980703E+03  0.97724980705E+03  0.50400001928E-02 0.  1.
    10030    2    1    2    0    0  0.00000000000E+00  0.00000000000E+00  0.46480830457E+02  0.20009804445E+04  0.20004405195E+04 0.  0.
        1    1    3    3  502    0 -0.30737034323E+03  0.67548593368E+03 -0.64752449721E+03  0.98490900545E+03  0.50400001928E-02 0.  1.
       -1    1    3    3    0  502  0.30737034323E+03 -0.67548593368E+03  0.69400532766E+03  0.10160714391E+04  0.50400001928E-02 0. -1.
</event>
<event>
 5   0  0.5030137E-06  0.2001203E+04  0.7818609E-02  0.8606058E-01
       -2   -1    0    0    0  501  0.00000000000E+00  0.00000000000E+00  0.53433076336E+03  0.53433076337E+03  0.25500000920E-02 0.  1.
        2   -1    0    0  501    0  0.00000000000E+00  0.00000000000E+00 -0.18737526713E+04  0.18737526713E+04  0.25500000920E-02 0. -1.
    10030    2    1    2    0    0  0.00000000000E+00  0.00000000000E+00 -0.13394219080E+04  0.24080834347E+04  0.20012033332E+04 0.  0.
        3    1    3    3  502    0  0.59701326415E+03  0.77523644389E+03 -0.41791171486E+03  0.10639861809E+04  0.10100000352E+00 0.  1.
       -3    1    3    3    0  502 -0.59701326415E+03 -0.77523644389E+03 -0.92151019312E+03  0.13440972538E+04  0.10100000352E+00 0. -1.
</event>
<event>
 5   0  0.5251252E-06  0.1999624E+04  0.7818609E-02  0.8606797E-01
        2   -1    0    0  501    0  0.00000000000E+00  0.00000000000E+00  0.51877913749E+03  0.51877913749E+03  0.25500000920E-02 0. -1.
       -2   -1    0    0    0  501  0.00000000000E+00  0.00000000000E+00 -0.19268776788E+04  0.19268776788E+04  0.25500000920E-02 0.  1.
    10030    2    1    2    0    0  0.00000000000E+00  0.00000000000E+00 -0.14080985413E+04  0.24456568163E+04  0.19996239049E+04 0.  0.
        5    1    3    3  502    0  0.36147714347E+03 -0.23483652459E+03  0.39927410051E+03  0.58758473079E+03  0.46999998093E+01 0. -1.
       -5    1    3    3    0  502 -0.36147714347E+03  0.23483652459E+03 -0.18073726418E+04  0.18580720855E+04  0.46999998093E+01 0.  1.
</event>
<event>
 5   0  0.2313821E-06  0.1997101E+04  0.7818609E-02  0.8607977E-01
       -1   -1    0    0    0  501  0.00000000000E+00  0.00000000000E+00  0.89953840629E+03  0.89953840630E+03  0.50400001928E-02 0. -1.
        1   -1    0    0  501    0  0.00000000000E+00  0.00000000000E+00 -0.11084610997E+04  0.11084610997E+04  0.50400001928E-02 0.  1.
    10030    2    1    2    0    0  0.00000000000E+00  0.00000000000E+00 -0.20892269338E+03  0.20079995060E+04  0.19971012303E+04 0.  0.
        1    1    3    3  502    0  0.86019925722E+03 -0.39481832642E+03 -0.42444172617E+03  0.10372921729E+04  0.50400001928E-02 0.  1.
       -1    1    3    3    0  502 -0.86019925722E+03  0.39481832642E+03  0.21551903279E+03  0.97070733309E+03  0.50400001928E-02 0. -1.
</event>
<event>
 5   0  0.5129100E-06  0.1998365E+04  0.7818609E-02  0.8607385E-01
       -2   -1    0    0    0  501  0.00000000000E+00  0.00000000000E+00  0.46232991753E+03  0.46232991753E+03  0.25500000920E-02 0. -1.
        2   -1    0    0  501    0  0.00000000000E+00  0.00000000000E+00 -0.21594224439E+04  0.21594224439E+04  0.25500000920E-02 0.  1.
    10030    2    1    2    0    0  0.00000000000E+00  0.00000000000E+00 -0.16970925264E+04  0.26217523614E+04  0.19983649320E+04 0.  0.
        2    1    3    3  502    0  0.53636840115E+03 -0.79891737520E+03 -0.49552339019E+03  0.10823601362E+04  0.25500000920E-02 0. -1.
       -2    1    3    3    0  502 -0.53636840115E+03  0.79891737520E+03 -0.12015691362E+04  0.15393922252E+04  0.25500000920E-02 0.  1.
</event>
<event>
 5   0  0.5251252E-06  0.1999614E+04  0.7818609E-02  0.8606801E-01
        2   -1    0    0  501    0  0.00000000000E+00  0.00000000000E+00  0.60195225599E+03  0.60195225600E+03  0.25500000920E-02 0.  1.
       -2   -1    0    0    0  501  0.00000000000E+00  0.00000000000E+00 -0.16606198825E+04  0.16606198825E+04  0.25500000920E-02 0. -1.
    10030    2    1    2    0    0  0.00000000000E+00  0.00000000000E+00 -0.10586676265E+04  0.22625721385E+04  0.19996138474E+04 0.  0.
        5    1    3    3  502    0  0.76259077570E+03  0.57638260498E+03 -0.86082833199E+03  0.12863938377E+04  0.46999998093E+01 0. -1.
       -5    1    3    3    0  502 -0.76259077570E+03 -0.57638260498E+03 -0.19783929452E+03  0.97617830081E+03  0.46999998093E+01 0.  1.
</event>
<event>
 5   0  0.2356996E-06  0.2004134E+04  0.7818609E-02  0.8604690E-01
        1   -1    0    0  501    0  0.00000000000E+00  0.00000000000E+00  0.14726023688E+04  0.14726023688E+04  0.50400001928E-02 0.  1.
       -1   -1    0    0    0  501  0.00000000000E+00  0.00000000000E+00 -0.68188029072E+03  0.68188029073E+03  0.50400001928E-02 0. -1.
    10030    2    1    2    0    0  0.00000000000E+00  0.00000000000E+00  0.79072207806E+03  0.21544826595E+04  0.20041342583E+04 0.  0.
        4    1    3    3  502    0  0.69600289937E+03 -0.42678765395E+02 -0.37827593974E+03  0.79330688414E+03  0.12699999809E+01 0. -1.
       -4    1    3    3    0  502 -0.69600289937E+03  0.42678765395E+02  0.11689980178E+04  0.13611757754E+04  0.12699999809E+01 0.  1.
</event>
<event>
 5   0  0.5251252E-06  0.1998914E+04  0.7818609E-02  0.8607128E-01
        2   -1    0    0  501    0  0.00000000000E+00  0.00000000000E+00  0.10418230523E+04  0.10418230523E+04  0.25500000920E-02 0. -1.
       -2   -1    0    0    0  501  0.00000000000E+00  0.00000000000E+00 -0.95881407292E+03  0.95881407292E+03  0.25500000920E-02 0.  1.
    10030    2    1    2    0    0  0.00000000000E+00  0.00000000000E+00  0.83008979360E+02  0.20006371252E+04  0.19989143093E+04 0.  0.
        5    1    3    3  502    0 -0.10167083036E+03  0.63956192775E+03 -0.72041116781E+03  0.96870571273E+03  0.46999998093E+01 0.  1.
       -5    1    3    3    0  502  0.10167083036E+03 -0.63956192775E+03  0.80342014717E+03  0.10319314125E+04  0.46999998093E+01 0. -1.
</event>
<event>
 5   0  0.2356996E-06  0.1999605E+04  0.7818609E-02  0.8606806E-01
        1   -1    0    0  501    0  0.00000000000E+00  0.00000000000E+00  0.21642588700E+04  0.21642588700E+04  0.50400001928E-02 0. -1.
       -1   -1    0    0    0  501  0.00000000000E+00  0.00000000000E+00 -0.46186922986E+03  0.46186922989E+03  0.50400001928E-02 0.  1.
    10030    2    1    2    0    0  0.00000000000E+00  0.00000000000E+00  0.17023896402E+04  0.26261280999E+04  0.19996045385E+04 0.  0.
        4    1    3    3  502    0  0.51465114990E+03  0.23425279923E+03  0.19340800429E+04  0.20150452613E+04  0.12699999809E+01 0.  1.
       -4    1    3    3    0  502 -0.51465114990E+03 -0.23425279923E+03 -0.23169040269E+03  0.61108283861E+03  0.12699999809E+01 0. -1.
</event>
<event>
 5   0  0.2379743E-06  0.1999880E+04  0.7818609E-02  0.8606677E-01
       -1   -1    0    0    0  501  0.00000000000E+00  0.00000000000E+00  0.12473388781E+04  0.12473388781E+04  0.50400001928E-02 0.  1.
        1   -1    0    0  501    0  0.00000000000E+00  0.00000000000E+00 -0.80161019043E+03  0.80161019045E+03  0.50400001928E-02 0. -1.
    10030    2    1    2    0    0  0.00000000000E+00  0.00000000000E+00  0.44572868768E+03  0.20489490686E+04  0.19998795520E+04 0.  0.
        5    1    3    3  502    0 -0.52009224065E+03 -0.74019630466E+03  0.65931071658E+03  0.11194191437E+04  0.46999998093E+01 0.  1.
       -5    1    3    3    0  502  0.52009224065E+03  0.74019630466E+03 -0.21358202890E+03  0.92952992490E+03  0.46999998093E+01 0. -1.
</event>
<event>
 5   0  0.2379743E-06  0.1999539E+04  0.7818609E-02  0.8606836E-01
        1   -1    0    0  501    0  0.00000000000E+00  0.00000000000E+00  0.11418599128E+04  0.11418599128E+04  0.50400001928E-02 0.  1.
       -1   -1    0    0    0  501  0.00000000000E+00  0.00000000000E+00 -0.87536052704E+03  0.87536052705E+03  0.50400001928E-02 0. -1.
    10030    2    1    2    0    0  0.00000000000E+00  0.00000000000E+00  0.26649938576E+03  0.20172204399E+04  0.19995390420E+04 0.  0.
        5    1    3    3  502    0  0.12414334224E+03  0.16703853075E+03  0.11197532396E+04  0.11389393521E+04  0.46999998093E+01 0.  1.
       -5    1    3    3    0  502 -0.12414334224E+03 -0.16703853075E+03 -0.85325385379E+03  0.87828108780E+03  0.46999998093E+01 0. -1.
</event>
<event>
 5   0  0.1777750E-06  0.1999720E+04  0.7818609E-02  0.8606752E-01
        3   -1    0    0  501    0  0.00000000000E+00  0.00000000000E+00  0.70877543559E+03  0.70877544279E+03  0.10100000352E+00 0. -1.
       -3   -1    0    0    0  501  0.00000000000E+00  0.00000000000E+00 -0.14104891592E+04  0.14104891629E+04  0.10100000352E+00 0.  1.
    10030    2    1    2    0    0  0.00000000000E+00  0.00000000000E+00 -0.70171372364E+03  0.21192646056E+04  0.19997200601E+04 0.  0.
        1    1    3    3  502    0 -0.15251912240E+02 -0.97944797643E+03 -0.13845313031E+03  0.98930290037E+03  0.50400001928E-02 0. -1.
       -1    1    3    3    0  502  0.15251912240E+02  0.97944797643E+03 -0.56326059333E+03  0.11299617053E+04  0.50400001928E-02 0.  1.
</event>
<event>
 5   0  0.5030137E-06  0.2000552E+04  0.7818609E-02  0.8606363E-01
       -2   -1    0    0    0  501  0.00000000000E+00  0.00000000000E+00  0.45125806652E+03  0.45125806653E+03  0.25500000920E-02 0.  1.
        2   -1    0    0  501    0  0.00000000000E+00  0.00000000000E+00 -0.22172502184E+04  0.22172502184E+04  0.25500000920E-02 0. -1.
    10030    2    1    2    0    0  0.00000000000E+00  0.00000000000E+00 -0.17659921518E+04  0.26685082849E+04  0.20005519704E+04 0.  0.
        3    1    3    3  502    0 -0.82727263834E+03 -0.29489470124E+03 -0.15216045499E+04  0.17568788574E+04  0.10100000352E+00 0. -1.
       -3    1    3    3    0  502  0.82727263834E+03  0.29489470124E+03 -0.24438760195E+03  0.91162942754E+03  0.10100000352E+00 0.  1.
</event>
<event>
 5   0  0.2379743E-06  0.2001179E+04  0.7818609E-02  0.8606070E-01
       -1   -1    0    0    0  501  0.00000000000E+00  0.00000000000E+00  0.64908183668E+03  0.64908183670E+03  0.50400001928E-02 0. -1.
        1   -1    0    0  501    0  0.00000000000E+00  0.00000000000E+00 -0.15424542445E+04  0.15424542445E+04  0.50400001928E-02 0.  1.
    10030    2    1    2    0    0  0.00000000000E+00  0.00000000000E+00 -0.89337240781E+03  0.21915360812E+04  0.20011786867E+04 0.  0.
        5    1    3    3  502    0 -0.53185873751E+03 -0.30518199917E+03  0.41918618855E+03  0.74279803443E+03  0.46999998093E+01 0. -1.
       -5    1    3    3    0  502  0.53185873751E+03  0.30518199917E+03 -0.13125585964E+04  0.14487380468E+04  0.46999998093E+01 0.  1.
</event>
<event>
 5   0  0.2379743E-06  0.1999914E+04  0.7818609E-02  0.8606661E-01
        1   -1    0    0  501    0  0.00000000000E+00  0.00000000000E+00  0.98886452684E+03  0.98886452686E+03  0.50400001928E-02 0. -1.
       -1   -1    0    0    0  501  0.00000000000E+00  0.00000000000E+00 -0.10111738482E+04  0.10111738483E+04  0.50400001928E-02 0.  1.
    10030    2    1    2    0    0  0.00000000000E+00  0.00000000000E+00 -0.22309321403E+02  0.20000383751E+04  0.19999139472E+04 0.  0.
        5    1    3    3  502    0 -0.30969345568E+03 -0.86523003052E+03 -0.40533501186E+03  0.10044160513E+04  0.46999998093E+01 0.  1.
       -5    1    3    3    0  502  0.30969345568E+03  0.86523003052E+03  0.38302569046E+03  0.99562232385E+03  0.46999998093E+01 0. -1.
</event>
<event>
 5   0  0.5030137E-06  0.1999971E+04  0.7818609E-02  0.8606634E-01
        2   -1    0    0  501    0  0.00000000000E+00  0.00000000000E+00  0.94485081270E+03  0.94485081270E+03  0.25500000920E-02 0. -1.
       -2   -1    0    0    0  501  0.00000000000E+00  0.00000000000E+00 -0.10583371796E+04  0.10583371796E+04  0.25500000920E-02 0.  1.
    10030    2    1    2    0    0  0.00000000000E+00  0.00000000000E+00 -0.11348636694E+03  0.20031879923E+04  0.19999707441E+04 0.  0.
        3    1    3    3  502    0  0.26824842631E+03  0.92943763200E+03  0.19696095372E+03  0.98722092639E+03  0.10100000352E+00 0. -1.
       -3    1    3    3    0  502 -0.26824842631E+03 -0.92943763200E+03 -0.31044732065E+03  0.10159670660E+04  0.10100000352E+00 0.  1.
</event>
<event>
 5   0  0.4956214E-06  0.2000901E+04  0.7818609E-02  0.8606199E-01
        2   -1    0    0  501    0  0.00000000000E+00  0.00000000000E+00  0.11180013546E+04  0.11180013546E+04  0.25500000920E-02 0. -1.
       -2   -1    0    0    0  501  0.00000000000E+00  0.00000000000E+00 -0.89525960143E+03  0.89525960143E+03  0.25500000920E-02 0.  1.
    10030    2    1    2    0    0  0.00000000000E+00  0.00000000000E+00  0.22274175318E+03  0.20132609561E+04  0.20009012441E+04 0.  0.
        1    1    3    3  502    0 -0.23630037071E+03  0.49383389152E+03  0.95391526582E+03  0.10998473130E+04  0.50400001928E-02 0. -1.
       -1    1    3    3    0  502  0.23630037071E+03 -0.49383389152E+03 -0.73117351264E+03  0.91341364301E+03  0.50400001928E-02 0.  1.
</event>
<event>
 5   0  0.5118981E-06  0.1994119E+04  0.7818609E-02  0.8609375E-01
       -2   -1    0    0    0  501  0.00000000000E+00  0.00000000000E+00  0.94574307028E+03  0.94574307028E+03  0.25500000920E-02 0. -1.
        2   -1    0    0  501    0  0.00000000000E+00  0.00000000000E+00 -0.10511600250E+04  0.10511600250E+04  0.25500000920E-02 0.  1.
    10030    2    1    2    0    0  0.00000000000E+00  0.00000000000E+00 -0.10541695470E+03  0.19969030953E+04  0.19941186618E+04 0.  0.
        4    1    3    3  502    0  0.16217161861E+03 -0.68809798960E+03  0.65137157474E+03  0.96128300644E+03  0.12699999809E+01 0. -1.
       -4    1    3    3    0  502 -0.16217161861E+03  0.68809798960E+03 -0.75678852945E+03  0.10356200888E+04  0.12699999809E+01 0.  1.
</event>
<event>
 5   0  0.2386776E-06  0.2002492E+04  0.7818609E-02  0.8605456E-01
        1   -1    0    0  501    0  0.00000000000E+00  0.00000000000E+00  0.11670657383E+04  0.11670657383E+04  0.50400001928E-02 0.  1.
       -1   -1    0    0    0  501  0.00000000000E+00  0.00000000000E+00 -0.85898652734E+03  0.85898652736E+03  0.50400001928E-02 0. -1.
    10030    2    1    2    0    0  0.00000000000E+00  0.00000000000E+00  0.30807921095E+03  0.20260522657E+04  0.20024921930E+04 0.  0.
        2    1    3    3  502    0  0.33000546154E+02  0.55431684554E+03  0.99699109136E+03  0.11412043803E+04  0.25500000920E-02 0.  1.
       -2    1    3    3    0  502 -0.33000546154E+02 -0.55431684554E+03 -0.68891188041E+03  0.88484788539E+03  0.25500000920E-02 0. -1.
</event>
<event>
 5   0  0.1777750E-06  0.1999233E+04  0.7818609E-02  0.8606979E-01
       -4   -1    0    0    0  501  0.00000000000E+00  0.00000000000E+00  0.55477470121E+03  0.55477615486E+03  0.12699999809E+01 0. -1.
        4   -1    0    0  501    0  0.00000000000E+00  0.00000000000E+00 -0.18011476871E+04  0.18011481348E+04  0.12699999809E+01 0.  1.
    10030    2    1    2    0    0  0.00000000000E+00  0.00000000000E+00 -0.12463729859E+04  0.23559242897E+04  0.19992332627E+04 0.  0.
        4    1    3    3  502    0  0.54147295222E+03 -0.82490290801E+03 -0.81163706329E+03  0.12776596186E+04  0.12699999809E+01 0.  1.
       -4    1    3    3    0  502 -0.54147295222E+03  0.82490290801E+03 -0.43473592259E+03  0.10782646711E+04  0.12699999809E+01 0. -1.
</event>
<event>
 5   0  0.2356996E-06  0.1999751E+04  0.7818609E-02  0.8606737E-01
       -1   -1    0    0    0  501  0.00000000000E+00  0.00000000000E+00  0.16486873612E+04  0.16486873612E+04  0.50400001928E-02 0. -1.
        1   -1    0    0  501    0  0.00000000000E+00  0.00000000000E+00 -0.60639214025E+03  0.60639214027E+03  0.50400001928E-02 0.  1.
    10030    2    1    2    0    0  0.00000000000E+00  0.00000000000E+00  0.10422952210E+04  0.22550795015E+04  0.19997510421E+04 0.  0.
        4    1    3    3  502    0  0.41297600664E+03 -0.89240544878E+03  0.72541894356E+03  0.12219537322E+04  0.12699999809E+01 0. -1.
       -4    1    3    3    0  502 -0.41297600664E+03  0.89240544878E+03  0.31687627740E+03  0.10331257693E+04  0.12699999809E+01 0.  1.
</event>
<event>
 5   0  0.4956214E-06  0.2001571E+04  0.7818609E-02  0.8605887E-01
        2   -1    0    0  501    0  0.00000000000E+00  0.00000000000E+00  0.84439011238E+03  0.84439011238E+03  0.25500000920E-02 0. -1.
       -2   -1    0    0    0  501  0.00000000000E+00  0.00000000000E+00 -0.11861476787E+04  0.11861476787E+04  0.25500000920E-02 0.  1.
    10030    2    1    2    0    0  0.00000000000E+00  0.00000000000E+00 -0.34175756630E+03  0.20305377911E+04  0.20015707549E+04 0.  0.
        1    1    3    3  502    0  0.78797408757E+02 -0.10997653171E+03  0.83507023876E+03  0.84595872999E+03  0.50400001928E-02 0. -1.
       -1    1    3    3    0  502 -0.78797408757E+02  0.10997653171E+03 -0.11768278051E+04  0.11845790611E+04  0.50400001928E-02 0.  1.
</event>
<event>
 5   0  0.1777750E-06  0.1999612E+04  0.7818609E-02  0.8606802E-01
       -4   -1    0    0    0  501  0.00000000000E+00  0.00000000000E+00  0.75372305190E+03  0.75372412185E+03  0.12699999809E+01 0. -1.
        4   -1    0    0  501    0  0.00000000000E+00  0.00000000000E+00 -0.13262307988E+04  0.13262314069E+04  0.12699999809E+01 0.  1.
    10030    2    1    2    0    0  0.00000000000E+00  0.00000000000E+00 -0.57250774694E+03  0.20799555288E+04  0.19996124328E+04 0.  0.
        3    1    3    3  502    0  0.91482456146E+03  0.12193473072E+03 -0.68620303481E+03  0.11500637687E+04  0.10100000352E+00 0.  1.
       -3    1    3    3    0  502 -0.91482456146E+03 -0.12193473072E+03  0.11369528788E+03  0.92989176010E+03  0.10100000352E+00 0. -1.
</event>
<event>
 5   0  0.5129100E-06  0.1999459E+04  0.7818609E-02  0.8606874E-01
        2   -1    0    0  501    0  0.00000000000E+00  0.00000000000E+00  0.51759118256E+03  0.51759118256E+03  0.25500000920E-02 0. -1.
       -2   -1    0    0    0  501  0.00000000000E+00  0.00000000000E+00 -0.19309814066E+04  0.19309814066E+04  0.25500000920E-02 0.  1.
    10030    2    1    2    0    0  0.00000000000E+00  0.00000000000E+00 -0.14133902241E+04  0.24485725892E+04  0.19994588766E+04 0.  0.
        2    1    3    3  502    0  0.80045729701E+03 -0.53472968216E+03 -0.10370951156E+04  0.14150031789E+04  0.25500000920E-02 0. -1.
       -2    1    3    3    0  502 -0.80045729701E+03  0.53472968216E+03 -0.37629510845E+03  0.10335694103E+04  0.25500000920E-02 0.  1.
</event>
<event>
 5   0  0.2313821E-06  0.2008754E+04  0.7818609E-02  0.8602539E-01
        1   -1    0    0  501    0  0.00000000000E+00  0.00000000000E+00  0.17240449221E+04  0.17240449221E+04  0.50400001928E-02 0.  1.
       -1   -1    0    0    0  501  0.00000000000E+00  0.00000000000E+00 -0.58512001878E+03  0.58512001881E+03  0.50400001928E-02 0. -1.
    10030    2    1    2    0    0  0.00000000000E+00  0.00000000000E+00  0.11389249033E+04  0.23091649409E+04  0.20087540389E+04 0.  0.
        1    1    3    3  502    0 -0.20573981344E+03  0.33612641665E+03 -0.49252804970E+03  0.63078817251E+03  0.50400001928E-02 0. -1.
       -1    1    3    3    0  502  0.20573981344E+03 -0.33612641665E+03  0.16314529530E+04  0.16783767684E+04  0.50400001928E-02 0.  1.
</event>
<event>
 5   0  0.2356996E-06  0.1998288E+04  0.7818609E-02  0.8607421E-01
        1   -1    0    0  501    0  0.00000000000E+00  0.00000000000E+00  0.71484950612E+03  0.71484950614E+03  0.50400001928E-02 0. -1.
       -1   -1    0    0    0  501  0.00000000000E+00  0.00000000000E+00 -0.13965020366E+04  0.13965020366E+04  0.50400001928E-02 0.  1.
    10030    2    1    2    0    0  0.00000000000E+00  0.00000000000E+00 -0.68165253045E+03  0.21113515427E+04  0.19982880585E+04 0.  0.
        4    1    3    3  502    0  0.11309759330E+03 -0.99260219659E+03 -0.32456069536E+03  0.10504244114E+04  0.12699999809E+01 0. -1.
       -4    1    3    3    0  502 -0.11309759330E+03  0.99260219659E+03 -0.35709183510E+03  0.10609271313E+04  0.12699999809E+01 0.  1.
</event>
<event>
 5   0  0.5129100E-06  0.1999495E+04  0.7818609E-02  0.8606857E-01
       -2   -1    0    0    0  501  0.00000000000E+00  0.00000000000E+00  0.61165166264E+03  0.61165166265E+03  0.25500000920E-02 0.  1.
        2   -1    0    0  501    0  0.00000000000E+00  0.00000000000E+00 -0.16340924960E+04  0.16340924960E+04  0.25500000920E-02 0. -1.
    10030    2    1    2    0    0  0.00000000000E+00  0.00000000000E+00 -0.10224408334E+04  0.22457441587E+04  0.19994953284E+04 0.  0.
        2    1    3    3  502    0  0.73771642795E+02  0.90262845221E+03 -0.98682738855E+03  0.13394060896E+04  0.25500000920E-02 0. -1.
       -2    1    3    3    0  502 -0.73771642795E+02 -0.90262845221E+03 -0.35613444837E+02  0.90633806909E+03  0.25500000920E-02 0.  1.
</event>
<event>
 5   0  0.5251252E-06  0.2001275E+04  0.7818609E-02  0.8606025E-01
       -2   -1    0    0    0  501  0.00000000000E+00  0.00000000000E+00  0.67733235101E+03  0.67733235102E+03  0.25500000920E-02 0.  1.
        2   -1    0    0  501    0  0.00000000000E+00  0.00000000000E+00 -0.14782632032E+04  0.14782632032E+04  0.25500000920E-02 0. -1.
    10030    2    1    2    0    0  0.00000000000E+00  0.00000000000E+00 -0.80093085220E+03  0.21555955542E+04  0.20012750844E+04 0.  0.
        5    1    3    3  502    0  0.17608221294E+03  0.87860281845E+03 -0.88011925660E+03  0.12560174577E+04  0.46999998093E+01 0. -1.
       -5    1    3    3    0  502 -0.17608221294E+03 -0.87860281845E+03  0.79188404405E+02  0.89957809649E+03  0.46999998093E+01 0.  1.
</event>
<event>
 5   0  0.2313821E-06  0.2000212E+04  0.7818609E-02  0.8606521E-01
       -1   -1    0    0    0  501  0.00000000000E+00  0.00000000000E+00  0.13940602558E+04  0.13940602558E+04  0.50400001928E-02 0.  1.
        1   -1    0    0  501    0  0.00000000000E+00  0.00000000000E+00 -0.71748144162E+03  0.71748144164E+03  0.50400001928E-02 0. -1.
    10030    2    1    2    0    0  0.00000000000E+00  0.00000000000E+00  0.67657881415E+03  0.21115416974E+04  0.20002123508E+04 0.  0.
        1    1    3    3  502    0  0.23336065261E+03  0.27065458201E+03 -0.64777796817E+03  0.73981578316E+03  0.50400001928E-02 0. -1.
       -1    1    3    3    0  502 -0.23336065261E+03 -0.27065458201E+03  0.13243567823E+04  0.13717259143E+04  0.50400001928E-02 0.  1.
</event>
<event>
 5   0  0.2386776E-06  0.2000336E+04  0.7818609E-02  0.8606464E-01
        1   -1    0    0  501    0  0.00000000000E+00  0.00000000000E+00  0.15784649535E+04  0.15784649535E+04  0.50400001928E-02 0.  1.
       -1   -1    0    0    0  501  0.00000000000E+00  0.00000000000E+00 -0.63373951350E+03  0.63373951352E+03  0.50400001928E-02 0. -1.
    10030    2    1    2    0    0  0.00000000000E+00  0.00000000000E+00  0.94472543996E+03  0.22122044670E+04  0.20003355836E+04 0.  0.
        2    1    3    3  502    0  0.96992892217E+03 -0.12508991290E+03  0.24057880775E+03  0.10071185447E+04  0.25500000920E-02 0. -1.
       -2    1    3    3    0  502 -0.96992892217E+03  0.12508991290E+03  0.70414663221E+03  0.12050859223E+04  0.25500000920E-02 0.  1.
</event>
<event>
 5   0  0.5118981E-06  0.1999263E+04  0.7818609E-02  0.8606965E-01
       -2   -1    0    0    0  501  0.00000000000E+00  0.00000000000E+00  0.66977932331E+03  0.66977932331E+03  0.25500000920E-02 0.  1.
        2   -1    0    0  501    0  0.00000000000E+00  0.00000000000E+00 -0.14919295272E+04  0.14919295272E+04  0.25500000920E-02 0. -1.
    10030    2    1    2    0    0  0.00000000000E+00  0.00000000000E+00 -0.82215020388E+03  0.21617088505E+04  0.19992634135E+04 0.  0.
        4    1    3    3  502    0 -0.64448259324E+03  0.76402048913E+03 -0.39669747242E+03  0.10753862647E+04  0.12699999809E+01 0.  1.
       -4    1    3    3    0  502  0.64448259324E+03 -0.76402048913E+03 -0.42545273146E+03  0.10863225858E+04  0.12699999809E+01 0. -1.
</event>
<event>
 5   0  0.1777750E-06  0.1999821E+04  0.7818609E-02  0.8606705E-01
       -3   -1    0    0    0  501  0.00000000000E+00  0.00000000000E+00  0.45450958340E+03  0.45450959462E+03  0.10100000352E+00 0. -1.
        3   -1    0    0  501    0  0.00000000000E+00  0.00000000000E+00 -0.21997788564E+04  0.21997788587E+04  0.10100000352E+00 0.  1.
    10030    2    1    2    0    0  0.00000000000E+00  0.00000000000E+00 -0.17452692730E+04  0.26542884533E+04  0.19998205815E+04 0.  0.
        4    1    3    3  502    0 -0.82889767898E+03  0.20288971583E+03 -0.18094912817E+03  0.87234156091E+03  0.12699999809E+01 0. -1.
       -4    1    3    3    0  502  0.82889767898E+03 -0.20288971583E+03 -0.15643201448E+04  0.17819468924E+04  0.12699999809E+01 0.  1.
</event>
<event>
 5   0  0.5118981E-06  0.2000050E+04  0.7818609E-02  0.8606597E-01
        2   -1    0    0  501    0  0.00000000000E+00  0.00000000000E+00  0.17504028740E+04  0.17504028740E+04  0.25500000920E-02 0. -1.
       -2   -1    0    0    0  501  0.00000000000E+00  0.00000000000E+00 -0.57132557814E+03  0.57132557815E+03  0.25500000920E-02 0.  1.
    10030    2    1    2    0    0  0.00000000000E+00  0.00000000000E+00  0.11790772959E+04  0.23217284522E+04  0.20000499334E+04 0.  0.
        4    1    3    3  502    0  0.19076052153E+03 -0.26659032853E+03 -0.50718242957E+03  0.60390033085E+03  0.12699999809E+01 0.  1.
       -4    1    3    3    0  502 -0.19076052153E+03  0.26659032853E+03  0.16862597255E+04  0.17178281213E+04  0.12699999809E+01 0. -1.
</event>
<event>
 5   0  0.5118981E-06  0.2000059E+04  0.7818609E-02  0.8606593E-01
       -2   -1    0    0    0  501  0.00000000000E+00  0.00000000000E+00  0.62689526550E+03  0.62689526550E+03  0.25500000920E-02 0. -1.
        2   -1    0    0  501    0  0.00000000000E+00  0.00000000000E+00 -0.15952573693E+04  0.15952573693E+04  0.25500000920E-02 0.  1.
    10030    2    1    2    0    0  0.00000000000E+00  0.00000000000E+00 -0.96836210381E+03  0.22221526348E+04  0.20000592912E+04 0.  0.
        4    1    3    3  502    0  0.30371240698E+03  0.26947421331E+03  0.53119352473E+03  0.66859984401E+03  0.12699999809E+01 0. -1.
       -4    1    3    3    0  502 -0.30371240698E+03 -0.26947421331E+03 -0.14995556285E+04  0.15535527908E+04  0.12699999809E+01 0.  1.
</event>
<event>
 5   0  0.5251252E-06  0.1999449E+04  0.7818609E-02  0.8606878E-01
        2   -1    0    0  501    0  0.00000000000E+00  0.00000000000E+00  0.17765212785E+04  0.17765212785E+04  0.25500000920E-02 0. -1.
       -2   -1    0    0    0  501  0.00000000000E+00  0.00000000000E+00 -0.56258785583E+03  0.56258785584E+03  0.25500000920E-02 0.  1.
    10030    2    1    2    0    0  0.00000000000E+00  0.00000000000E+00  0.12139334227E+04  0.23391091343E+04  0.19994492211E+04 0.  0.
        5    1    3    3  502    0  0.88151038628E+03  0.47147675547E+03  0.61718656362E+03  0.11748583899E+04  0.46999998093E+01 0.  1.
       -5    1    3    3    0  502 -0.88151038628E+03 -0.47147675547E+03  0.59674685903E+03  0.11642507444E+04  0.46999998093E+01 0. -1.
</event>
<event>
 5   0  0.2386776E-06  0.1999994E+04  0.7818609E-02  0.8606624E-01
        1   -1    0    0  501    0  0.00000000000E+00  0.00000000000E+00  0.11725456282E+04  0.11725456282E+04  0.50400001928E-02 0. -1.
       -1   -1    0    0    0  501  0.00000000000E+00  0.00000000000E+00 -0.85284007751E+03  0.85284007753E+03  0.50400001928E-02 0.  1.
    10030    2    1    2    0    0  0.00000000000E+00  0.00000000000E+00  0.31970555065E+03  0.20253857057E+04  0.19999939044E+04 0.  0.
        2    1    3    3  502    0 -0.14511736621E+03 -0.84618948633E+03  0.67909844244E+03  0.10946553756E+04  0.25500000920E-02 0. -1.
       -2    1    3    3    0  502  0.14511736621E+03  0.84618948633E+03 -0.35939289179E+03  0.93073033013E+03  0.25500000920E-02 0.  1.
</event>
<event>
 5   0  0.2313821E-06  0.2000445E+04  0.7818609E-02  0.8606413E-01
       -1   -1    0    0    0  501  0.00000000000E+00  0.00000000000E+00  0.11749983335E+04  0.11749983335E+04  0.50400001928E-02 0. -1.
        1   -1    0    0  501    0  0.00000000000E+00  0.00000000000E+00 -0.85144351273E+03  0.85144351274E+03  0.50400001928E-02 0.  1.
    10030    2    1    2    0    0  0.00000000000E+00  0.00000000000E+00  0.32355482072E+03  0.20264418462E+04  0.20004446591E+04 0.  0.
        1    1    3    3  502    0 -0.53201860726E+03 -0.57425469747E+03 -0.46891509194E+03  0.91252047621E+03  0.50400001928E-02 0.  1.
       -1    1    3    3    0  502  0.53201860726E+03  0.57425469747E+03  0.79246991266E+03  0.11139213700E+04  0.50400001928E-02 0. -1.
</event>
<event>
 5   0  0.2379743E-06  0.2001220E+04  0.7818609E-02  0.8606050E-01
        1   -1    0    0  501    0  0.00000000000E+00  0.00000000000E+00  0.10490447994E+04  0.10490447994E+04  0.50400001928E-02 0. -1.
       -1   -1    0    0    0  501  0.00000000000E+00  0.00000000000E+00 -0.95441149850E+03  0.95441149851E+03  0.50400001928E-02 0.  1.
    10030    2    1    2    0    0  0.00000000000E+00  0.00000000000E+00  0.94633300854E+02  0.20034562979E+04  0.20012200468E+04 0.  0.
        5    1    3    3  502    0  0.37342816392E+03 -0.65748055879E+03  0.70338783677E+03  0.10327176854E+04  0.46999998093E+01 0. -1.
       -5    1    3    3    0  502 -0.37342816392E+03  0.65748055879E+03 -0.60875453592E+03  0.97073861250E+03  0.46999998093E+01 0.  1.
</event>
<event>
 5   0  0.4956214E-06  0.2000309E+04  0.7818609E-02  0.8606476E-01
       -2   -1    0    0    0  501  0.00000000000E+00  0.00000000000E+00  0.69055740267E+03  0.69055740268E+03  0.25500000920E-02 0.  1.
        2   -1    0    0  501    0  0.00000000000E+00  0.00000000000E+00 -0.14485536433E+04  0.14485536433E+04  0.25500000920E-02 0. -1.
    10030    2    1    2    0    0  0.00000000000E+00  0.00000000000E+00 -0.75799624062E+03  0.21391110460E+04  0.20003094176E+04 0.  0.
        1    1    3    3  502    0  0.76049861832E+03 -0.35448675816E+02 -0.10726150152E+04  0.13153393965E+04  0.50400001928E-02 0. -1.
       -1    1    3    3    0  502 -0.76049861832E+03  0.35448675816E+02  0.31461877462E+03  0.82377164946E+03  0.50400001928E-02 0.  1.
</event>
<event>
 5   0  0.1777750E-06  0.2002835E+04  0.7818609E-02  0.8605296E-01
       -4   -1    0    0    0  501  0.00000000000E+00  0.00000000000E+00  0.93565938319E+03  0.93566024510E+03  0.12699999809E+01 0.  1.
        4   -1    0    0  501    0  0.00000000000E+00  0.00000000000E+00 -0.10717958985E+04  0.10717966509E+04  0.12699999809E+01 0. -1.
    10030    2    1    2    0    0  0.00000000000E+00  0.00000000000E+00 -0.13613651531E+03  0.20074568960E+04  0.20028354996E+04 0.  0.
        1    1    3    3  502    0  0.43298126640E+03 -0.89483100211E+03 -0.18935246874E+03  0.10119533867E+04  0.50400001928E-02 0. -1.
       -1    1    3    3    0  502 -0.43298126640E+03  0.89483100211E+03  0.53215953431E+02  0.99550350934E+03  0.50400001928E-02 0.  1.
</event>
<event>
 5   0  0.5118981E-06  0.2004902E+04  0.7818609E-02  0.8604332E-01
        2   -1    0    0  501    0  0.00000000000E+00  0.00000000000E+00  0.10795262999E+04  0.10795262999E+04  0.25500000920E-02 0. -1.
       -2   -1    0    0    0  501  0.00000000000E+00  0.00000000000E+00 -0.93087884961E+03  0.93087884962E+03  0.25500000920E-02 0.  1.
    10030    2    1    2    0    0  0.00000000000E+00  0.00000000000E+00  0.14864745033E+03  0.20104051496E+04  0.20049021924E+04 0.  0.
        4    1    3    3  502    0 -0.83900821710E+03  0.32784694478E+03 -0.36675652963E+03  0.97258951901E+03  0.12699999809E+01 0.  1.
       -4    1    3    3    0  502  0.83900821710E+03 -0.32784694478E+03  0.51540397996E+03  0.10378156306E+04  0.12699999809E+01 0. -1.
</event>
<event>
 5   0  0.2379743E-06  0.2000128E+04  0.7818609E-02  0.8606561E-01
        1   -1    0    0  501    0  0.00000000000E+00  0.00000000000E+00  0.12845540545E+04  0.12845540545E+04  0.50400001928E-02 0. -1.
       -1   -1    0    0    0  501  0.00000000000E+00  0.00000000000E+00 -0.77858008023E+03  0.77858008025E+03  0.50400001928E-02 0.  1.
    10030    2    1    2    0    0  0.00000000000E+00  0.00000000000E+00  0.50597397429E+03  0.20631341348E+04  0.20001281948E+04 0.  0.
        5    1    3    3  502    0 -0.92427915836E+03 -0.27277184678E+03 -0.22656752411E+02  0.96396673252E+03  0.46999998093E+01 0.  1.
       -5    1    3    3    0  502  0.92427915836E+03  0.27277184678E+03  0.52863072670E+03  0.10991674023E+04  0.46999998093E+01 0. -1.
</event>
<event>
 5   0  0.2311520E-06  0.1999445E+04  0.7818609E-02  0.8606880E-01
       -1   -1    0    0    0  501  0.00000000000E+00  0.00000000000E+00  0.11695866035E+04  0.11695866035E+04  0.50400001928E-02 0.  1.
        1   -1    0    0  501    0  0.00000000000E+00  0.00000000000E+00 -0.85452833956E+03  0.85452833958E+03  0.50400001928E-02 0. -1.
    10030    2    1    2    0    0  0.00000000000E+00  0.00000000000E+00  0.31505826396E+03  0.20241149431E+04  0.19994448212E+04 0.  0.
        3    1    3    3  502    0  0.37795683728E+03 -0.90646295368E+03  0.34669949944E+03  0.10415022853E+04  0.10100000352E+00 0.  1.
       -3    1    3    3    0  502 -0.37795683728E+03  0.90646295368E+03 -0.31641235481E+02  0.98261265778E+03  0.10100000352E+00 0. -1.
</event>
<event>
 5   0  0.2386776E-06  0.2000562E+04  0.7818609E-02  0.8606358E-01
        1   -1    0    0  501    0  0.00000000000E+00  0.00000000000E+00  0.45496998685E+03  0.45496998688E+03  0.50400001928E-02 0.  1.
       -1   -1    0    0    0  501  0.00000000000E+00  0.00000000000E+00 -0.21991828030E+04  0.21991828030E+04  0.50400001928E-02 0. -1.
    10030    2    1    2    0    0  0.00000000000E+00  0.00000000000E+00 -0.17442128161E+04  0.26541527898E+04  0.20005620920E+04 0.  0.
        2    1    3    3  502    0 -0.85714612634E+01  0.90808270347E+03 -0.14284912997E+04  0.16927123381E+04  0.25500000920E-02 0. -1.
       -2    1    3    3    0  502  0.85714612634E+01 -0.90808270347E+03 -0.31572151641E+03  0.96144045173E+03  0.25500000920E-02 0.  1.
</event>
<event>
 5   0  0.2386776E-06  0.1999593E+04  0.7818609E-02  0.8606811E-01
        1   -1    0    0  501    0  0.00000000000E+00  0.00000000000E+00  0.16731966337E+04  0.16731966337E+04  0.50400001928E-02 0.  1.
       -1   -1    0    0    0  501  0.00000000000E+00  0.00000000000E+00 -0.59741529096E+03  0.59741529099E+03  0.50400001928E-02 0. -1.
    10030    2    1    2    0    0  0.00000000000E+00  0.00000000000E+00  0.10757813427E+04  0.22706119247E+04  0.19995932124E+04 0.  0.
        2    1    3    3  502    0 -0.63188396989E+03 -0.62913800714E+03  0.24380245516E+02  0.89201254465E+03  0.25500000920E-02 0. -1.
       -2    1    3    3    0  502  0.63188396989E+03  0.62913800714E+03  0.10514010972E+04  0.13785993800E+04  0.25500000920E-02 0.  1.
</event>
<event>
 5   0  0.2379743E-06  0.2003240E+04  0.7818609E-02  0.8605107E-01
       -1   -1    0    0    0  501  0.00000000000E+00  0.00000000000E+00  0.78734179148E+03  0.78734179149E+03  0.50400001928E-02 0.  1.
        1   -1    0    0  501    0  0.00000000000E+00  0.00000000000E+00 -0.12742147091E+04  0.12742147091E+04  0.50400001928E-02 0. -1.
    10030    2    1    2    0    0  0.00000000000E+00  0.00000000000E+00 -0.48687291765E+03  0.20615565006E+04  0.20032398676E+04 0.  0.
        5    1    3    3  502    0  0.48088056184E+03 -0.22127499499E+03  0.63161771142E+03  0.82411877878E+03  0.46999998093E+01 0.  1.
       -5    1    3    3    0  502 -0.48088056184E+03  0.22127499499E+03 -0.11184906291E+04  0.12374377219E+04  0.46999998093E+01 0. -1.
</event>
<event>
 5   0  0.4956214E-06  0.1999706E+04  0.7818609E-02  0.8606758E-01
        2   -1    0    0  501    0  0.00000000000E+00  0.00000000000E+00  0.84230703349E+03  0.84230703349E+03  0.25500000920E-02 0. -1.
       -2   -1    0    0    0  501  0.00000000000E+00  0.00000000000E+00 -0.11868662105E+04  0.11868662105E+04  0.25500000920E-02 0.  1.
    10030    2    1    2    0    0  0.00000000000E+00  0.00000000000E+00 -0.34455917702E+03  0.20291732440E+04  0.19997057353E+04 0.  0.
        1    1    3    3  502    0  0.48993714650E+03 -0.43976592548E+03 -0.93587985257E+03  0.11442480392E+04  0.50400001928E-02 0.  1.
       -1    1    3    3    0  502 -0.48993714650E+03  0.43976592548E+03  0.59132067555E+03  0.88492520480E+03  0.50400001928E-02 0. -1.
</event>
<event>
 5   0  0.2356996E-06  0.2011101E+04  0.7818609E-02  0.8601448E-01
        1   -1    0    0  501    0  0.00000000000E+00  0.00000000000E+00  0.15942953417E+04  0.15942953417E+04  0.50400001928E-02 0. -1.
       -1   -1    0    0    0  501  0.00000000000E+00  0.00000000000E+00 -0.63421859444E+03  0.63421859446E+03  0.50400001928E-02 0.  1.
    10030    2    1    2    0    0  0.00000000000E+00  0.00000000000E+00  0.96007674728E+03  0.22285139362E+04  0.20111009431E+04 0.  0.
        4    1    3    3  502    0 -0.10000513804E+03 -0.29188717123E+03 -0.58046697019E+03  0.65737558879E+03  0.12699999809E+01 0.  1.
       -4    1    3    3    0  502  0.10000513804E+03  0.29188717123E+03  0.15405437175E+04  0.15711383474E+04  0.12699999809E+01 0. -1.
</event>
<event>
 5   0  0.2313821E-06  0.1991731E+04  0.7818609E-02  0.8610496E-01
       -1   -1    0    0    0  501  0.00000000000E+00  0.00000000000E+00  0.69053691111E+03  0.69053691113E+03  0.50400001928E-02 0.  1.
        1   -1    0    0  501    0  0.00000000000E+00  0.00000000000E+00 -0.14361988652E+04  0.14361988652E+04  0.50400001928E-02 0. -1.
    10030    2    1    2    0    0  0.00000000000E+00  0.00000000000E+00 -0.74566195409E+03  0.21267357763E+04  0.19917312350E+04 0.  0.
        1    1    3    3  502    0 -0.82105522390E+03 -0.36298921676E+03 -0.83316225365E+03  0.12247661790E+04  0.50400001928E-02 0.  1.
       -1    1    3    3    0  502  0.82105522390E+03  0.36298921676E+03  0.87500299553E+02  0.90196959740E+03  0.50400001928E-02 0. -1.
</event>
<event>
 5   0  0.5118981E-06  0.1999521E+04  0.7818609E-02  0.8606845E-01
        2   -1    0    0  501    0  0.00000000000E+00  0.00000000000E+00  0.10779904469E+04  0.10779904469E+04  0.25500000920E-02 0.  1.
       -2   -1    0    0    0  501  0.00000000000E+00  0.00000000000E+00 -0.92720734266E+03  0.92720734266E+03  0.25500000920E-02 0. -1.
    10030    2    1    2    0    0  0.00000000000E+00  0.00000000000E+00  0.15078310425E+03  0.20051977896E+04  0.19995206002E+04 0.  0.
        4    1    3    3  502    0  0.90162728519E+03  0.38035097593E+03 -0.12993453891E+03  0.98715916832E+03  0.12699999809E+01 0. -1.
       -4    1    3    3    0  502 -0.90162728519E+03 -0.38035097593E+03  0.28071764317E+03  0.10180386213E+04  0.12699999809E+01 0.  1.
</event>
<event>
 5   0  0.2379743E-06  0.2000027E+04  0.7818609E-02  0.8606608E-01
        1   -1    0    0  501    0  0.00000000000E+00  0.00000000000E+00  0.14142979127E+04  0.14142979128E+04  0.50400001928E-02 0. -1.
       -1   -1    0    0    0  501  0.00000000000E+00  0.00000000000E+00 -0.70708371303E+03  0.70708371305E+03  0.50400001928E-02 0.  1.
    10030    2    1    2    0    0  0.00000000000E+00  0.00000000000E+00  0.70721419971E+03  0.21213816258E+04  0.20000270193E+04 0.  0.
        5    1    3    3  502    0 -0.91066527981E+03 -0.33280040055E+03  0.61328351665E+03  0.11472602670E+04  0.46999998093E+01 0.  1.
       -5    1    3    3    0  502  0.91066527981E+03  0.33280040055E+03  0.93930683065E+02  0.97412135880E+03  0.46999998093E+01 0. -1.
</event>
<event>
 5   0  0.2379743E-06  0.1990948E+04  0.7818609E-02  0.8610865E-01
        1   -1    0    0  501    0  0.00000000000E+00  0.00000000000E+00  0.78339133535E+03  0.78339133537E+03  0.50400001928E-02 0. -1.
       -1   -1    0    0    0  501  0.00000000000E+00  0.00000000000E+00 -0.12649721082E+04  0.12649721082E+04  0.50400001928E-02 0.  1.
    10030    2    1    2    0    0  0.00000000000E+00  0.00000000000E+00 -0.48158077282E+03  0.20483634436E+04  0.19909477030E+04 0.  0.
        5    1    3    3  502    0 -0.23171750486E+03 -0.89865569510E+03 -0.61127370559E+03  0.11112842542E+04  0.46999998093E+01 0.  1.
       -5    1    3    3    0  502  0.23171750486E+03  0.89865569510E+03  0.12969293277E+03  0.93707918940E+03  0.46999998093E+01 0. -1.
</event>
<event>
 5   0  0.2356996E-06  0.2000697E+04  0.7818609E-02  0.8606295E-01
       -1   -1    0    0    0  501  0.00000000000E+00  0.00000000000E+00  0.15416974807E+04  0.15416974807E+04  0.50400001928E-02 0.  1.
        1   -1    0    0  501    0  0.00000000000E+00  0.00000000000E+00 -0.64908787153E+03  0.64908787155E+03  0.50400001928E-02 0. -1.
    10030    2    1    2    0    0  0.00000000000E+00  0.00000000000E+00  0.89260960916E+03  0.21907853522E+04  0.20006970149E+04 0.  0.
        4    1    3    3  502    0  0.17690054787E+03  0.77346934167E+02 -0.62849145533E+03  0.65747963800E+03  0.12699999809E+01 0. -1.
       -4    1    3    3    0  502 -0.17690054787E+03 -0.77346934167E+02  0.15211010645E+04  0.15333057142E+04  0.12699999809E+01 0.  1.
</event>
<event>
 5   0  0.4956214E-06  0.1999735E+04  0.7818609E-02  0.8606745E-01
       -2   -1    0    0    0  501  0.00000000000E+00  0.00000000000E+00  0.93347869134E+03  0.93347869134E+03  0.25500000920E-02 0. -1.
        2   -1    0    0  501    0  0.00000000000E+00  0.00000000000E+00 -0.10709774105E+04  0.10709774105E+04  0.25500000920E-02 0.  1.
    10030    2    1    2    0    0  0.00000000000E+00  0.00000000000E+00 -0.13749871917E+03  0.20044561019E+04  0.19997345740E+04 0.  0.
        1    1    3    3  502    0 -0.89481563732E+02 -0.35097571301E+03 -0.10029066962E+04  0.10663079962E+04  0.50400001928E-02 0.  1.
       -1    1    3    3    0  502  0.89481563732E+02  0.35097571301E+03  0.86540797706E+03  0.93814810566E+03  0.50400001928E-02 0. -1.
</event>
<event>
 5   0  0.2356996E-06  0.1998944E+04  0.7818609E-02  0.8607115E-01
       -1   -1    0    0    0  501  0.00000000000E+00  0.00000000000E+00  0.10146066251E+04  0.10146066252E+04  0.50400001928E-02 0. -1.
        1   -1    0    0  501    0  0.00000000000E+00  0.00000000000E+00 -0.98456305609E+03  0.98456305610E+03  0.50400001928E-02 0.  1.
    10030    2    1    2    0    0  0.00000000000E+00  0.00000000000E+00  0.30043569047E+02  0.19991696813E+04  0.19989439208E+04 0.  0.
        4    1    3    3  502    0 -0.79578057156E+03  0.31039476605E+03  0.53405145389E+03  0.10073848307E+04  0.12699999809E+01 0. -1.
       -4    1    3    3    0  502  0.79578057156E+03 -0.31039476605E+03 -0.50400788485E+03  0.99178485053E+03  0.12699999809E+01 0.  1.
</event>
<event>
 5   0  0.4956214E-06  0.1999730E+04  0.7818609E-02  0.8606747E-01
        2   -1    0    0  501    0  0.00000000000E+00  0.00000000000E+00  0.71628421823E+03  0.71628421823E+03  0.25500000920E-02 0. -1.
       -2   -1    0    0    0  501  0.00000000000E+00  0.00000000000E+00 -0.13957167558E+04  0.13957167558E+04  0.25500000920E-02 0.  1.
    10030    2    1    2    0    0  0.00000000000E+00  0.00000000000E+00 -0.67943253754E+03  0.21120009740E+04  0.19997298670E+04 0.  0.
        1    1    3    3  502    0  0.64289127103E+03  0.37604474748E+02 -0.11475149965E+04  0.13158700354E+04  0.50400001928E-02 0.  1.
       -1    1    3    3    0  502 -0.64289127103E+03 -0.37604474748E+02  0.46808245899E+03  0.79613093856E+03  0.50400001928E-02 0. -1.
</event>
<event>
 5   0  0.5030137E-06  0.1995713E+04  0.7818609E-02  0.8608628E-01
       -2   -1    0    0    0  501  0.00000000000E+00  0.00000000000E+00  0.58981234166E+03  0.58981234167E+03  0.25500000920E-02 0. -1.
        2   -1    0    0  501    0  0.00000000000E+00  0.00000000000E+00 -0.16881941636E+04  0.16881941636E+04  0.25500000920E-02 0.  1.
    10030    2    1    2    0    0  0.00000000000E+00  0.00000000000E+00 -0.10983818220E+04  0.22780065053E+04  0.19957131586E+04 0.  0.
        3    1    3    3  502    0 -0.46891756228E+03  0.39398162937E+03 -0.14484133006E+04  0.15725795064E+04  0.10100000352E+00 0. -1.
       -3    1    3    3    0  502  0.46891756228E+03 -0.39398162937E+03  0.35003147863E+03  0.70542699887E+03  0.10100000352E+00 0.  1.
</event>
<event>
 5   0  0.5030137E-06  0.1999765E+04  0.7818609E-02  0.8606731E-01
        2   -1    0    0  501    0  0.00000000000E+00  0.00000000000E+00  0.11324974168E+04  0.11324974168E+04  0.25500000920E-02 0.  1.
       -2   -1    0    0    0  501  0.00000000000E+00  0.00000000000E+00 -0.88279652870E+03  0.88279652870E+03  0.25500000920E-02 0. -1.
    10030    2    1    2    0    0  0.00000000000E+00  0.00000000000E+00  0.24970088815E+03  0.20152939455E+04  0.19997647745E+04 0.  0.
        3    1    3    3  502    0  0.99179289886E+03 -0.63316001044E+02  0.13983835513E+02  0.99391027164E+03  0.10100000352E+00 0. -1.
       -3    1    3    3    0  502 -0.99179289886E+03  0.63316001044E+02  0.23571705263E+03  0.10213836739E+04  0.10100000352E+00 0.  1.
</event>
<event>
 5   0  0.2313821E-06  0.1999350E+04  0.7818609E-02  0.8606925E-01
       -1   -1    0    0    0  501  0.00000000000E+00  0.00000000000E+00  0.74577431647E+03  0.74577431649E+03  0.50400001928E-02 0.  1.
        1   -1    0    0  501    0  0.00000000000E+00  0.00000000000E+00 -0.13400162479E+04  0.13400162479E+04  0.50400001928E-02 0. -1.
    10030    2    1    2    0    0  0.00000000000E+00  0.00000000000E+00 -0.59424193140E+03  0.20857905644E+04  0.19993495956E+04 0.  0.
        1    1    3    3  502    0  0.65739167151E+03  0.63232944516E+03  0.12964404197E+03  0.92130989066E+03  0.50400001928E-02 0.  1.
       -1    1    3    3    0  502 -0.65739167151E+03 -0.63232944516E+03 -0.72388597337E+03  0.11644806737E+04  0.50400001928E-02 0. -1.
</event>
<event>
 5   0  0.2379743E-06  0.2000373E+04  0.7818609E-02  0.8606446E-01
       -1   -1    0    0    0  501  0.00000000000E+00  0.00000000000E+00  0.55486668633E+03  0.55486668635E+03  0.50400001928E-02 0.  1.
        1   -1    0    0  501    0  0.00000000000E+00  0.00000000000E+00 -0.18029077443E+04  0.18029077443E+04  0.50400001928E-02 0. -1.
    10030    2    1    2    0    0  0.00000000000E+00  0.00000000000E+00 -0.12480410579E+04  0.23577744306E+04  0.20003734110E+04 0.  0.
        5    1    3    3  502    0 -0.76565513904E+03 -0.58554530143E+03 -0.30937983340E+03  0.10123384134E+04  0.46999998093E+01 0.  1.
       -5    1    3    3    0  502  0.76565513904E+03  0.58554530143E+03 -0.93866122453E+03  0.13454360172E+04  0.46999998093E+01 0. -1.
</event>
<event>
 5   0  0.5030137E-06  0.2000934E+04  0.7818609E-02  0.8606184E-01
        2   -1    0    0  501    0  0.00000000000E+00  0.00000000000E+00  0.22416048879E+04  0.22416048879E+04  0.25500000920E-02 0.  1.
       -2   -1    0    0    0  501  0.00000000000E+00  0.00000000000E+00 -0.44652580313E+03  0.44652580314E+03  0.25500000920E-02 0. -1.
    10030    2    1    2    0    0  0.00000000000E+00  0.00000000000E+00  0.17950790847E+04  0.26881306910E+04  0.20009342047E+04 0.  0.
        3    1    3    3  502    0  0.87548880217E+03 -0.48328658996E+03  0.93756952374E+03  0.13707965541E+04  0.10100000352E+00 0.  1.
       -3    1    3    3    0  502 -0.87548880217E+03  0.48328658996E+03  0.85750956099E+03  0.13173341369E+04  0.10100000352E+00 0. -1.
</event>
<event>
 5   0  0.2379743E-06  0.2001299E+04  0.7818609E-02  0.8606013E-01
       -1   -1    0    0    0  501  0.00000000000E+00  0.00000000000E+00  0.81285515776E+03  0.81285515777E+03  0.50400001928E-02 0.  1.
        1   -1    0    0  501    0  0.00000000000E+00  0.00000000000E+00 -0.12318303619E+04  0.12318303619E+04  0.50400001928E-02 0. -1.
    10030    2    1    2    0    0  0.00000000000E+00  0.00000000000E+00 -0.41897520417E+03  0.20446855197E+04  0.20012992412E+04 0.  0.
        5    1    3    3  502    0  0.29343404437E+03  0.75745431728E+03  0.38750613700E+03  0.90001315400E+03  0.46999998093E+01 0.  1.
       -5    1    3    3    0  502 -0.29343404437E+03 -0.75745431728E+03 -0.80648134117E+03  0.11446723657E+04  0.46999998093E+01 0. -1.
</event>
<event>
 5   0  0.5129100E-06  0.1999454E+04  0.7818609E-02  0.8606876E-01
        2   -1    0    0  501    0  0.00000000000E+00  0.00000000000E+00  0.14731909562E+04  0.14731909562E+04  0.25500000920E-02 0.  1.
       -2   -1    0    0    0  501  0.00000000000E+00  0.00000000000E+00 -0.67842783747E+03  0.67842783747E+03  0.25500000920E-02 0. -1.
    10030    2    1    2    0    0  0.00000000000E+00  0.00000000000E+00  0.79476311870E+03  0.21516187936E+04  0.19994536800E+04 0.  0.
        2    1    3    3  502    0  0.55642864359E+02 -0.29045281484E+03  0.14250432326E+04  0.14554061910E+04  0.25500000920E-02 0.  1.
       -2    1    3    3    0  502 -0.55642864359E+02  0.29045281484E+03 -0.63028011394E+03  0.69621260261E+03  0.25500000920E-02 0. -1.
</event>
<event>
 5   0  0.2311520E-06  0.1989366E+04  0.7818609E-02  0.8611609E-01
       -1   -1    0    0    0  501  0.00000000000E+00  0.00000000000E+00  0.50608391426E+03  0.50608391428E+03  0.50400001928E-02 0.  1.
        1   -1    0    0  501    0  0.00000000000E+00  0.00000000000E+00 -0.19550007146E+04  0.19550007146E+04  0.50400001928E-02 0. -1.
    10030    2    1    2    0    0  0.00000000000E+00  0.00000000000E+00 -0.14489168003E+04  0.24610846289E+04  0.19893661443E+04 0.  0.
        3    1    3    3  502    0 -0.45305418469E+03 -0.15988188510E+03 -0.18019423964E+04  0.18648905387E+04  0.10100000352E+00 0. -1.
       -3    1    3    3    0  502  0.45305418469E+03  0.15988188510E+03  0.35302559604E+03  0.59619409014E+03  0.10100000352E+00 0.  1.
</event>
<event>
 5   0  0.2313821E-06  0.1999359E+04  0.7818609E-02  0.8606920E-01
       -1   -1    0    0    0  501  0.00000000000E+00  0.00000000000E+00  0.90770344686E+03  0.90770344688E+03  0.50400001928E-02 0.  1.
        1   -1    0    0  501    0  0.00000000000E+00  0.00000000000E+00 -0.11009754062E+04  0.11009754062E+04  0.50400001928E-02 0. -1.
    10030    2    1    2    0    0  0.00000000000E+00  0.00000000000E+00 -0.19327195932E+03  0.20086788531E+04  0.19993590684E+04 0.  0.
        1    1    3    3  502    0  0.36893877757E-01  0.99663662616E+03 -0.17493904019E+03  0.10118736254E+04  0.50400001928E-02 0. -1.
       -1    1    3    3    0  502 -0.36893877757E-01 -0.99663662616E+03 -0.18332919134E+02  0.99680522768E+03  0.50400001928E-02 0.  1.
</event>
<event>
 5   0  0.2356996E-06  0.1999401E+04  0.7818609E-02  0.8606901E-01
        1   -1    0    0  501    0  0.00000000000E+00  0.00000000000E+00  0.19510801113E+04  0.19510801113E+04  0.50400001928E-02 0. -1.
       -1   -1    0    0    0  501  0.00000000000E+00  0.00000000000E+00 -0.51222980691E+03  0.51222980693E+03  0.50400001928E-02 0.  1.
    10030    2    1    2    0    0  0.00000000000E+00  0.00000000000E+00  0.14388503044E+04  0.24633099183E+04  0.19994012991E+04 0.  0.
        4    1    3    3  502    0 -0.96692737239E+03  0.20756921067E+03  0.53933776784E+03  0.11264636530E+04  0.12699999809E+01 0. -1.
       -4    1    3    3    0  502  0.96692737239E+03 -0.20756921067E+03  0.89951253657E+03  0.13368462653E+04  0.12699999809E+01 0.  1.
</event>
<event>
 5   0  0.5118981E-06  0.1999121E+04  0.7818609E-02  0.8607032E-01
        2   -1    0    0  501    0  0.00000000000E+00  0.00000000000E+00  0.32213482449E+03  0.32213482450E+03  0.25500000920E-02 0. -1.
       -2   -1    0    0    0  501  0.00000000000E+00  0.00000000000E+00 -0.31015637121E+04  0.31015637121E+04  0.25500000920E-02 0.  1.
    10030    2    1    2    0    0  0.00000000000E+00  0.00000000000E+00 -0.27794288876E+04  0.34236985366E+04  0.19991214891E+04 0.  0.
        4    1    3    3  502    0  0.97540382236E+02  0.34094149296E+03  0.21078004140E+03  0.41253492767E+03  0.12699999809E+01 0. -1.
       -4    1    3    3    0  502 -0.97540382236E+02 -0.34094149296E+03 -0.29902089290E+04  0.30111636089E+04  0.12699999809E+01 0.  1.
</event>
<event>
 5   0  0.2311520E-06  0.2001703E+04  0.7818609E-02  0.8605825E-01
        1   -1    0    0  501    0  0.00000000000E+00  0.00000000000E+00  0.76732593494E+03  0.76732593496E+03  0.50400001928E-02 0.  1.
       -1   -1    0    0    0  501  0.00000000000E+00  0.00000000000E+00 -0.13054475923E+04  0.13054475923E+04  0.50400001928E-02 0. -1.
    10030    2    1    2    0    0  0.00000000000E+00  0.00000000000E+00 -0.53812165737E+03  0.20727735273E+04  0.20017030692E+04 0.  0.
        3    1    3    3  502    0  0.32858137605E+03  0.58027963457E+03  0.50377118039E+03  0.83574851922E+03  0.10100000352E+00 0.  1.
       -3    1    3    3    0  502 -0.32858137605E+03 -0.58027963457E+03 -0.10418928378E+04  0.12370250081E+04  0.10100000352E+00 0. -1.
</event>
<event>
 5   0  0.2379743E-06  0.2000415E+04  0.7818609E-02  0.8606426E-01
       -1   -1    0    0    0  501  0.00000000000E+00  0.00000000000E+00  0.69315586259E+03  0.69315586261E+03  0.50400001928E-02 0.  1.
        1   -1    0    0  501    0  0.00000000000E+00  0.00000000000E+00 -0.14432763264E+04  0.14432763264E+04  0.50400001928E-02 0. -1.
    10030    2    1    2    0    0  0.00000000000E+00  0.00000000000E+00 -0.75012046379E+03  0.21364321890E+04  0.20004154039E+04 0.  0.
        5    1    3    3  502    0  0.11276413282E+03 -0.35068954413E+03 -0.13681768717E+04  0.14169082357E+04  0.46999998093E+01 0. -1.
       -5    1    3    3    0  502 -0.11276413282E+03  0.35068954413E+03  0.61805640794E+03  0.71952395332E+03  0.46999998093E+01 0.  1.
</event>
<event>
 5   0  0.2356996E-06  0.2001094E+04  0.7818609E-02  0.8606109E-01
        1   -1    0    0  501    0  0.00000000000E+00  0.00000000000E+00  0.17068445373E+04  0.17068445373E+04  0.50400001928E-02 0.  1.
       -1   -1    0    0    0  501  0.00000000000E+00  0.00000000000E+00 -0.58651756213E+03  0.58651756215E+03  0.50400001928E-02 0. -1.
    10030    2    1    2    0    0  0.00000000000E+00  0.00000000000E+00  0.11203269752E+04  0.22933620995E+04  0.20010939978E+04 0.  0.
        4    1    3    3  502    0  0.97451721973E+03 -0.11081809479E+03  0.33346417624E+03  0.10359364997E+04  0.12699999809E+01 0. -1.
       -4    1    3    3    0  502 -0.97451721973E+03  0.11081809479E+03  0.78686279896E+03  0.12574255998E+04  0.12699999809E+01 0.  1.
</event>
<event>
 5   0  0.5129100E-06  0.2000482E+04  0.7818609E-02  0.8606395E-01
        2   -1    0    0  501    0  0.00000000000E+00  0.00000000000E+00  0.91058093134E+03  0.91058093135E+03  0.25500000920E-02 0.  1.
       -2   -1    0    0    0  501  0.00000000000E+00  0.00000000000E+00 -0.10987298061E+04  0.10987298061E+04  0.25500000920E-02 0. -1.
    10030    2    1    2    0    0  0.00000000000E+00  0.00000000000E+00 -0.18814887476E+03  0.20093107375E+04  0.20004823520E+04 0.  0.
        2    1    3    3  502    0  0.86380524723E+03  0.30239095596E+03  0.31129382825E+03  0.96669728608E+03  0.25500000920E-02 0.  1.
       -2    1    3    3    0  502 -0.86380524723E+03 -0.30239095596E+03 -0.49944270301E+03  0.10426134514E+04  0.25500000920E-02 0. -1.
</event>
<event>
 5   0  0.5118981E-06  0.2012277E+04  0.7818609E-02  0.8600902E-01
        2   -1    0    0  501    0  0.00000000000E+00  0.00000000000E+00  0.92018150667E+03  0.92018150667E+03  0.25500000920E-02 0. -1.
       -2   -1    0    0    0  501  0.00000000000E+00  0.00000000000E+00 -0.11001246616E+04  0.11001246616E+04  0.25500000920E-02 0.  1.
    10030    2    1    2    0    0  0.00000000000E+00  0.00000000000E+00 -0.17994315498E+03  0.20203061683E+04  0.20122766894E+04 0.  0.
        4    1    3    3  502    0 -0.12118028488E+03  0.70768450691E+03 -0.79763211567E+03  0.10731824764E+04  0.12699999809E+01 0.  1.
       -4    1    3    3    0  502  0.12118028488E+03 -0.70768450691E+03  0.61768896070E+03  0.94712369194E+03  0.12699999809E+01 0. -1.
</event>
<event>
 5   0  0.5118981E-06  0.2006509E+04  0.7818609E-02  0.8603584E-01
       -2   -1    0    0    0  501  0.00000000000E+00  0.00000000000E+00  0.50518099769E+03  0.50518099770E+03  0.25500000920E-02 0. -1.
        2   -1    0    0  501    0  0.00000000000E+00  0.00000000000E+00 -0.19923934927E+04  0.19923934927E+04  0.25500000920E-02 0.  1.
    10030    2    1    2    0    0  0.00000000000E+00  0.00000000000E+00 -0.14872124950E+04  0.24975744904E+04  0.20065087415E+04 0.  0.
        4    1    3    3  502    0 -0.59524022134E+03 -0.42620074591E+03 -0.15974625127E+04  0.17572268178E+04  0.12699999809E+01 0.  1.
       -4    1    3    3    0  502  0.59524022134E+03  0.42620074591E+03  0.11025001773E+03  0.74034767253E+03  0.12699999809E+01 0. -1.
</event>
<event>
 5   0  0.2356996E-06  0.1998644E+04  0.7818609E-02  0.8607255E-01
       -1   -1    0    0    0  501  0.00000000000E+00  0.00000000000E+00  0.78600233906E+03  0.78600233908E+03  0.50400001928E-02 0.  1.
        1   -1    0    0  501    0  0.00000000000E+00  0.00000000000E+00 -0.12705368227E+04  0.12705368227E+04  0.50400001928E-02 0. -1.
    10030    2    1    2    0    0  0.00000000000E+00  0.00000000000E+00 -0.48453448361E+03  0.20565391617E+04  0.19986444551E+04 0.  0.
        4    1    3    3  502    0 -0.59374897032E+03  0.77777174262E+03 -0.33469129519E+02  0.97907533873E+03  0.12699999809E+01 0.  1.
       -4    1    3    3    0  502  0.59374897032E+03 -0.77777174262E+03 -0.45106535409E+03  0.10774638230E+04  0.12699999809E+01 0. -1.
</event>
<event>
 5   0  0.5129100E-06  0.1998435E+04  0.7818609E-02  0.8607352E-01
       -2   -1    0    0    0  501  0.00000000000E+00  0.00000000000E+00  0.53206509181E+03  0.53206509181E+03  0.25500000920E-02 0.  1.
        2   -1    0    0  501    0  0.00000000000E+00  0.00000000000E+00 -0.18765300056E+04  0.18765300056E+04  0.25500000920E-02 0. -1.
    10030    2    1    2    0    0  0.00000000000E+00  0.00000000000E+00 -0.13444649138E+04  0.24085950974E+04  0.19984354978E+04 0.  0.
        2    1    3    3  502    0 -0.51144463894E+03  0.67420265350E+03 -0.31852437681E+02  0.84684084365E+03  0.25500000920E-02 0.  1.
       -2    1    3    3    0  502  0.51144463894E+03 -0.67420265350E+03 -0.13126124761E+04  0.15617542538E+04  0.25500000920E-02 0. -1.
</event>
<event>
 5   0  0.5118981E-06  0.2000145E+04  0.7818609E-02  0.8606553E-01
       -2   -1    0    0    0  501  0.00000000000E+00  0.00000000000E+00  0.11367501718E+04  0.11367501718E+04  0.25500000920E-02 0. -1.
        2   -1    0    0  501    0  0.00000000000E+00  0.00000000000E+00 -0.87982837310E+03  0.87982837311E+03  0.25500000920E-02 0.  1.
    10030    2    1    2    0    0  0.00000000000E+00  0.00000000000E+00  0.25692179867E+03  0.20165785449E+04  0.20001450490E+04 0.  0.
        4    1    3    3  502    0 -0.11230096027E+03 -0.12048266853E+02 -0.87337664660E+03  0.88065035407E+03  0.12699999809E+01 0.  1.
       -4    1    3    3    0  502  0.11230096027E+03  0.12048266853E+02  0.11302984453E+04  0.11359281908E+04  0.12699999809E+01 0. -1.
</event>
<event>
 5   0  0.5251252E-06  0.1998733E+04  0.7818609E-02  0.8607213E-01
       -2   -1    0    0    0  501  0.00000000000E+00  0.00000000000E+00  0.56758723026E+03  0.56758723026E+03  0.25500000920E-02 0.  1.
        2   -1    0    0  501    0  0.00000000000E+00  0.00000000000E+00 -0.17596114941E+04  0.17596114941E+04  0.25500000920E-02 0. -1.
    10030    2    1    2    0    0  0.00000000000E+00  0.00000000000E+00 -0.11920242639E+04  0.23271987244E+04  0.19987326127E+04 0.  0.
        5    1    3    3  502    0  0.20711166882E+03  0.86806078651E+03 -0.72337124202E+02  0.89536558007E+03  0.46999998093E+01 0.  1.
       -5    1    3    3    0  502 -0.20711166882E+03 -0.86806078651E+03 -0.11196871397E+04  0.14318331443E+04  0.46999998093E+01 0. -1.
</event>
<event>
 5   0  0.2386776E-06  0.1999762E+04  0.7818609E-02  0.8606732E-01
       -1   -1    0    0    0  501  0.00000000000E+00  0.00000000000E+00  0.58757620271E+03  0.58757620273E+03  0.50400001928E-02 0.  1.
        1   -1    0    0  501    0  0.00000000000E+00  0.00000000000E+00 -0.17015014629E+04  0.17015014629E+04  0.50400001928E-02 0. -1.
    10030    2    1    2    0    0  0.00000000000E+00  0.00000000000E+00 -0.11139252602E+04  0.22890776656E+04  0.19997617543E+04 0.  0.
        2    1    3    3  502    0 -0.79849143793E+03  0.15569077013E+03  0.10846057517E+03  0.82072643964E+03  0.25500000920E-02 0.  1.
       -2    1    3    3    0  502  0.79849143793E+03 -0.15569077013E+03 -0.12223858353E+04  0.14683512260E+04  0.25500000920E-02 0. -1.
</event>
<event>
 5   0  0.5251252E-06  0.1998930E+04  0.7818609E-02  0.8607121E-01
       -2   -1    0    0    0  501  0.00000000000E+00  0.00000000000E+00  0.43610740607E+03  0.43610740608E+03  0.25500000920E-02 0.  1.
        2   -1    0    0  501    0  0.00000000000E+00  0.00000000000E+00 -0.22905594606E+04  0.22905594606E+04  0.25500000920E-02 0. -1.
    10030    2    1    2    0    0  0.00000000000E+00  0.00000000000E+00 -0.18544520545E+04  0.27266668666E+04  0.19989296584E+04 0.  0.
        5    1    3    3  502    0  0.75077738655E+03 -0.48228872376E+03 -0.31318721052E+03  0.94571529333E+03  0.46999998093E+01 0.  1.
       -5    1    3    3    0  502 -0.75077738655E+03  0.48228872376E+03 -0.15412648440E+04  0.17809515733E+04  0.46999998093E+01 0. -1.
</event>
<event>
 5   0  0.1777750E-06  0.2003649E+04  0.7818609E-02  0.8604917E-01
       -3   -1    0    0    0  501  0.00000000000E+00  0.00000000000E+00  0.11817251260E+04  0.11817251303E+04  0.10100000352E+00 0.  1.
        3   -1    0    0  501    0  0.00000000000E+00  0.00000000000E+00 -0.84931112290E+03  0.84931112891E+03  0.10100000352E+00 0. -1.
    10030    2    1    2    0    0  0.00000000000E+00  0.00000000000E+00  0.33241400306E+03  0.20310362592E+04  0.20036489754E+04 0.  0.
        2    1    3    3  502    0 -0.25444509683E+03  0.48234277066E+03  0.10180841014E+04  0.11549424632E+04  0.25500000920E-02 0.  1.
       -2    1    3    3    0  502  0.25444509683E+03 -0.48234277066E+03 -0.68567009832E+03  0.87609379603E+03  0.25500000920E-02 0. -1.
</event>
<event>
 5   0  0.2386776E-06  0.2002372E+04  0.7818609E-02  0.8605513E-01
        1   -1    0    0  501    0  0.00000000000E+00  0.00000000000E+00  0.18477387995E+04  0.18477387995E+04  0.50400001928E-02 0. -1.
       -1   -1    0    0    0  501  0.00000000000E+00  0.00000000000E+00 -0.54248631423E+03  0.54248631425E+03  0.50400001928E-02 0.  1.
    10030    2    1    2    0    0  0.00000000000E+00  0.00000000000E+00  0.13052524852E+04  0.23902251137E+04  0.20023716049E+04 0.  0.
        2    1    3    3  502    0 -0.62582070015E+02  0.22097990810E+03  0.18158681881E+04  0.18303349180E+04  0.25500000920E-02 0. -1.
       -2    1    3    3    0  502  0.62582070015E+02 -0.22097990810E+03 -0.51061570289E+03  0.55989019576E+03  0.25500000920E-02 0.  1.
</event>
<event>
 5   0  0.4956214E-06  0.2000721E+04  0.7818609E-02  0.8606283E-01
        2   -1    0    0  501    0  0.00000000000E+00  0.00000000000E+00  0.11850803283E+04  0.11850803283E+04  0.25500000920E-02 0. -1.
       -2   -1    0    0    0  501  0.00000000000E+00  0.00000000000E+00 -0.84443353130E+03  0.84443353130E+03  0.25500000920E-02 0.  1.
    10030    2    1    2    0    0  0.00000000000E+00  0.00000000000E+00  0.34064679696E+03  0.20295138596E+04  0.20007214364E+04 0.  0.
        1    1    3    3  502    0  0.92747686732E+03  0.21286406424E+03  0.48330390902E+03  0.10672896129E+04  0.50400001928E-02 0. -1.
       -1    1    3    3    0  502 -0.92747686732E+03 -0.21286406424E+03 -0.14265711206E+03  0.96222424668E+03  0.50400001928E-02 0.  1.
</event>
<event>
 5   0  0.2356996E-06  0.2000480E+04  0.7818609E-02  0.8606396E-01
       -1   -1    0    0    0  501  0.00000000000E+00  0.00000000000E+00  0.83346968066E+03  0.83346968068E+03  0.50400001928E-02 0. -1.
        1   -1    0    0  501    0  0.00000000000E+00  0.00000000000E+00 -0.12003794641E+04  0.12003794641E+04  0.50400001928E-02 0.  1.
    10030    2    1    2    0    0  0.00000000000E+00  0.00000000000E+00 -0.36690978346E+03  0.20338491448E+04  0.20004798311E+04 0.  0.
        4    1    3    3  502    0  0.77646883504E+03 -0.52071961916E+03  0.17803978281E+03  0.95171032921E+03  0.12699999809E+01 0. -1.
       -4    1    3    3    0  502 -0.77646883504E+03  0.52071961916E+03 -0.54494956627E+03  0.10821388156E+04  0.12699999809E+01 0.  1.
</event>
<event>
 5   0  0.5030137E-06  0.1999051E+04  0.7818609E-02  0.8607064E-01
       -2   -1    0    0    0  501  0.00000000000E+00  0.00000000000E+00  0.93654325401E+03  0.93654325401E+03  0.25500000920E-02 0.  1.
        2   -1    0    0  501    0  0.00000000000E+00  0.00000000000E+00 -0.10667436907E+04  0.10667436907E+04  0.25500000920E-02 0. -1.
    10030    2    1    2    0    0  0.00000000000E+00  0.00000000000E+00 -0.13020043667E+03  0.20032869447E+04  0.19990513823E+04 0.  0.
        3    1    3    3  502    0  0.67540826256E+03  0.73627531378E+03 -0.37221528665E+02  0.99983154142E+03  0.10100000352E+00 0.  1.
       -3    1    3    3    0  502 -0.67540826256E+03 -0.73627531378E+03 -0.92978908002E+02  0.10034554033E+04  0.10100000352E+00 0. -1.
</event>
<event>
 5   0  0.2379743E-06  0.1999879E+04  0.7818609E-02  0.8606677E-01
        1   -1    0    0  501    0  0.00000000000E+00  0.00000000000E+00  0.12869616071E+04  0.12869616071E+04  0.50400001928E-02 0.  1.
       -1   -1    0    0    0  501  0.00000000000E+00  0.00000000000E+00 -0.77692990848E+03  0.77692990849E+03  0.50400001928E-02 0. -1.
    10030    2    1    2    0    0  0.00000000000E+00  0.00000000000E+00  0.51003169863E+03  0.20638915156E+04  0.19998789600E+04 0.  0.
        5    1    3    3  502    0 -0.25281583843E+03 -0.82941792247E+03  0.76895898185E+03  0.11589520888E+04  0.46999998093E+01 0.  1.
       -5    1    3    3    0  502  0.25281583843E+03  0.82941792247E+03 -0.25892728322E+03  0.90493942685E+03  0.46999998093E+01 0. -1.
</event>
<event>
 5   0  0.2311520E-06  0.1992140E+04  0.7818609E-02  0.8610305E-01
        1   -1    0    0  501    0  0.00000000000E+00  0.00000000000E+00  0.17151448393E+04  0.17151448393E+04  0.50400001928E-02 0. -1.
       -1   -1    0    0    0  501  0.00000000000E+00  0.00000000000E+00 -0.57846716382E+03  0.57846716384E+03  0.50400001928E-02 0.  1.
    10030    2    1    2    0    0  0.00000000000E+00  0.00000000000E+00  0.11366776755E+04  0.22936120032E+04  0.19921395240E+04 0.  0.
        3    1    3    3  502    0 -0.74315087065E+03  0.48242725579E+03  0.44330559122E+02  0.88711582240E+03  0.10100000352E+00 0.  1.
       -3    1    3    3    0  502  0.74315087065E+03 -0.48242725579E+03  0.10923471164E+04  0.14064961808E+04  0.10100000352E+00 0. -1.
</event>
<event>
 5   0  0.1777750E-06  0.2005112E+04  0.7818609E-02  0.8604234E-01
        3   -1    0    0  501    0  0.00000000000E+00  0.00000000000E+00  0.90508923280E+03  0.90508923843E+03  0.10100000352E+00 0.  1.
       -3   -1    0    0    0  501  0.00000000000E+00  0.00000000000E+00 -0.11105191359E+04  0.11105191405E+04  0.10100000352E+00 0. -1.
    10030    2    1    2    0    0  0.00000000000E+00  0.00000000000E+00 -0.20542990307E+03  0.20156083789E+04  0.20051123889E+04 0.  0.
        3    1    3    3  502    0 -0.34995172010E+03  0.66445554253E+03 -0.77038413818E+03  0.10758527339E+04  0.10100000352E+00 0. -1.
       -3    1    3    3    0  502  0.34995172010E+03 -0.66445554253E+03  0.56495423511E+03  0.93975564503E+03  0.10100000352E+00 0.  1.
</event>
<event>
 5   0  0.5129100E-06  0.1999198E+04  0.7818609E-02  0.8606996E-01
       -2   -1    0    0    0  501  0.00000000000E+00  0.00000000000E+00  0.88520578064E+03  0.88520578064E+03  0.25500000920E-02 0. -1.
        2   -1    0    0  501    0  0.00000000000E+00  0.00000000000E+00 -0.11287746997E+04  0.11287746997E+04  0.25500000920E-02 0.  1.
    10030    2    1    2    0    0  0.00000000000E+00  0.00000000000E+00 -0.24356891902E+03  0.20139804803E+04  0.19991977283E+04 0.  0.
        2    1    3    3  502    0  0.50498758821E+03 -0.17157960467E+03 -0.97346227112E+03  0.11099913596E+04  0.25500000920E-02 0.  1.
       -2    1    3    3    0  502 -0.50498758821E+03  0.17157960467E+03  0.72989335210E+03  0.90398912075E+03  0.25500000920E-02 0. -1.
</event>
<event>
 5   0  0.5251252E-06  0.2000941E+04  0.7818609E-02  0.8606181E-01
        2   -1    0    0  501    0  0.00000000000E+00  0.00000000000E+00  0.18220602473E+04  0.18220602473E+04  0.25500000920E-02 0. -1.
       -2   -1    0    0    0  501  0.00000000000E+00  0.00000000000E+00 -0.54934596135E+03  0.54934596135E+03  0.25500000920E-02 0.  1.
    10030    2    1    2    0    0  0.00000000000E+00  0.00000000000E+00  0.12727142859E+04  0.23714062086E+04  0.20009412167E+04 0.  0.
        5    1    3    3  502    0  0.50598409054E+03  0.86301491778E+03  0.64848390773E+03  0.11922114396E+04  0.46999998093E+01 0.  1.
       -5    1    3    3    0  502 -0.50598409054E+03 -0.86301491778E+03  0.62423037820E+03  0.11791947690E+04  0.46999998093E+01 0. -1.
</event>
<event>
 5   0  0.2356996E-06  0.2000400E+04  0.7818609E-02  0.8606434E-01
        1   -1    0    0  501    0  0.00000000000E+00  0.00000000000E+00  0.13877601682E+04  0.13877601682E+04  0.50400001928E-02 0. -1.
       -1   -1    0    0    0  501  0.00000000000E+00  0.00000000000E+00 -0.72087395511E+03  0.72087395513E+03  0.50400001928E-02 0.  1.
    10030    2    1    2    0    0  0.00000000000E+00  0.00000000000E+00  0.66688621309E+03  0.21086341233E+04  0.20004001212E+04 0.  0.
        4    1    3    3  502    0  0.40793162722E+03  0.44920442927E+03  0.11715773162E+04  0.13193891967E+04  0.12699999809E+01 0. -1.
       -4    1    3    3    0  502 -0.40793162722E+03 -0.44920442927E+03 -0.50469110308E+03  0.78924492662E+03  0.12699999809E+01 0.  1.
</event>
<event>
 5   0  0.5118981E-06  0.1999202E+04  0.7818609E-02  0.8606994E-01
       -2   -1    0    0    0  501  0.00000000000E+00  0.00000000000E+00  0.44603555279E+03  0.44603555280E+03  0.25500000920E-02 0.  1.
        2   -1    0    0  501    0  0.00000000000E+00  0.00000000000E+00 -0.22401849821E+04  0.22401849821E+04  0.25500000920E-02 0. -1.
    10030    2    1    2    0    0  0.00000000000E+00  0.00000000000E+00 -0.17941494293E+04  0.26862205349E+04  0.19992019876E+04 0.  0.
        4    1    3    3  502    0  0.91774074782E+03  0.18946138066E+03 -0.13645726041E+04  0.16553560643E+04  0.12699999809E+01 0.  1.
       -4    1    3    3    0  502 -0.91774074782E+03 -0.18946138066E+03 -0.42957682517E+03  0.10308644705E+04  0.12699999809E+01 0. -1.
</event>
<event>
 5   0  0.2379743E-06  0.2000588E+04  0.7818609E-02  0.8606346E-01
       -1   -1    0    0    0  501  0.00000000000E+00  0.00000000000E+00  0.90170462417E+03  0.90170462418E+03  0.50400001928E-02 0. -1.
        1   -1    0    0  501    0  0.00000000000E+00  0.00000000000E+00 -0.11096624033E+04  0.11096624033E+04  0.50400001928E-02 0.  1.
    10030    2    1    2    0    0  0.00000000000E+00  0.00000000000E+00 -0.20795777910E+03  0.20113670275E+04  0.20005876340E+04 0.  0.
        5    1    3    3  502    0 -0.94316136292E+03 -0.32712653537E+03 -0.40388558932E+02  0.99910882908E+03  0.46999998093E+01 0.  1.
       -5    1    3    3    0  502  0.94316136292E+03  0.32712653537E+03 -0.16756922017E+03  0.10122581984E+04  0.46999998093E+01 0. -1.
</event>
<event>
 5   0  0.5129100E-06  0.1999939E+04  0.7818609E-02  0.8606649E-01
        2   -1    0    0  501    0  0.00000000000E+00  0.00000000000E+00  0.16516250352E+04  0.16516250352E+04  0.25500000920E-02 0. -1.
       -2   -1    0    0    0  501  0.00000000000E+00  0.00000000000E+00 -0.60542751590E+03  0.60542751591E+03  0.25500000920E-02 0.  1.
    10030    2    1    2    0    0  0.00000000000E+00  0.00000000000E+00  0.10461975193E+04  0.22570525511E+04  0.19999392413E+04 0.  0.
        2    1    3    3  502    0  0.48086524059E+03 -0.66110968098E+03 -0.12682069173E+03  0.82727315788E+03  0.25500000920E-02 0.  1.
       -2    1    3    3    0  502 -0.48086524059E+03  0.66110968098E+03  0.11730182110E+04  0.14297793932E+04  0.25500000920E-02 0. -1.
</event>
<event>
 5   0  0.5030137E-06  0.2002077E+04  0.7818609E-02  0.8605650E-01
       -2   -1    0    0    0  501  0.00000000000E+00  0.00000000000E+00  0.73082630165E+03  0.73082630165E+03  0.25500000920E-02 0.  1.
        2   -1    0    0  501    0  0.00000000000E+00  0.00000000000E+00 -0.13711577861E+04  0.13711577861E+04  0.25500000920E-02 0. -1.
    10030    2    1    2    0    0  0.00000000000E+00  0.00000000000E+00 -0.64033148445E+03  0.21019840878E+04  0.20020770952E+04 0.  0.
        3    1    3    3  502    0  0.32833255996E+03 -0.21209164214E+03 -0.12877246301E+04  0.13457413822E+04  0.10100000352E+00 0. -1.
       -3    1    3    3    0  502 -0.32833255996E+03  0.21209164214E+03  0.64739314560E+03  0.75624270560E+03  0.10100000352E+00 0.  1.
</event>
<event>
 5   0  0.2356996E-06  0.2000052E+04  0.7818609E-02  0.8606596E-01
       -1   -1    0    0    0  501  0.00000000000E+00  0.00000000000E+00  0.98948095819E+03  0.98948095820E+03  0.50400001928E-02 0. -1.
        1   -1    0    0  501    0  0.00000000000E+00  0.00000000000E+00 -0.10106833864E+04  0.10106833864E+04  0.50400001928E-02 0.  1.
    10030    2    1    2    0    0  0.00000000000E+00  0.00000000000E+00 -0.21202428192E+02  0.20001643446E+04  0.20000519649E+04 0.  0.
        4    1    3    3  502    0 -0.60282623413E+03 -0.37616295112E+03  0.69310892760E+03  0.99262260340E+03  0.12699999809E+01 0. -1.
       -4    1    3    3    0  502  0.60282623413E+03  0.37616295112E+03 -0.71431135580E+03  0.10075417412E+04  0.12699999809E+01 0.  1.
</event>
<event>
 5   0  0.2379743E-06  0.2000410E+04  0.7818609E-02  0.8606429E-01
       -1   -1    0    0    0  501  0.00000000000E+00  0.00000000000E+00  0.53194956753E+03  0.53194956755E+03  0.50400001928E-02 0. -1.
        1   -1    0    0  501    0  0.00000000000E+00  0.00000000000E+00 -0.18806479789E+04  0.18806479789E+04  0.50400001928E-02 0.  1.
    10030    2    1    2    0    0  0.00000000000E+00  0.00000000000E+00 -0.13486984114E+04  0.24125975465E+04  0.20004098371E+04 0.  0.
        5    1    3    3  502    0 -0.50456264369E+03  0.68558977883E+03 -0.41004442765E+02  0.85224424936E+03  0.46999998093E+01 0. -1.
       -5    1    3    3    0  502  0.50456264369E+03 -0.68558977883E+03 -0.13076939686E+04  0.15603532971E+04  0.46999998093E+01 0.  1.
</event>
<event>
 5   0  0.5030137E-06  0.1996068E+04  0.7818609E-02  0.8608461E-01
        2   -1    0    0  501    0  0.00000000000E+00  0.00000000000E+00  0.57472553196E+03  0.57472553196E+03  0.25500000920E-02 0.  1.
       -2   -1    0    0    0  501  0.00000000000E+00  0.00000000000E+00 -0.17331256900E+04  0.17331256900E+04  0.25500000920E-02 0. -1.
    10030    2    1    2    0    0  0.00000000000E+00  0.00000000000E+00 -0.11584001580E+04  0.23078512220E+04  0.19960677184E+04 0.  0.
        3    1    3    3  502    0 -0.49033080700E+03  0.11787404313E+03  0.41657714366E+03  0.65410635004E+03  0.10100000352E+00 0.  1.
       -3    1    3    3    0  502  0.49033080700E+03 -0.11787404313E+03 -0.15749773017E+04  0.16537448719E+04  0.10100000352E+00 0. -1.
</event>
<event>
 5   0  0.5030137E-06  0.1997500E+04  0.7818609E-02  0.8607790E-01
       -2   -1    0    0    0  501  0.00000000000E+00  0.00000000000E+00  0.78106090357E+03  0.78106090358E+03  0.25500000920E-02 0.  1.
        2   -1    0    0  501    0  0.00000000000E+00  0.00000000000E+00 -0.12771112203E+04  0.12771112203E+04  0.25500000920E-02 0. -1.
    10030    2    1    2    0    0  0.00000000000E+00  0.00000000000E+00 -0.49605031673E+03  0.20581721239E+04  0.19975000813E+04 0.  0.
        3    1    3    3  502    0 -0.50544321788E+03 -0.60913545417E+02 -0.11333786626E+04  0.12424695205E+04  0.10100000352E+00 0. -1.
       -3    1    3    3    0  502  0.50544321788E+03  0.60913545417E+02  0.63732834583E+03  0.81570260335E+03  0.10100000352E+00 0.  1.
</event>
<event>
 5   0  0.5129100E-06  0.1999947E+04  0.7818609E-02  0.8606645E-01
       -2   -1    0    0    0  501  0.00000000000E+00  0.00000000000E+00  0.74285062344E+03  0.74285062345E+03  0.25500000920E-02 0.  1.
        2   -1    0    0  501    0  0.00000000000E+00  0.00000000000E+00 -0.13460946327E+04  0.13460946327E+04  0.25500000920E-02 0. -1.
    10030    2    1    2    0    0  0.00000000000E+00  0.00000000000E+00 -0.60324400925E+03  0.20889452561E+04  0.19999472364E+04 0.  0.
        2    1    3    3  502    0 -0.70945496106E+03 -0.62176533358E+03  0.44844807826E+02  0.94442020765E+03  0.25500000920E-02 0.  1.
       -2    1    3    3    0  502  0.70945496106E+03  0.62176533358E+03 -0.64808881708E+03  0.11445250485E+04  0.25500000920E-02 0. -1.
</event>
<event>
 5   0  0.2313821E-06  0.2001674E+04  0.7818609E-02  0.8605839E-01
        1   -1    0    0  501    0  0.00000000000E+00  0.00000000000E+00  0.14566947625E+04  0.14566947625E+04  0.50400001928E-02 0. -1.
       -1   -1    0    0    0  501  0.00000000000E+00  0.00000000000E+00 -0.68763514104E+03  0.68763514106E+03  0.50400001928E-02 0.  1.
    10030    2    1    2    0    0  0.00000000000E+00  0.00000000000E+00  0.76905962144E+03  0.21443299035E+04  0.20016738081E+04 0.  0.
        1    1    3    3  502    0 -0.35797512695E+03 -0.25057744881E+03  0.13491112424E+04  0.14181101487E+04  0.50400001928E-02 0. -1.
       -1    1    3    3    0  502  0.35797512695E+03  0.25057744881E+03 -0.58005162097E+03  0.72621975488E+03  0.50400001928E-02 0.  1.
</event>
<event>
 5   0  0.5118981E-06  0.1999970E+04  0.7818609E-02  0.8606635E-01
        2   -1    0    0  501    0  0.00000000000E+00  0.00000000000E+00  0.16295322630E+04  0.16295322630E+04  0.25500000920E-02 0. -1.
       -2   -1    0    0    0  501  0.00000000000E+00  0.00000000000E+00 -0.61365474884E+03  0.61365474885E+03  0.25500000920E-02 0.  1.
    10030    2    1    2    0    0  0.00000000000E+00  0.00000000000E+00  0.10158775141E+04  0.22431870118E+04  0.19999702113E+04 0.  0.
        4    1    3    3  502    0  0.17329354339E+03 -0.91040723274E+03  0.92924729004E+03  0.13123925177E+04  0.12699999809E+01 0. -1.
       -4    1    3    3    0  502 -0.17329354339E+03  0.91040723274E+03  0.86630224074E+02  0.93079449409E+03  0.12699999809E+01 0.  1.
</event>
<event>
 5   0  0.5030137E-06  0.2000401E+04  0.7818609E-02  0.8606433E-01
        2   -1    0    0  501    0  0.00000000000E+00  0.00000000000E+00  0.91289097489E+03  0.91289097489E+03  0.25500000920E-02 0. -1.
       -2   -1    0    0    0  501  0.00000000000E+00  0.00000000000E+00 -0.10958601617E+04  0.10958601617E+04  0.25500000920E-02 0.  1.
    10030    2    1    2    0    0  0.00000000000E+00  0.00000000000E+00 -0.18296918681E+03  0.20087511366E+04  0.20004008112E+04 0.  0.
        3    1    3    3  502    0  0.67890508219E+03 -0.34172658224E+03 -0.74436139040E+03  0.10638435305E+04  0.10100000352E+00 0.  1.
       -3    1    3    3    0  502 -0.67890508219E+03  0.34172658224E+03  0.56139220359E+03  0.94490760611E+03  0.10100000352E+00 0. -1.
</event>
<event>
 5   0  0.2386776E-06  0.2000083E+04  0.7818609E-02  0.8606582E-01
       -1   -1    0    0    0  501  0.00000000000E+00  0.00000000000E+00  0.58930468134E+03  0.58930468136E+03  0.50400001928E-02 0. -1.
        1   -1    0    0  501    0  0.00000000000E+00  0.00000000000E+00 -0.16970563896E+04  0.16970563896E+04  0.50400001928E-02 0.  1.
    10030    2    1    2    0    0  0.00000000000E+00  0.00000000000E+00 -0.11077517083E+04  0.22863610710E+04  0.20000832732E+04 0.  0.
        2    1    3    3  502    0  0.36554589344E+03  0.88185523955E+03 -0.21324753541E+03  0.97814465960E+03  0.25500000920E-02 0. -1.
       -2    1    3    3    0  502 -0.36554589344E+03 -0.88185523955E+03 -0.89450417289E+03  0.13082164114E+04  0.25500000920E-02 0.  1.
</event>
<event>
 5   0  0.2313821E-06  0.1999270E+04  0.7818609E-02  0.8606962E-01
        1   -1    0    0  501    0  0.00000000000E+00  0.00000000000E+00  0.89756840226E+03  0.89756840227E+03  0.50400001928E-02 0.  1.
       -1   -1    0    0    0  501  0.00000000000E+00  0.00000000000E+00 -0.11133085908E+04  0.11133085908E+04  0.50400001928E-02 0. -1.
    10030    2    1    2    0    0  0.00000000000E+00  0.00000000000E+00 -0.21574018857E+03  0.20108769931E+04  0.19992704801E+04 0.  0.
        1    1    3    3  502    0 -0.63129593492E+03  0.14116985431E+03  0.65866125390E+03  0.92319994185E+03  0.50400001928E-02 0.  1.
       -1    1    3    3    0  502  0.63129593492E+03 -0.14116985431E+03 -0.87440144247E+03  0.10876770513E+04  0.50400001928E-02 0. -1.
</event>
<event>
 5   0  0.4956214E-06  0.2007870E+04  0.7818609E-02  0.8602950E-01
        2   -1    0    0  501    0  0.00000000000E+00  0.00000000000E+00  0.47855907052E+03  0.47855907053E+03  0.25500000920E-02 0. -1.
       -2   -1    0    0    0  501  0.00000000000E+00  0.00000000000E+00 -0.21060833409E+04  0.21060833409E+04  0.25500000920E-02 0.  1.
    10030    2    1    2    0    0  0.00000000000E+00  0.00000000000E+00 -0.16275242704E+04  0.25846424114E+04  0.20078698026E+04 0.  0.
        1    1    3    3  502    0 -0.31593910861E+03 -0.52819372234E+03  0.20721864443E+03  0.64941950640E+03  0.50400001928E-02 0. -1.
       -1    1    3    3    0  502  0.31593910861E+03  0.52819372234E+03 -0.18347429148E+04  0.19352229050E+04  0.50400001928E-02 0.  1.
</event>
<event>
 5   0  0.2379743E-06  0.1999798E+04  0.7818609E-02  0.8606715E-01
       -1   -1    0    0    0  501  0.00000000000E+00  0.00000000000E+00  0.98345011942E+03  0.98345011943E+03  0.50400001928E-02 0.  1.
        1   -1    0    0  501    0  0.00000000000E+00  0.00000000000E+00 -0.10166231418E+04  0.10166231418E+04  0.50400001928E-02 0. -1.
    10030    2    1    2    0    0  0.00000000000E+00  0.00000000000E+00 -0.33173022360E+02  0.20000732612E+04  0.19997981400E+04 0.  0.
        5    1    3    3  502    0 -0.24240074158E+03 -0.77531164557E+03  0.56651152962E+03  0.99036542270E+03  0.46999998093E+01 0.  1.
       -5    1    3    3    0  502  0.24240074158E+03  0.77531164557E+03 -0.59968455198E+03  0.10097078385E+04  0.46999998093E+01 0. -1.
</event>
<event>
 5   0  0.2313821E-06  0.2000313E+04  0.7818609E-02  0.8606474E-01
       -1   -1    0    0    0  501  0.00000000000E+00  0.00000000000E+00  0.91943468942E+03  0.91943468943E+03  0.50400001928E-02 0. -1.
        1   -1    0    0  501    0  0.00000000000E+00  0.00000000000E+00 -0.10879658156E+04  0.10879658156E+04  0.50400001928E-02 0.  1.
    10030    2    1    2    0    0  0.00000000000E+00  0.00000000000E+00 -0.16853112620E+03  0.20074005051E+04  0.20003134872E+04 0.  0.
        1    1    3    3  502    0 -0.20488325039E+03  0.42066497462E+03  0.80282176078E+03  0.92922491721E+03  0.50400001928E-02 0. -1.
       -1    1    3    3    0  502  0.20488325039E+03 -0.42066497462E+03 -0.97135288697E+03  0.10781755878E+04  0.50400001928E-02 0.  1.
</event>
<event>
 5   0  0.5030137E-06  0.2000026E+04  0.7818609E-02  0.8606609E-01
        2   -1    0    0  501    0  0.00000000000E+00  0.00000000000E+00  0.15952851310E+04  0.15952851310E+04  0.25500000920E-02 0. -1.
       -2   -1    0    0    0  501  0.00000000000E+00  0.00000000000E+00 -0.62686323495E+03  0.62686323496E+03  0.25500000920E-02 0.  1.
    10030    2    1    2    0    0  0.00000000000E+00  0.00000000000E+00  0.96842189600E+03  0.22221483659E+04  0.20000255977E+04 0.  0.
        3    1    3    3  502    0  0.69024084185E+03 -0.11408400359E+03 -0.30969407604E+03  0.76508693007E+03  0.10100000352E+00 0.  1.
       -3    1    3    3    0  502 -0.69024084185E+03  0.11408400359E+03  0.12781159720E+04  0.14570614358E+04  0.10100000352E+00 0. -1.
</event>
<event>
 5   0  0.2313821E-06  0.1999942E+04  0.7818609E-02  0.8606648E-01
       -1   -1    0    0    0  501  0.00000000000E+00  0.00000000000E+00  0.45842722544E+03  0.45842722547E+03  0.50400001928E-02 0. -1.
        1   -1    0    0  501    0  0.00000000000E+00  0.00000000000E+00 -0.21812454509E+04  0.21812454509E+04  0.50400001928E-02 0.  1.
    10030    2    1    2    0    0  0.00000000000E+00  0.00000000000E+00 -0.17228182255E+04  0.26396726764E+04  0.19999422993E+04 0.  0.
        1    1    3    3  502    0 -0.63621194904E+03 -0.21614353188E+02  0.15644383857E+03  0.65552078459E+03  0.50400001928E-02 0. -1.
       -1    1    3    3    0  502  0.63621194904E+03  0.21614353188E+02 -0.18792620640E+04  0.19841518918E+04  0.50400001928E-02 0.  1.
</event>
<event>
 5   0  0.2313821E-06  0.1999822E+04  0.7818609E-02  0.8606704E-01
        1   -1    0    0  501    0  0.00000000000E+00  0.00000000000E+00  0.60189306433E+03  0.60189306436E+03  0.50400001928E-02 0. -1.
       -1   -1    0    0    0  501  0.00000000000E+00  0.00000000000E+00 -0.16611293600E+04  0.16611293600E+04  0.50400001928E-02 0.  1.
    10030    2    1    2    0    0  0.00000000000E+00  0.00000000000E+00 -0.10592362957E+04  0.22630224244E+04  0.19998222329E+04 0.  0.
        1    1    3    3  502    0 -0.11774208096E+03  0.59566813166E+03  0.36938209422E+03  0.71072276751E+03  0.50400001928E-02 0. -1.
       -1    1    3    3    0  502  0.11774208096E+03 -0.59566813166E+03 -0.14286183899E+04  0.15522996568E+04  0.50400001928E-02 0.  1.
</event>
<event>
 5   0  0.2386776E-06  0.2001418E+04  0.7818609E-02  0.8605958E-01
       -1   -1    0    0    0  501  0.00000000000E+00  0.00000000000E+00  0.85682217547E+03  0.85682217548E+03  0.50400001928E-02 0.  1.
        1   -1    0    0  501    0  0.00000000000E+00  0.00000000000E+00 -0.11687589970E+04  0.11687589970E+04  0.50400001928E-02 0. -1.
    10030    2    1    2    0    0  0.00000000000E+00  0.00000000000E+00 -0.31193682155E+03  0.20255811725E+04  0.20014181237E+04 0.  0.
        2    1    3    3  502    0 -0.68380562774E+03 -0.28809067202E+02  0.58291314911E+03  0.89900380327E+03  0.25500000920E-02 0.  1.
       -2    1    3    3    0  502  0.68380562774E+03  0.28809067202E+02 -0.89484997066E+03  0.11265773692E+04  0.25500000920E-02 0. -1.
</event>
<event>
 5   0  0.4956214E-06  0.2000281E+04  0.7818609E-02  0.8606489E-01
        2   -1    0    0  501    0  0.00000000000E+00  0.00000000000E+00  0.10045540377E+04  0.10045540377E+04  0.25500000920E-02 0.  1.
       -2   -1    0    0    0  501  0.00000000000E+00  0.00000000000E+00 -0.99574662389E+03  0.99574662389E+03  0.25500000920E-02 0. -1.
    10030    2    1    2    0    0  0.00000000000E+00  0.00000000000E+00  0.88074137685E+01  0.20003006616E+04  0.20002812717E+04 0.  0.
        1    1    3    3  502    0  0.57799871912E+03 -0.55322756552E+03 -0.59571712679E+03  0.99750797176E+03  0.50400001928E-02 0. -1.
       -1    1    3    3    0  502 -0.57799871912E+03  0.55322756552E+03  0.60452454056E+03  0.10027926898E+04  0.50400001928E-02 0.  1.
</event>
<event>
 5   0  0.1777750E-06  0.1999959E+04  0.7818609E-02  0.8606640E-01
        3   -1    0    0  501    0  0.00000000000E+00  0.00000000000E+00  0.22624309543E+04  0.22624309565E+04  0.10100000352E+00 0.  1.
       -3   -1    0    0    0  501  0.00000000000E+00  0.00000000000E+00 -0.44198418157E+03  0.44198419311E+03  0.10100000352E+00 0. -1.
    10030    2    1    2    0    0  0.00000000000E+00  0.00000000000E+00  0.18204467727E+04  0.27044151496E+04  0.19999587119E+04 0.  0.
        3    1    3    3  502    0 -0.42949710141E+02  0.92513311329E+03  0.40022665120E+03  0.10089089837E+04  0.10100000352E+00 0. -1.
       -3    1    3    3    0  502  0.42949710141E+02 -0.92513311329E+03  0.14202201215E+04  0.16955061659E+04  0.10100000352E+00 0.  1.
</event>
<event>
 5   0  0.5030137E-06  0.2001104E+04  0.7818609E-02  0.8606105E-01
        2   -1    0    0  501    0  0.00000000000E+00  0.00000000000E+00  0.12399415458E+04  0.12399415458E+04  0.25500000920E-02 0. -1.
       -2   -1    0    0    0  501  0.00000000000E+00  0.00000000000E+00 -0.80738037499E+03  0.80738037500E+03  0.25500000920E-02 0.  1.
    10030    2    1    2    0    0  0.00000000000E+00  0.00000000000E+00  0.43256117080E+03  0.20473219208E+04  0.20011041654E+04 0.  0.
        3    1    3    3  502    0  0.22958917902E+03 -0.23387643680E+03 -0.75090791515E+03  0.81931195894E+03  0.10100000352E+00 0.  1.
       -3    1    3    3    0  502 -0.22958917902E+03  0.23387643680E+03  0.11834690860E+04  0.12280099619E+04  0.10100000352E+00 0. -1.
</event>
<event>
 5   0  0.5129100E-06  0.1996176E+04  0.7818609E-02  0.8608411E-01
        2   -1    0    0  501    0  0.00000000000E+00  0.00000000000E+00  0.16323682717E+04  0.16323682717E+04  0.25500000920E-02 0.  1.
       -2   -1    0    0    0  501  0.00000000000E+00  0.00000000000E+00 -0.61026634634E+03  0.61026634635E+03  0.25500000920E-02 0. -1.
    10030    2    1    2    0    0  0.00000000000E+00  0.00000000000E+00  0.10221019253E+04  0.22426346180E+04  0.19961757648E+04 0.  0.
        2    1    3    3  502    0  0.10810258322E+03 -0.15561748174E+03 -0.58987441472E+03  0.61956016194E+03  0.25500000920E-02 0. -1.
       -2    1    3    3    0  502 -0.10810258322E+03  0.15561748174E+03  0.16119763400E+04  0.16230744561E+04  0.25500000920E-02 0.  1.
</event>
<event>
 5   0  0.4956214E-06  0.2001814E+04  0.7818609E-02  0.8605773E-01
        2   -1    0    0  501    0  0.00000000000E+00  0.00000000000E+00  0.10735104931E+04  0.10735104931E+04  0.25500000920E-02 0.  1.
       -2   -1    0    0    0  501  0.00000000000E+00  0.00000000000E+00 -0.93321394871E+03  0.93321394872E+03  0.25500000920E-02 0. -1.
    10030    2    1    2    0    0  0.00000000000E+00  0.00000000000E+00  0.14029654442E+03  0.20067244419E+04  0.20018141435E+04 0.  0.
        1    1    3    3  502    0 -0.40061122923E+03 -0.17568644162E+03 -0.83231544076E+03  0.94026808715E+03  0.50400001928E-02 0. -1.
       -1    1    3    3    0  502  0.40061122923E+03  0.17568644162E+03  0.97261198518E+03  0.10664563547E+04  0.50400001928E-02 0.  1.
</event>
<event>
 5   0  0.5030137E-06  0.1998161E+04  0.7818609E-02  0.8607481E-01
        2   -1    0    0  501    0  0.00000000000E+00  0.00000000000E+00  0.11618761431E+04  0.11618761431E+04  0.25500000920E-02 0.  1.
       -2   -1    0    0    0  501  0.00000000000E+00  0.00000000000E+00 -0.85909459527E+03  0.85909459528E+03  0.25500000920E-02 0. -1.
    10030    2    1    2    0    0  0.00000000000E+00  0.00000000000E+00  0.30278154785E+03  0.20209707384E+04  0.19981606692E+04 0.  0.
        3    1    3    3  502    0 -0.37934075300E+03  0.95423551003E+02 -0.77842770434E+03  0.87118009737E+03  0.10100000352E+00 0. -1.
       -3    1    3    3    0  502  0.37934075300E+03 -0.95423551003E+02  0.10812092522E+04  0.11497906410E+04  0.10100000352E+00 0.  1.
</event>
<event>
 5   0  0.2313821E-06  0.2000059E+04  0.7818609E-02  0.8606593E-01
        1   -1    0    0  501    0  0.00000000000E+00  0.00000000000E+00  0.41545497668E+03  0.41545497671E+03  0.50400001928E-02 0. -1.
       -1   -1    0    0    0  501  0.00000000000E+00  0.00000000000E+00 -0.24071405735E+04  0.24071405735E+04  0.50400001928E-02 0.  1.
    10030    2    1    2    0    0  0.00000000000E+00  0.00000000000E+00 -0.19916855969E+04  0.28225955502E+04  0.20000585300E+04 0.  0.
        1    1    3    3  502    0 -0.16309052302E+03 -0.69209112218E+03 -0.34676651394E+01  0.71105602087E+03  0.50400001928E-02 0. -1.
       -1    1    3    3    0  502  0.16309052302E+03  0.69209112218E+03 -0.19882179317E+04  0.21115395294E+04  0.50400001928E-02 0.  1.
</event>
<event>
 5   0  0.1777750E-06  0.2000199E+04  0.7818609E-02  0.8606528E-01
        3   -1    0    0  501    0  0.00000000000E+00  0.00000000000E+00  0.91711999126E+03  0.91711999682E+03  0.10100000352E+00 0. -1.
       -3   -1    0    0    0  501  0.00000000000E+00  0.00000000000E+00 -0.10905870023E+04  0.10905870070E+04  0.10100000352E+00 0.  1.
    10030    2    1    2    0    0  0.00000000000E+00  0.00000000000E+00 -0.17346701108E+03  0.20077070038E+04  0.20001991424E+04 0.  0.
        1    1    3    3  502    0  0.72382882126E+03 -0.43395120218E+03  0.45189728602E+03  0.95731549946E+03  0.50400001928E-02 0. -1.
       -1    1    3    3    0  502 -0.72382882126E+03  0.43395120218E+03 -0.62536429710E+03  0.10503915044E+04  0.50400001928E-02 0.  1.
</event>
<event>
 5   0  0.5118981E-06  0.1999699E+04  0.7818609E-02  0.8606762E-01
        2   -1    0    0  501    0  0.00000000000E+00  0.00000000000E+00  0.95579854521E+03  0.95579854521E+03  0.25500000920E-02 0. -1.
       -2   -1    0    0    0  501  0.00000000000E+00  0.00000000000E+00 -0.10459304561E+04  0.10459304561E+04  0.25500000920E-02 0.  1.
    10030    2    1    2    0    0  0.00000000000E+00  0.00000000000E+00 -0.90131910878E+02  0.20017290013E+04  0.19996987856E+04 0.  0.
        4    1    3    3  502    0 -0.53525766131E+03  0.74999772516E+03  0.34352894712E+03  0.98336722650E+03  0.12699999809E+01 0. -1.
       -4    1    3    3    0  502  0.53525766131E+03 -0.74999772516E+03 -0.43366085800E+03  0.10183617748E+04  0.12699999809E+01 0.  1.
</event>
<event>
 5   0  0.5129100E-06  0.2000414E+04  0.7818609E-02  0.8606427E-01
        2   -1    0    0  501    0  0.00000000000E+00  0.00000000000E+00  0.10624688704E+04  0.10624688704E+04  0.25500000920E-02 0. -1.
       -2   -1    0    0    0  501  0.00000000000E+00  0.00000000000E+00 -0.94159393192E+03  0.94159393193E+03  0.25500000920E-02 0.  1.
    10030    2    1    2    0    0  0.00000000000E+00  0.00000000000E+00  0.12087493847E+03  0.20040628023E+04  0.20004141983E+04 0.  0.
        2    1    3    3  502    0 -0.55820912626E+03  0.19676677067E+03 -0.74732071134E+03  0.95331151062E+03  0.25500000920E-02 0.  1.
       -2    1    3    3    0  502  0.55820912626E+03 -0.19676677067E+03  0.86819564980E+03  0.10507512917E+04  0.25500000920E-02 0. -1.
</event>
<event>
 5   0  0.2386776E-06  0.2000217E+04  0.7818609E-02  0.8606519E-01
       -1   -1    0    0    0  501  0.00000000000E+00  0.00000000000E+00  0.12340405487E+04  0.12340405487E+04  0.50400001928E-02 0. -1.
        1   -1    0    0  501    0  0.00000000000E+00  0.00000000000E+00 -0.81052170296E+03  0.81052170298E+03  0.50400001928E-02 0.  1.
    10030    2    1    2    0    0  0.00000000000E+00  0.00000000000E+00  0.42351884570E+03  0.20445622516E+04  0.20002166353E+04 0.  0.
        2    1    3    3  502    0  0.47550282037E+03 -0.66769972039E+03 -0.37391014531E+03  0.90096317658E+03  0.25500000920E-02 0.  1.
       -2    1    3    3    0  502 -0.47550282037E+03  0.66769972039E+03  0.79742899101E+03  0.11435990751E+04  0.25500000920E-02 0. -1.
</event>
<event>
 5   0  0.2386776E-06  0.2000769E+04  0.7818609E-02  0.8606261E-01
       -1   -1    0    0    0  501  0.00000000000E+00  0.00000000000E+00  0.46821142650E+03  0.46821142653E+03  0.50400001928E-02 0.  1.
        1   -1    0    0  501    0  0.00000000000E+00  0.00000000000E+00 -0.21374295471E+04  0.21374295471E+04  0.50400001928E-02 0. -1.
    10030    2    1    2    0    0  0.00000000000E+00  0.00000000000E+00 -0.16692181206E+04  0.26056409736E+04  0.20007687896E+04 0.  0.
        2    1    3    3  502    0 -0.15833841736E+03  0.22156710047E+03 -0.20882270104E+04  0.21059095616E+04  0.25500000920E-02 0. -1.
       -2    1    3    3    0  502  0.15833841736E+03 -0.22156710047E+03  0.41900888984E+03  0.49973141205E+03  0.25500000920E-02 0.  1.
</event>
<event>
 5   0  0.4956214E-06  0.2000805E+04  0.7818609E-02  0.8606244E-01
       -2   -1    0    0    0  501  0.00000000000E+00  0.00000000000E+00  0.57041089305E+03  0.57041089306E+03  0.25500000920E-02 0. -1.
        2   -1    0    0  501    0  0.00000000000E+00  0.00000000000E+00 -0.17545339527E+04  0.17545339528E+04  0.25500000920E-02 0.  1.
    10030    2    1    2    0    0  0.00000000000E+00  0.00000000000E+00 -0.11841230597E+04  0.23249448458E+04  0.20008051168E+04 0.  0.
        1    1    3    3  502    0 -0.91925320555E+03 -0.36948942985E+03 -0.75330986379E+03  0.12445981864E+04  0.50400001928E-02 0.  1.
       -1    1    3    3    0  502  0.91925320555E+03  0.36948942985E+03 -0.43081319590E+03  0.10803466594E+04  0.50400001928E-02 0. -1.
</event>
<event>
 5   0  0.2313821E-06  0.2000057E+04  0.7818609E-02  0.8606594E-01
       -1   -1    0    0    0  501  0.00000000000E+00  0.00000000000E+00  0.73795290247E+03  0.73795290249E+03  0.50400001928E-02 0.  1.
        1   -1    0    0  501    0  0.00000000000E+00  0.00000000000E+00 -0.13551766416E+04  0.13551766416E+04  0.50400001928E-02 0. -1.
    10030    2    1    2    0    0  0.00000000000E+00  0.00000000000E+00 -0.61722373908E+03  0.20931295441E+04  0.20000565352E+04 0.  0.
        1    1    3    3  502    0 -0.48368816381E+03  0.84185359234E+03 -0.57913004670E+02  0.97263848724E+03  0.50400001928E-02 0.  1.
       -1    1    3    3    0  502  0.48368816381E+03 -0.84185359234E+03 -0.55931073441E+03  0.11204910568E+04  0.50400001928E-02 0. -1.
</event>
<event>
 5   0  0.2379743E-06  0.2001860E+04  0.7818609E-02  0.8605751E-01
       -1   -1    0    0    0  501  0.00000000000E+00  0.00000000000E+00  0.73539392831E+03  0.73539392833E+03  0.50400001928E-02 0. -1.
        1   -1    0    0  501    0  0.00000000000E+00  0.00000000000E+00 -0.13623463411E+04  0.13623463411E+04  0.50400001928E-02 0.  1.
    10030    2    1    2    0    0  0.00000000000E+00  0.00000000000E+00 -0.62695241274E+03  0.20977402694E+04  0.20018603623E+04 0.  0.
        5    1    3    3  502    0  0.36277992524E+02  0.27033892766E+03 -0.13226380580E+04  0.13504787118E+04  0.46999998093E+01 0.  1.
       -5    1    3    3    0  502 -0.36277992524E+02 -0.27033892766E+03  0.69568564522E+03  0.74726155763E+03  0.46999998093E+01 0. -1.
</event>
<event>
 5   0  0.2313821E-06  0.2001358E+04  0.7818609E-02  0.8605986E-01
       -1   -1    0    0    0  501  0.00000000000E+00  0.00000000000E+00  0.73694400852E+03  0.73694400854E+03  0.50400001928E-02 0. -1.
        1   -1    0    0  501    0  0.00000000000E+00  0.00000000000E+00 -0.13587985387E+04  0.13587985387E+04  0.50400001928E-02 0.  1.
    10030    2    1    2    0    0  0.00000000000E+00  0.00000000000E+00 -0.62185453020E+03  0.20957425473E+04  0.20013579809E+04 0.  0.
        1    1    3    3  502    0 -0.21826841899E+03 -0.17887821915E+03 -0.13162665192E+04  0.13461783202E+04  0.50400001928E-02 0.  1.
       -1    1    3    3    0  502  0.21826841899E+03  0.17887821915E+03  0.69441198903E+03  0.74956422710E+03  0.50400001928E-02 0. -1.
</event>
<event>
 5   0  0.2311520E-06  0.2000101E+04  0.7818609E-02  0.8606574E-01
        1   -1    0    0  501    0  0.00000000000E+00  0.00000000000E+00  0.22029933689E+04  0.22029933689E+04  0.50400001928E-02 0.  1.
       -1   -1    0    0    0  501  0.00000000000E+00  0.00000000000E+00 -0.45397348959E+03  0.45397348961E+03  0.50400001928E-02 0. -1.
    10030    2    1    2    0    0  0.00000000000E+00  0.00000000000E+00  0.17490198793E+04  0.26569668585E+04  0.20001005847E+04 0.  0.
        3    1    3    3  502    0 -0.88170306217E+03 -0.47183840646E+03  0.86349085480E+03  0.13212298204E+04  0.10100000352E+00 0. -1.
       -3    1    3    3    0  502  0.88170306217E+03  0.47183840646E+03  0.88552902449E+03  0.13357370381E+04  0.10100000352E+00 0.  1.
</event>
<event>
 5   0  0.5030137E-06  0.1999635E+04  0.7818609E-02  0.8606791E-01
       -2   -1    0    0    0  501  0.00000000000E+00  0.00000000000E+00  0.78897649264E+03  0.78897649264E+03  0.25500000920E-02 0. -1.
        2   -1    0    0  501    0  0.00000000000E+00  0.00000000000E+00 -0.12670024516E+04  0.12670024516E+04  0.25500000920E-02 0.  1.
    10030    2    1    2    0    0  0.00000000000E+00  0.00000000000E+00 -0.47802595900E+03  0.20559789443E+04  0.19996351172E+04 0.  0.
        3    1    3    3  502    0 -0.42952775805E+03  0.90283272632E+03 -0.24501823974E+03  0.10293857269E+04  0.10100000352E+00 0. -1.
       -3    1    3    3    0  502  0.42952775805E+03 -0.90283272632E+03 -0.23300771926E+03  0.10265932174E+04  0.10100000352E+00 0.  1.
</event>
<event>
 5   0  0.4956214E-06  0.1999851E+04  0.7818609E-02  0.8606690E-01
        2   -1    0    0  501    0  0.00000000000E+00  0.00000000000E+00  0.12697873103E+04  0.12697873103E+04  0.25500000920E-02 0.  1.
       -2   -1    0    0    0  501  0.00000000000E+00  0.00000000000E+00 -0.78741583772E+03  0.78741583773E+03  0.25500000920E-02 0. -1.
    10030    2    1    2    0    0  0.00000000000E+00  0.00000000000E+00  0.48237147257E+03  0.20572031480E+04  0.19998506331E+04 0.  0.
        1    1    3    3  502    0  0.18544691203E+03  0.97511631614E+03  0.36551653922E+03  0.10577545687E+04  0.50400001928E-02 0. -1.
       -1    1    3    3    0  502 -0.18544691203E+03 -0.97511631614E+03  0.11685493336E+03  0.99944857930E+03  0.50400001928E-02 0.  1.
</event>
<event>
 5   0  0.1777750E-06  0.1999714E+04  0.7818609E-02  0.8606754E-01
        3   -1    0    0  501    0  0.00000000000E+00  0.00000000000E+00  0.98980274170E+03  0.98980274685E+03  0.10100000352E+00 0.  1.
       -3   -1    0    0    0  501  0.00000000000E+00  0.00000000000E+00 -0.10100132284E+04  0.10100132334E+04  0.10100000352E+00 0. -1.
    10030    2    1    2    0    0  0.00000000000E+00  0.00000000000E+00 -0.20210486652E+02  0.19998159803E+04  0.19997138523E+04 0.  0.
        3    1    3    3  502    0  0.36951355081E+03 -0.42150317823E+02 -0.93826737172E+03  0.10092881573E+04  0.10100000352E+00 0. -1.
       -3    1    3    3    0  502 -0.36951355081E+03  0.42150317823E+02  0.91805688507E+03  0.99052782291E+03  0.10100000352E+00 0.  1.
</event>
<event>
 5   0  0.5118981E-06  0.2000444E+04  0.7818609E-02  0.8606413E-01
       -2   -1    0    0    0  501  0.00000000000E+00  0.00000000000E+00  0.19335786340E+04  0.19335786340E+04  0.25500000920E-02 0.  1.
        2   -1    0    0  501    0  0.00000000000E+00  0.00000000000E+00 -0.51740534784E+03  0.51740534785E+03  0.25500000920E-02 0. -1.
    10030    2    1    2    0    0  0.00000000000E+00  0.00000000000E+00  0.14161732862E+04  0.24509839819E+04  0.20004438765E+04 0.  0.
        4    1    3    3  502    0 -0.50472525717E+03  0.77404447056E+03  0.23904992462E+03  0.95448358131E+03  0.12699999809E+01 0. -1.
       -4    1    3    3    0  502  0.50472525717E+03 -0.77404447056E+03  0.11771233615E+04  0.14965004005E+04  0.12699999809E+01 0.  1.
</event>
<event>
 5   0  0.2386776E-06  0.1998446E+04  0.7818609E-02  0.8607348E-01
        1   -1    0    0  501    0  0.00000000000E+00  0.00000000000E+00  0.20385205360E+04  0.20385205360E+04  0.50400001928E-02 0.  1.
       -1   -1    0    0    0  501  0.00000000000E+00  0.00000000000E+00 -0.48978964903E+03  0.48978964906E+03  0.50400001928E-02 0. -1.
    10030    2    1    2    0    0  0.00000000000E+00  0.00000000000E+00  0.15487308869E+04  0.25283101850E+04  0.19984456539E+04 0.  0.
        2    1    3    3  502    0  0.85678776343E+03  0.44157304415E+03  0.44114080226E+03  0.10600364297E+04  0.25500000920E-02 0. -1.
       -2    1    3    3    0  502 -0.85678776343E+03 -0.44157304415E+03  0.11075900847E+04  0.14682737553E+04  0.25500000920E-02 0.  1.
</event>
<event>
 5   0  0.5251252E-06  0.1999620E+04  0.7818609E-02  0.8606798E-01
        2   -1    0    0  501    0  0.00000000000E+00  0.00000000000E+00  0.14980191860E+04  0.14980191860E+04  0.25500000920E-02 0.  1.
       -2   -1    0    0    0  501  0.00000000000E+00  0.00000000000E+00 -0.66729465571E+03  0.66729465572E+03  0.25500000920E-02 0. -1.
    10030    2    1    2    0    0  0.00000000000E+00  0.00000000000E+00  0.83072453026E+03  0.21653138417E+04  0.19996201609E+04 0.  0.
        5    1    3    3  502    0 -0.34881950122E+03  0.45678234823E+03 -0.47051790661E+03  0.74278822589E+03  0.46999998093E+01 0. -1.
       -5    1    3    3    0  502  0.34881950122E+03 -0.45678234823E+03  0.13012424369E+04  0.14225256158E+04  0.46999998093E+01 0.  1.
</event>
<event>
 5   0  0.5251252E-06  0.1999784E+04  0.7818609E-02  0.8606722E-01
        2   -1    0    0  501    0  0.00000000000E+00  0.00000000000E+00  0.96614072614E+03  0.96614072614E+03  0.25500000920E-02 0. -1.
       -2   -1    0    0    0  501  0.00000000000E+00  0.00000000000E+00 -0.10348218619E+04  0.10348218619E+04  0.25500000920E-02 0.  1.
    10030    2    1    2    0    0  0.00000000000E+00  0.00000000000E+00 -0.68681135740E+02  0.20009625880E+04  0.19997835333E+04 0.  0.
        5    1    3    3  502    0  0.57347526121E+03  0.61395468339E+03 -0.57682922778E+03  0.10191017008E+04  0.46999998093E+01 0.  1.
       -5    1    3    3    0  502 -0.57347526121E+03 -0.61395468339E+03  0.50814809204E+03  0.98186088726E+03  0.46999998093E+01 0. -1.
</event>
<event>
 5   0  0.5030137E-06  0.1999995E+04  0.7818609E-02  0.8606623E-01
        2   -1    0    0  501    0  0.00000000000E+00  0.00000000000E+00  0.87731421103E+03  0.87731421103E+03  0.25500000920E-02 0. -1.
       -2   -1    0    0    0  501  0.00000000000E+00  0.00000000000E+00 -0.11398368082E+04  0.11398368082E+04  0.25500000920E-02 0.  1.
    10030    2    1    2    0    0  0.00000000000E+00  0.00000000000E+00 -0.26252259717E+03  0.20171510192E+04  0.19999950301E+04 0.  0.
        3    1    3    3  502    0 -0.49169994764E+02  0.98215396676E+03 -0.31434228798E+03  0.10324026283E+04  0.10100000352E+00 0. -1.
       -3    1    3    3    0  502  0.49169994764E+02 -0.98215396676E+03  0.51819690817E+02  0.98474839089E+03  0.10100000352E+00 0.  1.
</event>
<event>
 5   0  0.5251252E-06  0.2000276E+04  0.7818609E-02  0.8606491E-01
        2   -1    0    0  501    0  0.00000000000E+00  0.00000000000E+00  0.84182648418E+03  0.84182648418E+03  0.25500000920E-02 0.  1.
       -2   -1    0    0    0  501  0.00000000000E+00  0.00000000000E+00 -0.11882215387E+04  0.11882215388E+04  0.25500000920E-02 0. -1.
    10030    2    1    2    0    0  0.00000000000E+00  0.00000000000E+00 -0.34639505457E+03  0.20300480229E+04  0.20002763413E+04 0.  0.
        5    1    3    3  502    0 -0.30348744566E+03 -0.94560609799E+03 -0.29318901942E+03  0.10354986303E+04  0.46999998093E+01 0. -1.
       -5    1    3    3    0  502  0.30348744566E+03  0.94560609799E+03 -0.53206035146E+02  0.99454939264E+03  0.46999998093E+01 0.  1.
</event>
<event>
 5   0  0.5129100E-06  0.1999573E+04  0.7818609E-02  0.8606820E-01
        2   -1    0    0  501    0  0.00000000000E+00  0.00000000000E+00  0.10967071555E+04  0.10967071555E+04  0.25500000920E-02 0. -1.
       -2   -1    0    0    0  501  0.00000000000E+00  0.00000000000E+00 -0.91143107946E+03  0.91143107947E+03  0.25500000920E-02 0.  1.
    10030    2    1    2    0    0  0.00000000000E+00  0.00000000000E+00  0.18527607607E+03  0.20081382350E+04  0.19995729410E+04 0.  0.
        2    1    3    3  502    0  0.64978828785E+03  0.67357089575E+03 -0.26050784288E+03  0.97148695660E+03  0.25500000920E-02 0. -1.
       -2    1    3    3    0  502 -0.64978828785E+03 -0.67357089575E+03  0.44578391895E+03  0.10366512784E+04  0.25500000920E-02 0.  1.
</event>
<event>
 5   0  0.5251252E-06  0.2000550E+04  0.7818609E-02  0.8606364E-01
       -2   -1    0    0    0  501  0.00000000000E+00  0.00000000000E+00  0.88106929688E+03  0.88106929688E+03  0.25500000920E-02 0. -1.
        2   -1    0    0  501    0  0.00000000000E+00  0.00000000000E+00 -0.11356087471E+04  0.11356087471E+04  0.25500000920E-02 0.  1.
    10030    2    1    2    0    0  0.00000000000E+00  0.00000000000E+00 -0.25453945022E+03  0.20166780440E+04  0.20005499247E+04 0.  0.
        5    1    3    3  502    0 -0.18102939875E+03 -0.41462734697E+03 -0.10265605766E+04  0.11218449927E+04  0.46999998093E+01 0.  1.
       -5    1    3    3    0  502  0.18102939875E+03  0.41462734697E+03  0.77202112643E+03  0.89483305131E+03  0.46999998093E+01 0. -1.
</event>
<event>
 5   0  0.5129100E-06  0.1998531E+04  0.7818609E-02  0.8607308E-01
       -2   -1    0    0    0  501  0.00000000000E+00  0.00000000000E+00  0.67101817615E+03  0.67101817615E+03  0.25500000920E-02 0. -1.
        2   -1    0    0  501    0  0.00000000000E+00  0.00000000000E+00 -0.14880845154E+04  0.14880845154E+04  0.25500000920E-02 0.  1.
    10030    2    1    2    0    0  0.00000000000E+00  0.00000000000E+00 -0.81706633926E+03  0.21591026916E+04  0.19985312182E+04 0.  0.
        2    1    3    3  502    0  0.22802366531E+03 -0.96853647454E+03 -0.50798395276E+03  0.11171863724E+04  0.25500000920E-02 0. -1.
       -2    1    3    3    0  502 -0.22802366531E+03  0.96853647454E+03 -0.30908238650E+03  0.10419163191E+04  0.25500000920E-02 0.  1.
</event>
<event>
 5   0  0.5118981E-06  0.2000059E+04  0.7818609E-02  0.8606593E-01
        2   -1    0    0  501    0  0.00000000000E+00  0.00000000000E+00  0.96874271020E+03  0.96874271020E+03  0.25500000920E-02 0. -1.
       -2   -1    0    0    0  501  0.00000000000E+00  0.00000000000E+00 -0.10323265435E+04  0.10323265435E+04  0.25500000920E-02 0.  1.
    10030    2    1    2    0    0  0.00000000000E+00  0.00000000000E+00 -0.63583833309E+02  0.20010692537E+04  0.20000588127E+04 0.  0.
        4    1    3    3  502    0  0.23216013151E+03  0.95156648779E+03 -0.23358688028E+03  0.10069466475E+04  0.12699999809E+01 0.  1.
       -4    1    3    3    0  502 -0.23216013151E+03 -0.95156648779E+03  0.17000304697E+03  0.99412260623E+03  0.12699999809E+01 0. -1.
</event>
<event>
 5   0  0.4956214E-06  0.1997234E+04  0.7818609E-02  0.8607915E-01
       -2   -1    0    0    0  501  0.00000000000E+00  0.00000000000E+00  0.94520575813E+03  0.94520575813E+03  0.25500000920E-02 0.  1.
        2   -1    0    0  501    0  0.00000000000E+00  0.00000000000E+00 -0.10550465383E+04  0.10550465383E+04  0.25500000920E-02 0. -1.
    10030    2    1    2    0    0  0.00000000000E+00  0.00000000000E+00 -0.10984078018E+03  0.20002522964E+04  0.19972341506E+04 0.  0.
        1    1    3    3  502    0  0.35514717570E+03 -0.15242207131E+03  0.86727186016E+03  0.94948537834E+03  0.50400001928E-02 0.  1.
       -1    1    3    3    0  502 -0.35514717570E+03  0.15242207131E+03 -0.97711264035E+03  0.10507669181E+04  0.50400001928E-02 0. -1.
</event>
<event>
 5   0  0.2313821E-06  0.2000420E+04  0.7818609E-02  0.8606424E-01
        1   -1    0    0  501    0  0.00000000000E+00  0.00000000000E+00  0.14594946509E+04  0.14594946509E+04  0.50400001928E-02 0. -1.
       -1   -1    0    0    0  501  0.00000000000E+00  0.00000000000E+00 -0.68545640638E+03  0.68545640640E+03  0.50400001928E-02 0.  1.
    10030    2    1    2    0    0  0.00000000000E+00  0.00000000000E+00  0.77403824453E+03  0.21449510573E+04  0.20004199145E+04 0.  0.
        1    1    3    3  502    0 -0.89603432023E+02  0.76192739171E+03 -0.30110991273E+03  0.82415369006E+03  0.50400001928E-02 0.  1.
       -1    1    3    3    0  502  0.89603432023E+02 -0.76192739171E+03  0.10751481573E+04  0.13207973673E+04  0.50400001928E-02 0. -1.
</event>
<event>
 5   0  0.2379743E-06  0.1999901E+04  0.7818609E-02  0.8606667E-01
        1   -1    0    0  501    0  0.00000000000E+00  0.00000000000E+00  0.82044456827E+03  0.82044456829E+03  0.50400001928E-02 0.  1.
       -1   -1    0    0    0  501  0.00000000000E+00  0.00000000000E+00 -0.12187305420E+04  0.12187305420E+04  0.50400001928E-02 0. -1.
    10030    2    1    2    0    0  0.00000000000E+00  0.00000000000E+00 -0.39828597376E+03  0.20391751103E+04  0.19999008510E+04 0.  0.
        5    1    3    3  502    0  0.38386350897E+03 -0.20360623556E+03 -0.11174243702E+04  0.11989437042E+04  0.46999998093E+01 0. -1.
       -5    1    3    3    0  502 -0.38386350897E+03  0.20360623556E+03  0.71913839643E+03  0.84023140616E+03  0.46999998093E+01 0.  1.
</event>
<event>
 5   0  0.2386776E-06  0.2012615E+04  0.7818609E-02  0.8600746E-01
       -1   -1    0    0    0  501  0.00000000000E+00  0.00000000000E+00  0.84611027646E+03  0.84611027647E+03  0.50400001928E-02 0.  1.
        1   -1    0    0  501    0  0.00000000000E+00  0.00000000000E+00 -0.11968350147E+04  0.11968350147E+04  0.50400001928E-02 0. -1.
    10030    2    1    2    0    0  0.00000000000E+00  0.00000000000E+00 -0.35072473822E+03  0.20429452912E+04  0.20126146230E+04 0.  0.
        2    1    3    3  502    0  0.17804789607E+03 -0.44798881868E+03 -0.10719972076E+04  0.11754033555E+04  0.25500000920E-02 0. -1.
       -2    1    3    3    0  502 -0.17804789607E+03  0.44798881868E+03  0.72127246942E+03  0.86754193565E+03  0.25500000920E-02 0.  1.
</event>
<event>
 5   0  0.2379743E-06  0.1994749E+04  0.7818609E-02  0.8609079E-01
        1   -1    0    0  501    0  0.00000000000E+00  0.00000000000E+00  0.13222448709E+04  0.13222448709E+04  0.50400001928E-02 0.  1.
       -1   -1    0    0    0  501  0.00000000000E+00  0.00000000000E+00 -0.75232368801E+03  0.75232368803E+03  0.50400001928E-02 0. -1.
    10030    2    1    2    0    0  0.00000000000E+00  0.00000000000E+00  0.56992118288E+03  0.20745685589E+04  0.19947492451E+04 0.  0.
        5    1    3    3  502    0 -0.79957949280E+03 -0.28252228613E+03 -0.26101032405E+03  0.88729627900E+03  0.46999998093E+01 0.  1.
       -5    1    3    3    0  502  0.79957949280E+03  0.28252228613E+03  0.83093150693E+03  0.11872722799E+04  0.46999998093E+01 0. -1.
</event>
<event>
 5   0  0.5030137E-06  0.1999717E+04  0.7818609E-02  0.8606753E-01
       -2   -1    0    0    0  501  0.00000000000E+00  0.00000000000E+00  0.85947727266E+03  0.85947727266E+03  0.25500000920E-02 0.  1.
        2   -1    0    0  501    0  0.00000000000E+00  0.00000000000E+00 -0.11631691601E+04  0.11631691601E+04  0.25500000920E-02 0. -1.
    10030    2    1    2    0    0  0.00000000000E+00  0.00000000000E+00 -0.30369188743E+03  0.20226464328E+04  0.19997174374E+04 0.  0.
        3    1    3    3  502    0 -0.19877453782E+03  0.92514766567E+03  0.17482461582E+03  0.96227500054E+03  0.10100000352E+00 0.  1.
       -3    1    3    3    0  502  0.19877453782E+03 -0.92514766567E+03 -0.47851650325E+03  0.10603714322E+04  0.10100000352E+00 0. -1.
</event>
<event>
 5   0  0.5118981E-06  0.1999944E+04  0.7818609E-02  0.8606647E-01
        2   -1    0    0  501    0  0.00000000000E+00  0.00000000000E+00  0.26305649787E+04  0.26305649787E+04  0.25500000920E-02 0. -1.
       -2   -1    0    0    0  501  0.00000000000E+00  0.00000000000E+00 -0.38012529790E+03  0.38012529791E+03  0.25500000920E-02 0.  1.
    10030    2    1    2    0    0  0.00000000000E+00  0.00000000000E+00  0.22504396808E+04  0.30106902766E+04  0.19999442954E+04 0.  0.
        4    1    3    3  502    0  0.49683432470E+03  0.45420440606E+03  0.22383888851E+04  0.23374200313E+04  0.12699999809E+01 0. -1.
       -4    1    3    3    0  502 -0.49683432470E+03 -0.45420440606E+03  0.12050795687E+02  0.67327024534E+03  0.12699999809E+01 0.  1.
</event>
<event>
 5   0  0.2356996E-06  0.2000156E+04  0.7818609E-02  0.8606548E-01
       -1   -1    0    0    0  501  0.00000000000E+00  0.00000000000E+00  0.19995776656E+04  0.19995776656E+04  0.50400001928E-02 0. -1.
        1   -1    0    0  501    0  0.00000000000E+00  0.00000000000E+00 -0.50018376137E+03  0.50018376139E+03  0.50400001928E-02 0.  1.
    10030    2    1    2    0    0  0.00000000000E+00  0.00000000000E+00  0.14993939042E+04  0.24997614270E+04  0.20001562718E+04 0.  0.
        4    1    3    3  502    0  0.58765710139E+03  0.17030074942E+03 -0.23898449993E+03  0.65685494455E+03  0.12699999809E+01 0.  1.
       -4    1    3    3    0  502 -0.58765710139E+03 -0.17030074942E+03  0.17383784041E+04  0.18429064824E+04  0.12699999809E+01 0. -1.
</event>
<event>
 5   0  0.2386776E-06  0.2001633E+04  0.7818609E-02  0.8605858E-01
        1   -1    0    0  501    0  0.00000000000E+00  0.00000000000E+00  0.23023007552E+04  0.23023007552E+04  0.50400001928E-02 0.  1.
       -1   -1    0    0    0  501  0.00000000000E+00  0.00000000000E+00 -0.43505764812E+03  0.43505764815E+03  0.50400001928E-02 0. -1.
    10030    2    1    2    0    0  0.00000000000E+00  0.00000000000E+00  0.18672431071E+04  0.27373584033E+04  0.20016328853E+04 0.  0.
        2    1    3    3  502    0  0.92199706483E+03 -0.37686758959E+03  0.80014726780E+03  0.12776319571E+04  0.25500000920E-02 0. -1.
       -2    1    3    3    0  502 -0.92199706483E+03  0.37686758959E+03  0.10670958393E+04  0.14597264462E+04  0.25500000920E-02 0.  1.
</event>
<event>
 5   0  0.2386776E-06  0.2000142E+04  0.7818609E-02  0.8606554E-01
        1   -1    0    0  501    0  0.00000000000E+00  0.00000000000E+00  0.10397637087E+04  0.10397637087E+04  0.50400001928E-02 0. -1.
       -1   -1    0    0    0  501  0.00000000000E+00  0.00000000000E+00 -0.96189401308E+03  0.96189401309E+03  0.50400001928E-02 0.  1.
    10030    2    1    2    0    0  0.00000000000E+00  0.00000000000E+00  0.77869695641E+02  0.20016577218E+04  0.20001424814E+04 0.  0.
        2    1    3    3  502    0  0.72112012896E+03  0.94090155073E+02  0.72594984311E+03  0.10275555325E+04  0.25500000920E-02 0. -1.
       -2    1    3    3    0  502 -0.72112012896E+03 -0.94090155073E+02 -0.64808014747E+03  0.97410218931E+03  0.25500000920E-02 0.  1.
</event>
<event>
 5   0  0.5129100E-06  0.1999378E+04  0.7818609E-02  0.8606912E-01
       -2   -1    0    0    0  501  0.00000000000E+00  0.00000000000E+00  0.14037454542E+04  0.14037454542E+04  0.25500000920E-02 0.  1.
        2   -1    0    0  501    0  0.00000000000E+00  0.00000000000E+00 -0.71193681240E+03  0.71193681240E+03  0.25500000920E-02 0. -1.
    10030    2    1    2    0    0  0.00000000000E+00  0.00000000000E+00  0.69180864181E+03  0.21156822666E+04  0.19993779674E+04 0.  0.
        2    1    3    3  502    0 -0.43689199901E+03 -0.47212224997E+03  0.11556666534E+04  0.13226259681E+04  0.25500000920E-02 0.  1.
       -2    1    3    3    0  502  0.43689199901E+03  0.47212224997E+03 -0.46385801158E+03  0.79305629852E+03  0.25500000920E-02 0. -1.
</event>
<event>
 5   0  0.2313821E-06  0.2000104E+04  0.7818609E-02  0.8606572E-01
       -1   -1    0    0    0  501  0.00000000000E+00  0.00000000000E+00  0.15749671228E+04  0.15749671228E+04  0.50400001928E-02 0.  1.
        1   -1    0    0  501    0  0.00000000000E+00  0.00000000000E+00 -0.63499967012E+03  0.63499967014E+03  0.50400001928E-02 0. -1.
    10030    2    1    2    0    0  0.00000000000E+00  0.00000000000E+00  0.93996745271E+03  0.22099667930E+04  0.20001036008E+04 0.  0.
        1    1    3    3  502    0 -0.57828066584E+02  0.57572885609E+03 -0.43125666603E+03  0.72165789197E+03  0.50400001928E-02 0. -1.
       -1    1    3    3    0  502  0.57828066584E+02 -0.57572885609E+03  0.13712241187E+04  0.14883089010E+04  0.50400001928E-02 0.  1.
</event>
<event>
 5   0  0.2356996E-06  0.2000468E+04  0.7818609E-02  0.8606402E-01
       -1   -1    0    0    0  501  0.00000000000E+00  0.00000000000E+00  0.11291088351E+04  0.11291088351E+04  0.50400001928E-02 0. -1.
        1   -1    0    0  501    0  0.00000000000E+00  0.00000000000E+00 -0.88606861869E+03  0.88606861871E+03  0.50400001928E-02 0.  1.
    10030    2    1    2    0    0  0.00000000000E+00  0.00000000000E+00  0.24304021637E+03  0.20151774538E+04  0.20004678511E+04 0.  0.
        4    1    3    3  502    0 -0.40519378613E+03  0.19033838450E+03 -0.77951518122E+03  0.89891948226E+03  0.12699999809E+01 0.  1.
       -4    1    3    3    0  502  0.40519378613E+03 -0.19033838450E+03  0.10225553976E+04  0.11162579715E+04  0.12699999809E+01 0. -1.
</event>
<event>
 5   0  0.2311520E-06  0.2000136E+04  0.7818609E-02  0.8606557E-01
       -1   -1    0    0    0  501  0.00000000000E+00  0.00000000000E+00  0.73141943473E+03  0.73141943475E+03  0.50400001928E-02 0. -1.
        1   -1    0    0  501    0  0.00000000000E+00  0.00000000000E+00 -0.13673905862E+04  0.13673905862E+04  0.50400001928E-02 0.  1.
    10030    2    1    2    0    0  0.00000000000E+00  0.00000000000E+00 -0.63597115147E+03  0.20988100210E+04  0.20001360450E+04 0.  0.
        3    1    3    3  502    0  0.24666639151E+03 -0.22262235454E+03 -0.13077753400E+04  0.13493262658E+04  0.10100000352E+00 0.  1.
       -3    1    3    3    0  502 -0.24666639151E+03  0.22262235454E+03  0.67180418850E+03  0.74948375521E+03  0.10100000352E+00 0. -1.
</event>
<event>
 5   0  0.2356996E-06  0.2011129E+04  0.7818609E-02  0.8601435E-01
        1   -1    0    0  501    0  0.00000000000E+00  0.00000000000E+00  0.33143574669E+04  0.33143574669E+04  0.50400001928E-02 0.  1.
       -1   -1    0    0    0  501  0.00000000000E+00  0.00000000000E+00 -0.30508461647E+03  0.30508461651E+03  0.50400001928E-02 0. -1.
    10030    2    1    2    0    0  0.00000000000E+00  0.00000000000E+00  0.30092728505E+04  0.36194420834E+04  0.20111285158E+04 0.  0.
        4    1    3    3  502    0  0.14477949439E+03 -0.32453622333E+03  0.31975792069E+04  0.32172658049E+04  0.12699999809E+01 0.  1.
       -4    1    3    3    0  502 -0.14477949439E+03  0.32453622333E+03 -0.18830635642E+03  0.40217627854E+03  0.12699999809E+01 0. -1.
</event>
<event>
 5   0  0.5118981E-06  0.2000356E+04  0.7818609E-02  0.8606454E-01
       -2   -1    0    0    0  501  0.00000000000E+00  0.00000000000E+00  0.89961176723E+03  0.89961176724E+03  0.25500000920E-02 0.  1.
        2   -1    0    0  501    0  0.00000000000E+00  0.00000000000E+00 -0.11119863632E+04  0.11119863632E+04  0.25500000920E-02 0. -1.
    10030    2    1    2    0    0  0.00000000000E+00  0.00000000000E+00 -0.21237459597E+03  0.20115981304E+04  0.20003559857E+04 0.  0.
        4    1    3    3  502    0  0.42740739203E+03 -0.50022864628E+03  0.65133811707E+03  0.92582327308E+03  0.12699999809E+01 0.  1.
       -4    1    3    3    0  502 -0.42740739203E+03  0.50022864628E+03 -0.86371271304E+03  0.10857748574E+04  0.12699999809E+01 0. -1.
</event>
<event>
 5   0  0.5129100E-06  0.1999824E+04  0.7818609E-02  0.8606703E-01
       -2   -1    0    0    0  501  0.00000000000E+00  0.00000000000E+00  0.40362642836E+03  0.40362642837E+03  0.25500000920E-02 0.  1.
        2   -1    0    0  501    0  0.00000000000E+00  0.00000000000E+00 -0.24771027379E+04  0.24771027379E+04  0.25500000920E-02 0. -1.
    10030    2    1    2    0    0  0.00000000000E+00  0.00000000000E+00 -0.20734763095E+04  0.28807291662E+04  0.19998241230E+04 0.  0.
        2    1    3    3  502    0  0.35126536772E+03 -0.64068686970E+02 -0.23821384631E+04  0.24087498443E+04  0.25500000920E-02 0. -1.
       -2    1    3    3    0  502 -0.35126536772E+03  0.64068686970E+02  0.30866215361E+03  0.47197932188E+03  0.25500000920E-02 0.  1.
</event>
<event>
 5   0  0.5251252E-06  0.2000088E+04  0.7818609E-02  0.8606580E-01
        2   -1    0    0  501    0  0.00000000000E+00  0.00000000000E+00  0.19592111214E+04  0.19592111214E+04  0.25500000920E-02 0.  1.
       -2   -1    0    0    0  501  0.00000000000E+00  0.00000000000E+00 -0.51045419067E+03  0.51045419067E+03  0.25500000920E-02 0. -1.
    10030    2    1    2    0    0  0.00000000000E+00  0.00000000000E+00  0.14487569307E+04  0.24696653121E+04  0.20000875254E+04 0.  0.
        5    1    3    3  502    0  0.51467084412E+03 -0.65785758425E+03  0.14033975407E+04  0.16331593389E+04  0.46999998093E+01 0.  1.
       -5    1    3    3    0  502 -0.51467084412E+03  0.65785758425E+03  0.45359390059E+02  0.83650597321E+03  0.46999998093E+01 0. -1.
</event>
<event>
 5   0  0.5030137E-06  0.2000689E+04  0.7818609E-02  0.8606299E-01
        2   -1    0    0  501    0  0.00000000000E+00  0.00000000000E+00  0.10047203031E+04  0.10047203031E+04  0.25500000920E-02 0. -1.
       -2   -1    0    0    0  501  0.00000000000E+00  0.00000000000E+00 -0.99598754709E+03  0.99598754709E+03  0.25500000920E-02 0.  1.
    10030    2    1    2    0    0  0.00000000000E+00  0.00000000000E+00  0.87327559831E+01  0.20007078502E+04  0.20006887916E+04 0.  0.
        3    1    3    3  502    0  0.49697578428E+02  0.42643960482E+03  0.90790601059E+03  0.10042977248E+04  0.10100000352E+00 0. -1.
       -3    1    3    3    0  502 -0.49697578428E+02 -0.42643960482E+03 -0.89917325460E+03  0.99641012533E+03  0.10100000352E+00 0.  1.
</event>
<event>
 5   0  0.4956214E-06  0.2000223E+04  0.7818609E-02  0.8606516E-01
        2   -1    0    0  501    0  0.00000000000E+00  0.00000000000E+00  0.19860083658E+04  0.19860083658E+04  0.25500000920E-02 0. -1.
       -2   -1    0    0    0  501  0.00000000000E+00  0.00000000000E+00 -0.50363477449E+03  0.50363477450E+03  0.25500000920E-02 0.  1.
    10030    2    1    2    0    0  0.00000000000E+00  0.00000000000E+00  0.14823735914E+04  0.24896431404E+04  0.20002228631E+04 0.  0.
        1    1    3    3  502    0  0.68585919115E+03 -0.33453642288E+03 -0.63445980536E+02  0.76573026634E+03  0.50400001928E-02 0.  1.
       -1    1    3    3    0  502 -0.68585919115E+03  0.33453642288E+03  0.15458195719E+04  0.17239128740E+04  0.50400001928E-02 0. -1.
</event>
<event>
 5   0  0.2311520E-06  0.2001031E+04  0.7818609E-02  0.8606139E-01
        1   -1    0    0  501    0  0.00000000000E+00  0.00000000000E+00  0.10878072234E+04  0.10878072235E+04  0.50400001928E-02 0. -1.
       -1   -1    0    0    0  501  0.00000000000E+00  0.00000000000E+00 -0.92022832793E+03  0.92022832794E+03  0.50400001928E-02 0.  1.
    10030    2    1    2    0    0  0.00000000000E+00  0.00000000000E+00  0.16757889552E+03  0.20080355514E+04  0.20010307568E+04 0.  0.
        3    1    3    3  502    0  0.60135163680E+03 -0.76056777463E+03  0.33152177826E+03  0.10246920662E+04  0.10100000352E+00 0. -1.
       -3    1    3    3    0  502 -0.60135163680E+03  0.76056777463E+03 -0.16394288274E+03  0.98334348520E+03  0.10100000352E+00 0.  1.
</event>
<event>
 5   0  0.2311520E-06  0.1999645E+04  0.7818609E-02  0.8606787E-01
       -1   -1    0    0    0  501  0.00000000000E+00  0.00000000000E+00  0.15325395758E+04  0.15325395758E+04  0.50400001928E-02 0. -1.
        1   -1    0    0  501    0  0.00000000000E+00  0.00000000000E+00 -0.65228008270E+03  0.65228008272E+03  0.50400001928E-02 0.  1.
    10030    2    1    2    0    0  0.00000000000E+00  0.00000000000E+00  0.88025949307E+03  0.21848196585E+04  0.19996450097E+04 0.  0.
        3    1    3    3  502    0 -0.75273778757E+03 -0.64298273409E+03  0.59311010672E+03  0.11540453120E+04  0.10100000352E+00 0. -1.
       -3    1    3    3    0  502  0.75273778757E+03  0.64298273409E+03  0.28714938634E+03  0.10307743465E+04  0.10100000352E+00 0.  1.
</event>
<event>
 5   0  0.5251252E-06  0.2002608E+04  0.7818609E-02  0.8605402E-01
       -2   -1    0    0    0  501  0.00000000000E+00  0.00000000000E+00  0.14491924390E+04  0.14491924390E+04  0.25500000920E-02 0. -1.
        2   -1    0    0  501    0  0.00000000000E+00  0.00000000000E+00 -0.69184037615E+03  0.69184037615E+03  0.25500000920E-02 0.  1.
    10030    2    1    2    0    0  0.00000000000E+00  0.00000000000E+00  0.75735206286E+03  0.21410328152E+04  0.20026081415E+04 0.  0.
        5    1    3    3  502    0  0.46124733943E+03 -0.72201128993E+03  0.93270247906E+03  0.12664933539E+04  0.46999998093E+01 0. -1.
       -5    1    3    3    0  502 -0.46124733943E+03  0.72201128993E+03 -0.17535041620E+03  0.87453946131E+03  0.46999998093E+01 0.  1.
</event>
<event>
 5   0  0.2356996E-06  0.1999229E+04  0.7818609E-02  0.8606981E-01
       -1   -1    0    0    0  501  0.00000000000E+00  0.00000000000E+00  0.51893579667E+03  0.51893579670E+03  0.50400001928E-02 0.  1.
        1   -1    0    0  501    0  0.00000000000E+00  0.00000000000E+00 -0.19255347427E+04  0.19255347427E+04  0.50400001928E-02 0. -1.
    10030    2    1    2    0    0  0.00000000000E+00  0.00000000000E+00 -0.14065989460E+04  0.24444705394E+04  0.19992287570E+04 0.  0.
        4    1    3    3  502    0  0.61809671690E+03 -0.60546358083E+03 -0.13153831045E+04  0.15744408607E+04  0.12699999809E+01 0. -1.
       -4    1    3    3    0  502 -0.61809671690E+03  0.60546358083E+03 -0.91215841438E+02  0.87002967868E+03  0.12699999809E+01 0.  1.
</event>
<event>
 5   0  0.4956214E-06  0.2000505E+04  0.7818609E-02  0.8606384E-01
       -2   -1    0    0    0  501  0.00000000000E+00  0.00000000000E+00  0.41444614295E+03  0.41444614296E+03  0.25500000920E-02 0. -1.
        2   -1    0    0  501    0  0.00000000000E+00  0.00000000000E+00 -0.24140784095E+04  0.24140784095E+04  0.25500000920E-02 0.  1.
    10030    2    1    2    0    0  0.00000000000E+00  0.00000000000E+00 -0.19996322665E+04  0.28285245524E+04  0.20005054217E+04 0.  0.
        1    1    3    3  502    0  0.64418859322E+02 -0.76240244871E+03 -0.19107684537E+04  0.20582622202E+04  0.50400001928E-02 0.  1.
       -1    1    3    3    0  502 -0.64418859322E+02  0.76240244871E+03 -0.88863812798E+02  0.77026233225E+03  0.50400001928E-02 0. -1.
</event>
<event>
 5   0  0.5030137E-06  0.1999416E+04  0.7818609E-02  0.8606894E-01
        2   -1    0    0  501    0  0.00000000000E+00  0.00000000000E+00  0.10093119102E+04  0.10093119102E+04  0.25500000920E-02 0.  1.
       -2   -1    0    0    0  501  0.00000000000E+00  0.00000000000E+00 -0.99019548832E+03  0.99019548832E+03  0.25500000920E-02 0. -1.
    10030    2    1    2    0    0  0.00000000000E+00  0.00000000000E+00  0.19116421848E+02  0.19995073985E+04  0.19994160145E+04 0.  0.
        3    1    3    3  502    0 -0.78522241449E+03 -0.31986223179E+03 -0.52011682722E+03  0.99468970624E+03  0.10100000352E+00 0. -1.
       -3    1    3    3    0  502  0.78522241449E+03  0.31986223179E+03  0.53923324907E+03  0.10048176922E+04  0.10100000352E+00 0.  1.
</event>
<event>
 5   0  0.2311520E-06  0.2000153E+04  0.7818609E-02  0.8606549E-01
       -1   -1    0    0    0  501  0.00000000000E+00  0.00000000000E+00  0.10218838028E+04  0.10218838029E+04  0.50400001928E-02 0.  1.
        1   -1    0    0  501    0  0.00000000000E+00  0.00000000000E+00 -0.97873473957E+03  0.97873473958E+03  0.50400001928E-02 0. -1.
    10030    2    1    2    0    0  0.00000000000E+00  0.00000000000E+00  0.43149063274E+02  0.20006185424E+04  0.20001531718E+04 0.  0.
        3    1    3    3  502    0  0.12805929791E+03 -0.96789771964E+03 -0.19510455774E+03  0.99563596667E+03  0.10100000352E+00 0. -1.
       -3    1    3    3    0  502 -0.12805929791E+03  0.96789771964E+03  0.23825362101E+03  0.10049825758E+04  0.10100000352E+00 0.  1.
</event>
<event>
 5   0  0.5030137E-06  0.2000119E+04  0.7818609E-02  0.8606565E-01
       -2   -1    0    0    0  501  0.00000000000E+00  0.00000000000E+00  0.12193026144E+04  0.12193026144E+04  0.25500000920E-02 0.  1.
        2   -1    0    0  501    0  0.00000000000E+00  0.00000000000E+00 -0.82023818794E+03  0.82023818794E+03  0.25500000920E-02 0. -1.
    10030    2    1    2    0    0  0.00000000000E+00  0.00000000000E+00  0.39906442647E+03  0.20395408024E+04  0.20001185635E+04 0.  0.
        3    1    3    3  502    0  0.50839649877E+03  0.28021544763E+03  0.10299110592E+04  0.11822455316E+04  0.10100000352E+00 0.  1.
       -3    1    3    3    0  502 -0.50839649877E+03 -0.28021544763E+03 -0.63084663269E+03  0.85729527074E+03  0.10100000352E+00 0. -1.
</event>
<event>
 5   0  0.4956214E-06  0.1996572E+04  0.7818609E-02  0.8608225E-01
       -2   -1    0    0    0  501  0.00000000000E+00  0.00000000000E+00  0.49786598310E+03  0.49786598311E+03  0.25500000920E-02 0.  1.
        2   -1    0    0  501    0  0.00000000000E+00  0.00000000000E+00 -0.20016935332E+04  0.20016935332E+04  0.25500000920E-02 0. -1.
    10030    2    1    2    0    0  0.00000000000E+00  0.00000000000E+00 -0.15038275501E+04  0.24995595163E+04  0.19965721813E+04 0.  0.
        1    1    3    3  502    0 -0.82602028847E+03 -0.53422482400E+03 -0.53919900810E+03  0.11218026787E+04  0.50400001928E-02 0. -1.
       -1    1    3    3    0  502  0.82602028847E+03  0.53422482400E+03 -0.96462854195E+03  0.13777568376E+04  0.50400001928E-02 0.  1.
</event>
<event>
 5   0  0.2356996E-06  0.1999825E+04  0.7818609E-02  0.8606703E-01
       -1   -1    0    0    0  501  0.00000000000E+00  0.00000000000E+00  0.64813156662E+03  0.64813156664E+03  0.50400001928E-02 0. -1.
        1   -1    0    0  501    0  0.00000000000E+00  0.00000000000E+00 -0.15426264446E+04  0.15426264446E+04  0.50400001928E-02 0.  1.
    10030    2    1    2    0    0  0.00000000000E+00  0.00000000000E+00 -0.89449487796E+03  0.21907580112E+04  0.19998248866E+04 0.  0.
        4    1    3    3  502    0  0.53381022006E+02  0.78037393062E+03 -0.11296063394E+04  0.13739887554E+04  0.12699999809E+01 0.  1.
       -4    1    3    3    0  502 -0.53381022006E+02 -0.78037393062E+03  0.23511146141E+03  0.81676925584E+03  0.12699999809E+01 0. -1.
</event>
<event>
 5   0  0.5118981E-06  0.2001507E+04  0.7818609E-02  0.8605916E-01
       -2   -1    0    0    0  501  0.00000000000E+00  0.00000000000E+00  0.93716191433E+03  0.93716191433E+03  0.25500000920E-02 0.  1.
        2   -1    0    0  501    0  0.00000000000E+00  0.00000000000E+00 -0.10686603077E+04  0.10686603077E+04  0.25500000920E-02 0. -1.
    10030    2    1    2    0    0  0.00000000000E+00  0.00000000000E+00 -0.13149839341E+03  0.20058222221E+04  0.20015071719E+04 0.  0.
        4    1    3    3  502    0  0.41862811482E+03  0.59907271281E+03 -0.75086662123E+03  0.10478262783E+04  0.12699999809E+01 0. -1.
       -4    1    3    3    0  502 -0.41862811482E+03 -0.59907271281E+03  0.61936822781E+03  0.95799594377E+03  0.12699999809E+01 0.  1.
</event>
<event>
 5   0  0.5129100E-06  0.1998112E+04  0.7818609E-02  0.8607504E-01
       -2   -1    0    0    0  501  0.00000000000E+00  0.00000000000E+00  0.52412012233E+03  0.52412012233E+03  0.25500000920E-02 0. -1.
        2   -1    0    0  501    0  0.00000000000E+00  0.00000000000E+00 -0.19043584444E+04  0.19043584444E+04  0.25500000920E-02 0.  1.
    10030    2    1    2    0    0  0.00000000000E+00  0.00000000000E+00 -0.13802383220E+04  0.24284785667E+04  0.19981116894E+04 0.  0.
        2    1    3    3  502    0  0.38862265729E+03 -0.29966619892E+03 -0.17477746881E+04  0.18153632587E+04  0.25500000920E-02 0.  1.
       -2    1    3    3    0  502 -0.38862265729E+03  0.29966619892E+03  0.36753636608E+03  0.61311530802E+03  0.25500000920E-02 0. -1.
</event>
<event>
 5   0  0.2311520E-06  0.1999835E+04  0.7818609E-02  0.8606698E-01
       -1   -1    0    0    0  501  0.00000000000E+00  0.00000000000E+00  0.39340794391E+03  0.39340794394E+03  0.50400001928E-02 0. -1.
        1   -1    0    0  501    0  0.00000000000E+00  0.00000000000E+00 -0.25414705582E+04  0.25414705582E+04  0.50400001928E-02 0.  1.
    10030    2    1    2    0    0  0.00000000000E+00  0.00000000000E+00 -0.21480626143E+04  0.29348785021E+04  0.19998347000E+04 0.  0.
        3    1    3    3  502    0 -0.59888646540E+03  0.24690427502E+03 -0.21918924883E+04  0.22856113864E+04  0.10100000352E+00 0.  1.
       -3    1    3    3    0  502  0.59888646540E+03 -0.24690427502E+03  0.43829873994E+02  0.64926711569E+03  0.10100000352E+00 0. -1.
</event>
<event>
 5   0  0.2356996E-06  0.1999646E+04  0.7818609E-02  0.8606786E-01
        1   -1    0    0  501    0  0.00000000000E+00  0.00000000000E+00  0.10162143072E+04  0.10162143072E+04  0.50400001928E-02 0. -1.
       -1   -1    0    0    0  501  0.00000000000E+00  0.00000000000E+00 -0.98369651489E+03  0.98369651490E+03  0.50400001928E-02 0.  1.
    10030    2    1    2    0    0  0.00000000000E+00  0.00000000000E+00  0.32517792319E+02  0.19999108221E+04  0.19996464411E+04 0.  0.
        4    1    3    3  502    0 -0.88522438942E+02  0.95741930826E+03  0.29044274024E+03  0.10044135365E+04  0.12699999809E+01 0. -1.
       -4    1    3    3    0  502  0.88522438942E+02 -0.95741930826E+03 -0.25792494792E+03  0.99549728562E+03  0.12699999809E+01 0.  1.
</event>
<event>
 5   0  0.2379743E-06  0.2000864E+04  0.7818609E-02  0.8606217E-01
        1   -1    0    0  501    0  0.00000000000E+00  0.00000000000E+00  0.12546869670E+04  0.12546869670E+04  0.50400001928E-02 0.  1.
       -1   -1    0    0    0  501  0.00000000000E+00  0.00000000000E+00 -0.79770036702E+03  0.79770036704E+03  0.50400001928E-02 0. -1.
    10030    2    1    2    0    0  0.00000000000E+00  0.00000000000E+00  0.45698659995E+03  0.20523873340E+04  0.20008640674E+04 0.  0.
        5    1    3    3  502    0  0.22530296927E+03 -0.76633802136E+03  0.84633815410E+03  0.11637636152E+04  0.46999998093E+01 0.  1.
       -5    1    3    3    0  502 -0.22530296927E+03  0.76633802136E+03 -0.38935155415E+03  0.88862371883E+03  0.46999998093E+01 0. -1.
</event>
<event>
 5   0  0.2356996E-06  0.2000138E+04  0.7818609E-02  0.8606556E-01
       -1   -1    0    0    0  501  0.00000000000E+00  0.00000000000E+00  0.78111177555E+03  0.78111177557E+03  0.50400001928E-02 0. -1.
        1   -1    0    0  501    0  0.00000000000E+00  0.00000000000E+00 -0.12804038069E+04  0.12804038069E+04  0.50400001928E-02 0.  1.
    10030    2    1    2    0    0  0.00000000000E+00  0.00000000000E+00 -0.49929203136E+03  0.20615155825E+04  0.20001384863E+04 0.  0.
        4    1    3    3  502    0 -0.83974674144E+03 -0.48512908682E+03 -0.50129408994E+03  0.10917060951E+04  0.12699999809E+01 0.  1.
       -4    1    3    3    0  502  0.83974674144E+03  0.48512908682E+03  0.20020585813E+01  0.96980948736E+03  0.12699999809E+01 0. -1.
</event>
<event>
 5   0  0.2313821E-06  0.1999686E+04  0.7818609E-02  0.8606767E-01
        1   -1    0    0  501    0  0.00000000000E+00  0.00000000000E+00  0.99044312551E+03  0.99044312552E+03  0.50400001928E-02 0.  1.
       -1   -1    0    0    0  501  0.00000000000E+00  0.00000000000E+00 -0.10093325218E+04  0.10093325218E+04  0.50400001928E-02 0. -1.
    10030    2    1    2    0    0  0.00000000000E+00  0.00000000000E+00 -0.18889396256E+02  0.19997756473E+04  0.19996864330E+04 0.  0.
        1    1    3    3  502    0 -0.28263282833E+03 -0.17956366980E+03  0.93270243890E+03  0.99098853006E+03  0.50400001928E-02 0.  1.
       -1    1    3    3    0  502  0.28263282833E+03  0.17956366980E+03 -0.95159183515E+03  0.10087871172E+04  0.50400001928E-02 0. -1.
</event>
<event>
 5   0  0.5251252E-06  0.2000045E+04  0.7818609E-02  0.8606599E-01
        2   -1    0    0  501    0  0.00000000000E+00  0.00000000000E+00  0.96434217632E+03  0.96434217632E+03  0.25500000920E-02 0. -1.
       -2   -1    0    0    0  501  0.00000000000E+00  0.00000000000E+00 -0.10370233009E+04  0.10370233009E+04  0.25500000920E-02 0.  1.
    10030    2    1    2    0    0  0.00000000000E+00  0.00000000000E+00 -0.72681124616E+02  0.20013654773E+04  0.20000453064E+04 0.  0.
        5    1    3    3  502    0  0.43326382318E+03 -0.70893400215E+03  0.52055014846E+03  0.98045882470E+03  0.46999998093E+01 0. -1.
       -5    1    3    3    0  502 -0.43326382318E+03  0.70893400215E+03 -0.59323127308E+03  0.10209066526E+04  0.46999998093E+01 0.  1.
</event>
<event>
 5   0  0.2356996E-06  0.2001702E+04  0.7818609E-02  0.8605825E-01
       -1   -1    0    0    0  501  0.00000000000E+00  0.00000000000E+00  0.85769341423E+03  0.85769341425E+03  0.50400001928E-02 0. -1.
        1   -1    0    0  501    0  0.00000000000E+00  0.00000000000E+00 -0.11679028914E+04  0.11679028914E+04  0.50400001928E-02 0.  1.
    10030    2    1    2    0    0  0.00000000000E+00  0.00000000000E+00 -0.31020947715E+03  0.20255963056E+04  0.20017018943E+04 0.  0.
        4    1    3    3  502    0  0.99713205747E+03  0.21803696931E+02 -0.70723117488E+02  0.99987554900E+03  0.12699999809E+01 0. -1.
       -4    1    3    3    0  502 -0.99713205747E+03 -0.21803696931E+02 -0.23948635966E+03  0.10257207566E+04  0.12699999809E+01 0.  1.
</event>
<event>
 5   0  0.2386776E-06  0.2000057E+04  0.7818609E-02  0.8606594E-01
        1   -1    0    0  501    0  0.00000000000E+00  0.00000000000E+00  0.21230354657E+04  0.21230354657E+04  0.50400001928E-02 0.  1.
       -1   -1    0    0    0  501  0.00000000000E+00  0.00000000000E+00 -0.47105054769E+03  0.47105054771E+03  0.50400001928E-02 0. -1.
    10030    2    1    2    0    0  0.00000000000E+00  0.00000000000E+00  0.16519849180E+04  0.25940860134E+04  0.20000570181E+04 0.  0.
        2    1    3    3  502    0  0.42671665719E+03 -0.67382733226E+03  0.43556288200E+02  0.79876625459E+03  0.25500000920E-02 0. -1.
       -2    1    3    3    0  502 -0.42671665719E+03  0.67382733226E+03  0.16084286298E+04  0.17953197588E+04  0.25500000920E-02 0.  1.
</event>
<event>
 5   0  0.5030137E-06  0.2000236E+04  0.7818609E-02  0.8606510E-01
       -2   -1    0    0    0  501  0.00000000000E+00  0.00000000000E+00  0.45903930196E+03  0.45903930196E+03  0.25500000920E-02 0. -1.
        2   -1    0    0  501    0  0.00000000000E+00  0.00000000000E+00 -0.21789768867E+04  0.21789768867E+04  0.25500000920E-02 0.  1.
    10030    2    1    2    0    0  0.00000000000E+00  0.00000000000E+00 -0.17199375847E+04  0.26380161886E+04  0.20002360151E+04 0.  0.
        3    1    3    3  502    0  0.52701594114E+03  0.67769148096E+03 -0.18332617719E+03  0.87784966994E+03  0.10100000352E+00 0. -1.
       -3    1    3    3    0  502 -0.52701594114E+03 -0.67769148096E+03 -0.15366114075E+04  0.17601665187E+04  0.10100000352E+00 0.  1.
</event>
<event>
 5   0  0.5030137E-06  0.2000767E+04  0.7818609E-02  0.8606262E-01
        2   -1    0    0  501    0  0.00000000000E+00  0.00000000000E+00  0.12162390573E+04  0.12162390573E+04  0.25500000920E-02 0. -1.
       -2   -1    0    0    0  501  0.00000000000E+00  0.00000000000E+00 -0.82283725457E+03  0.82283725458E+03  0.25500000920E-02 0.  1.
    10030    2    1    2    0    0  0.00000000000E+00  0.00000000000E+00  0.39340180270E+03  0.20390763118E+04  0.20007666598E+04 0.  0.
        3    1    3    3  502    0 -0.22840148207E+03 -0.18900158318E+03  0.11704417716E+04  0.12074033238E+04  0.10100000352E+00 0. -1.
       -3    1    3    3    0  502  0.22840148207E+03  0.18900158318E+03 -0.77703996893E+03  0.83167298800E+03  0.10100000352E+00 0.  1.
</event>
<event>
 5   0  0.2379743E-06  0.2000468E+04  0.7818609E-02  0.8606402E-01
       -1   -1    0    0    0  501  0.00000000000E+00  0.00000000000E+00  0.65727641992E+03  0.65727641994E+03  0.50400001928E-02 0. -1.
        1   -1    0    0  501    0  0.00000000000E+00  0.00000000000E+00 -0.15221425869E+04  0.15221425869E+04  0.50400001928E-02 0.  1.
    10030    2    1    2    0    0  0.00000000000E+00  0.00000000000E+00 -0.86486616701E+03  0.21794190069E+04  0.20004683753E+04 0.  0.
        5    1    3    3  502    0  0.94173615169E+03  0.17691425997E+03 -0.11992730873E+03  0.96569678686E+03  0.46999998093E+01 0. -1.
       -5    1    3    3    0  502 -0.94173615169E+03 -0.17691425997E+03 -0.74493885828E+03  0.12137222200E+04  0.46999998093E+01 0.  1.
</event>
<event>
 5   0  0.5251252E-06  0.2001539E+04  0.7818609E-02  0.8605902E-01
       -2   -1    0    0    0  501  0.00000000000E+00  0.00000000000E+00  0.58061929722E+03  0.58061929722E+03  0.25500000920E-02 0.  1.
        2   -1    0    0  501    0  0.00000000000E+00  0.00000000000E+00 -0.17249502084E+04  0.17249502084E+04  0.25500000920E-02 0. -1.
    10030    2    1    2    0    0  0.00000000000E+00  0.00000000000E+00 -0.11443309112E+04  0.23055695056E+04  0.20015387858E+04 0.  0.
        5    1    3    3  502    0 -0.50958858352E+03  0.73527168594E+02 -0.15606732500E+04  0.16434140842E+04  0.46999998093E+01 0. -1.
       -5    1    3    3    0  502  0.50958858352E+03 -0.73527168594E+02  0.41634233883E+03  0.66215542139E+03  0.46999998093E+01 0.  1.
</event>
<event>
 5   0  0.5030137E-06  0.1999875E+04  0.7818609E-02  0.8606679E-01
        2   -1    0    0  501    0  0.00000000000E+00  0.00000000000E+00  0.22834796757E+04  0.22834796757E+04  0.25500000920E-02 0. -1.
       -2   -1    0    0    0  501  0.00000000000E+00  0.00000000000E+00 -0.43787338811E+03  0.43787338811E+03  0.25500000920E-02 0.  1.
    10030    2    1    2    0    0  0.00000000000E+00  0.00000000000E+00  0.18456062876E+04  0.27213530638E+04  0.19998749784E+04 0.  0.
        3    1    3    3  502    0 -0.28762974034E+03 -0.80900467501E+02 -0.37570799700E+03  0.48003360548E+03  0.10100000352E+00 0.  1.
       -3    1    3    3    0  502  0.28762974034E+03  0.80900467501E+02  0.22213142846E+04  0.22413194583E+04  0.10100000352E+00 0. -1.
</event>
<event>
 5   0  0.2311520E-06  0.2000427E+04  0.7818609E-02  0.8606421E-01
       -1   -1    0    0    0  501  0.00000000000E+00  0.00000000000E+00  0.72967035363E+03  0.72967035365E+03  0.50400001928E-02 0.  1.
        1   -1    0    0  501    0  0.00000000000E+00  0.00000000000E+00 -0.13710675101E+04  0.13710675101E+04  0.50400001928E-02 0. -1.
    10030    2    1    2    0    0  0.00000000000E+00  0.00000000000E+00 -0.64139715650E+03  0.21007378638E+04  0.20004272694E+04 0.  0.
        3    1    3    3  502    0 -0.64754037715E+03  0.16249895422E+03  0.46143910783E+03  0.81156670126E+03  0.10100000352E+00 0.  1.
       -3    1    3    3    0  502  0.64754037715E+03 -0.16249895422E+03 -0.11028362643E+04  0.12891711625E+04  0.10100000352E+00 0. -1.
</event>
<event>
 5   0  0.2311520E-06  0.1999605E+04  0.7818609E-02  0.8606805E-01
       -1   -1    0    0    0  501  0.00000000000E+00  0.00000000000E+00  0.38709774267E+03  0.38709774271E+03  0.50400001928E-02 0.  1.
        1   -1    0    0  501    0  0.00000000000E+00  0.00000000000E+00 -0.25823064421E+04  0.25823064421E+04  0.50400001928E-02 0. -1.
    10030    2    1    2    0    0  0.00000000000E+00  0.00000000000E+00 -0.21952086994E+04  0.29694041848E+04  0.19996049557E+04 0.  0.
        3    1    3    3  502    0 -0.10585470295E+03 -0.22924069989E+03 -0.25341779417E+04  0.25467262057E+04  0.10100000352E+00 0. -1.
       -3    1    3    3    0  502  0.10585470295E+03  0.22924069989E+03  0.33896924225E+03  0.42267797909E+03  0.10100000352E+00 0.  1.
</event>
<event>
 5   0  0.2356996E-06  0.2000521E+04  0.7818609E-02  0.8606377E-01
        1   -1    0    0  501    0  0.00000000000E+00  0.00000000000E+00  0.10238931482E+04  0.10238931482E+04  0.50400001928E-02 0. -1.
       -1   -1    0    0    0  501  0.00000000000E+00  0.00000000000E+00 -0.97717347794E+03  0.97717347795E+03  0.50400001928E-02 0.  1.
    10030    2    1    2    0    0  0.00000000000E+00  0.00000000000E+00  0.46719670288E+02  0.20010666262E+04  0.20005211608E+04 0.  0.
        4    1    3    3  502    0 -0.30524155604E+03 -0.83720668910E+03  0.47783178765E+03  0.10111440441E+04  0.12699999809E+01 0.  1.
       -4    1    3    3    0  502  0.30524155604E+03  0.83720668910E+03 -0.43111211736E+03  0.98992258205E+03  0.12699999809E+01 0. -1.
</event>
<event>
 5   0  0.4956214E-06  0.2001379E+04  0.7818609E-02  0.8605976E-01
        2   -1    0    0  501    0  0.00000000000E+00  0.00000000000E+00  0.79997935172E+03  0.79997935172E+03  0.25500000920E-02 0.  1.
       -2   -1    0    0    0  501  0.00000000000E+00  0.00000000000E+00 -0.12517560339E+04  0.12517560339E+04  0.25500000920E-02 0. -1.
    10030    2    1    2    0    0  0.00000000000E+00  0.00000000000E+00 -0.45177668215E+03  0.20517353856E+04  0.20013785054E+04 0.  0.
        1    1    3    3  502    0  0.48703031123E+03 -0.23305826278E+03  0.63784520246E+03  0.83568007050E+03  0.50400001928E-02 0.  1.
       -1    1    3    3    0  502 -0.48703031123E+03  0.23305826278E+03 -0.10896218846E+04  0.12160553151E+04  0.50400001928E-02 0. -1.
</event>
<event>
 5   0  0.2386776E-06  0.2000411E+04  0.7818609E-02  0.8606429E-01
        1   -1    0    0  501    0  0.00000000000E+00  0.00000000000E+00  0.88026931787E+03  0.88026931788E+03  0.50400001928E-02 0.  1.
       -1   -1    0    0    0  501  0.00000000000E+00  0.00000000000E+00 -0.11364826140E+04  0.11364826140E+04  0.50400001928E-02 0. -1.
    10030    2    1    2    0    0  0.00000000000E+00  0.00000000000E+00 -0.25621329609E+03  0.20167519319E+04  0.20004107332E+04 0.  0.
        2    1    3    3  502    0  0.62802619615E+03  0.77843946870E+03 -0.12297925008E+03  0.10077245682E+04  0.25500000920E-02 0. -1.
       -2    1    3    3    0  502 -0.62802619615E+03 -0.77843946870E+03 -0.13323404601E+03  0.10090273636E+04  0.25500000920E-02 0.  1.
</event>
<event>
 5   0  0.5129100E-06  0.1999821E+04  0.7818609E-02  0.8606705E-01
       -2   -1    0    0    0  501  0.00000000000E+00  0.00000000000E+00  0.62087927466E+03  0.62087927467E+03  0.25500000920E-02 0.  1.
        2   -1    0    0  501    0  0.00000000000E+00  0.00000000000E+00 -0.16103302796E+04  0.16103302796E+04  0.25500000920E-02 0. -1.
    10030    2    1    2    0    0  0.00000000000E+00  0.00000000000E+00 -0.98945100492E+03  0.22312095543E+04  0.19998206879E+04 0.  0.
        2    1    3    3  502    0 -0.54139808534E+03  0.78978512426E+03 -0.81605675115E+03  0.12581021622E+04  0.25500000920E-02 0. -1.
       -2    1    3    3    0  502  0.54139808534E+03 -0.78978512426E+03 -0.17339425377E+03  0.97310739210E+03  0.25500000920E-02 0.  1.
</event>
<event>
 5   0  0.5030137E-06  0.2000403E+04  0.7818609E-02  0.8606432E-01
        2   -1    0    0  501    0  0.00000000000E+00  0.00000000000E+00  0.10988090332E+04  0.10988090332E+04  0.25500000920E-02 0. -1.
       -2   -1    0    0    0  501  0.00000000000E+00  0.00000000000E+00 -0.91044286600E+03  0.91044286600E+03  0.25500000920E-02 0.  1.
    10030    2    1    2    0    0  0.00000000000E+00  0.00000000000E+00  0.18836616721E+03  0.20092518992E+04  0.20004028048E+04 0.  0.
        3    1    3    3  502    0  0.11153091014E+03  0.91515062372E+03  0.48379464011E+03  0.10411518007E+04  0.10100000352E+00 0. -1.
       -3    1    3    3    0  502 -0.11153091014E+03 -0.91515062372E+03 -0.29542847290E+03  0.96810009855E+03  0.10100000352E+00 0.  1.
</event>
<event>
 5   0  0.2356996E-06  0.2002135E+04  0.7818609E-02  0.8605623E-01
        1   -1    0    0  501    0  0.00000000000E+00  0.00000000000E+00  0.12776065794E+04  0.12776065794E+04  0.50400001928E-02 0.  1.
       -1   -1    0    0    0  501  0.00000000000E+00  0.00000000000E+00 -0.78438567746E+03  0.78438567747E+03  0.50400001928E-02 0. -1.
    10030    2    1    2    0    0  0.00000000000E+00  0.00000000000E+00  0.49322090195E+03  0.20619922569E+04  0.20021351626E+04 0.  0.
        4    1    3    3  502    0  0.58871778222E+03  0.33013999853E+03  0.10080054747E+04  0.12131189949E+04  0.12699999809E+01 0.  1.
       -4    1    3    3    0  502 -0.58871778222E+03 -0.33013999853E+03 -0.51478457277E+03  0.84887326203E+03  0.12699999809E+01 0. -1.
</event>
<event>
 5   0  0.2313821E-06  0.2000198E+04  0.7818609E-02  0.8606528E-01
       -1   -1    0    0    0  501  0.00000000000E+00  0.00000000000E+00  0.86581983976E+03  0.86581983977E+03  0.50400001928E-02 0.  1.
        1   -1    0    0  501    0  0.00000000000E+00  0.00000000000E+00 -0.11552038559E+04  0.11552038559E+04  0.50400001928E-02 0. -1.
    10030    2    1    2    0    0  0.00000000000E+00  0.00000000000E+00 -0.28938401618E+03  0.20210236957E+04  0.20001984076E+04 0.  0.
        1    1    3    3  502    0  0.82713341656E+02 -0.66060784653E+03 -0.89875576495E+03  0.11184838617E+04  0.50400001928E-02 0. -1.
       -1    1    3    3    0  502 -0.82713341656E+02  0.66060784653E+03  0.60937174878E+03  0.90253983404E+03  0.50400001928E-02 0.  1.
</event>
<event>
 5   0  0.5030137E-06  0.1999733E+04  0.7818609E-02  0.8606745E-01
       -2   -1    0    0    0  501  0.00000000000E+00  0.00000000000E+00  0.75412993734E+03  0.75412993734E+03  0.25500000920E-02 0.  1.
        2   -1    0    0  501    0  0.00000000000E+00  0.00000000000E+00 -0.13256778383E+04  0.13256778383E+04  0.25500000920E-02 0. -1.
    10030    2    1    2    0    0  0.00000000000E+00  0.00000000000E+00 -0.57154790094E+03  0.20798077756E+04  0.19997333273E+04 0.  0.
        3    1    3    3  502    0  0.30123122656E+03 -0.80709969905E+03 -0.81362312338E+03  0.11849610851E+04  0.10100000352E+00 0. -1.
       -3    1    3    3    0  502 -0.30123122656E+03  0.80709969905E+03  0.24207522243E+03  0.89484669055E+03  0.10100000352E+00 0.  1.
</event>
<event>
 5   0  0.5251252E-06  0.1998971E+04  0.7818609E-02  0.8607102E-01
        2   -1    0    0  501    0  0.00000000000E+00  0.00000000000E+00  0.18062037871E+04  0.18062037871E+04  0.25500000920E-02 0. -1.
       -2   -1    0    0    0  501  0.00000000000E+00  0.00000000000E+00 -0.55307782648E+03  0.55307782648E+03  0.25500000920E-02 0.  1.
    10030    2    1    2    0    0  0.00000000000E+00  0.00000000000E+00  0.12531259606E+04  0.23592816135E+04  0.19989710000E+04 0.  0.
        5    1    3    3  502    0  0.46331340173E+03  0.15537733952E+03  0.16555793801E+04  0.17262000463E+04  0.46999998093E+01 0. -1.
       -5    1    3    3    0  502 -0.46331340173E+03 -0.15537733952E+03 -0.40245341957E+03  0.63308156724E+03  0.46999998093E+01 0.  1.
</event>
<event>
 5   0  0.2311520E-06  0.1998888E+04  0.7818609E-02  0.8607141E-01
        1   -1    0    0  501    0  0.00000000000E+00  0.00000000000E+00  0.18657504384E+04  0.18657504384E+04  0.50400001928E-02 0. -1.
       -1   -1    0    0    0  501  0.00000000000E+00  0.00000000000E+00 -0.53538137967E+03  0.53538137970E+03  0.50400001928E-02 0.  1.
    10030    2    1    2    0    0  0.00000000000E+00  0.00000000000E+00  0.13303690587E+04  0.24011318181E+04  0.19988877346E+04 0.  0.
        3    1    3    3  502    0 -0.45851901832E+02  0.99706321793E+03  0.60334050435E+03  0.11663006610E+04  0.10100000352E+00 0.  1.
       -3    1    3    3    0  502  0.45851901832E+02 -0.99706321793E+03  0.72702855435E+03  0.12348311571E+04  0.10100000352E+00 0. -1.
</event>
<event>
 5   0  0.2356996E-06  0.2000681E+04  0.7818609E-02  0.8606302E-01
        1   -1    0    0  501    0  0.00000000000E+00  0.00000000000E+00  0.16520632437E+04  0.16520632437E+04  0.50400001928E-02 0.  1.
       -1   -1    0    0    0  501  0.00000000000E+00  0.00000000000E+00 -0.60571593992E+03  0.60571593994E+03  0.50400001928E-02 0. -1.
    10030    2    1    2    0    0  0.00000000000E+00  0.00000000000E+00  0.10463473038E+04  0.22577791837E+04  0.20006809246E+04 0.  0.
        4    1    3    3  502    0  0.35757035017E+03 -0.92753455031E+03  0.39699014574E+03  0.10704109893E+04  0.12699999809E+01 0. -1.
       -4    1    3    3    0  502 -0.35757035017E+03  0.92753455031E+03  0.64935715807E+03  0.11873681944E+04  0.12699999809E+01 0.  1.
</event>
<event>
 5   0  0.2386776E-06  0.1999791E+04  0.7818609E-02  0.8606718E-01
        1   -1    0    0  501    0  0.00000000000E+00  0.00000000000E+00  0.74980033385E+03  0.74980033386E+03  0.50400001928E-02 0. -1.
       -1   -1    0    0    0  501  0.00000000000E+00  0.00000000000E+00 -0.13334099855E+04  0.13334099855E+04  0.50400001928E-02 0.  1.
    10030    2    1    2    0    0  0.00000000000E+00  0.00000000000E+00 -0.58360965167E+03  0.20832103194E+04  0.19997912414E+04 0.  0.
        2    1    3    3  502    0 -0.72171715823E+03 -0.15619543288E+03  0.41049777718E+03  0.84485566508E+03  0.25500000920E-02 0. -1.
       -2    1    3    3    0  502  0.72171715823E+03  0.15619543288E+03 -0.99410742885E+03  0.12383546543E+04  0.25500000920E-02 0.  1.
</event>
<event>
 5   0  0.5118981E-06  0.2000920E+04  0.7818609E-02  0.8606191E-01
       -2   -1    0    0    0  501  0.00000000000E+00  0.00000000000E+00  0.15915582240E+04  0.15915582240E+04  0.25500000920E-02 0.  1.
        2   -1    0    0  501    0  0.00000000000E+00  0.00000000000E+00 -0.62889322362E+03  0.62889322362E+03  0.25500000920E-02 0. -1.
    10030    2    1    2    0    0  0.00000000000E+00  0.00000000000E+00  0.96266500043E+03  0.22204514477E+04  0.20009199705E+04 0.  0.
        4    1    3    3  502    0  0.71618891256E+03  0.61940062570E+03  0.12288437450E+03  0.95482243165E+03  0.12699999809E+01 0. -1.
       -4    1    3    3    0  502 -0.71618891256E+03 -0.61940062570E+03  0.83978062593E+03  0.12656290160E+04  0.12699999809E+01 0.  1.
</event>
<event>
 5   0  0.2379743E-06  0.2000432E+04  0.7818609E-02  0.8606419E-01
        1   -1    0    0  501    0  0.00000000000E+00  0.00000000000E+00  0.10010704448E+04  0.10010704448E+04  0.50400001928E-02 0. -1.
       -1   -1    0    0    0  501  0.00000000000E+00  0.00000000000E+00 -0.99936263552E+03  0.99936263553E+03  0.50400001928E-02 0.  1.
    10030    2    1    2    0    0  0.00000000000E+00  0.00000000000E+00  0.17078093095E+01  0.20004330804E+04  0.20004323514E+04 0.  0.
        5    1    3    3  502    0  0.34764852923E+02 -0.20864131400E+03 -0.97673047111E+03  0.99938195706E+03  0.46999998093E+01 0.  1.
       -5    1    3    3    0  502 -0.34764852923E+02  0.20864131400E+03  0.97843828042E+03  0.10010511233E+04  0.46999998093E+01 0. -1.
</event>
<event>
 5   0  0.5251252E-06  0.2000642E+04  0.7818609E-02  0.8606320E-01
       -2   -1    0    0    0  501  0.00000000000E+00  0.00000000000E+00  0.75899998250E+03  0.75899998250E+03  0.25500000920E-02 0. -1.
        2   -1    0    0  501    0  0.00000000000E+00  0.00000000000E+00 -0.13183693027E+04  0.13183693027E+04  0.25500000920E-02 0.  1.
    10030    2    1    2    0    0  0.00000000000E+00  0.00000000000E+00 -0.55936932025E+03  0.20773692852E+04  0.20006421746E+04 0.  0.
        5    1    3    3  502    0 -0.52550971485E+03  0.43972000299E+03 -0.10364041317E+04  0.12424450715E+04  0.46999998093E+01 0.  1.
       -5    1    3    3    0  502  0.52550971485E+03 -0.43972000299E+03  0.47703481145E+03  0.83492421378E+03  0.46999998093E+01 0. -1.
</event>
<event>
 5   0  0.2386776E-06  0.2004210E+04  0.7818609E-02  0.8604655E-01
        1   -1    0    0  501    0  0.00000000000E+00  0.00000000000E+00  0.13805131022E+04  0.13805131022E+04  0.50400001928E-02 0.  1.
       -1   -1    0    0    0  501  0.00000000000E+00  0.00000000000E+00 -0.72742145720E+03  0.72742145722E+03  0.50400001928E-02 0. -1.
    10030    2    1    2    0    0  0.00000000000E+00  0.00000000000E+00  0.65309164495E+03  0.21079345594E+04  0.20042104206E+04 0.  0.
        2    1    3    3  502    0  0.34375975204E+03 -0.80993312797E+03 -0.17791472312E+03  0.89767259489E+03  0.25500000920E-02 0. -1.
       -2    1    3    3    0  502 -0.34375975204E+03  0.80993312797E+03  0.83100636807E+03  0.12102619645E+04  0.25500000920E-02 0.  1.
</event>
<event>
 5   0  0.4956214E-06  0.1999653E+04  0.7818609E-02  0.8606783E-01
       -2   -1    0    0    0  501  0.00000000000E+00  0.00000000000E+00  0.64289895064E+03  0.64289895065E+03  0.25500000920E-02 0.  1.
        2   -1    0    0  501    0  0.00000000000E+00  0.00000000000E+00 -0.15549149658E+04  0.15549149658E+04  0.25500000920E-02 0. -1.
    10030    2    1    2    0    0  0.00000000000E+00  0.00000000000E+00 -0.91201601514E+03  0.21978139164E+04  0.19996531698E+04 0.  0.
        1    1    3    3  502    0 -0.36894946279E+03 -0.15833688079E+03 -0.14624230962E+04  0.15165340702E+04  0.50400001928E-02 0. -1.
       -1    1    3    3    0  502  0.36894946279E+03  0.15833688079E+03  0.55040708105E+03  0.68127984618E+03  0.50400001928E-02 0.  1.
</event>
<event>
 5   0  0.2379743E-06  0.1999839E+04  0.7818609E-02  0.8606696E-01
        1   -1    0    0  501    0  0.00000000000E+00  0.00000000000E+00  0.10588295277E+04  0.10588295277E+04  0.50400001928E-02 0. -1.
       -1   -1    0    0    0  501  0.00000000000E+00  0.00000000000E+00 -0.94428728506E+03  0.94428728507E+03  0.50400001928E-02 0.  1.
    10030    2    1    2    0    0  0.00000000000E+00  0.00000000000E+00  0.11454224262E+03  0.20031168128E+04  0.19998392536E+04 0.  0.
        5    1    3    3  502    0 -0.44211851284E+03 -0.55285568009E+03 -0.65007248259E+03  0.96111107841E+03  0.46999998093E+01 0.  1.
       -5    1    3    3    0  502  0.44211851284E+03  0.55285568009E+03  0.76461472522E+03  0.10420057344E+04  0.46999998093E+01 0. -1.
</event>
<event>
 5   0  0.2386776E-06  0.1999086E+04  0.7818609E-02  0.8607048E-01
        1   -1    0    0  501    0  0.00000000000E+00  0.00000000000E+00  0.20376958230E+04  0.20376958230E+04  0.50400001928E-02 0.  1.
       -1   -1    0    0    0  501  0.00000000000E+00  0.00000000000E+00 -0.49030176290E+03  0.49030176293E+03  0.50400001928E-02 0. -1.
    10030    2    1    2    0    0  0.00000000000E+00  0.00000000000E+00  0.15473940601E+04  0.25279975860E+04  0.19990856453E+04 0.  0.
        2    1    3    3  502    0 -0.65446760210E+03  0.61101637038E+03  0.13355692189E+04  0.16079222573E+04  0.25500000920E-02 0. -1.
       -2    1    3    3    0  502  0.65446760210E+03 -0.61101637038E+03  0.21182484126E+03  0.92007532868E+03  0.25500000920E-02 0.  1.
</event>
<event>
 5   0  0.5129100E-06  0.1994340E+04  0.7818609E-02  0.8609272E-01
       -2   -1    0    0    0  501  0.00000000000E+00  0.00000000000E+00  0.71695732674E+03  0.71695732675E+03  0.25500000920E-02 0. -1.
        2   -1    0    0  501    0  0.00000000000E+00  0.00000000000E+00 -0.13868993828E+04  0.13868993828E+04  0.25500000920E-02 0.  1.
    10030    2    1    2    0    0  0.00000000000E+00  0.00000000000E+00 -0.66994205606E+03  0.21038567096E+04  0.19943396641E+04 0.  0.
        2    1    3    3  502    0 -0.73408713846E+03 -0.54592092875E+03  0.83597349908E+02  0.91864144486E+03  0.25500000920E-02 0.  1.
       -2    1    3    3    0  502  0.73408713846E+03  0.54592092875E+03 -0.75353940597E+03  0.11852152647E+04  0.25500000920E-02 0. -1.
</event>
<event>
 5   0  0.5129100E-06  0.2000069E+04  0.7818609E-02  0.8606588E-01
       -2   -1    0    0    0  501  0.00000000000E+00  0.00000000000E+00  0.48822793064E+03  0.48822793065E+03  0.25500000920E-02 0. -1.
        2   -1    0    0  501    0  0.00000000000E+00  0.00000000000E+00 -0.20483658445E+04  0.20483658445E+04  0.25500000920E-02 0.  1.
    10030    2    1    2    0    0  0.00000000000E+00  0.00000000000E+00 -0.15601379138E+04  0.25365937751E+04  0.20000694162E+04 0.  0.
        2    1    3    3  502    0  0.50545854774E+03 -0.86262943485E+03 -0.80701842318E+03  0.12848722196E+04  0.25500000920E-02 0. -1.
       -2    1    3    3    0  502 -0.50545854774E+03  0.86262943485E+03 -0.75311949064E+03  0.12517215555E+04  0.25500000920E-02 0.  1.
</event>
<event>
 5   0  0.5118981E-06  0.2000096E+04  0.7818609E-02  0.8606576E-01
       -2   -1    0    0    0  501  0.00000000000E+00  0.00000000000E+00  0.58991989026E+03  0.58991989027E+03  0.25500000920E-02 0.  1.
        2   -1    0    0  501    0  0.00000000000E+00  0.00000000000E+00 -0.16953076484E+04  0.16953076484E+04  0.25500000920E-02 0. -1.
    10030    2    1    2    0    0  0.00000000000E+00  0.00000000000E+00 -0.11053877581E+04  0.22852275387E+04  0.20000956996E+04 0.  0.
        4    1    3    3  502    0  0.33288862944E+03  0.52625907457E+03 -0.14467641765E+04  0.15750846480E+04  0.12699999809E+01 0. -1.
       -4    1    3    3    0  502 -0.33288862944E+03 -0.52625907457E+03  0.34137641837E+03  0.71014289062E+03  0.12699999809E+01 0.  1.
</event>
<event>
 5   0  0.5129100E-06  0.1999462E+04  0.7818609E-02  0.8606872E-01
       -2   -1    0    0    0  501  0.00000000000E+00  0.00000000000E+00  0.52551010660E+03  0.52551010661E+03  0.25500000920E-02 0.  1.
        2   -1    0    0  501    0  0.00000000000E+00  0.00000000000E+00 -0.19018897918E+04  0.19018897918E+04  0.25500000920E-02 0. -1.
    10030    2    1    2    0    0  0.00000000000E+00  0.00000000000E+00 -0.13763796852E+04  0.24273998984E+04  0.19994622350E+04 0.  0.
        2    1    3    3  502    0  0.10787589064E+02  0.50916119409E+03 -0.17326059582E+04  0.18059027936E+04  0.25500000920E-02 0. -1.
       -2    1    3    3    0  502 -0.10787589064E+02 -0.50916119409E+03  0.35622627302E+03  0.62149710477E+03  0.25500000920E-02 0.  1.
</event>
<event>
 5   0  0.5129100E-06  0.2000124E+04  0.7818609E-02  0.8606563E-01
       -2   -1    0    0    0  501  0.00000000000E+00  0.00000000000E+00  0.46490140714E+03  0.46490140715E+03  0.25500000920E-02 0.  1.
        2   -1    0    0  501    0  0.00000000000E+00  0.00000000000E+00 -0.21512610040E+04  0.21512610040E+04  0.25500000920E-02 0. -1.
    10030    2    1    2    0    0  0.00000000000E+00  0.00000000000E+00 -0.16863595968E+04  0.26161624111E+04  0.20001242640E+04 0.  0.
        2    1    3    3  502    0  0.41787671854E+03  0.66429447822E+03 -0.16539458169E+04  0.18306951879E+04  0.25500000920E-02 0. -1.
       -2    1    3    3    0  502 -0.41787671854E+03 -0.66429447822E+03 -0.32413779975E+02  0.78546722327E+03  0.25500000920E-02 0.  1.
</event>
<event>
 5   0  0.5030137E-06  0.1999695E+04  0.7818609E-02  0.8606763E-01
        2   -1    0    0  501    0  0.00000000000E+00  0.00000000000E+00  0.20129015438E+04  0.20129015438E+04  0.25500000920E-02 0. -1.
       -2   -1    0    0    0  501  0.00000000000E+00  0.00000000000E+00 -0.49664367870E+03  0.49664367870E+03  0.25500000920E-02 0.  1.
    10030    2    1    2    0    0  0.00000000000E+00  0.00000000000E+00  0.15162578651E+04  0.25095452225E+04  0.19996948043E+04 0.  0.
        3    1    3    3  502    0 -0.74259065948E+03 -0.31563923000E+03  0.14991167603E+04  0.17024746935E+04  0.10100000352E+00 0. -1.
       -3    1    3    3    0  502  0.74259065948E+03  0.31563923000E+03  0.17141104858E+02  0.80707052897E+03  0.10100000352E+00 0.  1.
</event>
<event>
 5   0  0.2356996E-06  0.1999570E+04  0.7818609E-02  0.8606822E-01
       -1   -1    0    0    0  501  0.00000000000E+00  0.00000000000E+00  0.82074912627E+03  0.82074912629E+03  0.50400001928E-02 0.  1.
        1   -1    0    0  501    0  0.00000000000E+00  0.00000000000E+00 -0.12178758068E+04  0.12178758068E+04  0.50400001928E-02 0. -1.
    10030    2    1    2    0    0  0.00000000000E+00  0.00000000000E+00 -0.39712668050E+03  0.20386249331E+04  0.19995704582E+04 0.  0.
        4    1    3    3  502    0 -0.59226298453E+03 -0.65734410332E+03  0.27603065324E+03  0.92686096446E+03  0.12699999809E+01 0.  1.
       -4    1    3    3    0  502  0.59226298453E+03  0.65734410332E+03 -0.67315733374E+03  0.11117639686E+04  0.12699999809E+01 0. -1.
</event>
<event>
 5   0  0.2313821E-06  0.2001999E+04  0.7818609E-02  0.8605687E-01
        1   -1    0    0  501    0  0.00000000000E+00  0.00000000000E+00  0.13176491634E+04  0.13176491634E+04  0.50400001928E-02 0. -1.
       -1   -1    0    0    0  501  0.00000000000E+00  0.00000000000E+00 -0.76044498242E+03  0.76044498243E+03  0.50400001928E-02 0.  1.
    10030    2    1    2    0    0  0.00000000000E+00  0.00000000000E+00  0.55720418101E+03  0.20780941459E+04  0.20019986962E+04 0.  0.
        1    1    3    3  502    0 -0.98914476931E+03 -0.86877312663E+02  0.14712000304E+03  0.10037924773E+04  0.50400001928E-02 0.  1.
       -1    1    3    3    0  502  0.98914476931E+03  0.86877312663E+02  0.41008417796E+03  0.10743016686E+04  0.50400001928E-02 0. -1.
</event>
<event>
 5   0  0.2311520E-06  0.2000413E+04  0.7818609E-02  0.8606427E-01
        1   -1    0    0  501    0  0.00000000000E+00  0.00000000000E+00  0.26526745901E+04  0.26526745901E+04  0.50400001928E-02 0. -1.
       -1   -1    0    0    0  501  0.00000000000E+00  0.00000000000E+00 -0.37713385130E+03  0.37713385134E+03  0.50400001928E-02 0.  1.
    10030    2    1    2    0    0  0.00000000000E+00  0.00000000000E+00  0.22755407388E+04  0.30298084414E+04  0.20004133418E+04 0.  0.
        3    1    3    3  502    0 -0.15397923854E+01 -0.99973966848E+03  0.10915418658E+04  0.14801842556E+04  0.10100000352E+00 0.  1.
       -3    1    3    3    0  502  0.15397923854E+01  0.99973966848E+03  0.11839988730E+04  0.15496241858E+04  0.10100000352E+00 0. -1.
</event>
<event>
 5   0  0.2386776E-06  0.2000095E+04  0.7818609E-02  0.8606576E-01
        1   -1    0    0  501    0  0.00000000000E+00  0.00000000000E+00  0.14800962809E+04  0.14800962809E+04  0.50400001928E-02 0.  1.
       -1   -1    0    0    0  501  0.00000000000E+00  0.00000000000E+00 -0.67569604845E+03  0.67569604847E+03  0.50400001928E-02 0. -1.
    10030    2    1    2    0    0  0.00000000000E+00  0.00000000000E+00  0.80440023248E+03  0.21557923294E+04  0.20000952061E+04 0.  0.
        2    1    3    3  502    0  0.80055063314E+03  0.26131439860E+03 -0.17916573680E+03  0.86096857805E+03  0.25500000920E-02 0.  1.
       -2    1    3    3    0  502 -0.80055063314E+03 -0.26131439860E+03  0.98356596928E+03  0.12948237514E+04  0.25500000920E-02 0. -1.
</event>
<event>
 5   0  0.2311520E-06  0.1999770E+04  0.7818609E-02  0.8606728E-01
       -1   -1    0    0    0  501  0.00000000000E+00  0.00000000000E+00  0.12466548768E+04  0.12466548768E+04  0.50400001928E-02 0.  1.
        1   -1    0    0  501    0  0.00000000000E+00  0.00000000000E+00 -0.80196177527E+03  0.80196177529E+03  0.50400001928E-02 0. -1.
    10030    2    1    2    0    0  0.00000000000E+00  0.00000000000E+00  0.44469310155E+03  0.20486166521E+04  0.19997695449E+04 0.  0.
        3    1    3    3  502    0  0.24446410688E+03 -0.48034703205E+03 -0.64040875556E+03  0.83703008020E+03  0.10100000352E+00 0. -1.
       -3    1    3    3    0  502 -0.24446410688E+03  0.48034703205E+03  0.10851018571E+04  0.12115865719E+04  0.10100000352E+00 0.  1.
</event>
<event>
 5   0  0.5118981E-06  0.2000031E+04  0.7818609E-02  0.8606606E-01
       -2   -1    0    0    0  501  0.00000000000E+00  0.00000000000E+00  0.49394086337E+03  0.49394086338E+03  0.25500000920E-02 0.  1.
        2   -1    0    0  501    0  0.00000000000E+00  0.00000000000E+00 -0.20245957527E+04  0.20245957527E+04  0.25500000920E-02 0. -1.
    10030    2    1    2    0    0  0.00000000000E+00  0.00000000000E+00 -0.15306548893E+04  0.25185366160E+04  0.20000305738E+04 0.  0.
        4    1    3    3  502    0  0.87014895825E+03 -0.57597234561E+01 -0.13858658797E+04  0.16364040556E+04  0.12699999809E+01 0. -1.
       -4    1    3    3    0  502 -0.87014895825E+03  0.57597234561E+01 -0.14478900964E+03  0.88213256042E+03  0.12699999809E+01 0.  1.
</event>
<event>
 5   0  0.5118981E-06  0.2000206E+04  0.7818609E-02  0.8606524E-01
       -2   -1    0    0    0  501  0.00000000000E+00  0.00000000000E+00  0.54106716275E+03  0.54106716276E+03  0.25500000920E-02 0.  1.
        2   -1    0    0  501    0  0.00000000000E+00  0.00000000000E+00 -0.18485800432E+04  0.18485800432E+04  0.25500000920E-02 0. -1.
    10030    2    1    2    0    0  0.00000000000E+00  0.00000000000E+00 -0.13075128804E+04  0.23896472060E+04  0.20002059485E+04 0.  0.
        4    1    3    3  502    0 -0.82769600696E+03 -0.44805299832E+03 -0.10577917009E+04  0.14158944398E+04  0.12699999809E+01 0.  1.
       -4    1    3    3    0  502  0.82769600696E+03  0.44805299832E+03 -0.24972117958E+03  0.97375276620E+03  0.12699999809E+01 0. -1.
</event>
<event>
 5   0  0.5129100E-06  0.2000797E+04  0.7818609E-02  0.8606248E-01
       -2   -1    0    0    0  501  0.00000000000E+00  0.00000000000E+00  0.59085303396E+03  0.59085303396E+03  0.25500000920E-02 0.  1.
        2   -1    0    0  501    0  0.00000000000E+00  0.00000000000E+00 -0.16938171117E+04  0.16938171117E+04  0.25500000920E-02 0. -1.
    10030    2    1    2    0    0  0.00000000000E+00  0.00000000000E+00 -0.11029640777E+04  0.22846701456E+04  0.20007968207E+04 0.  0.
        2    1    3    3  502    0 -0.25012897935E+03  0.55145923612E+03 -0.14607837718E+04  0.15813162313E+04  0.25500000920E-02 0. -1.
       -2    1    3    3    0  502  0.25012897935E+03 -0.55145923612E+03  0.35781969405E+03  0.70335391438E+03  0.25500000920E-02 0.  1.
</event>
<event>
 5   0  0.1777750E-06  0.2000756E+04  0.7818609E-02  0.8606267E-01
        3   -1    0    0  501    0  0.00000000000E+00  0.00000000000E+00  0.11196634538E+04  0.11196634584E+04  0.10100000352E+00 0.  1.
       -3   -1    0    0    0  501  0.00000000000E+00  0.00000000000E+00 -0.89380090956E+03  0.89380091526E+03  0.10100000352E+00 0. -1.
    10030    2    1    2    0    0  0.00000000000E+00  0.00000000000E+00  0.22586254426E+03  0.20134643736E+04  0.20007560808E+04 0.  0.
        1    1    3    3  502    0 -0.46202703222E+03  0.88491635107E+03  0.47632327512E+02  0.99940720707E+03  0.50400001928E-02 0. -1.
       -1    1    3    3    0  502  0.46202703222E+03 -0.88491635107E+03  0.17823021675E+03  0.10140571666E+04  0.50400001928E-02 0.  1.
</event>
<event>
 5   0  0.2356996E-06  0.1999634E+04  0.7818609E-02  0.8606792E-01
       -1   -1    0    0    0  501  0.00000000000E+00  0.00000000000E+00  0.89092402801E+03  0.89092402802E+03  0.50400001928E-02 0. -1.
        1   -1    0    0  501    0  0.00000000000E+00  0.00000000000E+00 -0.11220191131E+04  0.11220191131E+04  0.50400001928E-02 0.  1.
    10030    2    1    2    0    0  0.00000000000E+00  0.00000000000E+00 -0.23109508512E+03  0.20129431412E+04  0.19996337543E+04 0.  0.
        4    1    3    3  502    0 -0.88307656984E+03  0.29268795353E+03 -0.48423890682E+03  0.10487990266E+04  0.12699999809E+01 0.  1.
       -4    1    3    3    0  502  0.88307656984E+03 -0.29268795353E+03  0.25314382170E+03  0.96414411460E+03  0.12699999809E+01 0. -1.
</event>
<event>
 5   0  0.2311520E-06  0.2000739E+04  0.7818609E-02  0.8606275E-01
       -1   -1    0    0    0  501  0.00000000000E+00  0.00000000000E+00  0.11639764352E+04  0.11639764352E+04  0.50400001928E-02 0.  1.
        1   -1    0    0  501    0  0.00000000000E+00  0.00000000000E+00 -0.85975891888E+03  0.85975891889E+03  0.50400001928E-02 0. -1.
    10030    2    1    2    0    0  0.00000000000E+00  0.00000000000E+00  0.30421751631E+03  0.20237353541E+04  0.20007389850E+04 0.  0.
        3    1    3    3  502    0 -0.83842424834E+03 -0.73479343930E+02  0.69904989462E+03  0.10940864680E+04  0.10100000352E+00 0. -1.
       -3    1    3    3    0  502  0.83842424834E+03  0.73479343930E+02 -0.39483237831E+03  0.92964888606E+03  0.10100000352E+00 0.  1.
</event>
<event>
 5   0  0.2356996E-06  0.1999785E+04  0.7818609E-02  0.8606721E-01
       -1   -1    0    0    0  501  0.00000000000E+00  0.00000000000E+00  0.82216874244E+03  0.82216874246E+03  0.50400001928E-02 0. -1.
        1   -1    0    0  501    0  0.00000000000E+00  0.00000000000E+00 -0.12160334866E+04  0.12160334866E+04  0.50400001928E-02 0.  1.
    10030    2    1    2    0    0  0.00000000000E+00  0.00000000000E+00 -0.39386474419E+03  0.20382022291E+04  0.19997847109E+04 0.  0.
        4    1    3    3  502    0  0.88305393268E+03  0.15335973244E+03  0.25484327944E+03  0.93179942344E+03  0.12699999809E+01 0. -1.
       -4    1    3    3    0  502 -0.88305393268E+03 -0.15335973244E+03 -0.64870802363E+03  0.11064028057E+04  0.12699999809E+01 0.  1.
</event>
<event>
 5   0  0.2356996E-06  0.2003199E+04  0.7818609E-02  0.8605127E-01
       -1   -1    0    0    0  501  0.00000000000E+00  0.00000000000E+00  0.94630194559E+03  0.94630194560E+03  0.50400001928E-02 0. -1.
        1   -1    0    0  501    0  0.00000000000E+00  0.00000000000E+00 -0.10601279715E+04  0.10601279715E+04  0.50400001928E-02 0.  1.
    10030    2    1    2    0    0  0.00000000000E+00  0.00000000000E+00 -0.11382602586E+03  0.20064299171E+04  0.20031986042E+04 0.  0.
        4    1    3    3  502    0  0.19683570258E+03  0.98203476122E+03 -0.48964025857E+02  0.10027640075E+04  0.12699999809E+01 0. -1.
       -4    1    3    3    0  502 -0.19683570258E+03 -0.98203476122E+03 -0.64862000007E+02  0.10036659096E+04  0.12699999809E+01 0.  1.
</event>
<event>
 5   0  0.4956214E-06  0.1992028E+04  0.7818609E-02  0.8610357E-01
       -2   -1    0    0    0  501  0.00000000000E+00  0.00000000000E+00  0.68872438746E+03  0.68872438747E+03  0.25500000920E-02 0.  1.
        2   -1    0    0  501    0  0.00000000000E+00  0.00000000000E+00 -0.14404072304E+04  0.14404072304E+04  0.25500000920E-02 0. -1.
    10030    2    1    2    0    0  0.00000000000E+00  0.00000000000E+00 -0.75168284297E+03  0.21291316179E+04  0.19920276981E+04 0.  0.
        1    1    3    3  502    0 -0.88048770641E+03 -0.10096663341E+03  0.10996421205E+03  0.89305374428E+03  0.50400001928E-02 0.  1.
       -1    1    3    3    0  502  0.88048770641E+03  0.10096663341E+03 -0.86164705502E+03  0.12360778736E+04  0.50400001928E-02 0. -1.
</event>
<event>
 5   0  0.5129100E-06  0.2000951E+04  0.7818609E-02  0.8606176E-01
        2   -1    0    0  501    0  0.00000000000E+00  0.00000000000E+00  0.68284494949E+03  0.68284494949E+03  0.25500000920E-02 0. -1.
       -2   -1    0    0    0  501  0.00000000000E+00  0.00000000000E+00 -0.14658543498E+04  0.14658543498E+04  0.25500000920E-02 0.  1.
    10030    2    1    2    0    0  0.00000000000E+00  0.00000000000E+00 -0.78300940031E+03  0.21486992993E+04  0.20009510133E+04 0.  0.
        2    1    3    3  502    0  0.51762609460E+03 -0.85474441715E+03 -0.44440091423E+03  0.10936256055E+04  0.25500000920E-02 0.  1.
       -2    1    3    3    0  502 -0.51762609460E+03  0.85474441715E+03 -0.33860848608E+03  0.10550736938E+04  0.25500000920E-02 0. -1.
</event>
<event>
 5   0  0.5030137E-06  0.2001216E+04  0.7818609E-02  0.8606052E-01
       -2   -1    0    0    0  501  0.00000000000E+00  0.00000000000E+00  0.81257224690E+03  0.81257224691E+03  0.25500000920E-02 0. -1.
        2   -1    0    0  501    0  0.00000000000E+00  0.00000000000E+00 -0.12321570588E+04  0.12321570588E+04  0.25500000920E-02 0.  1.
    10030    2    1    2    0    0  0.00000000000E+00  0.00000000000E+00 -0.41958481189E+03  0.20447293057E+04  0.20012162600E+04 0.  0.
        3    1    3    3  502    0 -0.40545731168E+03  0.86677943181E+03  0.88994414481E+02  0.96105266818E+03  0.10100000352E+00 0. -1.
       -3    1    3    3    0  502  0.40545731168E+03 -0.86677943181E+03 -0.50857922637E+03  0.10836766375E+04  0.10100000352E+00 0.  1.
</event>
<event>
 5   0  0.5251252E-06  0.1999364E+04  0.7818609E-02  0.8606918E-01
       -2   -1    0    0    0  501  0.00000000000E+00  0.00000000000E+00  0.83258884985E+03  0.83258884986E+03  0.25500000920E-02 0. -1.
        2   -1    0    0  501    0  0.00000000000E+00  0.00000000000E+00 -0.12003096989E+04  0.12003096989E+04  0.25500000920E-02 0.  1.
    10030    2    1    2    0    0  0.00000000000E+00  0.00000000000E+00 -0.36772084903E+03  0.20328985487E+04  0.19993643707E+04 0.  0.
        5    1    3    3  502    0 -0.16286101807E+03 -0.36061689565E+03  0.74956441535E+03  0.84760672449E+03  0.46999998093E+01 0. -1.
       -5    1    3    3    0  502  0.16286101807E+03  0.36061689565E+03 -0.11172852644E+04  0.11852918243E+04  0.46999998093E+01 0.  1.
</event>
<event>
 5   0  0.2379743E-06  0.1999759E+04  0.7818609E-02  0.8606733E-01
       -1   -1    0    0    0  501  0.00000000000E+00  0.00000000000E+00  0.73895888506E+03  0.73895888508E+03  0.50400001928E-02 0. -1.
        1   -1    0    0  501    0  0.00000000000E+00  0.00000000000E+00 -0.13529296904E+04  0.13529296904E+04  0.50400001928E-02 0.  1.
    10030    2    1    2    0    0  0.00000000000E+00  0.00000000000E+00 -0.61397080537E+03  0.20918885755E+04  0.19997594012E+04 0.  0.
        5    1    3    3  502    0  0.69048957842E+03 -0.82447966060E+02 -0.10585296809E+04  0.12665230754E+04  0.46999998093E+01 0.  1.
       -5    1    3    3    0  502 -0.69048957842E+03  0.82447966060E+02  0.44455887556E+03  0.82536550016E+03  0.46999998093E+01 0. -1.
</event>
<event>
 5   0  0.2386776E-06  0.2000241E+04  0.7818609E-02  0.8606508E-01
        1   -1    0    0  501    0  0.00000000000E+00  0.00000000000E+00  0.93149159185E+03  0.93149159186E+03  0.50400001928E-02 0. -1.
       -1   -1    0    0    0  501  0.00000000000E+00  0.00000000000E+00 -0.10738056077E+04  0.10738056077E+04  0.50400001928E-02 0.  1.
    10030    2    1    2    0    0  0.00000000000E+00  0.00000000000E+00 -0.14231401588E+03  0.20052971996E+04  0.20002408804E+04 0.  0.
        2    1    3    3  502    0 -0.24434896497E+02  0.82417428747E+03 -0.63860953742E+03  0.10429201607E+04  0.25500000920E-02 0.  1.
       -2    1    3    3    0  502  0.24434896497E+02 -0.82417428747E+03  0.49629552155E+03  0.96237703890E+03  0.25500000920E-02 0. -1.
</event>
<event>
 5   0  0.2379743E-06  0.2000269E+04  0.7818609E-02  0.8606495E-01
        1   -1    0    0  501    0  0.00000000000E+00  0.00000000000E+00  0.10022928952E+04  0.10022928952E+04  0.50400001928E-02 0.  1.
       -1   -1    0    0    0  501  0.00000000000E+00  0.00000000000E+00 -0.99798038990E+03  0.99798038992E+03  0.50400001928E-02 0. -1.
    10030    2    1    2    0    0  0.00000000000E+00  0.00000000000E+00  0.43125052470E+01  0.20002732851E+04  0.20002686363E+04 0.  0.
        5    1    3    3  502    0  0.22707273677E+03 -0.88156456825E+03 -0.41200464104E+03  0.99924372904E+03  0.46999998093E+01 0. -1.
       -5    1    3    3    0  502 -0.22707273677E+03  0.88156456825E+03  0.41631714629E+03  0.10010295560E+04  0.46999998093E+01 0.  1.
</event>
<event>
 5   0  0.5129100E-06  0.1999170E+04  0.7818609E-02  0.8607009E-01
        2   -1    0    0  501    0  0.00000000000E+00  0.00000000000E+00  0.18544488592E+04  0.18544488592E+04  0.25500000920E-02 0.  1.
       -2   -1    0    0    0  501  0.00000000000E+00  0.00000000000E+00 -0.53879647912E+03  0.53879647913E+03  0.25500000920E-02 0. -1.
    10030    2    1    2    0    0  0.00000000000E+00  0.00000000000E+00  0.13156523801E+04  0.23932453384E+04  0.19991703440E+04 0.  0.
        2    1    3    3  502    0 -0.24692294095E+03 -0.13066515011E+03  0.18067652324E+04  0.18282354677E+04  0.25500000920E-02 0.  1.
       -2    1    3    3    0  502  0.24692294095E+03  0.13066515011E+03 -0.49111285232E+03  0.56500987066E+03  0.25500000920E-02 0. -1.
</event>
<event>
 5   0  0.4956214E-06  0.2000186E+04  0.7818609E-02  0.8606534E-01
        2   -1    0    0  501    0  0.00000000000E+00  0.00000000000E+00  0.81875498957E+03  0.81875498958E+03  0.25500000920E-02 0. -1.
       -2   -1    0    0    0  501  0.00000000000E+00  0.00000000000E+00 -0.12215936307E+04  0.12215936307E+04  0.25500000920E-02 0.  1.
    10030    2    1    2    0    0  0.00000000000E+00  0.00000000000E+00 -0.40283864117E+03  0.20403486203E+04  0.20001858718E+04 0.  0.
        1    1    3    3  502    0  0.42203233294E+03 -0.30607737998E+03  0.66917609672E+03  0.84828727506E+03  0.50400001928E-02 0.  1.
       -1    1    3    3    0  502 -0.42203233294E+03  0.30607737998E+03 -0.10720147379E+04  0.11920613453E+04  0.50400001928E-02 0. -1.
</event>
<event>
 5   0  0.4956214E-06  0.2000259E+04  0.7818609E-02  0.8606500E-01
       -2   -1    0    0    0  501  0.00000000000E+00  0.00000000000E+00  0.13528386434E+04  0.13528386434E+04  0.25500000920E-02 0.  1.
        2   -1    0    0  501    0  0.00000000000E+00  0.00000000000E+00 -0.73937783835E+03  0.73937783836E+03  0.25500000920E-02 0. -1.
    10030    2    1    2    0    0  0.00000000000E+00  0.00000000000E+00  0.61346080500E+03  0.20922164817E+04  0.20002588950E+04 0.  0.
        1    1    3    3  502    0 -0.14047624323E+03 -0.50786635055E+03  0.11958670641E+04  0.13068128558E+04  0.50400001928E-02 0.  1.
       -1    1    3    3    0  502  0.14047624323E+03  0.50786635055E+03 -0.58240625912E+03  0.78540362593E+03  0.50400001928E-02 0. -1.
</event>
<event>
 5   0  0.5030137E-06  0.1999936E+04  0.7818609E-02  0.8606650E-01
        2   -1    0    0  501    0  0.00000000000E+00  0.00000000000E+00  0.90762453299E+03  0.90762453299E+03  0.25500000920E-02 0.  1.
       -2   -1    0    0    0  501  0.00000000000E+00  0.00000000000E+00 -0.11017071744E+04  0.11017071744E+04  0.25500000920E-02 0. -1.
    10030    2    1    2    0    0  0.00000000000E+00  0.00000000000E+00 -0.19408264144E+03  0.20093317074E+04  0.19999364587E+04 0.  0.
        3    1    3    3  502    0  0.21738013955E+03 -0.79625625311E+03  0.47010884056E+03  0.94988445501E+03  0.10100000352E+00 0.  1.
       -3    1    3    3    0  502 -0.21738013955E+03  0.79625625311E+03 -0.66419148200E+03  0.10594472524E+04  0.10100000352E+00 0. -1.
</event>
<event>
 5   0  0.2356996E-06  0.1998691E+04  0.7818609E-02  0.8607233E-01
        1   -1    0    0  501    0  0.00000000000E+00  0.00000000000E+00  0.82950048324E+03  0.82950048326E+03  0.50400001928E-02 0. -1.
       -1   -1    0    0    0  501  0.00000000000E+00  0.00000000000E+00 -0.12039671497E+04  0.12039671497E+04  0.50400001928E-02 0.  1.
    10030    2    1    2    0    0  0.00000000000E+00  0.00000000000E+00 -0.37446666644E+03  0.20334676330E+04  0.19986909041E+04 0.  0.
        4    1    3    3  502    0  0.12377197742E+03  0.22714766379E+03 -0.11693135403E+04  0.11975856261E+04  0.12699999809E+01 0.  1.
       -4    1    3    3    0  502 -0.12377197742E+03 -0.22714766379E+03  0.79484687384E+03  0.83588200681E+03  0.12699999809E+01 0. -1.
</event>
<event>
 5   0  0.5030137E-06  0.2001198E+04  0.7818609E-02  0.8606061E-01
       -2   -1    0    0    0  501  0.00000000000E+00  0.00000000000E+00  0.65125773134E+03  0.65125773134E+03  0.25500000920E-02 0.  1.
        2   -1    0    0  501    0  0.00000000000E+00  0.00000000000E+00 -0.15373297309E+04  0.15373297309E+04  0.25500000920E-02 0. -1.
    10030    2    1    2    0    0  0.00000000000E+00  0.00000000000E+00 -0.88607199953E+03  0.21885874622E+04  0.20011975143E+04 0.  0.
        3    1    3    3  502    0  0.18439950226E+03 -0.42137875289E+03  0.52878671582E+03  0.70084137352E+03  0.10100000352E+00 0.  1.
       -3    1    3    3    0  502 -0.18439950226E+03  0.42137875289E+03 -0.14148587153E+04  0.14877460887E+04  0.10100000352E+00 0. -1.
</event>
<event>
 5   0  0.2386776E-06  0.2000298E+04  0.7818609E-02  0.8606482E-01
        1   -1    0    0  501    0  0.00000000000E+00  0.00000000000E+00  0.10785394644E+04  0.10785394645E+04  0.50400001928E-02 0.  1.
       -1   -1    0    0    0  501  0.00000000000E+00  0.00000000000E+00 -0.92745567935E+03  0.92745567936E+03  0.50400001928E-02 0. -1.
    10030    2    1    2    0    0  0.00000000000E+00  0.00000000000E+00  0.15108378509E+03  0.20059951438E+04  0.20002975296E+04 0.  0.
        2    1    3    3  502    0 -0.48473966157E+03  0.33306047698E+03 -0.73570959746E+03  0.94189725163E+03  0.25500000920E-02 0. -1.
       -2    1    3    3    0  502  0.48473966157E+03 -0.33306047698E+03  0.88679338255E+03  0.10640978922E+04  0.25500000920E-02 0.  1.
</event>
<event>
 5   0  0.1777750E-06  0.1999515E+04  0.7818609E-02  0.8606848E-01
       -4   -1    0    0    0  501  0.00000000000E+00  0.00000000000E+00  0.62517290157E+03  0.62517419153E+03  0.12699999809E+01 0.  1.
        4   -1    0    0  501    0  0.00000000000E+00  0.00000000000E+00 -0.15987780398E+04  0.15987785442E+04  0.12699999809E+01 0. -1.
    10030    2    1    2    0    0  0.00000000000E+00  0.00000000000E+00 -0.97360513825E+03  0.22239527358E+04  0.19995146425E+04 0.  0.
        5    1    3    3  502    0  0.26074727275E+03  0.89467521881E+03 -0.84145258107E+02  0.93570048726E+03  0.46999998093E+01 0.  1.
       -5    1    3    3    0  502 -0.26074727275E+03 -0.89467521881E+03 -0.88945988014E+03  0.12882522485E+04  0.46999998093E+01 0. -1.
</event>
<event>
 5   0  0.5030137E-06  0.2000197E+04  0.7818609E-02  0.8606528E-01
        2   -1    0    0  501    0  0.00000000000E+00  0.00000000000E+00  0.19685415697E+04  0.19685415697E+04  0.25500000920E-02 0.  1.
       -2   -1    0    0    0  501  0.00000000000E+00  0.00000000000E+00 -0.50809045484E+03  0.50809045484E+03  0.25500000920E-02 0. -1.
    10030    2    1    2    0    0  0.00000000000E+00  0.00000000000E+00  0.14604511148E+04  0.24766320245E+04  0.20001971718E+04 0.  0.
        3    1    3    3  502    0  0.75370682332E+03 -0.18814104210E+03 -0.49665761354E+02  0.77842001856E+03  0.10100000352E+00 0. -1.
       -3    1    3    3    0  502 -0.75370682332E+03  0.18814104210E+03  0.15101168762E+04  0.16982120060E+04  0.10100000352E+00 0.  1.
</event>
<event>
 5   0  0.2386776E-06  0.1999519E+04  0.7818609E-02  0.8606846E-01
        1   -1    0    0  501    0  0.00000000000E+00  0.00000000000E+00  0.86566668312E+03  0.86566668314E+03  0.50400001928E-02 0.  1.
       -1   -1    0    0    0  501  0.00000000000E+00  0.00000000000E+00 -0.11546232904E+04  0.11546232904E+04  0.50400001928E-02 0. -1.
    10030    2    1    2    0    0  0.00000000000E+00  0.00000000000E+00 -0.28895660727E+03  0.20202899735E+04  0.19995188562E+04 0.  0.
        2    1    3    3  502    0 -0.53904347502E+03  0.17978367479E+03  0.68664118974E+03  0.89127221495E+03  0.25500000920E-02 0.  1.
       -2    1    3    3    0  502  0.53904347502E+03 -0.17978367479E+03 -0.97559779701E+03  0.11290177586E+04  0.25500000920E-02 0. -1.
</event>
<event>
 5   0  0.2386776E-06  0.2000651E+04  0.7818609E-02  0.8606316E-01
       -1   -1    0    0    0  501  0.00000000000E+00  0.00000000000E+00  0.75307906016E+03  0.75307906018E+03  0.50400001928E-02 0. -1.
        1   -1    0    0  501    0  0.00000000000E+00  0.00000000000E+00 -0.13287465985E+04  0.13287465985E+04  0.50400001928E-02 0.  1.
    10030    2    1    2    0    0  0.00000000000E+00  0.00000000000E+00 -0.57566753837E+03  0.20818256587E+04  0.20006511336E+04 0.  0.
        2    1    3    3  502    0  0.84912902491E+03 -0.44778642871E+03 -0.58052646571E+03  0.11218483695E+04  0.25500000920E-02 0. -1.
       -2    1    3    3    0  502 -0.84912902491E+03  0.44778642871E+03  0.48589273495E+01  0.95997728924E+03  0.25500000920E-02 0.  1.
</event>
<event>
 5   0  0.2379743E-06  0.2000779E+04  0.7818609E-02  0.8606257E-01
       -1   -1    0    0    0  501  0.00000000000E+00  0.00000000000E+00  0.91633494901E+03  0.91633494903E+03  0.50400001928E-02 0.  1.
        1   -1    0    0  501    0  0.00000000000E+00  0.00000000000E+00 -0.10921543902E+04  0.10921543902E+04  0.50400001928E-02 0. -1.
    10030    2    1    2    0    0  0.00000000000E+00  0.00000000000E+00 -0.17581944115E+03  0.20084893392E+04  0.20007790857E+04 0.  0.
        5    1    3    3  502    0 -0.28131366266E+03 -0.15114515726E+03  0.86378106077E+03  0.92093541918E+03  0.46999998093E+01 0.  1.
       -5    1    3    3    0  502  0.28131366266E+03  0.15114515726E+03 -0.10396005019E+04  0.10875539200E+04  0.46999998093E+01 0. -1.
</event>
<event>
 5   0  0.5129100E-06  0.1998166E+04  0.7818609E-02  0.8607479E-01
        2   -1    0    0  501    0  0.00000000000E+00  0.00000000000E+00  0.27553710696E+04  0.27553710696E+04  0.25500000920E-02 0.  1.
       -2   -1    0    0    0  501  0.00000000000E+00  0.00000000000E+00 -0.36226226106E+03  0.36226226107E+03  0.25500000920E-02 0. -1.
    10030    2    1    2    0    0  0.00000000000E+00  0.00000000000E+00  0.23931088085E+04  0.31176333307E+04  0.19981661130E+04 0.  0.
        2    1    3    3  502    0 -0.29604269753E+03 -0.38467439585E+03  0.25590276242E+04  0.26046569930E+04  0.25500000920E-02 0.  1.
       -2    1    3    3    0  502  0.29604269753E+03  0.38467439585E+03 -0.16591881571E+03  0.51297633766E+03  0.25500000920E-02 0. -1.
</event>
<event>
 5   0  0.5129100E-06  0.2000493E+04  0.7818609E-02  0.8606390E-01
        2   -1    0    0  501    0  0.00000000000E+00  0.00000000000E+00  0.16173675019E+04  0.16173675019E+04  0.25500000920E-02 0.  1.
       -2   -1    0    0    0  501  0.00000000000E+00  0.00000000000E+00 -0.61859329190E+03  0.61859329190E+03  0.25500000920E-02 0. -1.
    10030    2    1    2    0    0  0.00000000000E+00  0.00000000000E+00  0.99877421001E+03  0.22359607938E+04  0.20004926266E+04 0.  0.
        2    1    3    3  502    0  0.77392506728E+03  0.55117006685E+03  0.14994695360E+03  0.96189008793E+03  0.25500000920E-02 0. -1.
       -2    1    3    3    0  502 -0.77392506728E+03 -0.55117006685E+03  0.84882725642E+03  0.12740707059E+04  0.25500000920E-02 0.  1.
</event>
<event>
 5   0  0.2311520E-06  0.1999747E+04  0.7818609E-02  0.8606739E-01
       -1   -1    0    0    0  501  0.00000000000E+00  0.00000000000E+00  0.38168172895E+03  0.38168172899E+03  0.50400001928E-02 0.  1.
        1   -1    0    0  501    0  0.00000000000E+00  0.00000000000E+00 -0.26193223074E+04  0.26193223074E+04  0.50400001928E-02 0. -1.
    10030    2    1    2    0    0  0.00000000000E+00  0.00000000000E+00 -0.22376405784E+04  0.30010040364E+04  0.19997474511E+04 0.  0.
        3    1    3    3  502    0  0.83188076581E+03  0.20228120742E+03 -0.34366676262E+03  0.92252379337E+03  0.10100000352E+00 0.  1.
       -3    1    3    3    0  502 -0.83188076581E+03 -0.20228120742E+03 -0.18939738158E+04  0.20784802430E+04  0.10100000352E+00 0. -1.
</event>
<event>
 5   0  0.5118981E-06  0.2000322E+04  0.7818609E-02  0.8606470E-01
        2   -1    0    0  501    0  0.00000000000E+00  0.00000000000E+00  0.19773910898E+04  0.19773910898E+04  0.25500000920E-02 0.  1.
       -2   -1    0    0    0  501  0.00000000000E+00  0.00000000000E+00 -0.50587986871E+03  0.50587986872E+03  0.25500000920E-02 0. -1.
    10030    2    1    2    0    0  0.00000000000E+00  0.00000000000E+00  0.14715112211E+04  0.24832709585E+04  0.20003223189E+04 0.  0.
        4    1    3    3  502    0  0.90920089430E+03  0.41473188422E+03  0.68499425873E+03  0.12115558383E+04  0.12699999809E+01 0. -1.
       -4    1    3    3    0  502 -0.90920089430E+03 -0.41473188422E+03  0.78651696238E+03  0.12717151202E+04  0.12699999809E+01 0.  1.
</event>
<event>
 5   0  0.2313821E-06  0.2000243E+04  0.7818609E-02  0.8606507E-01
       -1   -1    0    0    0  501  0.00000000000E+00  0.00000000000E+00  0.55618978404E+03  0.55618978407E+03  0.50400001928E-02 0. -1.
        1   -1    0    0  501    0  0.00000000000E+00  0.00000000000E+00 -0.17983846509E+04  0.17983846509E+04  0.50400001928E-02 0.  1.
    10030    2    1    2    0    0  0.00000000000E+00  0.00000000000E+00 -0.12421948668E+04  0.23545744350E+04  0.20002431559E+04 0.  0.
        1    1    3    3  502    0 -0.17226076883E+03 -0.82505505752E+03 -0.12548488503E+04  0.15116333079E+04  0.50400001928E-02 0. -1.
       -1    1    3    3    0  502  0.17226076883E+03  0.82505505752E+03  0.12653983426E+02  0.84294112709E+03  0.50400001928E-02 0.  1.
</event>
<event>
 5   0  0.5129100E-06  0.2001387E+04  0.7818609E-02  0.8605972E-01
       -2   -1    0    0    0  501  0.00000000000E+00  0.00000000000E+00  0.60536130699E+03  0.60536130700E+03  0.25500000920E-02 0. -1.
        2   -1    0    0  501    0  0.00000000000E+00  0.00000000000E+00 -0.16541982646E+04  0.16541982646E+04  0.25500000920E-02 0.  1.
    10030    2    1    2    0    0  0.00000000000E+00  0.00000000000E+00 -0.10488369576E+04  0.22595595716E+04  0.20013871424E+04 0.  0.
        2    1    3    3  502    0 -0.36464408489E+03  0.46029265740E+03  0.39038452116E+03  0.70514871727E+03  0.25500000920E-02 0. -1.
       -2    1    3    3    0  502  0.36464408489E+03 -0.46029265740E+03 -0.14392214787E+04  0.15544108543E+04  0.25500000920E-02 0.  1.
</event>
<event>
 5   0  0.2379743E-06  0.2000186E+04  0.7818609E-02  0.8606534E-01
        1   -1    0    0  501    0  0.00000000000E+00  0.00000000000E+00  0.15965683299E+04  0.15965683299E+04  0.50400001928E-02 0. -1.
       -1   -1    0    0    0  501  0.00000000000E+00  0.00000000000E+00 -0.62646009955E+03  0.62646009957E+03  0.50400001928E-02 0.  1.
    10030    2    1    2    0    0  0.00000000000E+00  0.00000000000E+00  0.97010823032E+03  0.22230284295E+04  0.20001863462E+04 0.  0.
        5    1    3    3  502    0  0.67446669585E+03 -0.48118560475E+03  0.11075625137E+04  0.13831708939E+04  0.46999998093E+01 0. -1.
       -5    1    3    3    0  502 -0.67446669585E+03  0.48118560475E+03 -0.13745428334E+03  0.83985753556E+03  0.46999998093E+01 0.  1.
</event>
<event>
 5   0  0.4956214E-06  0.1999863E+04  0.7818609E-02  0.8606685E-01
       -2   -1    0    0    0  501  0.00000000000E+00  0.00000000000E+00  0.10852612451E+04  0.10852612451E+04  0.25500000920E-02 0.  1.
        2   -1    0    0  501    0  0.00000000000E+00  0.00000000000E+00 -0.92131107480E+03  0.92131107480E+03  0.25500000920E-02 0. -1.
    10030    2    1    2    0    0  0.00000000000E+00  0.00000000000E+00  0.16395017034E+03  0.20065723199E+04  0.19998631995E+04 0.  0.
        1    1    3    3  502    0  0.33582415591E+03 -0.22555970633E+03  0.99948703363E+03  0.10782529273E+04  0.50400001928E-02 0.  1.
       -1    1    3    3    0  502 -0.33582415591E+03  0.22555970633E+03 -0.83553686329E+03  0.92831939264E+03  0.50400001928E-02 0. -1.
</event>
<event>
 5   0  0.1777750E-06  0.2000076E+04  0.7818609E-02  0.8606585E-01
       -4   -1    0    0    0  501  0.00000000000E+00  0.00000000000E+00  0.11759703283E+04  0.11759710141E+04  0.12699999809E+01 0.  1.
        4   -1    0    0  501    0  0.00000000000E+00  0.00000000000E+00 -0.85042464735E+03  0.85042559564E+03  0.12699999809E+01 0. -1.
    10030    2    1    2    0    0  0.00000000000E+00  0.00000000000E+00  0.32554568096E+03  0.20263966097E+04  0.20000758059E+04 0.  0.
        5    1    3    3  502    0 -0.94377965817E+03  0.33008311052E+03  0.14305355363E+03  0.10100303521E+04  0.46999998093E+01 0. -1.
       -5    1    3    3    0  502  0.94377965817E+03 -0.33008311052E+03  0.18249212734E+03  0.10163662576E+04  0.46999998093E+01 0.  1.
</event>
<event>
 5   0  0.2313821E-06  0.1999804E+04  0.7818609E-02  0.8606712E-01
        1   -1    0    0  501    0  0.00000000000E+00  0.00000000000E+00  0.83353996086E+03  0.83353996087E+03  0.50400001928E-02 0.  1.
       -1   -1    0    0    0  501  0.00000000000E+00  0.00000000000E+00 -0.11994670832E+04  0.11994670833E+04  0.50400001928E-02 0. -1.
    10030    2    1    2    0    0  0.00000000000E+00  0.00000000000E+00 -0.36592712239E+03  0.20330070441E+04  0.19998037360E+04 0.  0.
        1    1    3    3  502    0 -0.33208796810E+03 -0.11442604697E+03  0.76875739370E+03  0.84520037221E+03  0.50400001928E-02 0.  1.
       -1    1    3    3    0  502  0.33208796810E+03  0.11442604697E+03 -0.11346845161E+04  0.11878066719E+04  0.50400001928E-02 0. -1.
</event>
<event>
 5   0  0.2356996E-06  0.1990885E+04  0.7818609E-02  0.8610894E-01
       -1   -1    0    0    0  501  0.00000000000E+00  0.00000000000E+00  0.47449362204E+03  0.47449362207E+03  0.50400001928E-02 0. -1.
        1   -1    0    0  501    0  0.00000000000E+00  0.00000000000E+00 -0.20883442478E+04  0.20883442478E+04  0.50400001928E-02 0.  1.
    10030    2    1    2    0    0  0.00000000000E+00  0.00000000000E+00 -0.16138506258E+04  0.25628378699E+04  0.19908852566E+04 0.  0.
        4    1    3    3  502    0 -0.80697769851E+03 -0.12259546137E+03 -0.15404090209E+04  0.17433026752E+04  0.12699999809E+01 0.  1.
       -4    1    3    3    0  502  0.80697769851E+03  0.12259546137E+03 -0.73441604917E+02  0.81953519465E+03  0.12699999809E+01 0. -1.
</event>
<event>
 5   0  0.2356996E-06  0.2000039E+04  0.7818609E-02  0.8606602E-01
       -1   -1    0    0    0  501  0.00000000000E+00  0.00000000000E+00  0.36868762037E+03  0.36868762040E+03  0.50400001928E-02 0.  1.
        1   -1    0    0  501    0  0.00000000000E+00  0.00000000000E+00 -0.27124302160E+04  0.27124302160E+04  0.50400001928E-02 0. -1.
    10030    2    1    2    0    0  0.00000000000E+00  0.00000000000E+00 -0.23437425956E+04  0.30811178364E+04  0.20000394414E+04 0.  0.
        4    1    3    3  502    0  0.13922031749E+03 -0.35584513840E+03  0.25178860271E+03  0.45761028472E+03  0.12699999809E+01 0.  1.
       -4    1    3    3    0  502 -0.13922031749E+03  0.35584513840E+03 -0.25955311983E+04  0.26235075516E+04  0.12699999809E+01 0. -1.
</event>
<event>
 5   0  0.5129100E-06  0.1999013E+04  0.7818609E-02  0.8607082E-01
       -2   -1    0    0    0  501  0.00000000000E+00  0.00000000000E+00  0.48526744667E+03  0.48526744668E+03  0.25500000920E-02 0.  1.
        2   -1    0    0  501    0  0.00000000000E+00  0.00000000000E+00 -0.20586849304E+04  0.20586849304E+04  0.25500000920E-02 0. -1.
    10030    2    1    2    0    0  0.00000000000E+00  0.00000000000E+00 -0.15734174837E+04  0.25439523770E+04  0.19990125359E+04 0.  0.
        2    1    3    3  502    0  0.75032841306E+01 -0.11977671602E+03  0.47606512243E+03  0.49095902250E+03  0.25500000920E-02 0.  1.
       -2    1    3    3    0  502 -0.75032841306E+01  0.11977671602E+03 -0.20494826061E+04  0.20529933545E+04  0.25500000920E-02 0. -1.
</event>
<event>
 5   0  0.5129100E-06  0.2000176E+04  0.7818609E-02  0.8606538E-01
        2   -1    0    0  501    0  0.00000000000E+00  0.00000000000E+00  0.97426704972E+03  0.97426704972E+03  0.25500000920E-02 0.  1.
       -2   -1    0    0    0  501  0.00000000000E+00  0.00000000000E+00 -0.10265936326E+04  0.10265936326E+04  0.25500000920E-02 0. -1.
    10030    2    1    2    0    0  0.00000000000E+00  0.00000000000E+00 -0.52326582917E+02  0.20008606824E+04  0.20001763420E+04 0.  0.
        2    1    3    3  502    0 -0.63768406841E+03  0.41119323615E+03  0.62556210876E+03  0.98338639429E+03  0.25500000920E-02 0.  1.
       -2    1    3    3    0  502  0.63768406841E+03 -0.41119323615E+03 -0.67788869168E+03  0.10174742881E+04  0.25500000920E-02 0. -1.
</event>
<event>
 5   0  0.5118981E-06  0.1999305E+04  0.7818609E-02  0.8606945E-01
        2   -1    0    0  501    0  0.00000000000E+00  0.00000000000E+00  0.75980849932E+03  0.75980849932E+03  0.25500000920E-02 0. -1.
       -2   -1    0    0    0  501  0.00000000000E+00  0.00000000000E+00 -0.13152071916E+04  0.13152071916E+04  0.25500000920E-02 0.  1.
    10030    2    1    2    0    0  0.00000000000E+00  0.00000000000E+00 -0.55539869229E+03  0.20750156909E+04  0.19993054820E+04 0.  0.
        4    1    3    3  502    0 -0.12199262035E+03  0.77139488545E+03 -0.92532557841E+03  0.12108514804E+04  0.12699999809E+01 0.  1.
       -4    1    3    3    0  502  0.12199262035E+03 -0.77139488545E+03  0.36992688613E+03  0.86416421049E+03  0.12699999809E+01 0. -1.
</event>
<event>
 5   0  0.5251252E-06  0.2000048E+04  0.7818609E-02  0.8606598E-01
        2   -1    0    0  501    0  0.00000000000E+00  0.00000000000E+00  0.75250888236E+03  0.75250888237E+03  0.25500000920E-02 0. -1.
       -2   -1    0    0    0  501  0.00000000000E+00  0.00000000000E+00 -0.13289519761E+04  0.13289519761E+04  0.25500000920E-02 0.  1.
    10030    2    1    2    0    0  0.00000000000E+00  0.00000000000E+00 -0.57644309372E+03  0.20814608585E+04  0.20000481657E+04 0.  0.
        5    1    3    3  502    0  0.32832215146E+03  0.97014785110E+02  0.68960894016E+03  0.76992849280E+03  0.46999998093E+01 0. -1.
       -5    1    3    3    0  502 -0.32832215146E+03 -0.97014785110E+02 -0.12660520339E+04  0.13115323657E+04  0.46999998093E+01 0.  1.
</event>
<event>
 5   0  0.5129100E-06  0.2001674E+04  0.7818609E-02  0.8605838E-01
       -2   -1    0    0    0  501  0.00000000000E+00  0.00000000000E+00  0.98696637257E+03  0.98696637258E+03  0.25500000920E-02 0.  1.
        2   -1    0    0  501    0  0.00000000000E+00  0.00000000000E+00 -0.10149029619E+04  0.10149029619E+04  0.25500000920E-02 0. -1.
    10030    2    1    2    0    0  0.00000000000E+00  0.00000000000E+00 -0.27936589286E+02  0.20018693344E+04  0.20016743939E+04 0.  0.
        2    1    3    3  502    0 -0.26343581198E+03 -0.94476642830E+03  0.18528228978E+03  0.99815407528E+03  0.25500000920E-02 0.  1.
       -2    1    3    3    0  502  0.26343581198E+03  0.94476642830E+03 -0.21321887906E+03  0.10037152592E+04  0.25500000920E-02 0. -1.
</event>
<event>
 5   0  0.4956214E-06  0.2000897E+04  0.7818609E-02  0.8606201E-01
       -2   -1    0    0    0  501  0.00000000000E+00  0.00000000000E+00  0.77455167924E+03  0.77455167924E+03  0.25500000920E-02 0.  1.
        2   -1    0    0  501    0  0.00000000000E+00  0.00000000000E+00 -0.12922279187E+04  0.12922279187E+04  0.25500000920E-02 0. -1.
    10030    2    1    2    0    0  0.00000000000E+00  0.00000000000E+00 -0.51767623946E+03  0.20667795979E+04  0.20008971032E+04 0.  0.
        1    1    3    3  502    0 -0.71013308508E+03  0.66190708472E+03 -0.90336182423E+01  0.97082006243E+03  0.50400001928E-02 0.  1.
       -1    1    3    3    0  502  0.71013308508E+03 -0.66190708472E+03 -0.50864262122E+03  0.10959595355E+04  0.50400001928E-02 0. -1.
</event>
<event>
 5   0  0.5118981E-06  0.1999574E+04  0.7818609E-02  0.8606820E-01
       -2   -1    0    0    0  501  0.00000000000E+00  0.00000000000E+00  0.10875593590E+04  0.10875593590E+04  0.25500000920E-02 0.  1.
        2   -1    0    0  501    0  0.00000000000E+00  0.00000000000E+00 -0.91909856817E+03  0.91909856817E+03  0.25500000920E-02 0. -1.
    10030    2    1    2    0    0  0.00000000000E+00  0.00000000000E+00  0.16846079083E+03  0.20066579272E+04  0.19995742043E+04 0.  0.
        4    1    3    3  502    0 -0.65558838995E+02 -0.84442455186E+03 -0.44889716964E+03  0.95857241091E+03  0.12699999809E+01 0. -1.
       -4    1    3    3    0  502  0.65558838995E+02  0.84442455186E+03  0.61735796047E+03  0.10480855163E+04  0.12699999809E+01 0.  1.
</event>
<event>
 5   0  0.5118981E-06  0.2000297E+04  0.7818609E-02  0.8606482E-01
       -2   -1    0    0    0  501  0.00000000000E+00  0.00000000000E+00  0.82551558503E+03  0.82551558503E+03  0.25500000920E-02 0.  1.
        2   -1    0    0  501    0  0.00000000000E+00  0.00000000000E+00 -0.12117236557E+04  0.12117236557E+04  0.25500000920E-02 0. -1.
    10030    2    1    2    0    0  0.00000000000E+00  0.00000000000E+00 -0.38620807068E+03  0.20372392407E+04  0.20002967405E+04 0.  0.
        4    1    3    3  502    0 -0.39278968489E+03 -0.87380288185E+03 -0.48560127049E+03  0.10740695600E+04  0.12699999809E+01 0. -1.
       -4    1    3    3    0  502  0.39278968489E+03  0.87380288185E+03  0.99393199802E+02  0.96316968077E+03  0.12699999809E+01 0.  1.
</event>
<event>
 5   0  0.5251252E-06  0.2000137E+04  0.7818609E-02  0.8606557E-01
       -2   -1    0    0    0  501  0.00000000000E+00  0.00000000000E+00  0.11111794791E+04  0.11111794791E+04  0.25500000920E-02 0.  1.
        2   -1    0    0  501    0  0.00000000000E+00  0.00000000000E+00 -0.90006749759E+03  0.90006749760E+03  0.25500000920E-02 0. -1.
    10030    2    1    2    0    0  0.00000000000E+00  0.00000000000E+00  0.21111198150E+03  0.20112469767E+04  0.20001365285E+04 0.  0.
        5    1    3    3  502    0 -0.24780000743E+02  0.81373075360E+03  0.68959437713E+03  0.10669274965E+04  0.46999998093E+01 0.  1.
       -5    1    3    3    0  502  0.24780000743E+02 -0.81373075360E+03 -0.47848239563E+03  0.94431948021E+03  0.46999998093E+01 0. -1.
</event>
<event>
 5   0  0.2356996E-06  0.2000814E+04  0.7818609E-02  0.8606240E-01
       -1   -1    0    0    0  501  0.00000000000E+00  0.00000000000E+00  0.64506801516E+03  0.64506801518E+03  0.50400001928E-02 0.  1.
        1   -1    0    0  501    0  0.00000000000E+00  0.00000000000E+00 -0.15514857543E+04  0.15514857543E+04  0.50400001928E-02 0. -1.
    10030    2    1    2    0    0  0.00000000000E+00  0.00000000000E+00 -0.90641773913E+03  0.21965537695E+04  0.20008136706E+04 0.  0.
        4    1    3    3  502    0  0.67302094114E+02  0.92009140954E+03 -0.87799179499E+03  0.12735654592E+04  0.12699999809E+01 0. -1.
       -4    1    3    3    0  502 -0.67302094114E+02 -0.92009140954E+03 -0.28425944136E+02  0.92298831031E+03  0.12699999809E+01 0.  1.
</event>
<event>
 5   0  0.5251252E-06  0.1999895E+04  0.7818609E-02  0.8606670E-01
        2   -1    0    0  501    0  0.00000000000E+00  0.00000000000E+00  0.16448889684E+04  0.16448889684E+04  0.25500000920E-02 0.  1.
       -2   -1    0    0    0  501  0.00000000000E+00  0.00000000000E+00 -0.60787976680E+03  0.60787976681E+03  0.25500000920E-02 0. -1.
    10030    2    1    2    0    0  0.00000000000E+00  0.00000000000E+00  0.10370092016E+04  0.22527687352E+04  0.19998947198E+04 0.  0.
        5    1    3    3  502    0 -0.32387253859E+03 -0.60752286661E+03 -0.29837691817E+03  0.75035213733E+03  0.46999998093E+01 0. -1.
       -5    1    3    3    0  502  0.32387253859E+03  0.60752286661E+03  0.13353861198E+04  0.15024165979E+04  0.46999998093E+01 0.  1.
</event>
<event>
 5   0  0.5030137E-06  0.2000026E+04  0.7818609E-02  0.8606609E-01
        2   -1    0    0  501    0  0.00000000000E+00  0.00000000000E+00  0.86043562937E+03  0.86043562937E+03  0.25500000920E-02 0.  1.
       -2   -1    0    0    0  501  0.00000000000E+00  0.00000000000E+00 -0.11622318475E+04  0.11622318475E+04  0.25500000920E-02 0. -1.
    10030    2    1    2    0    0  0.00000000000E+00  0.00000000000E+00 -0.30179621810E+03  0.20226674768E+04  0.20000256910E+04 0.  0.
        3    1    3    3  502    0 -0.43018735575E+03 -0.85174761401E+03 -0.45343437165E+03  0.10564742773E+04  0.10100000352E+00 0.  1.
       -3    1    3    3    0  502  0.43018735575E+03  0.85174761401E+03  0.15163815354E+03  0.96619319954E+03  0.10100000352E+00 0. -1.
</event>
<event>
 5   0  0.2386776E-06  0.1997202E+04  0.7818609E-02  0.8607930E-01
       -1   -1    0    0    0  501  0.00000000000E+00  0.00000000000E+00  0.77696871284E+03  0.77696871286E+03  0.50400001928E-02 0. -1.
        1   -1    0    0  501    0  0.00000000000E+00  0.00000000000E+00 -0.12834547800E+04  0.12834547800E+04  0.50400001928E-02 0.  1.
    10030    2    1    2    0    0  0.00000000000E+00  0.00000000000E+00 -0.50648606715E+03  0.20604234929E+04  0.19972022516E+04 0.  0.
        2    1    3    3  502    0 -0.68936765300E+03 -0.29695230079E+03 -0.93272370415E+03  0.11972392986E+04  0.25500000920E-02 0.  1.
       -2    1    3    3    0  502  0.68936765300E+03  0.29695230079E+03  0.42623763699E+03  0.86318419422E+03  0.25500000920E-02 0. -1.
</event>
<event>
 5   0  0.2313821E-06  0.2000536E+04  0.7818609E-02  0.8606370E-01
       -1   -1    0    0    0  501  0.00000000000E+00  0.00000000000E+00  0.56177336651E+03  0.56177336654E+03  0.50400001928E-02 0.  1.
        1   -1    0    0  501    0  0.00000000000E+00  0.00000000000E+00 -0.17810316660E+04  0.17810316660E+04  0.50400001928E-02 0. -1.
    10030    2    1    2    0    0  0.00000000000E+00  0.00000000000E+00 -0.12192582995E+04  0.23428050325E+04  0.20005360831E+04 0.  0.
        1    1    3    3  502    0 -0.68851330031E+03 -0.69670809113E+03 -0.84699764965E+03  0.12949354221E+04  0.50400001928E-02 0. -1.
       -1    1    3    3    0  502  0.68851330031E+03  0.69670809113E+03 -0.37226064982E+03  0.10478696104E+04  0.50400001928E-02 0.  1.
</event>
<event>
 5   0  0.2379743E-06  0.2000589E+04  0.7818609E-02  0.8606345E-01
       -1   -1    0    0    0  501  0.00000000000E+00  0.00000000000E+00  0.77198245340E+03  0.77198245342E+03  0.50400001928E-02 0.  1.
        1   -1    0    0  501    0  0.00000000000E+00  0.00000000000E+00 -0.12961289290E+04  0.12961289290E+04  0.50400001928E-02 0. -1.
    10030    2    1    2    0    0  0.00000000000E+00  0.00000000000E+00 -0.52414647562E+03  0.20681113825E+04  0.20005887039E+04 0.  0.
        5    1    3    3  502    0 -0.48381742317E+02  0.95188988745E+03 -0.57584965579E+03  0.11135798431E+04  0.46999998093E+01 0. -1.
       -5    1    3    3    0  502  0.48381742317E+02 -0.95188988745E+03  0.51703180178E+02  0.95453153938E+03  0.46999998093E+01 0.  1.
</event>
<event>
 5   0  0.2379743E-06  0.2000302E+04  0.7818609E-02  0.8606480E-01
        1   -1    0    0  501    0  0.00000000000E+00  0.00000000000E+00  0.10263679759E+04  0.10263679759E+04  0.50400001928E-02 0.  1.
       -1   -1    0    0    0  501  0.00000000000E+00  0.00000000000E+00 -0.97460326170E+03  0.97460326171E+03  0.50400001928E-02 0. -1.
    10030    2    1    2    0    0  0.00000000000E+00  0.00000000000E+00  0.51764714227E+02  0.20009712376E+04  0.20003015543E+04 0.  0.
        5    1    3    3  502    0  0.76036318918E+03 -0.24787867551E+03  0.62665271054E+03  0.10160274243E+04  0.46999998093E+01 0.  1.
       -5    1    3    3    0  502 -0.76036318918E+03  0.24787867551E+03 -0.57488799631E+03  0.98494381339E+03  0.46999998093E+01 0. -1.
</event>
<event>
 5   0  0.4956214E-06  0.1999403E+04  0.7818609E-02  0.8606900E-01
        2   -1    0    0  501    0  0.00000000000E+00  0.00000000000E+00  0.65774710825E+03  0.65774710825E+03  0.25500000920E-02 0. -1.
       -2   -1    0    0    0  501  0.00000000000E+00  0.00000000000E+00 -0.15194329275E+04  0.15194329275E+04  0.25500000920E-02 0.  1.
    10030    2    1    2    0    0  0.00000000000E+00  0.00000000000E+00 -0.86168581920E+03  0.21771800357E+04  0.19994025250E+04 0.  0.
        1    1    3    3  502    0  0.22995630185E+03 -0.83141734683E+03 -0.98100697096E+03  0.13063343303E+04  0.50400001928E-02 0.  1.
       -1    1    3    3    0  502 -0.22995630185E+03  0.83141734683E+03  0.11932115176E+03  0.87084570542E+03  0.50400001928E-02 0. -1.
</event>
<event>
 5   0  0.4956214E-06  0.2001278E+04  0.7818609E-02  0.8606023E-01
       -2   -1    0    0    0  501  0.00000000000E+00  0.00000000000E+00  0.87418899992E+03  0.87418899992E+03  0.25500000920E-02 0. -1.
        2   -1    0    0  501    0  0.00000000000E+00  0.00000000000E+00 -0.11453800495E+04  0.11453800495E+04  0.25500000920E-02 0.  1.
    10030    2    1    2    0    0  0.00000000000E+00  0.00000000000E+00 -0.27119104956E+03  0.20195690494E+04  0.20012782315E+04 0.  0.
        1    1    3    3  502    0 -0.74948964863E+03 -0.23464143149E+03  0.49014205406E+03  0.92575945469E+03  0.50400001928E-02 0. -1.
       -1    1    3    3    0  502  0.74948964863E+03  0.23464143149E+03 -0.76133310362E+03  0.10938095947E+04  0.50400001928E-02 0.  1.
</event>
<event>
 5   0  0.2313821E-06  0.1999794E+04  0.7818609E-02  0.8606717E-01
        1   -1    0    0  501    0  0.00000000000E+00  0.00000000000E+00  0.79671510961E+03  0.79671510962E+03  0.50400001928E-02 0. -1.
       -1   -1    0    0    0  501  0.00000000000E+00  0.00000000000E+00 -0.12548954990E+04  0.12548954990E+04  0.50400001928E-02 0.  1.
    10030    2    1    2    0    0  0.00000000000E+00  0.00000000000E+00 -0.45818038939E+03  0.20516106086E+04  0.19997941945E+04 0.  0.
        1    1    3    3  502    0 -0.45663313246E+01 -0.17506388676E+03  0.78085952493E+03  0.80025609246E+03  0.50400001928E-02 0. -1.
       -1    1    3    3    0  502  0.45663313246E+01  0.17506388676E+03 -0.12390399143E+04  0.12513545162E+04  0.50400001928E-02 0.  1.
</event>
<event>
 5   0  0.5129100E-06  0.1999970E+04  0.7818609E-02  0.8606635E-01
       -2   -1    0    0    0  501  0.00000000000E+00  0.00000000000E+00  0.63606801546E+03  0.63606801547E+03  0.25500000920E-02 0.  1.
        2   -1    0    0  501    0  0.00000000000E+00  0.00000000000E+00 -0.15721121735E+04  0.15721121735E+04  0.25500000920E-02 0. -1.
    10030    2    1    2    0    0  0.00000000000E+00  0.00000000000E+00 -0.93604415806E+03  0.22081801890E+04  0.19999702701E+04 0.  0.
        2    1    3    3  502    0 -0.50280648158E+03 -0.39850163186E+03 -0.13149173737E+04  0.14630876967E+04  0.25500000920E-02 0. -1.
       -2    1    3    3    0  502  0.50280648158E+03  0.39850163186E+03  0.37887321567E+03  0.74509249229E+03  0.25500000920E-02 0.  1.
</event>
<event>
 5   0  0.1777750E-06  0.2000328E+04  0.7818609E-02  0.8606468E-01
       -3   -1    0    0    0  501  0.00000000000E+00  0.00000000000E+00  0.78866424073E+03  0.78866424720E+03  0.10100000352E+00 0. -1.
        3   -1    0    0  501    0  0.00000000000E+00  0.00000000000E+00 -0.12683820774E+04  0.12683820814E+04  0.10100000352E+00 0.  1.
    10030    2    1    2    0    0  0.00000000000E+00  0.00000000000E+00 -0.47971783665E+03  0.20570463286E+04  0.20003275720E+04 0.  0.
        5    1    3    3  502    0 -0.29094612832E+03  0.41732955521E+03  0.64565656201E+03  0.82201465516E+03  0.46999998093E+01 0. -1.
       -5    1    3    3    0  502  0.29094612832E+03 -0.41732955521E+03 -0.11253743987E+04  0.12350316734E+04  0.46999998093E+01 0.  1.
</event>
<event>
 5   0  0.5251252E-06  0.2001194E+04  0.7818609E-02  0.8606062E-01
       -2   -1    0    0    0  501  0.00000000000E+00  0.00000000000E+00  0.13586819293E+04  0.13586819293E+04  0.25500000920E-02 0. -1.
        2   -1    0    0  501    0  0.00000000000E+00  0.00000000000E+00 -0.73688678194E+03  0.73688678194E+03  0.25500000920E-02 0.  1.
    10030    2    1    2    0    0  0.00000000000E+00  0.00000000000E+00  0.62179514736E+03  0.20955687112E+04  0.20011943979E+04 0.  0.
        5    1    3    3  502    0 -0.28396102433E+03  0.76175323666E+03  0.92173406365E+03  0.12290311758E+04  0.46999998093E+01 0. -1.
       -5    1    3    3    0  502  0.28396102433E+03 -0.76175323666E+03 -0.29993891629E+03  0.86653753548E+03  0.46999998093E+01 0.  1.
</event>
<event>
 5   0  0.5251252E-06  0.2000694E+04  0.7818609E-02  0.8606296E-01
        2   -1    0    0  501    0  0.00000000000E+00  0.00000000000E+00  0.15414917972E+04  0.15414917972E+04  0.25500000920E-02 0.  1.
       -2   -1    0    0    0  501  0.00000000000E+00  0.00000000000E+00 -0.64917231752E+03  0.64917231752E+03  0.25500000920E-02 0. -1.
    10030    2    1    2    0    0  0.00000000000E+00  0.00000000000E+00  0.89231947966E+03  0.21906641147E+04  0.20006936821E+04 0.  0.
        5    1    3    3  502    0 -0.99986791859E+03  0.90240810530E+01  0.47816577298E+03  0.11083690203E+04  0.46999998093E+01 0. -1.
       -5    1    3    3    0  502  0.99986791859E+03 -0.90240810530E+01  0.41415370667E+03  0.10822950944E+04  0.46999998093E+01 0.  1.
</event>
<event>
 5   0  0.2313821E-06  0.1999855E+04  0.7818609E-02  0.8606689E-01
        1   -1    0    0  501    0  0.00000000000E+00  0.00000000000E+00  0.16407319214E+04  0.16407319215E+04  0.50400001928E-02 0.  1.
       -1   -1    0    0    0  501  0.00000000000E+00  0.00000000000E+00 -0.60939563053E+03  0.60939563055E+03  0.50400001928E-02 0. -1.
    10030    2    1    2    0    0  0.00000000000E+00  0.00000000000E+00  0.10313362909E+04  0.22501275520E+04  0.19998548586E+04 0.  0.
        1    1    3    3  502    0  0.27895382849E+03 -0.95654599120E+03  0.42113321442E+03  0.10817340967E+04  0.50400001928E-02 0.  1.
       -1    1    3    3    0  502 -0.27895382849E+03  0.95654599120E+03  0.61020307650E+03  0.11683934553E+04  0.50400001928E-02 0. -1.
</event>
<event>
 5   0  0.2356996E-06  0.1991969E+04  0.7818609E-02  0.8610384E-01
       -1   -1    0    0    0  501  0.00000000000E+00  0.00000000000E+00  0.57022802725E+03  0.57022802727E+03  0.50400001928E-02 0. -1.
        1   -1    0    0  501    0  0.00000000000E+00  0.00000000000E+00 -0.17396296439E+04  0.17396296439E+04  0.50400001928E-02 0.  1.
    10030    2    1    2    0    0  0.00000000000E+00  0.00000000000E+00 -0.11694016167E+04  0.23098576712E+04  0.19919694576E+04 0.  0.
        4    1    3    3  502    0  0.71802477657E+03  0.67792396392E+03 -0.73519458523E+03  0.12311186668E+04  0.12699999809E+01 0.  1.
       -4    1    3    3    0  502 -0.71802477657E+03 -0.67792396392E+03 -0.43420703145E+03  0.10787390044E+04  0.12699999809E+01 0. -1.
</event>
<event>
 5   0  0.5030137E-06  0.1999902E+04  0.7818609E-02  0.8606667E-01
        2   -1    0    0  501    0  0.00000000000E+00  0.00000000000E+00  0.19083137827E+04  0.19083137827E+04  0.25500000920E-02 0. -1.
       -2   -1    0    0    0  501  0.00000000000E+00  0.00000000000E+00 -0.52397140030E+03  0.52397140030E+03  0.25500000920E-02 0.  1.
    10030    2    1    2    0    0  0.00000000000E+00  0.00000000000E+00  0.13843423825E+04  0.24322851831E+04  0.19999018426E+04 0.  0.
        3    1    3    3  502    0  0.47289176065E+03 -0.35207984447E+03 -0.29010698788E+03  0.65707602969E+03  0.10100000352E+00 0.  1.
       -3    1    3    3    0  502 -0.47289176065E+03  0.35207984447E+03  0.16744493703E+04  0.17752091534E+04  0.10100000352E+00 0. -1.
</event>
<event>
 5   0  0.4956214E-06  0.2000904E+04  0.7818609E-02  0.8606198E-01
        2   -1    0    0  501    0  0.00000000000E+00  0.00000000000E+00  0.14197883463E+04  0.14197883463E+04  0.25500000920E-02 0. -1.
       -2   -1    0    0    0  501  0.00000000000E+00  0.00000000000E+00 -0.70496709737E+03  0.70496709738E+03  0.25500000920E-02 0.  1.
    10030    2    1    2    0    0  0.00000000000E+00  0.00000000000E+00  0.71482124890E+03  0.21247554436E+04  0.20009038651E+04 0.  0.
        1    1    3    3  502    0 -0.83956983303E+03 -0.34560562230E+03  0.80363939167E+03  0.12125003186E+04  0.50400001928E-02 0. -1.
       -1    1    3    3    0  502  0.83956983303E+03  0.34560562230E+03 -0.88818142776E+02  0.91225512506E+03  0.50400001928E-02 0.  1.
</event>
<event>
 5   0  0.5251252E-06  0.2001000E+04  0.7818609E-02  0.8606153E-01
       -2   -1    0    0    0  501  0.00000000000E+00  0.00000000000E+00  0.84666163078E+03  0.84666163078E+03  0.25500000920E-02 0.  1.
        2   -1    0    0  501    0  0.00000000000E+00  0.00000000000E+00 -0.11822907918E+04  0.11822907918E+04  0.25500000920E-02 0. -1.
    10030    2    1    2    0    0  0.00000000000E+00  0.00000000000E+00 -0.33562916102E+03  0.20289524226E+04  0.20009999998E+04 0.  0.
        5    1    3    3  502    0 -0.36074028931E+03 -0.87962456066E+03  0.14815559999E+03  0.96220844719E+03  0.46999998093E+01 0. -1.
       -5    1    3    3    0  502  0.36074028931E+03  0.87962456066E+03 -0.48378476101E+03  0.10667439754E+04  0.46999998093E+01 0.  1.
</event>
<event>
 5   0  0.2386776E-06  0.1999326E+04  0.7818609E-02  0.8606936E-01
        1   -1    0    0  501    0  0.00000000000E+00  0.00000000000E+00  0.11295636727E+04  0.11295636727E+04  0.50400001928E-02 0.  1.
       -1   -1    0    0    0  501  0.00000000000E+00  0.00000000000E+00 -0.88470121456E+03  0.88470121457E+03  0.50400001928E-02 0. -1.
    10030    2    1    2    0    0  0.00000000000E+00  0.00000000000E+00  0.24486245813E+03  0.20142648873E+04  0.19993262397E+04 0.  0.
        2    1    3    3  502    0  0.57047630451E+03 -0.75227063415E+03 -0.20861493050E+03  0.96688908890E+03  0.25500000920E-02 0.  1.
       -2    1    3    3    0  502 -0.57047630451E+03  0.75227063415E+03  0.45347738863E+03  0.10473757984E+04  0.25500000920E-02 0. -1.
</event>
<event>
 5   0  0.5030137E-06  0.2006558E+04  0.7818609E-02  0.8603561E-01
       -2   -1    0    0    0  501  0.00000000000E+00  0.00000000000E+00  0.84413496546E+03  0.84413496546E+03  0.25500000920E-02 0. -1.
        2   -1    0    0  501    0  0.00000000000E+00  0.00000000000E+00 -0.11924257533E+04  0.11924257533E+04  0.25500000920E-02 0.  1.
    10030    2    1    2    0    0  0.00000000000E+00  0.00000000000E+00 -0.34829078781E+03  0.20365607187E+04  0.20065575218E+04 0.  0.
        3    1    3    3  502    0  0.98197089053E+03 -0.60527379108E+02 -0.37364972485E+03  0.10523994111E+04  0.10100000352E+00 0.  1.
       -3    1    3    3    0  502 -0.98197089053E+03  0.60527379108E+02  0.25358937047E+02  0.98416130759E+03  0.10100000352E+00 0. -1.
</event>
<event>
 5   0  0.5118981E-06  0.1999709E+04  0.7818609E-02  0.8606757E-01
        2   -1    0    0  501    0  0.00000000000E+00  0.00000000000E+00  0.21053409687E+04  0.21053409687E+04  0.25500000920E-02 0. -1.
       -2   -1    0    0    0  501  0.00000000000E+00  0.00000000000E+00 -0.47484445727E+03  0.47484445728E+03  0.25500000920E-02 0.  1.
    10030    2    1    2    0    0  0.00000000000E+00  0.00000000000E+00  0.16304965114E+04  0.25801854260E+04  0.19997094686E+04 0.  0.
        4    1    3    3  502    0  0.60162210968E+03  0.40034872963E+03  0.17068305378E+04  0.18535102821E+04  0.12699999809E+01 0. -1.
       -4    1    3    3    0  502 -0.60162210968E+03 -0.40034872963E+03 -0.76334026430E+02  0.72667514383E+03  0.12699999809E+01 0.  1.
</event>
<event>
 5   0  0.1777750E-06  0.2000455E+04  0.7818609E-02  0.8606408E-01
       -3   -1    0    0    0  501  0.00000000000E+00  0.00000000000E+00  0.81790848528E+03  0.81790849152E+03  0.10100000352E+00 0. -1.
        3   -1    0    0  501    0  0.00000000000E+00  0.00000000000E+00 -0.12231865319E+04  0.12231865361E+04  0.10100000352E+00 0.  1.
    10030    2    1    2    0    0  0.00000000000E+00  0.00000000000E+00 -0.40527804665E+03  0.20410950276E+04  0.20004546025E+04 0.  0.
        4    1    3    3  502    0  0.36798841989E+03 -0.54384244155E+03 -0.97246897391E+03  0.11734042767E+04  0.12699999809E+01 0.  1.
       -4    1    3    3    0  502 -0.36798841989E+03  0.54384244155E+03  0.56719092725E+03  0.86769075094E+03  0.12699999809E+01 0. -1.
</event>
<event>
 5   0  0.5030137E-06  0.2000671E+04  0.7818609E-02  0.8606307E-01
       -2   -1    0    0    0  501  0.00000000000E+00  0.00000000000E+00  0.46832087926E+03  0.46832087926E+03  0.25500000920E-02 0. -1.
        2   -1    0    0  501    0  0.00000000000E+00  0.00000000000E+00 -0.21367201664E+04  0.21367201664E+04  0.25500000920E-02 0.  1.
    10030    2    1    2    0    0  0.00000000000E+00  0.00000000000E+00 -0.16683992871E+04  0.26050410456E+04  0.20006705546E+04 0.  0.
        3    1    3    3  502    0 -0.35524716927E+03 -0.54977512664E+03  0.15076247059E+03  0.67170125345E+03  0.10100000352E+00 0. -1.
       -3    1    3    3    0  502  0.35524716927E+03  0.54977512664E+03 -0.18191617577E+04  0.19333397922E+04  0.10100000352E+00 0.  1.
</event>
<event>
 5   0  0.5118981E-06  0.1998422E+04  0.7818609E-02  0.8607359E-01
       -2   -1    0    0    0  501  0.00000000000E+00  0.00000000000E+00  0.42808811135E+03  0.42808811136E+03  0.25500000920E-02 0. -1.
        2   -1    0    0  501    0  0.00000000000E+00  0.00000000000E+00 -0.23322833494E+04  0.23322833494E+04  0.25500000920E-02 0.  1.
    10030    2    1    2    0    0  0.00000000000E+00  0.00000000000E+00 -0.19041952381E+04  0.27603714608E+04  0.19984221518E+04 0.  0.
        4    1    3    3  502    0  0.54713552180E+03  0.36611083346E+03 -0.19903783499E+04  0.20964260088E+04  0.12699999809E+01 0.  1.
       -4    1    3    3    0  502 -0.54713552180E+03 -0.36611083346E+03  0.86183111829E+02  0.66394545201E+03  0.12699999809E+01 0. -1.
</event>
<event>
 5   0  0.4956214E-06  0.2002947E+04  0.7818609E-02  0.8605244E-01
        2   -1    0    0  501    0  0.00000000000E+00  0.00000000000E+00  0.79781272768E+03  0.79781272769E+03  0.25500000920E-02 0. -1.
       -2   -1    0    0    0  501  0.00000000000E+00  0.00000000000E+00 -0.12571233915E+04  0.12571233915E+04  0.25500000920E-02 0.  1.
    10030    2    1    2    0    0  0.00000000000E+00  0.00000000000E+00 -0.45931066381E+03  0.20549361192E+04  0.20029468710E+04 0.  0.
        1    1    3    3  502    0  0.91784250036E+03  0.39286658181E+03 -0.31024376730E+03  0.10454808471E+04  0.50400001928E-02 0.  1.
       -1    1    3    3    0  502 -0.91784250036E+03 -0.39286658181E+03 -0.14906689651E+03  0.10094552720E+04  0.50400001928E-02 0. -1.
</event>
<event>
 5   0  0.2356996E-06  0.2000831E+04  0.7818609E-02  0.8606232E-01
       -1   -1    0    0    0  501  0.00000000000E+00  0.00000000000E+00  0.46093093657E+03  0.46093093660E+03  0.50400001928E-02 0.  1.
        1   -1    0    0  501    0  0.00000000000E+00  0.00000000000E+00 -0.21713266662E+04  0.21713266662E+04  0.50400001928E-02 0. -1.
    10030    2    1    2    0    0  0.00000000000E+00  0.00000000000E+00 -0.17103957296E+04  0.26322576028E+04  0.20008314611E+04 0.  0.
        4    1    3    3  502    0  0.24942651494E+03  0.81037998618E+03 -0.15669857642E+03  0.86225597424E+03  0.12699999809E+01 0.  1.
       -4    1    3    3    0  502 -0.24942651494E+03 -0.81037998618E+03 -0.15536971532E+04  0.17700016285E+04  0.12699999809E+01 0. -1.
</event>
<event>
 5   0  0.5030137E-06  0.2000597E+04  0.7818609E-02  0.8606342E-01
        2   -1    0    0  501    0  0.00000000000E+00  0.00000000000E+00  0.23768156154E+04  0.23768156154E+04  0.25500000920E-02 0. -1.
       -2   -1    0    0    0  501  0.00000000000E+00  0.00000000000E+00 -0.42098201907E+03  0.42098201908E+03  0.25500000920E-02 0.  1.
    10030    2    1    2    0    0  0.00000000000E+00  0.00000000000E+00  0.19558335963E+04  0.27977976345E+04  0.20005965478E+04 0.  0.
        3    1    3    3  502    0 -0.41394281416E+03  0.81019125314E+03  0.15593188143E+04  0.18053347875E+04  0.10100000352E+00 0. -1.
       -3    1    3    3    0  502  0.41394281416E+03 -0.81019125314E+03  0.39651478198E+03  0.99246284696E+03  0.10100000352E+00 0.  1.
</event>
<event>
 5   0  0.5251252E-06  0.2000403E+04  0.7818609E-02  0.8606432E-01
        2   -1    0    0  501    0  0.00000000000E+00  0.00000000000E+00  0.10748925201E+04  0.10748925201E+04  0.25500000920E-02 0.  1.
       -2   -1    0    0    0  501  0.00000000000E+00  0.00000000000E+00 -0.93070090569E+03  0.93070090570E+03  0.25500000920E-02 0. -1.
    10030    2    1    2    0    0  0.00000000000E+00  0.00000000000E+00  0.14419161444E+03  0.20055934258E+04  0.20004034013E+04 0.  0.
        5    1    3    3  502    0  0.35565900771E+03 -0.21004136437E+02  0.10091043581E+04  0.10701626974E+04  0.46999998093E+01 0.  1.
       -5    1    3    3    0  502 -0.35565900771E+03  0.21004136437E+02 -0.86491274364E+03  0.93543072839E+03  0.46999998093E+01 0. -1.
</event>
<event>
 5   0  0.2311520E-06  0.1999073E+04  0.7818609E-02  0.8607054E-01
       -1   -1    0    0    0  501  0.00000000000E+00  0.00000000000E+00  0.69224426036E+03  0.69224426038E+03  0.50400001928E-02 0. -1.
        1   -1    0    0  501    0  0.00000000000E+00  0.00000000000E+00 -0.14432374050E+04  0.14432374050E+04  0.50400001928E-02 0.  1.
    10030    2    1    2    0    0  0.00000000000E+00  0.00000000000E+00 -0.75099314466E+03  0.21354816654E+04  0.19990725950E+04 0.  0.
        3    1    3    3  502    0 -0.19309211512E+03  0.76912006637E+03  0.27449907838E+03  0.83915433363E+03  0.10100000352E+00 0. -1.
       -3    1    3    3    0  502  0.19309211512E+03 -0.76912006637E+03 -0.10254922230E+04  0.12963273318E+04  0.10100000352E+00 0.  1.
</event>
<event>
 5   0  0.2356996E-06  0.2000146E+04  0.7818609E-02  0.8606553E-01
        1   -1    0    0  501    0  0.00000000000E+00  0.00000000000E+00  0.14962615279E+04  0.14962615279E+04  0.50400001928E-02 0. -1.
       -1   -1    0    0    0  501  0.00000000000E+00  0.00000000000E+00 -0.66842961712E+03  0.66842961714E+03  0.50400001928E-02 0.  1.
    10030    2    1    2    0    0  0.00000000000E+00  0.00000000000E+00  0.82783191074E+03  0.21646911450E+04  0.20001455149E+04 0.  0.
        4    1    3    3  502    0  0.16290465893E+03 -0.12244634252E+03  0.14735501782E+04  0.14875761410E+04  0.12699999809E+01 0. -1.
       -4    1    3    3    0  502 -0.16290465893E+03  0.12244634252E+03 -0.64571826751E+03  0.67711500396E+03  0.12699999809E+01 0.  1.
</event>
<event>
 5   0  0.5118981E-06  0.1999762E+04  0.7818609E-02  0.8606732E-01
        2   -1    0    0  501    0  0.00000000000E+00  0.00000000000E+00  0.22059399076E+04  0.22059399076E+04  0.25500000920E-02 0.  1.
       -2   -1    0    0    0  501  0.00000000000E+00  0.00000000000E+00 -0.45321373774E+03  0.45321373775E+03  0.25500000920E-02 0. -1.
    10030    2    1    2    0    0  0.00000000000E+00  0.00000000000E+00  0.17527261698E+04  0.26591536453E+04  0.19997622566E+04 0.  0.
        4    1    3    3  502    0 -0.69715279809E+03 -0.45880781825E+02  0.18275033952E+04  0.19565013014E+04  0.12699999809E+01 0.  1.
       -4    1    3    3    0  502  0.69715279809E+03  0.45880781825E+02 -0.74777225406E+02  0.70265234388E+03  0.12699999809E+01 0. -1.
</event>
<event>
 5   0  0.2311520E-06  0.2000114E+04  0.7818609E-02  0.8606567E-01
       -1   -1    0    0    0  501  0.00000000000E+00  0.00000000000E+00  0.75203314965E+03  0.75203314966E+03  0.50400001928E-02 0. -1.
        1   -1    0    0  501    0  0.00000000000E+00  0.00000000000E+00 -0.13298799502E+04  0.13298799502E+04  0.50400001928E-02 0.  1.
    10030    2    1    2    0    0  0.00000000000E+00  0.00000000000E+00 -0.57784680056E+03  0.20819130999E+04  0.20001138044E+04 0.  0.
        3    1    3    3  502    0  0.94173393957E+02  0.93568386555E+03  0.65197261874E+02  0.94266834970E+03  0.10100000352E+00 0. -1.
       -3    1    3    3    0  502 -0.94173393957E+02 -0.93568386555E+03 -0.64304406244E+03  0.11392447502E+04  0.10100000352E+00 0.  1.
</event>
<event>
 5   0  0.5251252E-06  0.2002245E+04  0.7818609E-02  0.8605572E-01
        2   -1    0    0  501    0  0.00000000000E+00  0.00000000000E+00  0.23671943857E+04  0.23671943857E+04  0.25500000920E-02 0.  1.
       -2   -1    0    0    0  501  0.00000000000E+00  0.00000000000E+00 -0.42338998456E+03  0.42338998457E+03  0.25500000920E-02 0. -1.
    10030    2    1    2    0    0  0.00000000000E+00  0.00000000000E+00  0.19438044012E+04  0.27905843703E+04  0.20022451343E+04 0.  0.
        5    1    3    3  502    0 -0.49061444224E+03 -0.34803364781E+03  0.20872277669E+04  0.21721813441E+04  0.46999998093E+01 0.  1.
       -5    1    3    3    0  502  0.49061444224E+03  0.34803364781E+03 -0.14342336572E+03  0.61840302617E+03  0.46999998093E+01 0. -1.
</event>
<event>
 5   0  0.5129100E-06  0.1999632E+04  0.7818609E-02  0.8606793E-01
        2   -1    0    0  501    0  0.00000000000E+00  0.00000000000E+00  0.10444698632E+04  0.10444698632E+04  0.25500000920E-02 0. -1.
       -2   -1    0    0    0  501  0.00000000000E+00  0.00000000000E+00 -0.95707122348E+03  0.95707122348E+03  0.25500000920E-02 0.  1.
    10030    2    1    2    0    0  0.00000000000E+00  0.00000000000E+00  0.87398639759E+02  0.20015410867E+04  0.19996320160E+04 0.  0.
        2    1    3    3  502    0  0.77533502862E+03 -0.36612273353E+03  0.55842930664E+03  0.10232465749E+04  0.25500000920E-02 0. -1.
       -2    1    3    3    0  502 -0.77533502862E+03  0.36612273353E+03 -0.47103066689E+03  0.97829451177E+03  0.25500000920E-02 0.  1.
</event>
<event>
 5   0  0.5251252E-06  0.1999891E+04  0.7818609E-02  0.8606672E-01
        2   -1    0    0  501    0  0.00000000000E+00  0.00000000000E+00  0.90586177755E+03  0.90586177755E+03  0.25500000920E-02 0.  1.
       -2   -1    0    0    0  501  0.00000000000E+00  0.00000000000E+00 -0.11038006687E+04  0.11038006687E+04  0.25500000920E-02 0. -1.
    10030    2    1    2    0    0  0.00000000000E+00  0.00000000000E+00 -0.19793889117E+03  0.20096624463E+04  0.19998908329E+04 0.  0.
        5    1    3    3  502    0  0.45748181022E+03 -0.88906245008E+03 -0.86781747523E+02  0.10036308129E+04  0.46999998093E+01 0. -1.
       -5    1    3    3    0  502 -0.45748181022E+03  0.88906245008E+03 -0.11115714365E+03  0.10060316334E+04  0.46999998093E+01 0.  1.
</event>
<event>
 5   0  0.2379743E-06  0.2009302E+04  0.7818609E-02  0.8602284E-01
       -1   -1    0    0    0  501  0.00000000000E+00  0.00000000000E+00  0.65768681552E+03  0.65768681554E+03  0.50400001928E-02 0. -1.
        1   -1    0    0  501    0  0.00000000000E+00  0.00000000000E+00 -0.15346567064E+04  0.15346567064E+04  0.50400001928E-02 0.  1.
    10030    2    1    2    0    0  0.00000000000E+00  0.00000000000E+00 -0.87696989090E+03  0.21923435220E+04  0.20093018511E+04 0.  0.
        5    1    3    3  502    0 -0.25095143027E+03  0.43192501472E+03 -0.13895346629E+04  0.14766057389E+04  0.46999998093E+01 0.  1.
       -5    1    3    3    0  502  0.25095143027E+03 -0.43192501472E+03  0.51256477198E+03  0.71573778311E+03  0.46999998093E+01 0. -1.
</event>
<event>
 5   0  0.2356996E-06  0.1999802E+04  0.7818609E-02  0.8606713E-01
       -1   -1    0    0    0  501  0.00000000000E+00  0.00000000000E+00  0.38981716512E+03  0.38981716515E+03  0.50400001928E-02 0. -1.
        1   -1    0    0  501    0  0.00000000000E+00  0.00000000000E+00 -0.25647970591E+04  0.25647970591E+04  0.50400001928E-02 0.  1.
    10030    2    1    2    0    0  0.00000000000E+00  0.00000000000E+00 -0.21749798940E+04  0.29546142243E+04  0.19998019089E+04 0.  0.
        4    1    3    3  502    0  0.29930944221E+03 -0.33935427514E+03  0.22989228668E+03  0.50754265103E+03  0.12699999809E+01 0. -1.
       -4    1    3    3    0  502 -0.29930944221E+03  0.33935427514E+03 -0.24048721807E+04  0.24470715732E+04  0.12699999809E+01 0.  1.
</event>
<event>
 5   0  0.5030137E-06  0.2000390E+04  0.7818609E-02  0.8606438E-01
       -2   -1    0    0    0  501  0.00000000000E+00  0.00000000000E+00  0.50670016231E+03  0.50670016232E+03  0.25500000920E-02 0.  1.
        2   -1    0    0  501    0  0.00000000000E+00  0.00000000000E+00 -0.19743239993E+04  0.19743239993E+04  0.25500000920E-02 0. -1.
    10030    2    1    2    0    0  0.00000000000E+00  0.00000000000E+00 -0.14676238370E+04  0.24810241616E+04  0.20003902528E+04 0.  0.
        3    1    3    3  502    0  0.39143523104E+03  0.65427563082E+03 -0.15367295995E+04  0.17154696189E+04  0.10100000352E+00 0. -1.
       -3    1    3    3    0  502 -0.39143523104E+03 -0.65427563082E+03  0.69105762568E+02  0.76555454267E+03  0.10100000352E+00 0.  1.
</event>
<event>
 5   0  0.2386776E-06  0.2000784E+04  0.7818609E-02  0.8606254E-01
        1   -1    0    0  501    0  0.00000000000E+00  0.00000000000E+00  0.13744915204E+04  0.13744915204E+04  0.50400001928E-02 0.  1.
       -1   -1    0    0    0  501  0.00000000000E+00  0.00000000000E+00 -0.72811221029E+03  0.72811221031E+03  0.50400001928E-02 0. -1.
    10030    2    1    2    0    0  0.00000000000E+00  0.00000000000E+00  0.64637931009E+03  0.21026037307E+04  0.20007839053E+04 0.  0.
        2    1    3    3  502    0  0.24884722293E+03 -0.34371453180E+02  0.13408059305E+04  0.13641359465E+04  0.25500000920E-02 0.  1.
       -2    1    3    3    0  502 -0.24884722293E+03  0.34371453180E+02 -0.69442662043E+03  0.73846778422E+03  0.25500000920E-02 0. -1.
</event>
<event>
 5   0  0.5118981E-06  0.1999878E+04  0.7818609E-02  0.8606678E-01
        2   -1    0    0  501    0  0.00000000000E+00  0.00000000000E+00  0.17027923421E+04  0.17027923421E+04  0.25500000920E-02 0.  1.
       -2   -1    0    0    0  501  0.00000000000E+00  0.00000000000E+00 -0.58719919035E+03  0.58719919036E+03  0.25500000920E-02 0. -1.
    10030    2    1    2    0    0  0.00000000000E+00  0.00000000000E+00  0.11155931518E+04  0.22899915325E+04  0.19998782809E+04 0.  0.
        4    1    3    3  502    0  0.51903526707E+03 -0.76226337989E+03  0.11515271380E+03  0.92935721291E+03  0.12699999809E+01 0. -1.
       -4    1    3    3    0  502 -0.51903526707E+03  0.76226337989E+03  0.10004404380E+04  0.13606343196E+04  0.12699999809E+01 0.  1.
</event>
<event>
 5   0  0.2356996E-06  0.1998750E+04  0.7818609E-02  0.8607205E-01
       -1   -1    0    0    0  501  0.00000000000E+00  0.00000000000E+00  0.39657710914E+03  0.39657710917E+03  0.50400001928E-02 0.  1.
        1   -1    0    0  501    0  0.00000000000E+00  0.00000000000E+00 -0.25184270852E+04  0.25184270852E+04  0.50400001928E-02 0. -1.
    10030    2    1    2    0    0  0.00000000000E+00  0.00000000000E+00 -0.21218499760E+04  0.29150041943E+04  0.19987501425E+04 0.  0.
        4    1    3    3  502    0 -0.97256811924E+03  0.41204586014E+02 -0.73104502090E+03  0.12173803842E+04  0.12699999809E+01 0.  1.
       -4    1    3    3    0  502  0.97256811924E+03 -0.41204586014E+02 -0.13908049551E+04  0.16976238101E+04  0.12699999809E+01 0. -1.
</event>
<event>
 5   0  0.2313821E-06  0.2001309E+04  0.7818609E-02  0.8606009E-01
       -1   -1    0    0    0  501  0.00000000000E+00  0.00000000000E+00  0.86510621556E+03  0.86510621557E+03  0.50400001928E-02 0. -1.
        1   -1    0    0  501    0  0.00000000000E+00  0.00000000000E+00 -0.11574409881E+04  0.11574409881E+04  0.50400001928E-02 0.  1.
    10030    2    1    2    0    0  0.00000000000E+00  0.00000000000E+00 -0.29233477252E+03  0.20225472037E+04  0.20013089646E+04 0.  0.
        1    1    3    3  502    0 -0.23069620738E+03 -0.42861294537E+02 -0.11292450536E+04  0.11533656063E+04  0.50400001928E-02 0.  1.
       -1    1    3    3    0  502  0.23069620738E+03  0.42861294537E+02  0.83691028106E+03  0.86918159739E+03  0.50400001928E-02 0. -1.
</event>
<event>
 5   0  0.2379743E-06  0.2004178E+04  0.7818609E-02  0.8604670E-01
        1   -1    0    0  501    0  0.00000000000E+00  0.00000000000E+00  0.12957401151E+04  0.12957401151E+04  0.50400001928E-02 0. -1.
       -1   -1    0    0    0  501  0.00000000000E+00  0.00000000000E+00 -0.77498767358E+03  0.77498767360E+03  0.50400001928E-02 0.  1.
    10030    2    1    2    0    0  0.00000000000E+00  0.00000000000E+00  0.52075244154E+03  0.20707277887E+04  0.20041782530E+04 0.  0.
        5    1    3    3  502    0  0.72856454720E+03 -0.65037590178E+03  0.28501784024E+02  0.97705145962E+03  0.46999998093E+01 0.  1.
       -5    1    3    3    0  502 -0.72856454720E+03  0.65037590178E+03  0.49225065751E+03  0.10936763291E+04  0.46999998093E+01 0. -1.
</event>
<event>
 5   0  0.2311520E-06  0.2002235E+04  0.7818609E-02  0.8605577E-01
        1   -1    0    0  501    0  0.00000000000E+00  0.00000000000E+00  0.12994533015E+04  0.12994533015E+04  0.50400001928E-02 0. -1.
       -1   -1    0    0    0  501  0.00000000000E+00  0.00000000000E+00 -0.77127495899E+03  0.77127495900E+03  0.50400001928E-02 0.  1.
    10030    2    1    2    0    0  0.00000000000E+00  0.00000000000E+00  0.52817834249E+03  0.20707282605E+04  0.20022345435E+04 0.  0.
        3    1    3    3  502    0  0.36585126780E+03  0.28633232360E+03 -0.65304016360E+03  0.80143297609E+03  0.10100000352E+00 0.  1.
       -3    1    3    3    0  502 -0.36585126780E+03 -0.28633232360E+03  0.11812185061E+04  0.12692952844E+04  0.10100000352E+00 0. -1.
</event>
<event>
 5   0  0.5129100E-06  0.1999682E+04  0.7818609E-02  0.8606769E-01
        2   -1    0    0  501    0  0.00000000000E+00  0.00000000000E+00  0.21203262279E+04  0.21203262279E+04  0.25500000920E-02 0.  1.
       -2   -1    0    0    0  501  0.00000000000E+00  0.00000000000E+00 -0.47147548081E+03  0.47147548081E+03  0.25500000920E-02 0. -1.
    10030    2    1    2    0    0  0.00000000000E+00  0.00000000000E+00  0.16488507471E+04  0.25918017087E+04  0.19996818024E+04 0.  0.
        2    1    3    3  502    0  0.70586879499E+03  0.30348264103E+03 -0.48090546993E+01  0.76835902817E+03  0.25500000920E-02 0. -1.
       -2    1    3    3    0  502 -0.70586879499E+03 -0.30348264103E+03  0.16536598018E+04  0.18234426805E+04  0.25500000920E-02 0.  1.
</event>
<event>
 5   0  0.2356996E-06  0.2000599E+04  0.7818609E-02  0.8606341E-01
        1   -1    0    0  501    0  0.00000000000E+00  0.00000000000E+00  0.82848357090E+03  0.82848357092E+03  0.50400001928E-02 0.  1.
       -1   -1    0    0    0  501  0.00000000000E+00  0.00000000000E+00 -0.12077471184E+04  0.12077471184E+04  0.50400001928E-02 0. -1.
    10030    2    1    2    0    0  0.00000000000E+00  0.00000000000E+00 -0.37926354753E+03  0.20362306894E+04  0.20005985559E+04 0.  0.
        4    1    3    3  502    0 -0.68948092494E+03  0.72230413396E+03 -0.24975867705E+03  0.10293144405E+04  0.12699999809E+01 0.  1.
       -4    1    3    3    0  502  0.68948092494E+03 -0.72230413396E+03 -0.12950487048E+03  0.10069162488E+04  0.12699999809E+01 0. -1.
</event>
<event>
 5   0  0.5251252E-06  0.1999957E+04  0.7818609E-02  0.8606641E-01
       -2   -1    0    0    0  501  0.00000000000E+00  0.00000000000E+00  0.61586619707E+03  0.61586619707E+03  0.25500000920E-02 0.  1.
        2   -1    0    0  501    0  0.00000000000E+00  0.00000000000E+00 -0.16236595045E+04  0.16236595045E+04  0.25500000920E-02 0. -1.
    10030    2    1    2    0    0  0.00000000000E+00  0.00000000000E+00 -0.10077933075E+04  0.22395257016E+04  0.19999570039E+04 0.  0.
        5    1    3    3  502    0  0.71821777096E+03  0.22737309050E+03  0.23244275841E+03  0.78840789871E+03  0.46999998093E+01 0.  1.
       -5    1    3    3    0  502 -0.71821777096E+03 -0.22737309050E+03 -0.12402360659E+04  0.14511178029E+04  0.46999998093E+01 0. -1.
</event>
<event>
 5   0  0.5118981E-06  0.1999583E+04  0.7818609E-02  0.8606816E-01
       -2   -1    0    0    0  501  0.00000000000E+00  0.00000000000E+00  0.87806928754E+03  0.87806928755E+03  0.25500000920E-02 0. -1.
        2   -1    0    0  501    0  0.00000000000E+00  0.00000000000E+00 -0.11383874882E+04  0.11383874882E+04  0.25500000920E-02 0.  1.
    10030    2    1    2    0    0  0.00000000000E+00  0.00000000000E+00 -0.26031820070E+03  0.20164567758E+04  0.19995830473E+04 0.  0.
        4    1    3    3  502    0  0.95938817050E+03 -0.25987679662E+03 -0.21453969099E+02  0.99419489880E+03  0.12699999809E+01 0.  1.
       -4    1    3    3    0  502 -0.95938817050E+03  0.25987679662E+03 -0.23886423160E+03  0.10222618770E+04  0.12699999809E+01 0. -1.
</event>
<event>
 5   0  0.2313821E-06  0.1998362E+04  0.7818609E-02  0.8607387E-01
       -1   -1    0    0    0  501  0.00000000000E+00  0.00000000000E+00  0.66574349902E+03  0.66574349904E+03  0.50400001928E-02 0.  1.
        1   -1    0    0  501    0  0.00000000000E+00  0.00000000000E+00 -0.14996205131E+04  0.14996205131E+04  0.50400001928E-02 0. -1.
    10030    2    1    2    0    0  0.00000000000E+00  0.00000000000E+00 -0.83387701409E+03  0.21653640122E+04  0.19983619368E+04 0.  0.
        1    1    3    3  502    0 -0.74516546777E+03  0.39436054528E+03  0.16413242911E+03  0.85891284094E+03  0.50400001928E-02 0.  1.
       -1    1    3    3    0  502  0.74516546777E+03 -0.39436054528E+03 -0.99800944320E+03  0.13064511712E+04  0.50400001928E-02 0. -1.
</event>
<event>
 5   0  0.5251252E-06  0.1999558E+04  0.7818609E-02  0.8606827E-01
        2   -1    0    0  501    0  0.00000000000E+00  0.00000000000E+00  0.10733505348E+04  0.10733505348E+04  0.25500000920E-02 0. -1.
       -2   -1    0    0    0  501  0.00000000000E+00  0.00000000000E+00 -0.93125080151E+03  0.93125080151E+03  0.25500000920E-02 0.  1.
    10030    2    1    2    0    0  0.00000000000E+00  0.00000000000E+00  0.14209973334E+03  0.20046013364E+04  0.19995584971E+04 0.  0.
        5    1    3    3  502    0  0.84619938613E+03 -0.50307255245E+03 -0.10374886512E+03  0.98990974899E+03  0.46999998093E+01 0. -1.
       -5    1    3    3    0  502 -0.84619938613E+03  0.50307255245E+03  0.24584859846E+03  0.10146915874E+04  0.46999998093E+01 0.  1.
</event>
<event>
 5   0  0.4956214E-06  0.2009838E+04  0.7818609E-02  0.8602035E-01
        2   -1    0    0  501    0  0.00000000000E+00  0.00000000000E+00  0.17278047793E+04  0.17278047793E+04  0.25500000920E-02 0. -1.
       -2   -1    0    0    0  501  0.00000000000E+00  0.00000000000E+00 -0.58447690395E+03  0.58447690396E+03  0.25500000920E-02 0.  1.
    10030    2    1    2    0    0  0.00000000000E+00  0.00000000000E+00  0.11433278753E+04  0.23122816832E+04  0.20098377925E+04 0.  0.
        1    1    3    3  502    0  0.85772494555E+03  0.50610125441E+03  0.41717593137E+03  0.10797528975E+04  0.50400001928E-02 0. -1.
       -1    1    3    3    0  502 -0.85772494555E+03 -0.50610125441E+03  0.72615194395E+03  0.12325287857E+04  0.50400001928E-02 0.  1.
</event>
<event>
 5   0  0.5030137E-06  0.1999550E+04  0.7818609E-02  0.8606831E-01
       -2   -1    0    0    0  501  0.00000000000E+00  0.00000000000E+00  0.77861408247E+03  0.77861408247E+03  0.25500000920E-02 0.  1.
        2   -1    0    0  501    0  0.00000000000E+00  0.00000000000E+00 -0.12837548058E+04  0.12837548058E+04  0.25500000920E-02 0. -1.
    10030    2    1    2    0    0  0.00000000000E+00  0.00000000000E+00 -0.50514072335E+03  0.20623688883E+04  0.19995495195E+04 0.  0.
        3    1    3    3  502    0  0.80621306321E+03 -0.27555673079E+03 -0.79210933433E+03  0.11633349573E+04  0.10100000352E+00 0. -1.
       -3    1    3    3    0  502 -0.80621306321E+03  0.27555673079E+03  0.28696861098E+03  0.89903393098E+03  0.10100000352E+00 0.  1.
</event>
<event>
 5   0  0.2313821E-06  0.2011541E+04  0.7818609E-02  0.8601244E-01
        1   -1    0    0  501    0  0.00000000000E+00  0.00000000000E+00  0.19265155332E+04  0.19265155332E+04  0.50400001928E-02 0.  1.
       -1   -1    0    0    0  501  0.00000000000E+00  0.00000000000E+00 -0.52507970665E+03  0.52507970667E+03  0.50400001928E-02 0. -1.
    10030    2    1    2    0    0  0.00000000000E+00  0.00000000000E+00  0.14014358266E+04  0.24515952399E+04  0.20115409129E+04 0.  0.
        1    1    3    3  502    0  0.90225787601E+03 -0.38372944571E+03  0.42749528686E+03  0.10696119776E+04  0.50400001928E-02 0. -1.
       -1    1    3    3    0  502 -0.90225787601E+03  0.38372944571E+03  0.97394053971E+03  0.13819832623E+04  0.50400001928E-02 0.  1.
</event>
<event>
 5   0  0.2386776E-06  0.1998933E+04  0.7818609E-02  0.8607120E-01
       -1   -1    0    0    0  501  0.00000000000E+00  0.00000000000E+00  0.70033778213E+03  0.70033778215E+03  0.50400001928E-02 0.  1.
        1   -1    0    0  501    0  0.00000000000E+00  0.00000000000E+00 -0.14263590241E+04  0.14263590241E+04  0.50400001928E-02 0. -1.
    10030    2    1    2    0    0  0.00000000000E+00  0.00000000000E+00 -0.72602124198E+03  0.21266968063E+04  0.19989328308E+04 0.  0.
        2    1    3    3  502    0 -0.66776619753E+02  0.24685713481E+03 -0.13909625580E+04  0.14142752206E+04  0.25500000920E-02 0. -1.
       -2    1    3    3    0  502  0.66776619753E+02 -0.24685713481E+03  0.66494131601E+03  0.71242158564E+03  0.25500000920E-02 0.  1.
</event>
<event>
 5   0  0.4956214E-06  0.1999357E+04  0.7818609E-02  0.8606921E-01
        2   -1    0    0  501    0  0.00000000000E+00  0.00000000000E+00  0.59431319306E+03  0.59431319307E+03  0.25500000920E-02 0. -1.
       -2   -1    0    0    0  501  0.00000000000E+00  0.00000000000E+00 -0.16815324358E+04  0.16815324358E+04  0.25500000920E-02 0.  1.
    10030    2    1    2    0    0  0.00000000000E+00  0.00000000000E+00 -0.10872192428E+04  0.22758456289E+04  0.19993568078E+04 0.  0.
        1    1    3    3  502    0 -0.49241932445E+02  0.85486517180E+03  0.43616923402E+02  0.85739236403E+03  0.50400001928E-02 0. -1.
       -1    1    3    3    0  502  0.49241932445E+02 -0.85486517180E+03 -0.11308361662E+04  0.14184532649E+04  0.50400001928E-02 0.  1.
</event>
<event>
 5   0  0.5030137E-06  0.1999322E+04  0.7818609E-02  0.8606938E-01
        2   -1    0    0  501    0  0.00000000000E+00  0.00000000000E+00  0.10827275087E+04  0.10827275087E+04  0.25500000920E-02 0.  1.
       -2   -1    0    0    0  501  0.00000000000E+00  0.00000000000E+00 -0.92296723980E+03  0.92296723980E+03  0.25500000920E-02 0. -1.
    10030    2    1    2    0    0  0.00000000000E+00  0.00000000000E+00  0.15976026889E+03  0.20056947485E+04  0.19993219052E+04 0.  0.
        3    1    3    3  502    0  0.87993871575E+03  0.32343762910E+03  0.42799915883E+03  0.10305762143E+04  0.10100000352E+00 0.  1.
       -3    1    3    3    0  502 -0.87993871575E+03 -0.32343762910E+03 -0.26823888994E+03  0.97511853416E+03  0.10100000352E+00 0. -1.
</event>
<event>
 5   0  0.2379743E-06  0.2000341E+04  0.7818609E-02  0.8606461E-01
       -1   -1    0    0    0  501  0.00000000000E+00  0.00000000000E+00  0.72729013859E+03  0.72729013861E+03  0.50400001928E-02 0.  1.
        1   -1    0    0  501    0  0.00000000000E+00  0.00000000000E+00 -0.13754357036E+04  0.13754357036E+04  0.50400001928E-02 0. -1.
    10030    2    1    2    0    0  0.00000000000E+00  0.00000000000E+00 -0.64814556496E+03  0.21027258422E+04  0.20003407945E+04 0.  0.
        5    1    3    3  502    0  0.67533073333E+03 -0.38897773712E+03 -0.98300947163E+03  0.12544739896E+04  0.46999998093E+01 0. -1.
       -5    1    3    3    0  502 -0.67533073333E+03  0.38897773712E+03  0.33486390667E+03  0.84825185254E+03  0.46999998093E+01 0.  1.
</event>
<event>
 5   0  0.5030137E-06  0.1999172E+04  0.7818609E-02  0.8607008E-01
       -2   -1    0    0    0  501  0.00000000000E+00  0.00000000000E+00  0.60605823228E+03  0.60605823228E+03  0.25500000920E-02 0.  1.
        2   -1    0    0  501    0  0.00000000000E+00  0.00000000000E+00 -0.16486397570E+04  0.16486397570E+04  0.25500000920E-02 0. -1.
    10030    2    1    2    0    0  0.00000000000E+00  0.00000000000E+00 -0.10425815247E+04  0.22546979892E+04  0.19991715252E+04 0.  0.
        3    1    3    3  502    0 -0.42389960576E+03 -0.68406984098E+03 -0.11899718840E+04  0.14365498662E+04  0.10100000352E+00 0. -1.
       -3    1    3    3    0  502  0.42389960576E+03  0.68406984098E+03  0.14739035929E+03  0.81814812309E+03  0.10100000352E+00 0.  1.
</event>
<event>
 5   0  0.2356996E-06  0.1999641E+04  0.7818609E-02  0.8606789E-01
       -1   -1    0    0    0  501  0.00000000000E+00  0.00000000000E+00  0.10584503822E+04  0.10584503823E+04  0.50400001928E-02 0.  1.
        1   -1    0    0  501    0  0.00000000000E+00  0.00000000000E+00 -0.94443819666E+03  0.94443819667E+03  0.50400001928E-02 0. -1.
    10030    2    1    2    0    0  0.00000000000E+00  0.00000000000E+00  0.11401218559E+03  0.20028885789E+04  0.19996409381E+04 0.  0.
        4    1    3    3  502    0 -0.95089251796E+03  0.29044403732E+03  0.16246259465E+03  0.10074472825E+04  0.12699999809E+01 0.  1.
       -4    1    3    3    0  502  0.95089251796E+03 -0.29044403732E+03 -0.48450409056E+02  0.99544129639E+03  0.12699999809E+01 0. -1.
</event>
<event>
 5   0  0.2356996E-06  0.1999092E+04  0.7818609E-02  0.8607045E-01
       -1   -1    0    0    0  501  0.00000000000E+00  0.00000000000E+00  0.88106154042E+03  0.88106154043E+03  0.50400001928E-02 0.  1.
        1   -1    0    0  501    0  0.00000000000E+00  0.00000000000E+00 -0.11339638951E+04  0.11339638952E+04  0.50400001928E-02 0. -1.
    10030    2    1    2    0    0  0.00000000000E+00  0.00000000000E+00 -0.25290235473E+03  0.20150254356E+04  0.19990917700E+04 0.  0.
        4    1    3    3  502    0 -0.45480972448E+03 -0.30323398958E+03  0.71705064930E+03  0.90164626350E+03  0.12699999809E+01 0.  1.
       -4    1    3    3    0  502  0.45480972448E+03  0.30323398958E+03 -0.96995300402E+03  0.11133791721E+04  0.12699999809E+01 0. -1.
</event>
<event>
 5   0  0.5030137E-06  0.2001263E+04  0.7818609E-02  0.8606031E-01
       -2   -1    0    0    0  501  0.00000000000E+00  0.00000000000E+00  0.77457751157E+03  0.77457751157E+03  0.25500000920E-02 0. -1.
        2   -1    0    0  501    0  0.00000000000E+00  0.00000000000E+00 -0.12926570105E+04  0.12926570105E+04  0.25500000920E-02 0.  1.
    10030    2    1    2    0    0  0.00000000000E+00  0.00000000000E+00 -0.51807949895E+03  0.20672345221E+04  0.20012626519E+04 0.  0.
        3    1    3    3  502    0  0.28745915289E+03 -0.22818262262E+03 -0.12206204117E+04  0.12746035751E+04  0.10100000352E+00 0.  1.
       -3    1    3    3    0  502 -0.28745915289E+03  0.22818262262E+03  0.70254091278E+03  0.79263094702E+03  0.10100000352E+00 0. -1.
</event>
<event>
 5   0  0.2379743E-06  0.2000203E+04  0.7818609E-02  0.8606526E-01
       -1   -1    0    0    0  501  0.00000000000E+00  0.00000000000E+00  0.15101235571E+04  0.15101235571E+04  0.50400001928E-02 0.  1.
        1   -1    0    0  501    0  0.00000000000E+00  0.00000000000E+00 -0.66233207993E+03  0.66233207995E+03  0.50400001928E-02 0. -1.
    10030    2    1    2    0    0  0.00000000000E+00  0.00000000000E+00  0.84779147713E+03  0.21724556370E+04  0.20002032662E+04 0.  0.
        5    1    3    3  502    0 -0.40492422807E+02 -0.98649424714E+03  0.59689433776E+03  0.11537397785E+04  0.46999998093E+01 0.  1.
       -5    1    3    3    0  502  0.40492422807E+02  0.98649424714E+03  0.25089713937E+03  0.10187158586E+04  0.46999998093E+01 0. -1.
</event>
<event>
 5   0  0.2313821E-06  0.2000340E+04  0.7818609E-02  0.8606462E-01
       -1   -1    0    0    0  501  0.00000000000E+00  0.00000000000E+00  0.81595895867E+03  0.81595895869E+03  0.50400001928E-02 0. -1.
        1   -1    0    0  501    0  0.00000000000E+00  0.00000000000E+00 -0.12259685207E+04  0.12259685208E+04  0.50400001928E-02 0.  1.
    10030    2    1    2    0    0  0.00000000000E+00  0.00000000000E+00 -0.41000956208E+03  0.20419274794E+04  0.20003399687E+04 0.  0.
        1    1    3    3  502    0 -0.26894133749E+03 -0.37033187324E+03  0.70278991342E+03  0.83868277780E+03  0.50400001928E-02 0. -1.
       -1    1    3    3    0  502  0.26894133749E+03  0.37033187324E+03 -0.11127994755E+04  0.12032447016E+04  0.50400001928E-02 0.  1.
</event>
<event>
 5   0  0.2356996E-06  0.1999451E+04  0.7818609E-02  0.8606877E-01
       -1   -1    0    0    0  501  0.00000000000E+00  0.00000000000E+00  0.93525663679E+03  0.93525663680E+03  0.50400001928E-02 0. -1.
        1   -1    0    0  501    0  0.00000000000E+00  0.00000000000E+00 -0.10686381759E+04  0.10686381759E+04  0.50400001928E-02 0.  1.
    10030    2    1    2    0    0  0.00000000000E+00  0.00000000000E+00 -0.13338153909E+03  0.20038948127E+04  0.19994508710E+04 0.  0.
        4    1    3    3  502    0  0.58130079578E+01 -0.98487307987E+03 -0.23865463904E+03  0.10133935189E+04  0.12699999809E+01 0.  1.
       -4    1    3    3    0  502 -0.58130079578E+01  0.98487307987E+03  0.10527309995E+03  0.99050129379E+03  0.12699999809E+01 0. -1.
</event>
<event>
 5   0  0.5129100E-06  0.1999492E+04  0.7818609E-02  0.8606858E-01
        2   -1    0    0  501    0  0.00000000000E+00  0.00000000000E+00  0.17085072097E+04  0.17085072097E+04  0.25500000920E-02 0.  1.
       -2   -1    0    0    0  501  0.00000000000E+00  0.00000000000E+00 -0.58500872469E+03  0.58500872469E+03  0.25500000920E-02 0. -1.
    10030    2    1    2    0    0  0.00000000000E+00  0.00000000000E+00  0.11234984851E+04  0.22935159344E+04  0.19994915593E+04 0.  0.
        2    1    3    3  502    0  0.42124328150E+02 -0.84704698686E+03  0.11689585076E+04  0.14442046425E+04  0.25500000920E-02 0.  1.
       -2    1    3    3    0  502 -0.42124328150E+02  0.84704698686E+03 -0.45460022510E+02  0.84931129195E+03  0.25500000920E-02 0. -1.
</event>
<event>
 5   0  0.5129100E-06  0.1999546E+04  0.7818609E-02  0.8606833E-01
       -2   -1    0    0    0  501  0.00000000000E+00  0.00000000000E+00  0.88313006899E+03  0.88313006899E+03  0.25500000920E-02 0.  1.
        2   -1    0    0  501    0  0.00000000000E+00  0.00000000000E+00 -0.11318215386E+04  0.11318215386E+04  0.25500000920E-02 0. -1.
    10030    2    1    2    0    0  0.00000000000E+00  0.00000000000E+00 -0.24869146964E+03  0.20149516076E+04  0.19995455819E+04 0.  0.
        2    1    3    3  502    0  0.61316802123E+03  0.11616567362E+03 -0.91143743755E+03  0.11046210611E+04  0.25500000920E-02 0. -1.
       -2    1    3    3    0  502 -0.61316802123E+03 -0.11616567362E+03  0.66274596791E+03  0.91033054655E+03  0.25500000920E-02 0.  1.
</event>
<event>
 5   0  0.5129100E-06  0.1999438E+04  0.7818609E-02  0.8606883E-01
        2   -1    0    0  501    0  0.00000000000E+00  0.00000000000E+00  0.11785052010E+04  0.11785052010E+04  0.25500000920E-02 0.  1.
       -2   -1    0    0    0  501  0.00000000000E+00  0.00000000000E+00 -0.84805575998E+03  0.84805575998E+03  0.25500000920E-02 0. -1.
    10030    2    1    2    0    0  0.00000000000E+00  0.00000000000E+00  0.33044944104E+03  0.20265609610E+04  0.19994380449E+04 0.  0.
        2    1    3    3  502    0 -0.77373883554E+03  0.42164981060E+03 -0.31338609670E+03  0.93523857598E+03  0.25500000920E-02 0. -1.
       -2    1    3    3    0  502  0.77373883554E+03 -0.42164981060E+03  0.64383553773E+03  0.10913223850E+04  0.25500000920E-02 0.  1.
</event>
<event>
 5   0  0.2386776E-06  0.2000641E+04  0.7818609E-02  0.8606321E-01
       -1   -1    0    0    0  501  0.00000000000E+00  0.00000000000E+00  0.84103079349E+03  0.84103079350E+03  0.50400001928E-02 0.  1.
        1   -1    0    0  501    0  0.00000000000E+00  0.00000000000E+00 -0.11897799222E+04  0.11897799222E+04  0.50400001928E-02 0. -1.
    10030    2    1    2    0    0  0.00000000000E+00  0.00000000000E+00 -0.34874912871E+03  0.20308107157E+04  0.20006414492E+04 0.  0.
        2    1    3    3  502    0 -0.12505987913E+03 -0.85957713816E+03  0.32922034648E+03  0.92892349866E+03  0.25500000920E-02 0.  1.
       -2    1    3    3    0  502  0.12505987913E+03  0.85957713816E+03 -0.67796947519E+03  0.11018872171E+04  0.25500000920E-02 0. -1.
</event>
<event>
 5   0  0.2356996E-06  0.1998000E+04  0.7818609E-02  0.8607556E-01
       -1   -1    0    0    0  501  0.00000000000E+00  0.00000000000E+00  0.71755943879E+03  0.71755943881E+03  0.50400001928E-02 0. -1.
        1   -1    0    0  501    0  0.00000000000E+00  0.00000000000E+00 -0.13908264713E+04  0.13908264713E+04  0.50400001928E-02 0.  1.
    10030    2    1    2    0    0  0.00000000000E+00  0.00000000000E+00 -0.67326703249E+03  0.21083859101E+04  0.19979996619E+04 0.  0.
        4    1    3    3  502    0 -0.14832104125E+03  0.60741102914E+03  0.48554771039E+03  0.79164732145E+03  0.12699999809E+01 0. -1.
       -4    1    3    3    0  502  0.14832104125E+03 -0.60741102914E+03 -0.11588147429E+04  0.13167385886E+04  0.12699999809E+01 0.  1.
</event>
<event>
 5   0  0.2311520E-06  0.2002142E+04  0.7818609E-02  0.8605620E-01
        1   -1    0    0  501    0  0.00000000000E+00  0.00000000000E+00  0.18922855940E+04  0.18922855940E+04  0.50400001928E-02 0. -1.
       -1   -1    0    0    0  501  0.00000000000E+00  0.00000000000E+00 -0.52959412922E+03  0.52959412924E+03  0.50400001928E-02 0.  1.
    10030    2    1    2    0    0  0.00000000000E+00  0.00000000000E+00  0.13626914648E+04  0.24218797232E+04  0.20021421942E+04 0.  0.
        3    1    3    3  502    0 -0.18072684164E+03  0.63403624722E+03 -0.22989393751E+03  0.69822302081E+03  0.10100000352E+00 0.  1.
       -3    1    3    3    0  502  0.18072684164E+03 -0.63403624722E+03  0.15925854023E+04  0.17236567024E+04  0.10100000352E+00 0. -1.
</event>
<event>
 5   0  0.5251252E-06  0.1999966E+04  0.7818609E-02  0.8606637E-01
        2   -1    0    0  501    0  0.00000000000E+00  0.00000000000E+00  0.14631234840E+04  0.14631234840E+04  0.25500000920E-02 0.  1.
       -2   -1    0    0    0  501  0.00000000000E+00  0.00000000000E+00 -0.68344589852E+03  0.68344589852E+03  0.25500000920E-02 0. -1.
    10030    2    1    2    0    0  0.00000000000E+00  0.00000000000E+00  0.77967758550E+03  0.21465693825E+04  0.19999657439E+04 0.  0.
        5    1    3    3  502    0  0.52358496117E+03  0.32608798315E+03  0.12345965471E+04  0.13801178603E+04  0.46999998093E+01 0.  1.
       -5    1    3    3    0  502 -0.52358496117E+03 -0.32608798315E+03 -0.45491896157E+03  0.76645152222E+03  0.46999998093E+01 0. -1.
</event>
<event>
 5   0  0.2356996E-06  0.2000364E+04  0.7818609E-02  0.8606451E-01
       -1   -1    0    0    0  501  0.00000000000E+00  0.00000000000E+00  0.44875535111E+03  0.44875535113E+03  0.50400001928E-02 0.  1.
        1   -1    0    0  501    0  0.00000000000E+00  0.00000000000E+00 -0.22291959426E+04  0.22291959426E+04  0.50400001928E-02 0. -1.
    10030    2    1    2    0    0  0.00000000000E+00  0.00000000000E+00 -0.17804405915E+04  0.26779512937E+04  0.20003635749E+04 0.  0.
        4    1    3    3  502    0 -0.83150841415E+03 -0.76876403655E+02 -0.16271869707E+04  0.18289492269E+04  0.12699999809E+01 0. -1.
       -4    1    3    3    0  502  0.83150841415E+03  0.76876403655E+02 -0.15325362080E+03  0.84900206680E+03  0.12699999809E+01 0.  1.
</event>
<event>
 5   0  0.5251252E-06  0.1999921E+04  0.7818609E-02  0.8606657E-01
       -2   -1    0    0    0  501  0.00000000000E+00  0.00000000000E+00  0.13517914532E+04  0.13517914532E+04  0.25500000920E-02 0. -1.
        2   -1    0    0  501    0  0.00000000000E+00  0.00000000000E+00 -0.73970097748E+03  0.73970097749E+03  0.25500000920E-02 0.  1.
    10030    2    1    2    0    0  0.00000000000E+00  0.00000000000E+00  0.61209047569E+03  0.20914924307E+04  0.19999214577E+04 0.  0.
        5    1    3    3  502    0  0.43298611924E+03  0.39445243938E+03  0.11536038397E+04  0.12937904062E+04  0.46999998093E+01 0. -1.
       -5    1    3    3    0  502 -0.43298611924E+03 -0.39445243938E+03 -0.54151336398E+03  0.79770202442E+03  0.46999998093E+01 0.  1.
</event>
<event>
 5   0  0.2356996E-06  0.1999776E+04  0.7818609E-02  0.8606725E-01
       -1   -1    0    0    0  501  0.00000000000E+00  0.00000000000E+00  0.70011404031E+03  0.70011404032E+03  0.50400001928E-02 0.  1.
        1   -1    0    0  501    0  0.00000000000E+00  0.00000000000E+00 -0.14280187100E+04  0.14280187100E+04  0.50400001928E-02 0. -1.
    10030    2    1    2    0    0  0.00000000000E+00  0.00000000000E+00 -0.72790466971E+03  0.21281327504E+04  0.19997759362E+04 0.  0.
        4    1    3    3  502    0  0.83713024414E+03 -0.27001127877E+03 -0.86995126840E+03  0.12371378091E+04  0.12699999809E+01 0. -1.
       -4    1    3    3    0  502 -0.83713024414E+03  0.27001127877E+03  0.14204659869E+03  0.89099494129E+03  0.12699999809E+01 0.  1.
</event>
<event>
 5   0  0.1777750E-06  0.1998049E+04  0.7818609E-02  0.8607533E-01
        3   -1    0    0  501    0  0.00000000000E+00  0.00000000000E+00  0.94058258421E+03  0.94058258964E+03  0.10100000352E+00 0. -1.
       -3   -1    0    0    0  501  0.00000000000E+00  0.00000000000E+00 -0.10610977920E+04  0.10610977968E+04  0.10100000352E+00 0.  1.
    10030    2    1    2    0    0  0.00000000000E+00  0.00000000000E+00 -0.12051520774E+03  0.20016803864E+04  0.19980491621E+04 0.  0.
        2    1    3    3  502    0  0.44114407909E+03  0.87422298658E+03 -0.25854706528E+03  0.10127786104E+04  0.25500000920E-02 0.  1.
       -2    1    3    3    0  502 -0.44114407909E+03 -0.87422298658E+03  0.13803185754E+03  0.98890177596E+03  0.25500000920E-02 0. -1.
</event>
<event>
 5   0  0.2311520E-06  0.1999805E+04  0.7818609E-02  0.8606712E-01
       -1   -1    0    0    0  501  0.00000000000E+00  0.00000000000E+00  0.75305642270E+03  0.75305642271E+03  0.50400001928E-02 0. -1.
        1   -1    0    0  501    0  0.00000000000E+00  0.00000000000E+00 -0.13276631823E+04  0.13276631823E+04  0.50400001928E-02 0.  1.
    10030    2    1    2    0    0  0.00000000000E+00  0.00000000000E+00 -0.57460675960E+03  0.20807196050E+04  0.19998052772E+04 0.  0.
        3    1    3    3  502    0  0.32980995319E+03  0.67567243499E+03 -0.97313808209E+03  0.12297583428E+04  0.10100000352E+00 0.  1.
       -3    1    3    3    0  502 -0.32980995319E+03 -0.67567243499E+03  0.39853132248E+03  0.85096126224E+03  0.10100000352E+00 0. -1.
</event>
<event>
 5   0  0.2311520E-06  0.2000150E+04  0.7818609E-02  0.8606550E-01
       -1   -1    0    0    0  501  0.00000000000E+00  0.00000000000E+00  0.10105252239E+04  0.10105252239E+04  0.50400001928E-02 0.  1.
        1   -1    0    0  501    0  0.00000000000E+00  0.00000000000E+00 -0.98973331900E+03  0.98973331901E+03  0.50400001928E-02 0. -1.
    10030    2    1    2    0    0  0.00000000000E+00  0.00000000000E+00  0.20791904856E+02  0.20002585429E+04  0.20001504781E+04 0.  0.
        3    1    3    3  502    0  0.53921018184E+02  0.56460008350E+03  0.83413320314E+03  0.10086916978E+04  0.10100000352E+00 0.  1.
       -3    1    3    3    0  502 -0.53921018184E+02 -0.56460008350E+03 -0.81334129829E+03  0.99156684504E+03  0.10100000352E+00 0. -1.
</event>
<event>
 5   0  0.5118981E-06  0.1999910E+04  0.7818609E-02  0.8606663E-01
       -2   -1    0    0    0  501  0.00000000000E+00  0.00000000000E+00  0.96657094768E+03  0.96657094768E+03  0.25500000920E-02 0.  1.
        2   -1    0    0  501    0  0.00000000000E+00  0.00000000000E+00 -0.10344920771E+04  0.10344920771E+04  0.25500000920E-02 0. -1.
    10030    2    1    2    0    0  0.00000000000E+00  0.00000000000E+00 -0.67921129437E+02  0.20010630248E+04  0.19999099853E+04 0.  0.
        4    1    3    3  502    0  0.99308613765E+03 -0.52192659708E+02 -0.13873112517E+03  0.10040876896E+04  0.12699999809E+01 0. -1.
       -4    1    3    3    0  502 -0.99308613765E+03  0.52192659708E+02  0.70809995729E+02  0.99697533515E+03  0.12699999809E+01 0.  1.
</event>
<event>
 5   0  0.5129100E-06  0.2001666E+04  0.7818609E-02  0.8605842E-01
       -2   -1    0    0    0  501  0.00000000000E+00  0.00000000000E+00  0.71826641803E+03  0.71826641803E+03  0.25500000920E-02 0.  1.
        2   -1    0    0  501    0  0.00000000000E+00  0.00000000000E+00 -0.13945611377E+04  0.13945611377E+04  0.25500000920E-02 0. -1.
    10030    2    1    2    0    0  0.00000000000E+00  0.00000000000E+00 -0.67629471967E+03  0.21128275557E+04  0.20016657394E+04 0.  0.
        2    1    3    3  502    0 -0.16120921176E+03 -0.93379082711E+03 -0.67807657916E+03  0.11652216810E+04  0.25500000920E-02 0. -1.
       -2    1    3    3    0  502  0.16120921176E+03  0.93379082711E+03  0.17818594842E+01  0.94760587470E+03  0.25500000920E-02 0.  1.
</event>
<event>
 5   0  0.2311520E-06  0.2000351E+04  0.7818609E-02  0.8606456E-01
       -1   -1    0    0    0  501  0.00000000000E+00  0.00000000000E+00  0.92716172940E+03  0.92716172941E+03  0.50400001928E-02 0. -1.
        1   -1    0    0  501    0  0.00000000000E+00  0.00000000000E+00 -0.10789394563E+04  0.10789394563E+04  0.50400001928E-02 0.  1.
    10030    2    1    2    0    0  0.00000000000E+00  0.00000000000E+00 -0.15177772687E+03  0.20061011857E+04  0.20003513413E+04 0.  0.
        3    1    3    3  502    0 -0.86344173457E+03 -0.50326623529E+03 -0.36497092078E+02  0.10000702878E+04  0.10100000352E+00 0.  1.
       -3    1    3    3    0  502  0.86344173457E+03  0.50326623529E+03 -0.11528063479E+03  0.10060308979E+04  0.10100000352E+00 0. -1.
</event>
<event>
 5   0  0.5030137E-06  0.1999649E+04  0.7818609E-02  0.8606785E-01
        2   -1    0    0  501    0  0.00000000000E+00  0.00000000000E+00  0.17163387549E+04  0.17163387549E+04  0.25500000920E-02 0.  1.
       -2   -1    0    0    0  501  0.00000000000E+00  0.00000000000E+00 -0.58243089031E+03  0.58243089032E+03  0.25500000920E-02 0. -1.
    10030    2    1    2    0    0  0.00000000000E+00  0.00000000000E+00  0.11339078645E+04  0.22987696452E+04  0.19996486782E+04 0.  0.
        3    1    3    3  502    0  0.14543865981E+03  0.93602703274E+03  0.93473131443E+03  0.13307973738E+04  0.10100000352E+00 0. -1.
       -3    1    3    3    0  502 -0.14543865981E+03 -0.93602703274E+03  0.19917655012E+03  0.96797227136E+03  0.10100000352E+00 0.  1.
</event>
<event>
 5   0  0.2313821E-06  0.2000546E+04  0.7818609E-02  0.8606366E-01
       -1   -1    0    0    0  501  0.00000000000E+00  0.00000000000E+00  0.71442130529E+03  0.71442130531E+03  0.50400001928E-02 0. -1.
        1   -1    0    0  501    0  0.00000000000E+00  0.00000000000E+00 -0.14004982600E+04  0.14004982600E+04  0.50400001928E-02 0.  1.
    10030    2    1    2    0    0  0.00000000000E+00  0.00000000000E+00 -0.68607695473E+03  0.21149195653E+04  0.20005457206E+04 0.  0.
        1    1    3    3  502    0  0.41434542529E+03 -0.89979882919E+03 -0.48962255515E+03  0.11050114529E+04  0.50400001928E-02 0.  1.
       -1    1    3    3    0  502 -0.41434542529E+03  0.89979882919E+03 -0.19645439958E+03  0.10099081125E+04  0.50400001928E-02 0. -1.
</event>
<event>
 5   0  0.2356996E-06  0.1999287E+04  0.7818609E-02  0.8606954E-01
        1   -1    0    0  501    0  0.00000000000E+00  0.00000000000E+00  0.10139716891E+04  0.10139716891E+04  0.50400001928E-02 0.  1.
       -1   -1    0    0    0  501  0.00000000000E+00  0.00000000000E+00 -0.98551814115E+03  0.98551814116E+03  0.50400001928E-02 0. -1.
    10030    2    1    2    0    0  0.00000000000E+00  0.00000000000E+00  0.28453547957E+02  0.19994898303E+04  0.19992873673E+04 0.  0.
        4    1    3    3  502    0 -0.90063855061E+03 -0.41735272421E+03 -0.10390709996E+03  0.99806382239E+03  0.12699999809E+01 0. -1.
       -4    1    3    3    0  502  0.90063855061E+03  0.41735272421E+03  0.13236064792E+03  0.10014260079E+04  0.12699999809E+01 0.  1.
</event>
<event>
 5   0  0.2379743E-06  0.2000102E+04  0.7818609E-02  0.8606573E-01
        1   -1    0    0  501    0  0.00000000000E+00  0.00000000000E+00  0.58115928623E+03  0.58115928625E+03  0.50400001928E-02 0. -1.
       -1   -1    0    0    0  501  0.00000000000E+00  0.00000000000E+00 -0.17208734114E+04  0.17208734114E+04  0.50400001928E-02 0.  1.
    10030    2    1    2    0    0  0.00000000000E+00  0.00000000000E+00 -0.11397141251E+04  0.23020326976E+04  0.20001015609E+04 0.  0.
        5    1    3    3  502    0 -0.70030208826E+03  0.18669322718E+02 -0.13912475178E+04  0.15576788194E+04  0.46999998093E+01 0.  1.
       -5    1    3    3    0  502  0.70030208826E+03 -0.18669322718E+02  0.25153339270E+03  0.74435387826E+03  0.46999998093E+01 0. -1.
</event>
<event>
 5   0  0.5030137E-06  0.2000032E+04  0.7818609E-02  0.8606606E-01
       -2   -1    0    0    0  501  0.00000000000E+00  0.00000000000E+00  0.61969411761E+03  0.61969411761E+03  0.25500000920E-02 0.  1.
        2   -1    0    0  501    0  0.00000000000E+00  0.00000000000E+00 -0.16137506495E+04  0.16137506495E+04  0.25500000920E-02 0. -1.
    10030    2    1    2    0    0  0.00000000000E+00  0.00000000000E+00 -0.99405653189E+03  0.22334447671E+04  0.20000317845E+04 0.  0.
        3    1    3    3  502    0  0.82346495893E+03 -0.25557018924E+03  0.68669563828E+02  0.86494287638E+03  0.10100000352E+00 0.  1.
       -3    1    3    3    0  502 -0.82346495893E+03  0.25557018924E+03 -0.10627260957E+04  0.13685018907E+04  0.10100000352E+00 0. -1.
</event>
<event>
 5   0  0.2313821E-06  0.2004045E+04  0.7818609E-02  0.8604732E-01
        1   -1    0    0  501    0  0.00000000000E+00  0.00000000000E+00  0.10210696173E+04  0.10210696174E+04  0.50400001928E-02 0. -1.
       -1   -1    0    0    0  501  0.00000000000E+00  0.00000000000E+00 -0.98333042057E+03  0.98333042059E+03  0.50400001928E-02 0.  1.
    10030    2    1    2    0    0  0.00000000000E+00  0.00000000000E+00  0.37739196771E+02  0.20044000379E+04  0.20040447263E+04 0.  0.
        1    1    3    3  502    0 -0.62480858423E+03 -0.45778070303E+03  0.65467081068E+03  0.10141709961E+04  0.50400001928E-02 0. -1.
       -1    1    3    3    0  502  0.62480858423E+03  0.45778070303E+03 -0.61693161391E+03  0.99022904182E+03  0.50400001928E-02 0.  1.
</event>
<event>
 5   0  0.4956214E-06  0.2000147E+04  0.7818609E-02  0.8606552E-01
        2   -1    0    0  501    0  0.00000000000E+00  0.00000000000E+00  0.19673660678E+04  0.19673660678E+04  0.25500000920E-02 0.  1.
       -2   -1    0    0    0  501  0.00000000000E+00  0.00000000000E+00 -0.50836851605E+03  0.50836851606E+03  0.25500000920E-02 0. -1.
    10030    2    1    2    0    0  0.00000000000E+00  0.00000000000E+00  0.14589975518E+04  0.24757345839E+04  0.20001469630E+04 0.  0.
        1    1    3    3  502    0 -0.74728658140E+03 -0.41894099144E+03  0.90875538923E+02  0.86151445295E+03  0.50400001928E-02 0. -1.
       -1    1    3    3    0  502  0.74728658140E+03  0.41894099144E+03  0.13681220128E+04  0.16142201309E+04  0.50400001928E-02 0.  1.
</event>
<event>
 5   0  0.2356996E-06  0.2000067E+04  0.7818609E-02  0.8606589E-01
       -1   -1    0    0    0  501  0.00000000000E+00  0.00000000000E+00  0.60921235567E+03  0.60921235569E+03  0.50400001928E-02 0. -1.
        1   -1    0    0  501    0  0.00000000000E+00  0.00000000000E+00 -0.16415743883E+04  0.16415743883E+04  0.50400001928E-02 0.  1.
    10030    2    1    2    0    0  0.00000000000E+00  0.00000000000E+00 -0.10323620327E+04  0.22507867440E+04  0.20000673990E+04 0.  0.
        4    1    3    3  502    0 -0.33553663111E+03 -0.70398007042E+03  0.18830678957E+03  0.80226792922E+03  0.12699999809E+01 0. -1.
       -4    1    3    3    0  502  0.33553663111E+03  0.70398007042E+03 -0.12206688222E+04  0.14485188148E+04  0.12699999809E+01 0.  1.
</event>
<event>
 5   0  0.2379743E-06  0.1999906E+04  0.7818609E-02  0.8606664E-01
       -1   -1    0    0    0  501  0.00000000000E+00  0.00000000000E+00  0.15052199151E+04  0.15052199151E+04  0.50400001928E-02 0.  1.
        1   -1    0    0  501    0  0.00000000000E+00  0.00000000000E+00 -0.66429251553E+03  0.66429251555E+03  0.50400001928E-02 0. -1.
    10030    2    1    2    0    0  0.00000000000E+00  0.00000000000E+00  0.84092739958E+03  0.21695124307E+04  0.19999063217E+04 0.  0.
        5    1    3    3  502    0 -0.88539393925E+03  0.21856368571E+03  0.86535590583E+03  0.12572014342E+04  0.46999998093E+01 0.  1.
       -5    1    3    3    0  502  0.88539393925E+03 -0.21856368571E+03 -0.24428506251E+02  0.91231099648E+03  0.46999998093E+01 0. -1.
</event>
<event>
 5   0  0.2386776E-06  0.2000036E+04  0.7818609E-02  0.8606604E-01
        1   -1    0    0  501    0  0.00000000000E+00  0.00000000000E+00  0.14946669614E+04  0.14946669614E+04  0.50400001928E-02 0.  1.
       -1   -1    0    0    0  501  0.00000000000E+00  0.00000000000E+00 -0.66906951326E+03  0.66906951328E+03  0.50400001928E-02 0. -1.
    10030    2    1    2    0    0  0.00000000000E+00  0.00000000000E+00  0.82559744811E+03  0.21637364747E+04  0.20000360960E+04 0.  0.
        2    1    3    3  502    0  0.11210442384E+03  0.43116464138E+03  0.13813800852E+04  0.14514411079E+04  0.25500000920E-02 0.  1.
       -2    1    3    3    0  502 -0.11210442384E+03 -0.43116464138E+03 -0.55578263710E+03  0.71229536678E+03  0.25500000920E-02 0. -1.
</event>
<event>
 5   0  0.2356996E-06  0.2000050E+04  0.7818609E-02  0.8606597E-01
       -1   -1    0    0    0  501  0.00000000000E+00  0.00000000000E+00  0.12549402766E+04  0.12549402766E+04  0.50400001928E-02 0.  1.
        1   -1    0    0  501    0  0.00000000000E+00  0.00000000000E+00 -0.79689084944E+03  0.79689084945E+03  0.50400001928E-02 0. -1.
    10030    2    1    2    0    0  0.00000000000E+00  0.00000000000E+00  0.45804942715E+03  0.20518311260E+04  0.20000504224E+04 0.  0.
        4    1    3    3  502    0  0.70423084468E+03 -0.70950695559E+03  0.25631429537E+03  0.10320076713E+04  0.12699999809E+01 0. -1.
       -4    1    3    3    0  502 -0.70423084468E+03  0.70950695559E+03  0.20173513179E+03  0.10198234548E+04  0.12699999809E+01 0.  1.
</event>
<event>
 5   0  0.2379743E-06  0.1999809E+04  0.7818609E-02  0.8606710E-01
        1   -1    0    0  501    0  0.00000000000E+00  0.00000000000E+00  0.84386813168E+03  0.84386813169E+03  0.50400001928E-02 0.  1.
       -1   -1    0    0    0  501  0.00000000000E+00  0.00000000000E+00 -0.11847934814E+04  0.11847934815E+04  0.50400001928E-02 0. -1.
    10030    2    1    2    0    0  0.00000000000E+00  0.00000000000E+00 -0.34092534977E+03  0.20286616131E+04  0.19998094526E+04 0.  0.
        5    1    3    3  502    0  0.97409279841E+02 -0.86233613024E+03 -0.67429234731E+03  0.10990015600E+04  0.46999998093E+01 0.  1.
       -5    1    3    3    0  502 -0.97409279841E+02  0.86233613024E+03  0.33336699754E+03  0.92966005312E+03  0.46999998093E+01 0. -1.
</event>
<event>
 5   0  0.5129100E-06  0.2000589E+04  0.7818609E-02  0.8606345E-01
        2   -1    0    0  501    0  0.00000000000E+00  0.00000000000E+00  0.17803310236E+04  0.17803310236E+04  0.25500000920E-02 0. -1.
       -2   -1    0    0    0  501  0.00000000000E+00  0.00000000000E+00 -0.56202428057E+03  0.56202428057E+03  0.25500000920E-02 0.  1.
    10030    2    1    2    0    0  0.00000000000E+00  0.00000000000E+00  0.12183067430E+04  0.23423553042E+04  0.20005891759E+04 0.  0.
        2    1    3    3  502    0 -0.22191756036E+03 -0.31896668154E+03 -0.47004840150E+03  0.60986281022E+03  0.25500000920E-02 0.  1.
       -2    1    3    3    0  502  0.22191756036E+03  0.31896668154E+03  0.16883551445E+04  0.17324924939E+04  0.25500000920E-02 0. -1.
</event>
<event>
 5   0  0.2313821E-06  0.1999894E+04  0.7818609E-02  0.8606670E-01
        1   -1    0    0  501    0  0.00000000000E+00  0.00000000000E+00  0.15124188087E+04  0.15124188087E+04  0.50400001928E-02 0.  1.
       -1   -1    0    0    0  501  0.00000000000E+00  0.00000000000E+00 -0.66112242438E+03  0.66112242440E+03  0.50400001928E-02 0. -1.
    10030    2    1    2    0    0  0.00000000000E+00  0.00000000000E+00  0.85129638434E+03  0.21735412331E+04  0.19998939867E+04 0.  0.
        1    1    3    3  502    0 -0.64958627266E+03  0.75664350168E+03  0.50567798415E+03  0.11181153509E+04  0.50400001928E-02 0. -1.
       -1    1    3    3    0  502  0.64958627266E+03 -0.75664350168E+03  0.34561840019E+03  0.10554258822E+04  0.50400001928E-02 0.  1.
</event>
<event>
 5   0  0.2313821E-06  0.2000570E+04  0.7818609E-02  0.8606354E-01
       -1   -1    0    0    0  501  0.00000000000E+00  0.00000000000E+00  0.48793827970E+03  0.48793827973E+03  0.50400001928E-02 0. -1.
        1   -1    0    0  501    0  0.00000000000E+00  0.00000000000E+00 -0.20506085225E+04  0.20506085225E+04  0.50400001928E-02 0.  1.
    10030    2    1    2    0    0  0.00000000000E+00  0.00000000000E+00 -0.15626702428E+04  0.25385468022E+04  0.20005703135E+04 0.  0.
        1    1    3    3  502    0  0.73321175976E+03  0.40086580541E+02 -0.16432278075E+04  0.17998344496E+04  0.50400001928E-02 0.  1.
       -1    1    3    3    0  502 -0.73321175976E+03 -0.40086580541E+02  0.80557564757E+02  0.73871235258E+03  0.50400001928E-02 0. -1.
</event>
<event>
 5   0  0.2313821E-06  0.2000477E+04  0.7818609E-02  0.8606398E-01
       -1   -1    0    0    0  501  0.00000000000E+00  0.00000000000E+00  0.14622336631E+04  0.14622336631E+04  0.50400001928E-02 0. -1.
        1   -1    0    0  501    0  0.00000000000E+00  0.00000000000E+00 -0.68421117950E+03  0.68421117952E+03  0.50400001928E-02 0.  1.
    10030    2    1    2    0    0  0.00000000000E+00  0.00000000000E+00  0.77802248363E+03  0.21464448427E+04  0.20004765626E+04 0.  0.
        1    1    3    3  502    0  0.43973243330E+03 -0.72944113560E+03  0.95170802622E+03  0.12771832877E+04  0.50400001928E-02 0. -1.
       -1    1    3    3    0  502 -0.43973243330E+03  0.72944113560E+03 -0.17368554259E+03  0.86926155496E+03  0.50400001928E-02 0.  1.
</event>
<event>
 5   0  0.5118981E-06  0.2000801E+04  0.7818609E-02  0.8606246E-01
       -2   -1    0    0    0  501  0.00000000000E+00  0.00000000000E+00  0.36207209587E+03  0.36207209588E+03  0.25500000920E-02 0. -1.
        2   -1    0    0  501    0  0.00000000000E+00  0.00000000000E+00 -0.27640944788E+04  0.27640944788E+04  0.25500000920E-02 0.  1.
    10030    2    1    2    0    0  0.00000000000E+00  0.00000000000E+00 -0.24020223829E+04  0.31261665746E+04  0.20008013206E+04 0.  0.
        4    1    3    3  502    0 -0.76070494088E+03  0.58511730546E+03 -0.75972944021E+03  0.12240198950E+04  0.12699999809E+01 0.  1.
       -4    1    3    3    0  502  0.76070494088E+03 -0.58511730546E+03 -0.16422929427E+04  0.19021466796E+04  0.12699999809E+01 0. -1.
</event>
<event>
 5   0  0.2311520E-06  0.2000226E+04  0.7818609E-02  0.8606515E-01
       -1   -1    0    0    0  501  0.00000000000E+00  0.00000000000E+00  0.11835034700E+04  0.11835034700E+04  0.50400001928E-02 0.  1.
        1   -1    0    0  501    0  0.00000000000E+00  0.00000000000E+00 -0.84513993308E+03  0.84513993309E+03  0.50400001928E-02 0. -1.
    10030    2    1    2    0    0  0.00000000000E+00  0.00000000000E+00  0.33836353694E+03  0.20286434031E+04  0.20002260307E+04 0.  0.
        3    1    3    3  502    0 -0.48298582035E+03 -0.83772453567E+03 -0.89725918018E+02  0.97113770954E+03  0.10100000352E+00 0. -1.
       -3    1    3    3    0  502  0.48298582035E+03  0.83772453567E+03  0.42808945496E+03  0.10575056936E+04  0.10100000352E+00 0.  1.
</event>
<event>
 5   0  0.5118981E-06  0.1999632E+04  0.7818609E-02  0.8606793E-01
       -2   -1    0    0    0  501  0.00000000000E+00  0.00000000000E+00  0.76896324417E+03  0.76896324418E+03  0.25500000920E-02 0. -1.
        2   -1    0    0  501    0  0.00000000000E+00  0.00000000000E+00 -0.12999731088E+04  0.12999731088E+04  0.25500000920E-02 0.  1.
    10030    2    1    2    0    0  0.00000000000E+00  0.00000000000E+00 -0.53100986462E+03  0.20689363530E+04  0.19996315051E+04 0.  0.
        4    1    3    3  502    0 -0.38278492590E+03  0.91858976087E+03 -0.16573421570E+03  0.10088611854E+04  0.12699999809E+01 0. -1.
       -4    1    3    3    0  502  0.38278492590E+03 -0.91858976087E+03 -0.36527564892E+03  0.10600751676E+04  0.12699999809E+01 0.  1.
</event>
<event>
 5   0  0.5030137E-06  0.1999641E+04  0.7818609E-02  0.8606789E-01
       -2   -1    0    0    0  501  0.00000000000E+00  0.00000000000E+00  0.53886229729E+03  0.53886229730E+03  0.25500000920E-02 0.  1.
        2   -1    0    0  501    0  0.00000000000E+00  0.00000000000E+00 -0.18550954763E+04  0.18550954763E+04  0.25500000920E-02 0. -1.
    10030    2    1    2    0    0  0.00000000000E+00  0.00000000000E+00 -0.13162331790E+04  0.23939577736E+04  0.19996409779E+04 0.  0.
        3    1    3    3  502    0 -0.62348680150E+03  0.74903476266E+03 -0.39081205366E+03  0.10500109232E+04  0.10100000352E+00 0.  1.
       -3    1    3    3    0  502  0.62348680150E+03 -0.74903476266E+03 -0.92542112538E+03  0.13439468504E+04  0.10100000352E+00 0. -1.
</event>
<event>
 5   0  0.4956214E-06  0.2000311E+04  0.7818609E-02  0.8606475E-01
        2   -1    0    0  501    0  0.00000000000E+00  0.00000000000E+00  0.16270630233E+04  0.16270630233E+04  0.25500000920E-02 0.  1.
       -2   -1    0    0    0  501  0.00000000000E+00  0.00000000000E+00 -0.61479535625E+03  0.61479535625E+03  0.25500000920E-02 0. -1.
    10030    2    1    2    0    0  0.00000000000E+00  0.00000000000E+00  0.10122676671E+04  0.22418583796E+04  0.20003107669E+04 0.  0.
        1    1    3    3  502    0 -0.80731325568E+02 -0.44204838699E+03 -0.49528852905E+03  0.66875634606E+03  0.50400001928E-02 0. -1.
       -1    1    3    3    0  502  0.80731325568E+02  0.44204838699E+03  0.15075561961E+04  0.15731020335E+04  0.50400001928E-02 0.  1.
</event>
<event>
 5   0  0.5118981E-06  0.2000678E+04  0.7818609E-02  0.8606304E-01
       -2   -1    0    0    0  501  0.00000000000E+00  0.00000000000E+00  0.50226924064E+03  0.50226924065E+03  0.25500000920E-02 0. -1.
        2   -1    0    0  501    0  0.00000000000E+00  0.00000000000E+00 -0.19923132069E+04  0.19923132069E+04  0.25500000920E-02 0.  1.
    10030    2    1    2    0    0  0.00000000000E+00  0.00000000000E+00 -0.14900439662E+04  0.24945824475E+04  0.20006775268E+04 0.  0.
        4    1    3    3  502    0 -0.94343363804E+03  0.16414757237E+03 -0.11056766612E+04  0.14627145815E+04  0.12699999809E+01 0.  1.
       -4    1    3    3    0  502  0.94343363804E+03 -0.16414757237E+03 -0.38436730508E+03  0.10318678661E+04  0.12699999809E+01 0. -1.
</event>
<event>
 5   0  0.2311520E-06  0.1999625E+04  0.7818609E-02  0.8606796E-01
        1   -1    0    0  501    0  0.00000000000E+00  0.00000000000E+00  0.10726642131E+04  0.10726642131E+04  0.50400001928E-02 0. -1.
       -1   -1    0    0    0  501  0.00000000000E+00  0.00000000000E+00 -0.93190899453E+03  0.93190899454E+03  0.50400001928E-02 0.  1.
    10030    2    1    2    0    0  0.00000000000E+00  0.00000000000E+00  0.14075521859E+03  0.20045732077E+04  0.19996253933E+04 0.  0.
        3    1    3    3  502    0 -0.40448177066E+03 -0.79546404508E+03 -0.38157811689E+03  0.97055160569E+03  0.10100000352E+00 0.  1.
       -3    1    3    3    0  502  0.40448177066E+03  0.79546404508E+03  0.52233333548E+03  0.10340216020E+04  0.10100000352E+00 0. -1.
</event>
<event>
 5   0  0.5030137E-06  0.1996197E+04  0.7818609E-02  0.8608401E-01
       -2   -1    0    0    0  501  0.00000000000E+00  0.00000000000E+00  0.47344271840E+03  0.47344271840E+03  0.25500000920E-02 0. -1.
        2   -1    0    0  501    0  0.00000000000E+00  0.00000000000E+00 -0.21041631641E+04  0.21041631641E+04  0.25500000920E-02 0.  1.
    10030    2    1    2    0    0  0.00000000000E+00  0.00000000000E+00 -0.16307204457E+04  0.25776058825E+04  0.19961971129E+04 0.  0.
        3    1    3    3  502    0 -0.10717144015E+03  0.79691192154E+03 -0.51827568742E+02  0.80575457514E+03  0.10100000352E+00 0. -1.
       -3    1    3    3    0  502  0.10717144015E+03 -0.79691192154E+03 -0.15788928769E+04  0.17718513073E+04  0.10100000352E+00 0.  1.
</event>
<event>
 5   0  0.2311520E-06  0.2000228E+04  0.7818609E-02  0.8606514E-01
       -1   -1    0    0    0  501  0.00000000000E+00  0.00000000000E+00  0.18605265257E+04  0.18605265257E+04  0.50400001928E-02 0.  1.
        1   -1    0    0  501    0  0.00000000000E+00  0.00000000000E+00 -0.53760480046E+03  0.53760480049E+03  0.50400001928E-02 0. -1.
    10030    2    1    2    0    0  0.00000000000E+00  0.00000000000E+00  0.13229217252E+04  0.23981313262E+04  0.20002279786E+04 0.  0.
        3    1    3    3  502    0 -0.56959998877E+02 -0.87639414090E+03  0.87830217292E+02  0.88262409266E+03  0.10100000352E+00 0. -1.
       -3    1    3    3    0  502  0.56959998877E+02  0.87639414090E+03  0.12350915079E+04  0.15155072335E+04  0.10100000352E+00 0.  1.
</event>
<event>
 5   0  0.5118981E-06  0.1999865E+04  0.7818609E-02  0.8606684E-01
       -2   -1    0    0    0  501  0.00000000000E+00  0.00000000000E+00  0.64740618150E+03  0.64740618150E+03  0.25500000920E-02 0.  1.
        2   -1    0    0  501    0  0.00000000000E+00  0.00000000000E+00 -0.15444171110E+04  0.15444171110E+04  0.25500000920E-02 0. -1.
    10030    2    1    2    0    0  0.00000000000E+00  0.00000000000E+00 -0.89701092947E+03  0.21918232925E+04  0.19998651799E+04 0.  0.
        4    1    3    3  502    0  0.49021799073E+03 -0.80084010910E+03 -0.71695164260E+02  0.94170078489E+03  0.12699999809E+01 0.  1.
       -4    1    3    3    0  502 -0.49021799073E+03  0.80084010910E+03 -0.82531576521E+03  0.12501225076E+04  0.12699999809E+01 0. -1.
</event>
<event>
 5   0  0.5129100E-06  0.2002267E+04  0.7818609E-02  0.8605561E-01
       -2   -1    0    0    0  501  0.00000000000E+00  0.00000000000E+00  0.67439217055E+03  0.67439217055E+03  0.25500000920E-02 0.  1.
        2   -1    0    0  501    0  0.00000000000E+00  0.00000000000E+00 -0.14861808718E+04  0.14861808718E+04  0.25500000920E-02 0. -1.
    10030    2    1    2    0    0  0.00000000000E+00  0.00000000000E+00 -0.81178870130E+03  0.21605730424E+04  0.20022674587E+04 0.  0.
        2    1    3    3  502    0 -0.15189493143E+03  0.23516687507E+03  0.63129429233E+03  0.69058526835E+03  0.25500000920E-02 0.  1.
       -2    1    3    3    0  502  0.15189493143E+03 -0.23516687507E+03 -0.14430829936E+04  0.14699877740E+04  0.25500000920E-02 0. -1.
</event>
<event>
 5   0  0.4956214E-06  0.2001345E+04  0.7818609E-02  0.8605992E-01
       -2   -1    0    0    0  501  0.00000000000E+00  0.00000000000E+00  0.61266858312E+03  0.61266858312E+03  0.25500000920E-02 0. -1.
        2   -1    0    0  501    0  0.00000000000E+00  0.00000000000E+00 -0.16343994338E+04  0.16343994338E+04  0.25500000920E-02 0.  1.
    10030    2    1    2    0    0  0.00000000000E+00  0.00000000000E+00 -0.10217308507E+04  0.22470680169E+04  0.20013447333E+04 0.  0.
        1    1    3    3  502    0 -0.16769201601E+03 -0.24147739915E+03 -0.15848159429E+04  0.16118540627E+04  0.50400001928E-02 0.  1.
       -1    1    3    3    0  502  0.16769201601E+03  0.24147739915E+03  0.56308509222E+03  0.63521395422E+03  0.50400001928E-02 0. -1.
</event>
<event>
 5   0  0.5030137E-06  0.2005139E+04  0.7818609E-02  0.8604222E-01
       -2   -1    0    0    0  501  0.00000000000E+00  0.00000000000E+00  0.76204566930E+03  0.76204566930E+03  0.25500000920E-02 0.  1.
        2   -1    0    0  501    0  0.00000000000E+00  0.00000000000E+00 -0.13190091640E+04  0.13190091641E+04  0.25500000920E-02 0. -1.
    10030    2    1    2    0    0  0.00000000000E+00  0.00000000000E+00 -0.55696349475E+03  0.20810548334E+04  0.20051386199E+04 0.  0.
        3    1    3    3  502    0  0.92646885891E+03 -0.32321925978E+02  0.11775274582E+03  0.93448112489E+03  0.10100000352E+00 0.  1.
       -3    1    3    3    0  502 -0.92646885891E+03  0.32321925978E+02 -0.67471624057E+03  0.11465737085E+04  0.10100000352E+00 0. -1.
</event>
<event>
 5   0  0.5129100E-06  0.2000303E+04  0.7818609E-02  0.8606479E-01
       -2   -1    0    0    0  501  0.00000000000E+00  0.00000000000E+00  0.65066599026E+03  0.65066599026E+03  0.25500000920E-02 0. -1.
        2   -1    0    0  501    0  0.00000000000E+00  0.00000000000E+00 -0.15373529867E+04  0.15373529867E+04  0.25500000920E-02 0.  1.
    10030    2    1    2    0    0  0.00000000000E+00  0.00000000000E+00 -0.88668699645E+03  0.21880189770E+04  0.20003032805E+04 0.  0.
        2    1    3    3  502    0  0.13651938586E+03 -0.81261336621E+03 -0.10633948848E+04  0.13452831325E+04  0.25500000920E-02 0.  1.
       -2    1    3    3    0  502 -0.13651938586E+03  0.81261336621E+03  0.17670788836E+03  0.84273584442E+03  0.25500000920E-02 0. -1.
</event>
<event>
 5   0  0.2356996E-06  0.1999864E+04  0.7818609E-02  0.8606684E-01
       -1   -1    0    0    0  501  0.00000000000E+00  0.00000000000E+00  0.82792628017E+03  0.82792628018E+03  0.50400001928E-02 0.  1.
        1   -1    0    0  501    0  0.00000000000E+00  0.00000000000E+00 -0.12076728163E+04  0.12076728163E+04  0.50400001928E-02 0. -1.
    10030    2    1    2    0    0  0.00000000000E+00  0.00000000000E+00 -0.37974653611E+03  0.20355990965E+04  0.19998640578E+04 0.  0.
        4    1    3    3  502    0  0.82166254881E+03 -0.53698080100E+03  0.42829578701E+01  0.98157917734E+03  0.12699999809E+01 0.  1.
       -4    1    3    3    0  502 -0.82166254881E+03  0.53698080100E+03 -0.38402949398E+03  0.10540199191E+04  0.12699999809E+01 0. -1.
</event>
<event>
 5   0  0.2386776E-06  0.1999336E+04  0.7818609E-02  0.8606931E-01
       -1   -1    0    0    0  501  0.00000000000E+00  0.00000000000E+00  0.79553371663E+03  0.79553371665E+03  0.50400001928E-02 0.  1.
        1   -1    0    0  501    0  0.00000000000E+00  0.00000000000E+00 -0.12561829403E+04  0.12561829403E+04  0.50400001928E-02 0. -1.
    10030    2    1    2    0    0  0.00000000000E+00  0.00000000000E+00 -0.46064922370E+03  0.20517166570E+04  0.19993357730E+04 0.  0.
        2    1    3    3  502    0  0.28398322206E+03 -0.92007175620E+03 -0.50598350915E+03  0.10877489685E+04  0.25500000920E-02 0. -1.
       -2    1    3    3    0  502 -0.28398322206E+03  0.92007175620E+03  0.45334285454E+02  0.96396768847E+03  0.25500000920E-02 0.  1.
</event>
<event>
 5   0  0.2356996E-06  0.1999186E+04  0.7818609E-02  0.8607001E-01
        1   -1    0    0  501    0  0.00000000000E+00  0.00000000000E+00  0.11579148594E+04  0.11579148594E+04  0.50400001928E-02 0.  1.
       -1   -1    0    0    0  501  0.00000000000E+00  0.00000000000E+00 -0.86291833558E+03  0.86291833560E+03  0.50400001928E-02 0. -1.
    10030    2    1    2    0    0  0.00000000000E+00  0.00000000000E+00  0.29499652384E+03  0.20208331950E+04  0.19991857975E+04 0.  0.
        4    1    3    3  502    0 -0.15231238928E+03  0.10370551167E+03 -0.84560136126E+03  0.86544622718E+03  0.12699999809E+01 0. -1.
       -4    1    3    3    0  502  0.15231238928E+03 -0.10370551167E+03  0.11405978851E+04  0.11553869679E+04  0.12699999809E+01 0.  1.
</event>
<event>
 5   0  0.2379743E-06  0.2001182E+04  0.7818609E-02  0.8606068E-01
       -1   -1    0    0    0  501  0.00000000000E+00  0.00000000000E+00  0.10712443215E+04  0.10712443215E+04  0.50400001928E-02 0.  1.
        1   -1    0    0  501    0  0.00000000000E+00  0.00000000000E+00 -0.93459744148E+03  0.93459744150E+03  0.50400001928E-02 0. -1.
    10030    2    1    2    0    0  0.00000000000E+00  0.00000000000E+00  0.13664687997E+03  0.20058417630E+04  0.20011818529E+04 0.  0.
        5    1    3    3  502    0  0.72343920830E+03 -0.19093452506E+03  0.73420452060E+03  0.10482836682E+04  0.46999998093E+01 0.  1.
       -5    1    3    3    0  502 -0.72343920830E+03  0.19093452506E+03 -0.59755764062E+03  0.95755809476E+03  0.46999998093E+01 0. -1.
</event>
<event>
 5   0  0.2379743E-06  0.1999881E+04  0.7818609E-02  0.8606676E-01
        1   -1    0    0  501    0  0.00000000000E+00  0.00000000000E+00  0.18982073207E+04  0.18982073207E+04  0.50400001928E-02 0. -1.
       -1   -1    0    0    0  501  0.00000000000E+00  0.00000000000E+00 -0.52675004896E+03  0.52675004899E+03  0.50400001928E-02 0.  1.
    10030    2    1    2    0    0  0.00000000000E+00  0.00000000000E+00  0.13714572717E+04  0.24249573697E+04  0.19998807956E+04 0.  0.
        5    1    3    3  502    0  0.79295442138E+03  0.60508670065E+03  0.77105707476E+03  0.12607369798E+04  0.46999998093E+01 0.  1.
       -5    1    3    3    0  502 -0.79295442138E+03 -0.60508670065E+03  0.60040019695E+03  0.11642203899E+04  0.46999998093E+01 0. -1.
</event>
<event>
 5   0  0.5030137E-06  0.2000414E+04  0.7818609E-02  0.8606427E-01
       -2   -1    0    0    0  501  0.00000000000E+00  0.00000000000E+00  0.65579212672E+03  0.65579212672E+03  0.25500000920E-02 0. -1.
        2   -1    0    0  501    0  0.00000000000E+00  0.00000000000E+00 -0.15255053763E+04  0.15255053764E+04  0.25500000920E-02 0.  1.
    10030    2    1    2    0    0  0.00000000000E+00  0.00000000000E+00 -0.86971324963E+03  0.21812975031E+04  0.20004143722E+04 0.  0.
        3    1    3    3  502    0  0.60309046346E+03  0.64540660149E+03 -0.94648066587E+03  0.12946402780E+04  0.10100000352E+00 0.  1.
       -3    1    3    3    0  502 -0.60309046346E+03 -0.64540660149E+03  0.76767416239E+02  0.88665722507E+03  0.10100000352E+00 0. -1.
</event>
<event>
 5   0  0.5030137E-06  0.1999967E+04  0.7818609E-02  0.8606636E-01
        2   -1    0    0  501    0  0.00000000000E+00  0.00000000000E+00  0.12922311893E+04  0.12922311893E+04  0.25500000920E-02 0. -1.
       -2   -1    0    0    0  501  0.00000000000E+00  0.00000000000E+00 -0.77382978899E+03  0.77382978899E+03  0.25500000920E-02 0.  1.
    10030    2    1    2    0    0  0.00000000000E+00  0.00000000000E+00  0.51840140034E+03  0.20660609783E+04  0.19999669883E+04 0.  0.
        3    1    3    3  502    0  0.83949958798E+03 -0.54155658651E+03  0.30451233391E+03  0.10443997637E+04  0.10100000352E+00 0.  1.
       -3    1    3    3    0  502 -0.83949958798E+03  0.54155658651E+03  0.21388906643E+03  0.10216612147E+04  0.10100000352E+00 0. -1.
</event>
<event>
 5   0  0.1777750E-06  0.1999035E+04  0.7818609E-02  0.8607072E-01
        3   -1    0    0  501    0  0.00000000000E+00  0.00000000000E+00  0.17120122840E+04  0.17120122870E+04  0.10100000352E+00 0. -1.
       -3   -1    0    0    0  501  0.00000000000E+00  0.00000000000E+00 -0.58354422542E+03  0.58354423416E+03  0.10100000352E+00 0.  1.
    10030    2    1    2    0    0  0.00000000000E+00  0.00000000000E+00  0.11284680586E+04  0.22955565212E+04  0.19990346627E+04 0.  0.
        2    1    3    3  502    0  0.49473696580E+03  0.86288888282E+03  0.45117717137E+03  0.10922008649E+04  0.25500000920E-02 0.  1.
       -2    1    3    3    0  502 -0.49473696580E+03 -0.86288888282E+03  0.67729088725E+03  0.12033556562E+04  0.25500000920E-02 0. -1.
</event>
<event>
 5   0  0.4956214E-06  0.2000306E+04  0.7818609E-02  0.8606478E-01
       -2   -1    0    0    0  501  0.00000000000E+00  0.00000000000E+00  0.40027331958E+03  0.40027331959E+03  0.25500000920E-02 0. -1.
        2   -1    0    0  501    0  0.00000000000E+00  0.00000000000E+00 -0.24990578088E+04  0.24990578088E+04  0.25500000920E-02 0.  1.
    10030    2    1    2    0    0  0.00000000000E+00  0.00000000000E+00 -0.20987844892E+04  0.28993311283E+04  0.20003061415E+04 0.  0.
        1    1    3    3  502    0 -0.61513862306E+03 -0.54136373093E+03 -0.21822007066E+03  0.84799187143E+03  0.50400001928E-02 0. -1.
       -1    1    3    3    0  502  0.61513862306E+03  0.54136373093E+03 -0.18805644185E+04  0.20513392569E+04  0.50400001928E-02 0.  1.
</event>
<event>
 5   0  0.2386776E-06  0.1999763E+04  0.7818609E-02  0.8606731E-01
       -1   -1    0    0    0  501  0.00000000000E+00  0.00000000000E+00  0.76733451403E+03  0.76733451404E+03  0.50400001928E-02 0. -1.
        1   -1    0    0  501    0  0.00000000000E+00  0.00000000000E+00 -0.13029038069E+04  0.13029038069E+04  0.50400001928E-02 0.  1.
    10030    2    1    2    0    0  0.00000000000E+00  0.00000000000E+00 -0.53556929283E+03  0.20702383209E+04  0.19997630454E+04 0.  0.
        2    1    3    3  502    0 -0.98540821043E+03  0.15956326811E+03 -0.20855576925E+03  0.10197966889E+04  0.25500000920E-02 0.  1.
       -2    1    3    3    0  502  0.98540821043E+03 -0.15956326811E+03 -0.32701352358E+03  0.10504416320E+04  0.25500000920E-02 0. -1.
</event>
<event>
 5   0  0.5030137E-06  0.2001546E+04  0.7818609E-02  0.8605898E-01
        2   -1    0    0  501    0  0.00000000000E+00  0.00000000000E+00  0.13484506431E+04  0.13484506431E+04  0.25500000920E-02 0. -1.
       -2   -1    0    0    0  501  0.00000000000E+00  0.00000000000E+00 -0.74273853101E+03  0.74273853101E+03  0.25500000920E-02 0.  1.
    10030    2    1    2    0    0  0.00000000000E+00  0.00000000000E+00  0.60571211211E+03  0.20911891741E+04  0.20015456525E+04 0.  0.
        3    1    3    3  502    0 -0.97792839646E+03 -0.68100069115E+02  0.92428891174E+02  0.98464444249E+03  0.10100000352E+00 0.  1.
       -3    1    3    3    0  502  0.97792839646E+03  0.68100069115E+02  0.51328322094E+03  0.11065447316E+04  0.10100000352E+00 0. -1.
</event>
<event>
 5   0  0.5118981E-06  0.2001205E+04  0.7818609E-02  0.8606058E-01
        2   -1    0    0  501    0  0.00000000000E+00  0.00000000000E+00  0.15403312279E+04  0.15403312279E+04  0.25500000920E-02 0.  1.
       -2   -1    0    0    0  501  0.00000000000E+00  0.00000000000E+00 -0.64999337380E+03  0.64999337381E+03  0.25500000920E-02 0. -1.
    10030    2    1    2    0    0  0.00000000000E+00  0.00000000000E+00  0.89033785409E+03  0.21903246017E+04  0.20012047288E+04 0.  0.
        4    1    3    3  502    0 -0.19361105489E+02 -0.90561555484E+03 -0.20077374968E+02  0.90604585947E+03  0.12699999809E+01 0.  1.
       -4    1    3    3    0  502  0.19361105489E+02  0.90561555484E+03  0.91041522906E+03  0.12842787422E+04  0.12699999809E+01 0. -1.
</event>
<event>
 5   0  0.5251252E-06  0.1999783E+04  0.7818609E-02  0.8606722E-01
       -2   -1    0    0    0  501  0.00000000000E+00  0.00000000000E+00  0.59470204953E+03  0.59470204953E+03  0.25500000920E-02 0.  1.
        2   -1    0    0  501    0  0.00000000000E+00  0.00000000000E+00 -0.16811492322E+04  0.16811492322E+04  0.25500000920E-02 0. -1.
    10030    2    1    2    0    0  0.00000000000E+00  0.00000000000E+00 -0.10864471827E+04  0.22758512817E+04  0.19997828822E+04 0.  0.
        5    1    3    3  502    0  0.35645798859E+03  0.89988224296E+03 -0.25777858734E+03  0.10016597421E+04  0.46999998093E+01 0. -1.
       -5    1    3    3    0  502 -0.35645798859E+03 -0.89988224296E+03 -0.82866859531E+03  0.12741915396E+04  0.46999998093E+01 0.  1.
</event>
<event>
 5   0  0.2313821E-06  0.1996264E+04  0.7818609E-02  0.8608369E-01
       -1   -1    0    0    0  501  0.00000000000E+00  0.00000000000E+00  0.10791326926E+04  0.10791326926E+04  0.50400001928E-02 0.  1.
        1   -1    0    0  501    0  0.00000000000E+00  0.00000000000E+00 -0.92321161056E+03  0.92321161058E+03  0.50400001928E-02 0. -1.
    10030    2    1    2    0    0  0.00000000000E+00  0.00000000000E+00  0.15592108201E+03  0.20023443032E+04  0.19962643424E+04 0.  0.
        1    1    3    3  502    0 -0.71635731533E+03  0.20602946131E+03  0.74379846143E+03  0.10530204620E+04  0.50400001928E-02 0.  1.
       -1    1    3    3    0  502  0.71635731533E+03 -0.20602946131E+03 -0.58787737941E+03  0.94932384116E+03  0.50400001928E-02 0. -1.
</event>
<event>
 5   0  0.2311520E-06  0.1999944E+04  0.7818609E-02  0.8606647E-01
        1   -1    0    0  501    0  0.00000000000E+00  0.00000000000E+00  0.10883494894E+04  0.10883494894E+04  0.50400001928E-02 0.  1.
       -1   -1    0    0    0  501  0.00000000000E+00  0.00000000000E+00 -0.91877139897E+03  0.91877139898E+03  0.50400001928E-02 0. -1.
    10030    2    1    2    0    0  0.00000000000E+00  0.00000000000E+00  0.16957809043E+03  0.20071208884E+04  0.19999443822E+04 0.  0.
        3    1    3    3  502    0  0.38090887884E+02  0.69102306024E+03  0.80916893169E+03  0.10647620184E+04  0.10100000352E+00 0.  1.
       -3    1    3    3    0  502 -0.38090887884E+02 -0.69102306024E+03 -0.63959084125E+03  0.94235887004E+03  0.10100000352E+00 0. -1.
</event>
<event>
 5   0  0.2356996E-06  0.2003057E+04  0.7818609E-02  0.8605193E-01
       -1   -1    0    0    0  501  0.00000000000E+00  0.00000000000E+00  0.13447952716E+04  0.13447952716E+04  0.50400001928E-02 0.  1.
        1   -1    0    0  501    0  0.00000000000E+00  0.00000000000E+00 -0.74588258498E+03  0.74588258500E+03  0.50400001928E-02 0. -1.
    10030    2    1    2    0    0  0.00000000000E+00  0.00000000000E+00  0.59891268665E+03  0.20906778566E+04  0.20030570371E+04 0.  0.
        4    1    3    3  502    0  0.66277942109E+03 -0.57135700949E+03 -0.20902179913E+03  0.89967611880E+03  0.12699999809E+01 0. -1.
       -4    1    3    3    0  502 -0.66277942109E+03  0.57135700949E+03  0.80793448578E+03  0.11910017378E+04  0.12699999809E+01 0.  1.
</event>
<event>
 5   0  0.2379743E-06  0.2000045E+04  0.7818609E-02  0.8606600E-01
        1   -1    0    0  501    0  0.00000000000E+00  0.00000000000E+00  0.74831204372E+03  0.74831204374E+03  0.50400001928E-02 0. -1.
       -1   -1    0    0    0  501  0.00000000000E+00  0.00000000000E+00 -0.13364010467E+04  0.13364010467E+04  0.50400001928E-02 0.  1.
    10030    2    1    2    0    0  0.00000000000E+00  0.00000000000E+00 -0.58808900293E+03  0.20847130904E+04  0.20000449980E+04 0.  0.
        5    1    3    3  502    0 -0.93008896073E+03  0.36339416188E+03 -0.35019633781E+03  0.10581967477E+04  0.46999998093E+01 0. -1.
       -5    1    3    3    0  502  0.93008896073E+03 -0.36339416188E+03 -0.23789266512E+03  0.10265163427E+04  0.46999998093E+01 0.  1.
</event>
<event>
 5   0  0.5030137E-06  0.1998545E+04  0.7818609E-02  0.8607301E-01
        2   -1    0    0  501    0  0.00000000000E+00  0.00000000000E+00  0.55880366881E+03  0.55880366881E+03  0.25500000920E-02 0.  1.
       -2   -1    0    0    0  501  0.00000000000E+00  0.00000000000E+00 -0.17869353185E+04  0.17869353185E+04  0.25500000920E-02 0. -1.
    10030    2    1    2    0    0  0.00000000000E+00  0.00000000000E+00 -0.12281316497E+04  0.23457389873E+04  0.19985454830E+04 0.  0.
        3    1    3    3  502    0  0.42447072484E+03 -0.77602661504E+03 -0.68375086294E+02  0.88716845420E+03  0.10100000352E+00 0.  1.
       -3    1    3    3    0  502 -0.42447072484E+03  0.77602661504E+03 -0.11597565634E+04  0.14585705331E+04  0.10100000352E+00 0. -1.
</event>
<event>
 5   0  0.2386776E-06  0.1999760E+04  0.7818609E-02  0.8606733E-01
        1   -1    0    0  501    0  0.00000000000E+00  0.00000000000E+00  0.12546663593E+04  0.12546663593E+04  0.50400001928E-02 0.  1.
       -1   -1    0    0    0  501  0.00000000000E+00  0.00000000000E+00 -0.79683328920E+03  0.79683328921E+03  0.50400001928E-02 0. -1.
    10030    2    1    2    0    0  0.00000000000E+00  0.00000000000E+00  0.45783307012E+03  0.20514996485E+04  0.19997599076E+04 0.  0.
        2    1    3    3  502    0 -0.66696053284E+03 -0.53736059123E+03  0.75817867555E+03  0.11438652287E+04  0.25500000920E-02 0.  1.
       -2    1    3    3    0  502  0.66696053284E+03  0.53736059123E+03 -0.30034560543E+03  0.90763441984E+03  0.25500000920E-02 0. -1.
</event>
<event>
 5   0  0.2356996E-06  0.2000974E+04  0.7818609E-02  0.8606165E-01
        1   -1    0    0  501    0  0.00000000000E+00  0.00000000000E+00  0.94351746939E+03  0.94351746940E+03  0.50400001928E-02 0. -1.
       -1   -1    0    0    0  501  0.00000000000E+00  0.00000000000E+00 -0.10608968590E+04  0.10608968591E+04  0.50400001928E-02 0.  1.
    10030    2    1    2    0    0  0.00000000000E+00  0.00000000000E+00 -0.11737938966E+03  0.20044143285E+04  0.20009744823E+04 0.  0.
        4    1    3    3  502    0 -0.65437346993E+03 -0.66341280163E+03 -0.42352992745E+03  0.10235723696E+04  0.12699999809E+01 0. -1.
       -4    1    3    3    0  502  0.65437346993E+03  0.66341280163E+03  0.30615053779E+03  0.98084195883E+03  0.12699999809E+01 0.  1.
</event>
<event>
 5   0  0.2311520E-06  0.2005227E+04  0.7818609E-02  0.8604181E-01
        1   -1    0    0  501    0  0.00000000000E+00  0.00000000000E+00  0.11797650463E+04  0.11797650463E+04  0.50400001928E-02 0. -1.
       -1   -1    0    0    0  501  0.00000000000E+00  0.00000000000E+00 -0.85206305724E+03  0.85206305725E+03  0.50400001928E-02 0.  1.
    10030    2    1    2    0    0  0.00000000000E+00  0.00000000000E+00  0.32770198906E+03  0.20318281036E+04  0.20052273808E+04 0.  0.
        3    1    3    3  502    0  0.29864405998E+03 -0.87687780564E+03  0.55251631060E+03  0.10785996682E+04  0.10100000352E+00 0. -1.
       -3    1    3    3    0  502 -0.29864405998E+03  0.87687780564E+03 -0.22481432154E+03  0.95322843535E+03  0.10100000352E+00 0.  1.
</event>
<event>
 5   0  0.2356996E-06  0.2000465E+04  0.7818609E-02  0.8606403E-01
        1   -1    0    0  501    0  0.00000000000E+00  0.00000000000E+00  0.13044579765E+04  0.13044579765E+04  0.50400001928E-02 0. -1.
       -1   -1    0    0    0  501  0.00000000000E+00  0.00000000000E+00 -0.76695812364E+03  0.76695812365E+03  0.50400001928E-02 0.  1.
    10030    2    1    2    0    0  0.00000000000E+00  0.00000000000E+00  0.53749985290E+03  0.20714161002E+04  0.20004645881E+04 0.  0.
        4    1    3    3  502    0  0.36537749078E+02 -0.17411029014E+03  0.12879433188E+04  0.13001726830E+04  0.12699999809E+01 0. -1.
       -4    1    3    3    0  502 -0.36537749078E+02  0.17411029014E+03 -0.75044346588E+03  0.77124341723E+03  0.12699999809E+01 0.  1.
</event>
<event>
 5   0  0.5129100E-06  0.1998031E+04  0.7818609E-02  0.8607542E-01
        2   -1    0    0  501    0  0.00000000000E+00  0.00000000000E+00  0.12041420965E+04  0.12041420965E+04  0.25500000920E-02 0. -1.
       -2   -1    0    0    0  501  0.00000000000E+00  0.00000000000E+00 -0.82883279932E+03  0.82883279932E+03  0.25500000920E-02 0.  1.
    10030    2    1    2    0    0  0.00000000000E+00  0.00000000000E+00  0.37530929719E+03  0.20329748958E+04  0.19980314959E+04 0.  0.
        2    1    3    3  502    0 -0.33213492779E+03 -0.92943799560E+03  0.30473632077E+02  0.98747012116E+03  0.25500000920E-02 0. -1.
       -2    1    3    3    0  502  0.33213492779E+03  0.92943799560E+03  0.34483566511E+03  0.10455047747E+04  0.25500000920E-02 0.  1.
</event>
<event>
 5   0  0.5251252E-06  0.1999810E+04  0.7818609E-02  0.8606709E-01
       -2   -1    0    0    0  501  0.00000000000E+00  0.00000000000E+00  0.86787370521E+03  0.86787370521E+03  0.25500000920E-02 0.  1.
        2   -1    0    0  501    0  0.00000000000E+00  0.00000000000E+00 -0.11520224882E+04  0.11520224882E+04  0.25500000920E-02 0. -1.
    10030    2    1    2    0    0  0.00000000000E+00  0.00000000000E+00 -0.28414878302E+03  0.20198961934E+04  0.19998100163E+04 0.  0.
        5    1    3    3  502    0 -0.13812254221E+03  0.98754132903E+03 -0.67356919189E+02  0.99943722052E+03  0.46999998093E+01 0.  1.
       -5    1    3    3    0  502  0.13812254221E+03 -0.98754132903E+03 -0.21679186383E+03  0.10204589729E+04  0.46999998093E+01 0. -1.
</event>
<event>
 5   0  0.5030137E-06  0.2003462E+04  0.7818609E-02  0.8605004E-01
        2   -1    0    0  501    0  0.00000000000E+00  0.00000000000E+00  0.96399490972E+03  0.96399490973E+03  0.25500000920E-02 0. -1.
       -2   -1    0    0    0  501  0.00000000000E+00  0.00000000000E+00 -0.10409442614E+04  0.10409442614E+04  0.25500000920E-02 0.  1.
    10030    2    1    2    0    0  0.00000000000E+00  0.00000000000E+00 -0.76949351669E+02  0.20049391711E+04  0.20034619730E+04 0.  0.
        3    1    3    3  502    0 -0.68945984467E+03  0.68101468007E+03  0.21534412724E+03  0.99272804695E+03  0.10100000352E+00 0.  1.
       -3    1    3    3    0  502  0.68945984467E+03 -0.68101468007E+03 -0.29229347891E+03  0.10122111242E+04  0.10100000352E+00 0. -1.
</event>
<event>
 5   0  0.5251252E-06  0.1999977E+04  0.7818609E-02  0.8606631E-01
       -2   -1    0    0    0  501  0.00000000000E+00  0.00000000000E+00  0.62645033997E+03  0.62645033998E+03  0.25500000920E-02 0.  1.
        2   -1    0    0  501    0  0.00000000000E+00  0.00000000000E+00 -0.15962590870E+04  0.15962590870E+04  0.25500000920E-02 0. -1.
    10030    2    1    2    0    0  0.00000000000E+00  0.00000000000E+00 -0.96980874707E+03  0.22227094270E+04  0.19999770476E+04 0.  0.
        5    1    3    3  502    0 -0.38141174183E+03 -0.83981939965E+03 -0.91416193583E+03  0.12986476334E+04  0.46999998093E+01 0. -1.
       -5    1    3    3    0  502  0.38141174183E+03  0.83981939965E+03 -0.55646811238E+02  0.92406179362E+03  0.46999998093E+01 0.  1.
</event>
<event>
 5   0  0.2356996E-06  0.2001498E+04  0.7818609E-02  0.8605921E-01
        1   -1    0    0  501    0  0.00000000000E+00  0.00000000000E+00  0.18845867441E+04  0.18845867441E+04  0.50400001928E-02 0. -1.
       -1   -1    0    0    0  501  0.00000000000E+00  0.00000000000E+00 -0.53141541409E+03  0.53141541412E+03  0.50400001928E-02 0.  1.
    10030    2    1    2    0    0  0.00000000000E+00  0.00000000000E+00  0.13531713300E+04  0.24160021582E+04  0.20014978841E+04 0.  0.
        4    1    3    3  502    0  0.84576475990E+03 -0.27980367809E+03  0.12621201993E+03  0.89974397149E+03  0.12699999809E+01 0.  1.
       -4    1    3    3    0  502 -0.84576475990E+03  0.27980367809E+03  0.12269593101E+04  0.15162581868E+04  0.12699999809E+01 0. -1.
</event>
<event>
 5   0  0.2379743E-06  0.2000229E+04  0.7818609E-02  0.8606513E-01
        1   -1    0    0  501    0  0.00000000000E+00  0.00000000000E+00  0.19925952997E+04  0.19925952997E+04  0.50400001928E-02 0.  1.
       -1   -1    0    0    0  501  0.00000000000E+00  0.00000000000E+00 -0.50197319367E+03  0.50197319370E+03  0.50400001928E-02 0. -1.
    10030    2    1    2    0    0  0.00000000000E+00  0.00000000000E+00  0.14906221060E+04  0.24945684934E+04  0.20002294132E+04 0.  0.
        5    1    3    3  502    0 -0.37241053788E+03  0.91776428911E+03  0.57238316762E+03  0.11439516946E+04  0.46999998093E+01 0. -1.
       -5    1    3    3    0  502  0.37241053788E+03 -0.91776428911E+03  0.91823893841E+03  0.13506167988E+04  0.46999998093E+01 0.  1.
</event>
<event>
 5   0  0.2311520E-06  0.2000821E+04  0.7818609E-02  0.8606237E-01
        1   -1    0    0  501    0  0.00000000000E+00  0.00000000000E+00  0.52755142535E+03  0.52755142538E+03  0.50400001928E-02 0.  1.
       -1   -1    0    0    0  501  0.00000000000E+00  0.00000000000E+00 -0.18971062232E+04  0.18971062232E+04  0.50400001928E-02 0. -1.
    10030    2    1    2    0    0  0.00000000000E+00  0.00000000000E+00 -0.13695547978E+04  0.24246576486E+04  0.20008209236E+04 0.  0.
        3    1    3    3  502    0  0.37207382579E+03  0.44895166301E+03 -0.16698886794E+04  0.17687636189E+04  0.10100000352E+00 0. -1.
       -3    1    3    3    0  502 -0.37207382579E+03 -0.44895166301E+03  0.30033388160E+03  0.65589402970E+03  0.10100000352E+00 0.  1.
</event>
<event>
 5   0  0.2379743E-06  0.1999508E+04  0.7818609E-02  0.8606851E-01
        1   -1    0    0  501    0  0.00000000000E+00  0.00000000000E+00  0.12777799115E+04  0.12777799115E+04  0.50400001928E-02 0. -1.
       -1   -1    0    0    0  501  0.00000000000E+00  0.00000000000E+00 -0.78222251358E+03  0.78222251360E+03  0.50400001928E-02 0.  1.
    10030    2    1    2    0    0  0.00000000000E+00  0.00000000000E+00  0.49555739794E+03  0.20600024251E+04  0.19995081537E+04 0.  0.
        5    1    3    3  502    0  0.12342057521E+03 -0.77660148628E+03  0.88382521470E+03  0.11830095549E+04  0.46999998093E+01 0. -1.
       -5    1    3    3    0  502 -0.12342057521E+03  0.77660148628E+03 -0.38826781676E+03  0.87699287021E+03  0.46999998093E+01 0.  1.
</event>
<event>
 5   0  0.5129100E-06  0.2000204E+04  0.7818609E-02  0.8606525E-01
        2   -1    0    0  501    0  0.00000000000E+00  0.00000000000E+00  0.93408726676E+03  0.93408726676E+03  0.25500000920E-02 0.  1.
       -2   -1    0    0    0  501  0.00000000000E+00  0.00000000000E+00 -0.10707822044E+04  0.10707822044E+04  0.25500000920E-02 0. -1.
    10030    2    1    2    0    0  0.00000000000E+00  0.00000000000E+00 -0.13669493761E+03  0.20048694711E+04  0.20002040122E+04 0.  0.
        2    1    3    3  502    0 -0.85428618784E+03 -0.26213334982E+03 -0.51848877358E+03  0.10331260292E+04  0.25500000920E-02 0. -1.
       -2    1    3    3    0  502  0.85428618784E+03  0.26213334982E+03  0.38179383597E+03  0.97174344197E+03  0.25500000920E-02 0.  1.
</event>
<event>
 5   0  0.5030137E-06  0.1999913E+04  0.7818609E-02  0.8606661E-01
        2   -1    0    0  501    0  0.00000000000E+00  0.00000000000E+00  0.10062459854E+04  0.10062459854E+04  0.25500000920E-02 0.  1.
       -2   -1    0    0    0  501  0.00000000000E+00  0.00000000000E+00 -0.99370610604E+03  0.99370610605E+03  0.25500000920E-02 0. -1.
    10030    2    1    2    0    0  0.00000000000E+00  0.00000000000E+00  0.12539879311E+02  0.19999520914E+04  0.19999127779E+04 0.  0.
        3    1    3    3  502    0 -0.27385683981E+03  0.35927362487E+03  0.89838481578E+03  0.10055696861E+04  0.10100000352E+00 0.  1.
       -3    1    3    3    0  502  0.27385683981E+03 -0.35927362487E+03 -0.88584493647E+03  0.99438240527E+03  0.10100000352E+00 0. -1.
</event>
<event>
 5   0  0.5030137E-06  0.2000035E+04  0.7818609E-02  0.8606604E-01
       -2   -1    0    0    0  501  0.00000000000E+00  0.00000000000E+00  0.99534829663E+03  0.99534829663E+03  0.25500000920E-02 0. -1.
        2   -1    0    0  501    0  0.00000000000E+00  0.00000000000E+00 -0.10047090879E+04  0.10047090879E+04  0.25500000920E-02 0.  1.
    10030    2    1    2    0    0  0.00000000000E+00  0.00000000000E+00 -0.93607912826E+01  0.20000573845E+04  0.20000354789E+04 0.  0.
        3    1    3    3  502    0 -0.51122732390E+03  0.16469719633E+03  0.83886718023E+03  0.99608066915E+03  0.10100000352E+00 0. -1.
       -3    1    3    3    0  502  0.51122732390E+03 -0.16469719633E+03 -0.84822797152E+03  0.10039767154E+04  0.10100000352E+00 0.  1.
</event>
<event>
 5   0  0.2386776E-06  0.2000053E+04  0.7818609E-02  0.8606596E-01
       -1   -1    0    0    0  501  0.00000000000E+00  0.00000000000E+00  0.81193791872E+03  0.81193791874E+03  0.50400001928E-02 0.  1.
        1   -1    0    0  501    0  0.00000000000E+00  0.00000000000E+00 -0.12316861199E+04  0.12316861199E+04  0.50400001928E-02 0. -1.
    10030    2    1    2    0    0  0.00000000000E+00  0.00000000000E+00 -0.41974820114E+03  0.20436240386E+04  0.20000526640E+04 0.  0.
        2    1    3    3  502    0 -0.39535798785E+03  0.55801035839E+03 -0.95540563536E+03  0.11749397545E+04  0.25500000920E-02 0. -1.
       -2    1    3    3    0  502  0.39535798785E+03 -0.55801035839E+03  0.53565743422E+03  0.86868428411E+03  0.25500000920E-02 0.  1.
</event>
<event>
 5   0  0.5118981E-06  0.1995473E+04  0.7818609E-02  0.8608740E-01
       -2   -1    0    0    0  501  0.00000000000E+00  0.00000000000E+00  0.66326782892E+03  0.66326782893E+03  0.25500000920E-02 0.  1.
        2   -1    0    0  501    0  0.00000000000E+00  0.00000000000E+00 -0.15008692302E+04  0.15008692303E+04  0.25500000920E-02 0. -1.
    10030    2    1    2    0    0  0.00000000000E+00  0.00000000000E+00 -0.83760140132E+03  0.21641370592E+04  0.19954731528E+04 0.  0.
        4    1    3    3  502    0  0.85724474645E+03 -0.34443550688E+03 -0.10160898317E+02  0.92390975234E+03  0.12699999809E+01 0. -1.
       -4    1    3    3    0  502 -0.85724474645E+03  0.34443550688E+03 -0.82744050301E+03  0.12402273068E+04  0.12699999809E+01 0.  1.
</event>
<event>
 5   0  0.5030137E-06  0.1999873E+04  0.7818609E-02  0.8606680E-01
       -2   -1    0    0    0  501  0.00000000000E+00  0.00000000000E+00  0.74907996144E+03  0.74907996145E+03  0.25500000920E-02 0. -1.
        2   -1    0    0  501    0  0.00000000000E+00  0.00000000000E+00 -0.13348012115E+04  0.13348012115E+04  0.25500000920E-02 0.  1.
    10030    2    1    2    0    0  0.00000000000E+00  0.00000000000E+00 -0.58572125007E+03  0.20838811730E+04  0.19998728360E+04 0.  0.
        3    1    3    3  502    0 -0.25146606679E+03 -0.49354638742E+03 -0.11603271636E+04  0.12857613916E+04  0.10100000352E+00 0.  1.
       -3    1    3    3    0  502  0.25146606679E+03  0.49354638742E+03  0.57460591356E+03  0.79811978135E+03  0.10100000352E+00 0. -1.
</event>
<event>
 5   0  0.5030137E-06  0.1998724E+04  0.7818609E-02  0.8607218E-01
        2   -1    0    0  501    0  0.00000000000E+00  0.00000000000E+00  0.97889236852E+03  0.97889236852E+03  0.25500000920E-02 0.  1.
       -2   -1    0    0    0  501  0.00000000000E+00  0.00000000000E+00 -0.10202593249E+04  0.10202593249E+04  0.25500000920E-02 0. -1.
    10030    2    1    2    0    0  0.00000000000E+00  0.00000000000E+00 -0.41366956409E+02  0.19991516934E+04  0.19987236598E+04 0.  0.
        3    1    3    3  502    0 -0.39287420986E+03  0.65173167639E+03 -0.66860282458E+03  0.10129827590E+04  0.10100000352E+00 0. -1.
       -3    1    3    3    0  502  0.39287420986E+03 -0.65173167639E+03  0.62723586817E+03  0.98616893446E+03  0.10100000352E+00 0.  1.
</event>
<event>
 5   0  0.5030137E-06  0.2000744E+04  0.7818609E-02  0.8606273E-01
        2   -1    0    0  501    0  0.00000000000E+00  0.00000000000E+00  0.10061782948E+04  0.10061782948E+04  0.25500000920E-02 0. -1.
       -2   -1    0    0    0  501  0.00000000000E+00  0.00000000000E+00 -0.99459879594E+03  0.99459879594E+03  0.25500000920E-02 0.  1.
    10030    2    1    2    0    0  0.00000000000E+00  0.00000000000E+00  0.11579498903E+02  0.20007770908E+04  0.20007435823E+04 0.  0.
        3    1    3    3  502    0 -0.32752417020E+03  0.80261880256E+03  0.50507227053E+03  0.10032781434E+04  0.10100000352E+00 0.  1.
       -3    1    3    3    0  502  0.32752417020E+03 -0.80261880256E+03 -0.49349277162E+03  0.99749894743E+03  0.10100000352E+00 0. -1.
</event>
<event>
 5   0  0.5251252E-06  0.2000909E+04  0.7818609E-02  0.8606196E-01
       -2   -1    0    0    0  501  0.00000000000E+00  0.00000000000E+00  0.72207383994E+03  0.72207383994E+03  0.25500000920E-02 0. -1.
        2   -1    0    0  501    0  0.00000000000E+00  0.00000000000E+00 -0.13861584870E+04  0.13861584870E+04  0.25500000920E-02 0.  1.
    10030    2    1    2    0    0  0.00000000000E+00  0.00000000000E+00 -0.66408464703E+03  0.21082323269E+04  0.20009085751E+04 0.  0.
        5    1    3    3  502    0 -0.67618813668E+03  0.59779963146E+03 -0.78680855018E+03  0.11973656836E+04  0.46999998093E+01 0.  1.
       -5    1    3    3    0  502  0.67618813668E+03 -0.59779963146E+03  0.12272390315E+03  0.91086664335E+03  0.46999998093E+01 0. -1.
</event>
<event>
 5   0  0.2311520E-06  0.2000626E+04  0.7818609E-02  0.8606328E-01
       -1   -1    0    0    0  501  0.00000000000E+00  0.00000000000E+00  0.10672393756E+04  0.10672393756E+04  0.50400001928E-02 0.  1.
        1   -1    0    0  501    0  0.00000000000E+00  0.00000000000E+00 -0.93758340554E+03  0.93758340556E+03  0.50400001928E-02 0. -1.
    10030    2    1    2    0    0  0.00000000000E+00  0.00000000000E+00  0.12965597008E+03  0.20048227812E+04  0.20006258304E+04 0.  0.
        3    1    3    3  502    0  0.67957284850E+03 -0.19420140624E+03 -0.64453587318E+03  0.95653538597E+03  0.10100000352E+00 0. -1.
       -3    1    3    3    0  502 -0.67957284850E+03  0.19420140624E+03  0.77419184327E+03  0.10482873952E+04  0.10100000352E+00 0.  1.
</event>
<event>
 5   0  0.2386776E-06  0.2010574E+04  0.7818609E-02  0.8601693E-01
       -1   -1    0    0    0  501  0.00000000000E+00  0.00000000000E+00  0.64970433079E+03  0.64970433081E+03  0.50400001928E-02 0.  1.
        1   -1    0    0  501    0  0.00000000000E+00  0.00000000000E+00 -0.15554793381E+04  0.15554793381E+04  0.50400001928E-02 0. -1.
    10030    2    1    2    0    0  0.00000000000E+00  0.00000000000E+00 -0.90577500733E+03  0.22051836689E+04  0.20105737116E+04 0.  0.
        2    1    3    3  502    0 -0.17748268910E+03 -0.10810197065E+03  0.62588853927E+03  0.65948662198E+03  0.25500000920E-02 0.  1.
       -2    1    3    3    0  502  0.17748268910E+03  0.10810197065E+03 -0.15316635466E+04  0.15456970470E+04  0.25500000920E-02 0. -1.
</event>
<event>
 5   0  0.2356996E-06  0.2000415E+04  0.7818609E-02  0.8606427E-01
       -1   -1    0    0    0  501  0.00000000000E+00  0.00000000000E+00  0.54499692469E+03  0.54499692472E+03  0.50400001928E-02 0.  1.
        1   -1    0    0  501    0  0.00000000000E+00  0.00000000000E+00 -0.18356334115E+04  0.18356334115E+04  0.50400001928E-02 0. -1.
    10030    2    1    2    0    0  0.00000000000E+00  0.00000000000E+00 -0.12906364868E+04  0.23806303362E+04  0.20004145212E+04 0.  0.
        4    1    3    3  502    0 -0.98505312043E+03  0.12720642901E+03 -0.78563446539E+03  0.12663862964E+04  0.12699999809E+01 0. -1.
       -4    1    3    3    0  502  0.98505312043E+03 -0.12720642901E+03 -0.50500202137E+03  0.11142440398E+04  0.12699999809E+01 0.  1.
</event>
<event>
 5   0  0.5030137E-06  0.2002793E+04  0.7818609E-02  0.8605316E-01
        2   -1    0    0  501    0  0.00000000000E+00  0.00000000000E+00  0.21730680474E+04  0.21730680474E+04  0.25500000920E-02 0.  1.
       -2   -1    0    0    0  501  0.00000000000E+00  0.00000000000E+00 -0.46146522148E+03  0.46146522148E+03  0.25500000920E-02 0. -1.
    10030    2    1    2    0    0  0.00000000000E+00  0.00000000000E+00  0.17116028259E+04  0.26345332689E+04  0.20027933770E+04 0.  0.
        3    1    3    3  502    0  0.19226546874E+03 -0.97676342192E+03  0.71313628992E+03  0.12245799978E+04  0.10100000352E+00 0. -1.
       -3    1    3    3    0  502 -0.19226546874E+03  0.97676342192E+03  0.99846653599E+03  0.14099532711E+04  0.10100000352E+00 0.  1.
</event>
<event>
 5   0  0.5030137E-06  0.2000713E+04  0.7818609E-02  0.8606288E-01
       -2   -1    0    0    0  501  0.00000000000E+00  0.00000000000E+00  0.64706670895E+03  0.64706670896E+03  0.25500000920E-02 0. -1.
        2   -1    0    0  501    0  0.00000000000E+00  0.00000000000E+00 -0.15465371962E+04  0.15465371962E+04  0.25500000920E-02 0.  1.
    10030    2    1    2    0    0  0.00000000000E+00  0.00000000000E+00 -0.89947048723E+03  0.21936039051E+04  0.20007126069E+04 0.  0.
        3    1    3    3  502    0 -0.38545779916E+03 -0.48462103453E+03  0.41168229908E+03  0.74358428414E+03  0.10100000352E+00 0. -1.
       -3    1    3    3    0  502  0.38545779916E+03  0.48462103453E+03 -0.13111527863E+04  0.14500196210E+04  0.10100000352E+00 0.  1.
</event>
<event>
 5   0  0.4956214E-06  0.1998817E+04  0.7818609E-02  0.8607174E-01
        2   -1    0    0  501    0  0.00000000000E+00  0.00000000000E+00  0.14750447067E+04  0.14750447067E+04  0.25500000920E-02 0. -1.
       -2   -1    0    0    0  501  0.00000000000E+00  0.00000000000E+00 -0.67714362026E+03  0.67714362026E+03  0.25500000920E-02 0.  1.
    10030    2    1    2    0    0  0.00000000000E+00  0.00000000000E+00  0.79790108646E+03  0.21521883270E+04  0.19988167627E+04 0.  0.
        1    1    3    3  502    0 -0.91802524580E+03  0.38404724002E+03  0.49853786476E+03  0.11130151109E+04  0.50400001928E-02 0. -1.
       -1    1    3    3    0  502  0.91802524580E+03 -0.38404724002E+03  0.29936322170E+03  0.10391732161E+04  0.50400001928E-02 0.  1.
</event>
<event>
 5   0  0.2313821E-06  0.2000304E+04  0.7818609E-02  0.8606479E-01
        1   -1    0    0  501    0  0.00000000000E+00  0.00000000000E+00  0.10740433621E+04  0.10740433621E+04  0.50400001928E-02 0. -1.
       -1   -1    0    0    0  501  0.00000000000E+00  0.00000000000E+00 -0.93134412423E+03  0.93134412424E+03  0.50400001928E-02 0.  1.
    10030    2    1    2    0    0  0.00000000000E+00  0.00000000000E+00  0.14269923783E+03  0.20053874863E+04  0.20003039514E+04 0.  0.
        1    1    3    3  502    0 -0.52302098585E+03 -0.60543358291E+03  0.67304418695E+03  0.10455090878E+04  0.50400001928E-02 0. -1.
       -1    1    3    3    0  502  0.52302098585E+03  0.60543358291E+03 -0.53034494912E+03  0.95987839857E+03  0.50400001928E-02 0.  1.
</event>
<event>
 5   0  0.5129100E-06  0.1999720E+04  0.7818609E-02  0.8606752E-01
        2   -1    0    0  501    0  0.00000000000E+00  0.00000000000E+00  0.70782468092E+03  0.70782468093E+03  0.25500000920E-02 0.  1.
       -2   -1    0    0    0  501  0.00000000000E+00  0.00000000000E+00 -0.14123831913E+04  0.14123831913E+04  0.25500000920E-02 0. -1.
    10030    2    1    2    0    0  0.00000000000E+00  0.00000000000E+00 -0.70455851035E+03  0.21202078722E+04  0.19997196621E+04 0.  0.
        2    1    3    3  502    0 -0.66446749970E+03  0.97320770525E+01  0.43979959100E+03  0.79689111661E+03  0.25500000920E-02 0.  1.
       -2    1    3    3    0  502  0.66446749970E+03 -0.97320770525E+01 -0.11443581014E+04  0.13233167556E+04  0.25500000920E-02 0. -1.
</event>
<event>
 5   0  0.5030137E-06  0.1999615E+04  0.7818609E-02  0.8606801E-01
       -2   -1    0    0    0  501  0.00000000000E+00  0.00000000000E+00  0.74331852822E+03  0.74331852822E+03  0.25500000920E-02 0. -1.
        2   -1    0    0  501    0  0.00000000000E+00  0.00000000000E+00 -0.13447999179E+04  0.13447999179E+04  0.25500000920E-02 0.  1.
    10030    2    1    2    0    0  0.00000000000E+00  0.00000000000E+00 -0.60148138971E+03  0.20881184462E+04  0.19996146586E+04 0.  0.
        3    1    3    3  502    0 -0.18525734959E+03  0.58889084449E+03  0.52051683192E+03  0.80749643641E+03  0.10100000352E+00 0. -1.
       -3    1    3    3    0  502  0.18525734959E+03 -0.58889084449E+03 -0.11219982216E+04  0.12806220097E+04  0.10100000352E+00 0.  1.
</event>
<event>
 5   0  0.2313821E-06  0.2000735E+04  0.7818609E-02  0.8606277E-01
       -1   -1    0    0    0  501  0.00000000000E+00  0.00000000000E+00  0.12952357431E+04  0.12952357431E+04  0.50400001928E-02 0. -1.
        1   -1    0    0  501    0  0.00000000000E+00  0.00000000000E+00 -0.77262748491E+03  0.77262748493E+03  0.50400001928E-02 0.  1.
    10030    2    1    2    0    0  0.00000000000E+00  0.00000000000E+00  0.52260825820E+03  0.20678632280E+04  0.20007345997E+04 0.  0.
        1    1    3    3  502    0 -0.30330723430E+03 -0.35466720872E+03  0.11758374128E+04  0.12650603657E+04  0.50400001928E-02 0. -1.
       -1    1    3    3    0  502  0.30330723430E+03  0.35466720872E+03 -0.65322915465E+03  0.80280286237E+03  0.50400001928E-02 0.  1.
</event>
<event>
 5   0  0.5118981E-06  0.1995879E+04  0.7818609E-02  0.8608550E-01
       -2   -1    0    0    0  501  0.00000000000E+00  0.00000000000E+00  0.51449392202E+03  0.51449392203E+03  0.25500000920E-02 0. -1.
        2   -1    0    0  501    0  0.00000000000E+00  0.00000000000E+00 -0.19356555098E+04  0.19356555098E+04  0.25500000920E-02 0.  1.
    10030    2    1    2    0    0  0.00000000000E+00  0.00000000000E+00 -0.14211615878E+04  0.24501494319E+04  0.19958787488E+04 0.  0.
        4    1    3    3  502    0 -0.25624187248E+03  0.96278822640E+03 -0.64048559664E+03  0.11844173582E+04  0.12699999809E+01 0. -1.
       -4    1    3    3    0  502  0.25624187248E+03 -0.96278822640E+03 -0.78067599117E+03  0.12657320736E+04  0.12699999809E+01 0.  1.
</event>
<event>
 5   0  0.1777750E-06  0.1998482E+04  0.7818609E-02  0.8607331E-01
       -3   -1    0    0    0  501  0.00000000000E+00  0.00000000000E+00  0.19499362552E+04  0.19499362578E+04  0.10100000352E+00 0. -1.
        3   -1    0    0  501    0  0.00000000000E+00  0.00000000000E+00 -0.51205887282E+03  0.51205888278E+03  0.10100000352E+00 0.  1.
    10030    2    1    2    0    0  0.00000000000E+00  0.00000000000E+00  0.14378773824E+04  0.24619951406E+04  0.19984816000E+04 0.  0.
        4    1    3    3  502    0 -0.22817317186E+02  0.76675076753E+03  0.15078117725E+04  0.16917225906E+04  0.12699999809E+01 0. -1.
       -4    1    3    3    0  502  0.22817317186E+02 -0.76675076753E+03 -0.69934390082E+02  0.77027255000E+03  0.12699999809E+01 0.  1.
</event>
<event>
 5   0  0.5251252E-06  0.1999759E+04  0.7818609E-02  0.8606733E-01
       -2   -1    0    0    0  501  0.00000000000E+00  0.00000000000E+00  0.65217102641E+03  0.65217102641E+03  0.25500000920E-02 0. -1.
        2   -1    0    0  501    0  0.00000000000E+00  0.00000000000E+00 -0.15329713253E+04  0.15329713253E+04  0.25500000920E-02 0.  1.
    10030    2    1    2    0    0  0.00000000000E+00  0.00000000000E+00 -0.88080029887E+03  0.21851423517E+04  0.19997594682E+04 0.  0.
        5    1    3    3  502    0 -0.44042197958E+03  0.50929481439E+03 -0.12481022708E+04  0.14181445964E+04  0.46999998093E+01 0.  1.
       -5    1    3    3    0  502  0.44042197958E+03 -0.50929481439E+03  0.36730197189E+03  0.76699775528E+03  0.46999998093E+01 0. -1.
</event>
<event>
 5   0  0.5118981E-06  0.1999595E+04  0.7818609E-02  0.8606810E-01
        2   -1    0    0  501    0  0.00000000000E+00  0.00000000000E+00  0.19689225004E+04  0.19689225004E+04  0.25500000920E-02 0.  1.
       -2   -1    0    0    0  501  0.00000000000E+00  0.00000000000E+00 -0.50768650229E+03  0.50768650230E+03  0.25500000920E-02 0. -1.
    10030    2    1    2    0    0  0.00000000000E+00  0.00000000000E+00  0.14612359981E+04  0.24766090027E+04  0.19995953366E+04 0.  0.
        4    1    3    3  502    0  0.58141495553E+03 -0.21564058913E+03 -0.24072001331E+03  0.66520068543E+03  0.12699999809E+01 0. -1.
       -4    1    3    3    0  502 -0.58141495553E+03  0.21564058913E+03  0.17019560114E+04  0.18114083172E+04  0.12699999809E+01 0.  1.
</event>
<event>
 5   0  0.5030137E-06  0.1999677E+04  0.7818609E-02  0.8606772E-01
        2   -1    0    0  501    0  0.00000000000E+00  0.00000000000E+00  0.14492500817E+04  0.14492500817E+04  0.25500000920E-02 0. -1.
       -2   -1    0    0    0  501  0.00000000000E+00  0.00000000000E+00 -0.68978891988E+03  0.68978891989E+03  0.25500000920E-02 0.  1.
    10030    2    1    2    0    0  0.00000000000E+00  0.00000000000E+00  0.75946116185E+03  0.21390390016E+04  0.19996766224E+04 0.  0.
        3    1    3    3  502    0 -0.13823273333E+03  0.13053636361E+03 -0.67027411312E+03  0.69671760973E+03  0.10100000352E+00 0.  1.
       -3    1    3    3    0  502  0.13823273333E+03 -0.13053636361E+03  0.14297352750E+04  0.14423213919E+04  0.10100000352E+00 0. -1.
</event>
<event>
 5   0  0.5030137E-06  0.2000338E+04  0.7818609E-02  0.8606462E-01
       -2   -1    0    0    0  501  0.00000000000E+00  0.00000000000E+00  0.12450381634E+04  0.12450381634E+04  0.25500000920E-02 0. -1.
        2   -1    0    0  501    0  0.00000000000E+00  0.00000000000E+00 -0.80346007189E+03  0.80346007189E+03  0.25500000920E-02 0.  1.
    10030    2    1    2    0    0  0.00000000000E+00  0.00000000000E+00  0.44157809156E+03  0.20484982353E+04  0.20003384237E+04 0.  0.
        3    1    3    3  502    0 -0.84439939018E+03  0.53575132949E+03  0.20309222963E+03  0.10204343590E+04  0.10100000352E+00 0.  1.
       -3    1    3    3    0  502  0.84439939018E+03 -0.53575132949E+03  0.23848586193E+03  0.10280638763E+04  0.10100000352E+00 0. -1.
</event>
<event>
 5   0  0.5118981E-06  0.2000248E+04  0.7818609E-02  0.8606505E-01
       -2   -1    0    0    0  501  0.00000000000E+00  0.00000000000E+00  0.11167347025E+04  0.11167347026E+04  0.25500000920E-02 0.  1.
        2   -1    0    0  501    0  0.00000000000E+00  0.00000000000E+00 -0.89569020906E+03  0.89569020906E+03  0.25500000920E-02 0. -1.
    10030    2    1    2    0    0  0.00000000000E+00  0.00000000000E+00  0.22104449349E+03  0.20124249116E+04  0.20002483238E+04 0.  0.
        4    1    3    3  502    0  0.65554761692E+03  0.39588205485E+03  0.75769656753E+03  0.10772980000E+04  0.12699999809E+01 0.  1.
       -4    1    3    3    0  502 -0.65554761692E+03 -0.39588205485E+03 -0.53665207404E+03  0.93512691164E+03  0.12699999809E+01 0. -1.
</event>
<event>
 5   0  0.5030137E-06  0.2000495E+04  0.7818609E-02  0.8606389E-01
        2   -1    0    0  501    0  0.00000000000E+00  0.00000000000E+00  0.10114657162E+04  0.10114657162E+04  0.25500000920E-02 0.  1.
       -2   -1    0    0    0  501  0.00000000000E+00  0.00000000000E+00 -0.98915363227E+03  0.98915363228E+03  0.25500000920E-02 0. -1.
    10030    2    1    2    0    0  0.00000000000E+00  0.00000000000E+00  0.22312083885E+02  0.20006193484E+04  0.20004949258E+04 0.  0.
        3    1    3    3  502    0  0.64653450626E+03 -0.23561356146E+03 -0.71481910369E+03  0.99221317232E+03  0.10100000352E+00 0. -1.
       -3    1    3    3    0  502 -0.64653450626E+03  0.23561356146E+03  0.73713118758E+03  0.10084061761E+04  0.10100000352E+00 0.  1.
</event>
<event>
 5   0  0.2379743E-06  0.2000036E+04  0.7818609E-02  0.8606604E-01
        1   -1    0    0  501    0  0.00000000000E+00  0.00000000000E+00  0.16482401582E+04  0.16482401582E+04  0.50400001928E-02 0. -1.
       -1   -1    0    0    0  501  0.00000000000E+00  0.00000000000E+00 -0.60672944890E+03  0.60672944892E+03  0.50400001928E-02 0.  1.
    10030    2    1    2    0    0  0.00000000000E+00  0.00000000000E+00  0.10415107093E+04  0.22549696072E+04  0.20000358426E+04 0.  0.
        5    1    3    3  502    0  0.47857781800E+03  0.30016567472E+03 -0.40957552226E+03  0.69778962345E+03  0.46999998093E+01 0.  1.
       -5    1    3    3    0  502 -0.47857781800E+03 -0.30016567472E+03  0.14510862316E+04  0.15571799837E+04  0.46999998093E+01 0. -1.
</event>
<event>
 5   0  0.4956214E-06  0.1998360E+04  0.7818609E-02  0.8607388E-01
       -2   -1    0    0    0  501  0.00000000000E+00  0.00000000000E+00  0.95754705135E+03  0.95754705135E+03  0.25500000920E-02 0.  1.
        2   -1    0    0  501    0  0.00000000000E+00  0.00000000000E+00 -0.10426227813E+04  0.10426227813E+04  0.25500000920E-02 0. -1.
    10030    2    1    2    0    0  0.00000000000E+00  0.00000000000E+00 -0.85075729968E+02  0.20001698327E+04  0.19983596973E+04 0.  0.
        1    1    3    3  502    0 -0.92107109464E+03  0.21381503169E+03  0.28066567279E+03  0.98633769525E+03  0.50400001928E-02 0.  1.
       -1    1    3    3    0  502  0.92107109464E+03 -0.21381503169E+03 -0.36574140276E+03  0.10138321374E+04  0.50400001928E-02 0. -1.
</event>
<event>
 5   0  0.2311520E-06  0.2000117E+04  0.7818609E-02  0.8606566E-01
        1   -1    0    0  501    0  0.00000000000E+00  0.00000000000E+00  0.17724059135E+04  0.17724059135E+04  0.50400001928E-02 0. -1.
       -1   -1    0    0    0  501  0.00000000000E+00  0.00000000000E+00 -0.56427057534E+03  0.56427057536E+03  0.50400001928E-02 0.  1.
    10030    2    1    2    0    0  0.00000000000E+00  0.00000000000E+00  0.12081353382E+04  0.23366764889E+04  0.20001165012E+04 0.  0.
        3    1    3    3  502    0 -0.97055537826E+03  0.15188753166E+03  0.82284612482E+03  0.12814535965E+04  0.10100000352E+00 0. -1.
       -3    1    3    3    0  502  0.97055537826E+03 -0.15188753166E+03  0.38528921334E+03  0.10552228924E+04  0.10100000352E+00 0.  1.
</event>
<event>
 5   0  0.5118981E-06  0.1995757E+04  0.7818609E-02  0.8608607E-01
       -2   -1    0    0    0  501  0.00000000000E+00  0.00000000000E+00  0.51578295651E+03  0.51578295652E+03  0.25500000920E-02 0. -1.
        2   -1    0    0  501    0  0.00000000000E+00  0.00000000000E+00 -0.19305818529E+04  0.19305818529E+04  0.25500000920E-02 0.  1.
    10030    2    1    2    0    0  0.00000000000E+00  0.00000000000E+00 -0.14147988964E+04  0.24463648094E+04  0.19957567145E+04 0.  0.
        4    1    3    3  502    0 -0.86062223937E+03  0.42889997059E+03 -0.38047186540E+03  0.10341113465E+04  0.12699999809E+01 0.  1.
       -4    1    3    3    0  502  0.86062223937E+03 -0.42889997059E+03 -0.10343270310E+04  0.14122534630E+04  0.12699999809E+01 0. -1.
</event>
<event>
 5   0  0.4956214E-06  0.2000200E+04  0.7818609E-02  0.8606527E-01
        2   -1    0    0  501    0  0.00000000000E+00  0.00000000000E+00  0.14423873197E+04  0.14423873197E+04  0.25500000920E-02 0. -1.
       -2   -1    0    0    0  501  0.00000000000E+00  0.00000000000E+00 -0.69343375671E+03  0.69343375672E+03  0.25500000920E-02 0.  1.
    10030    2    1    2    0    0  0.00000000000E+00  0.00000000000E+00  0.74895356295E+03  0.21358210764E+04  0.20002000477E+04 0.  0.
        1    1    3    3  502    0  0.52538139303E+03  0.27431965319E+03  0.12346542799E+04  0.13695430154E+04  0.50400001928E-02 0. -1.
       -1    1    3    3    0  502 -0.52538139303E+03 -0.27431965319E+03 -0.48570071692E+03  0.76627806096E+03  0.50400001928E-02 0.  1.
</event>
<event>
 5   0  0.1777750E-06  0.1996272E+04  0.7818609E-02  0.8608366E-01
       -3   -1    0    0    0  501  0.00000000000E+00  0.00000000000E+00  0.96615061875E+03  0.96615062403E+03  0.10100000352E+00 0. -1.
        3   -1    0    0  501    0  0.00000000000E+00  0.00000000000E+00 -0.10311798201E+04  0.10311798250E+04  0.10100000352E+00 0.  1.
    10030    2    1    2    0    0  0.00000000000E+00  0.00000000000E+00 -0.65029201304E+02  0.19973304490E+04  0.19962715561E+04 0.  0.
        5    1    3    3  502    0 -0.28630330401E+03 -0.15688988741E+03 -0.97623754554E+03  0.10293910112E+04  0.46999998093E+01 0.  1.
       -5    1    3    3    0  502  0.28630330401E+03  0.15688988741E+03  0.91120834423E+03  0.96793943781E+03  0.46999998093E+01 0. -1.
</event>
<event>
 5   0  0.5118981E-06  0.1997770E+04  0.7818609E-02  0.8607664E-01
        2   -1    0    0  501    0  0.00000000000E+00  0.00000000000E+00  0.24321055246E+04  0.24321055246E+04  0.25500000920E-02 0. -1.
       -2   -1    0    0    0  501  0.00000000000E+00  0.00000000000E+00 -0.41025003787E+03  0.41025003788E+03  0.25500000920E-02 0.  1.
    10030    2    1    2    0    0  0.00000000000E+00  0.00000000000E+00  0.20218554867E+04  0.28423555625E+04  0.19977701405E+04 0.  0.
        4    1    3    3  502    0  0.11551257882E+03 -0.76230570316E+03  0.10736991748E+03  0.77844913322E+03  0.12699999809E+01 0.  1.
       -4    1    3    3    0  502 -0.11551257882E+03  0.76230570316E+03  0.19144855692E+04  0.20639064292E+04  0.12699999809E+01 0. -1.
</event>
<event>
 5   0  0.4956214E-06  0.2000466E+04  0.7818609E-02  0.8606403E-01
        2   -1    0    0  501    0  0.00000000000E+00  0.00000000000E+00  0.10837417662E+04  0.10837417662E+04  0.25500000920E-02 0.  1.
       -2   -1    0    0    0  501  0.00000000000E+00  0.00000000000E+00 -0.92315892443E+03  0.92315892444E+03  0.25500000920E-02 0. -1.
    10030    2    1    2    0    0  0.00000000000E+00  0.00000000000E+00  0.16058284175E+03  0.20069006906E+04  0.20004658290E+04 0.  0.
        1    1    3    3  502    0  0.68277371136E+03 -0.25344265090E+03 -0.60751789050E+03  0.94841504919E+03  0.50400001928E-02 0. -1.
       -1    1    3    3    0  502 -0.68277371136E+03  0.25344265090E+03  0.76810073225E+03  0.10584856414E+04  0.50400001928E-02 0.  1.
</event>
<event>
 5   0  0.2356996E-06  0.1999198E+04  0.7818609E-02  0.8606996E-01
       -1   -1    0    0    0  501  0.00000000000E+00  0.00000000000E+00  0.95250935299E+03  0.95250935300E+03  0.50400001928E-02 0.  1.
        1   -1    0    0  501    0  0.00000000000E+00  0.00000000000E+00 -0.10490170923E+04  0.10490170923E+04  0.50400001928E-02 0. -1.
    10030    2    1    2    0    0  0.00000000000E+00  0.00000000000E+00 -0.96507739310E+02  0.20015264453E+04  0.19991984313E+04 0.  0.
        4    1    3    3  502    0  0.27398850577E+03  0.10706059230E+02 -0.10106289981E+04  0.10471661309E+04  0.12699999809E+01 0. -1.
       -4    1    3    3    0  502 -0.27398850577E+03 -0.10706059230E+02  0.91412125881E+03  0.95436031440E+03  0.12699999809E+01 0.  1.
</event>
<event>
 5   0  0.2379743E-06  0.1999264E+04  0.7818609E-02  0.8606965E-01
        1   -1    0    0  501    0  0.00000000000E+00  0.00000000000E+00  0.14596344207E+04  0.14596344207E+04  0.50400001928E-02 0.  1.
       -1   -1    0    0    0  501  0.00000000000E+00  0.00000000000E+00 -0.68459907753E+03  0.68459907755E+03  0.50400001928E-02 0. -1.
    10030    2    1    2    0    0  0.00000000000E+00  0.00000000000E+00  0.77503534312E+03  0.21442334982E+04  0.19992642426E+04 0.  0.
        5    1    3    3  502    0  0.41630962864E+03 -0.89520017638E+03  0.21948822811E+03  0.10113823387E+04  0.46999998093E+01 0. -1.
       -5    1    3    3    0  502 -0.41630962864E+03  0.89520017638E+03  0.55554711501E+03  0.11328511595E+04  0.46999998093E+01 0.  1.
</event>
<event>
 5   0  0.5118981E-06  0.2000850E+04  0.7818609E-02  0.8606223E-01
        2   -1    0    0  501    0  0.00000000000E+00  0.00000000000E+00  0.19160558623E+04  0.19160558623E+04  0.25500000920E-02 0.  1.
       -2   -1    0    0    0  501  0.00000000000E+00  0.00000000000E+00 -0.52234936214E+03  0.52234936215E+03  0.25500000920E-02 0. -1.
    10030    2    1    2    0    0  0.00000000000E+00  0.00000000000E+00  0.13937065001E+04  0.24384052244E+04  0.20008503767E+04 0.  0.
        4    1    3    3  502    0  0.58699960845E+03  0.20956865257E+03 -0.25681025828E+03  0.67412215668E+03  0.12699999809E+01 0. -1.
       -4    1    3    3    0  502 -0.58699960845E+03 -0.20956865257E+03  0.16505167584E+04  0.17642830677E+04  0.12699999809E+01 0.  1.
</event>
<event>
 5   0  0.4956214E-06  0.2000225E+04  0.7818609E-02  0.8606516E-01
        2   -1    0    0  501    0  0.00000000000E+00  0.00000000000E+00  0.59857389122E+03  0.59857389122E+03  0.25500000920E-02 0. -1.
       -2   -1    0    0    0  501  0.00000000000E+00  0.00000000000E+00 -0.16710129009E+04  0.16710129009E+04  0.25500000920E-02 0.  1.
    10030    2    1    2    0    0  0.00000000000E+00  0.00000000000E+00 -0.10724390097E+04  0.22695867921E+04  0.20002246818E+04 0.  0.
        1    1    3    3  502    0  0.15459077774E+03  0.19176631275E+03 -0.16360567931E+04  0.16544952274E+04  0.50400001928E-02 0.  1.
       -1    1    3    3    0  502 -0.15459077774E+03 -0.19176631275E+03  0.56361778337E+03  0.61509156475E+03  0.50400001928E-02 0. -1.
</event>
<event>
 5   0  0.5129100E-06  0.2000023E+04  0.7818609E-02  0.8606610E-01
        2   -1    0    0  501    0  0.00000000000E+00  0.00000000000E+00  0.17893512640E+04  0.17893512640E+04  0.25500000920E-02 0. -1.
       -2   -1    0    0    0  501  0.00000000000E+00  0.00000000000E+00 -0.55887445093E+03  0.55887445094E+03  0.25500000920E-02 0.  1.
    10030    2    1    2    0    0  0.00000000000E+00  0.00000000000E+00  0.12304768131E+04  0.23482257150E+04  0.20000227051E+04 0.  0.
        2    1    3    3  502    0  0.54355494643E+03  0.45271330959E+03  0.14451377538E+04  0.16089824262E+04  0.25500000920E-02 0. -1.
       -2    1    3    3    0  502 -0.54355494643E+03 -0.45271330959E+03 -0.21466094070E+03  0.73924328873E+03  0.25500000920E-02 0.  1.
</event>
<event>
 5   0  0.5251252E-06  0.2000041E+04  0.7818609E-02  0.8606601E-01
       -2   -1    0    0    0  501  0.00000000000E+00  0.00000000000E+00  0.60946797305E+03  0.60946797306E+03  0.25500000920E-02 0. -1.
        2   -1    0    0  501    0  0.00000000000E+00  0.00000000000E+00 -0.16408433908E+04  0.16408433908E+04  0.25500000920E-02 0.  1.
    10030    2    1    2    0    0  0.00000000000E+00  0.00000000000E+00 -0.10313754178E+04  0.22503113639E+04  0.20000414951E+04 0.  0.
        5    1    3    3  502    0 -0.21986314738E+03  0.55850664233E+03  0.38424229504E+03  0.71269467825E+03  0.46999998093E+01 0. -1.
       -5    1    3    3    0  502  0.21986314738E+03 -0.55850664233E+03 -0.14156177128E+04  0.15376166856E+04  0.46999998093E+01 0.  1.
</event>
<event>
 5   0  0.5129100E-06  0.1999662E+04  0.7818609E-02  0.8606779E-01
       -2   -1    0    0    0  501  0.00000000000E+00  0.00000000000E+00  0.98745677143E+03  0.98745677143E+03  0.25500000920E-02 0.  1.
        2   -1    0    0  501    0  0.00000000000E+00  0.00000000000E+00 -0.10123598175E+04  0.10123598175E+04  0.25500000920E-02 0. -1.
    10030    2    1    2    0    0  0.00000000000E+00  0.00000000000E+00 -0.24903046042E+02  0.19998165889E+04  0.19996615282E+04 0.  0.
        2    1    3    3  502    0  0.64332705653E+03 -0.40222537254E+03 -0.66365991158E+03  0.10080175744E+04  0.25500000920E-02 0. -1.
       -2    1    3    3    0  502 -0.64332705653E+03  0.40222537254E+03  0.63875686554E+03  0.99179901454E+03  0.25500000920E-02 0.  1.
</event>
<event>
 5   0  0.2311520E-06  0.2001805E+04  0.7818609E-02  0.8605777E-01
        1   -1    0    0  501    0  0.00000000000E+00  0.00000000000E+00  0.24384702962E+04  0.24384702962E+04  0.50400001928E-02 0. -1.
       -1   -1    0    0    0  501  0.00000000000E+00  0.00000000000E+00 -0.41083368907E+03  0.41083368910E+03  0.50400001928E-02 0.  1.
    10030    2    1    2    0    0  0.00000000000E+00  0.00000000000E+00  0.20276366071E+04  0.28493039853E+04  0.20018049331E+04 0.  0.
        3    1    3    3  502    0 -0.85303716596E+02  0.99060529872E+03  0.85009914521E+03  0.13081453087E+04  0.10100000352E+00 0. -1.
       -3    1    3    3    0  502  0.85303716596E+02 -0.99060529872E+03  0.11775374619E+04  0.15411586766E+04  0.10100000352E+00 0.  1.
</event>
<event>
 5   0  0.4956214E-06  0.2000779E+04  0.7818609E-02  0.8606256E-01
       -2   -1    0    0    0  501  0.00000000000E+00  0.00000000000E+00  0.59163594977E+03  0.59163594978E+03  0.25500000920E-02 0.  1.
        2   -1    0    0  501    0  0.00000000000E+00  0.00000000000E+00 -0.16915458607E+04  0.16915458607E+04  0.25500000920E-02 0. -1.
    10030    2    1    2    0    0  0.00000000000E+00  0.00000000000E+00 -0.10999099109E+04  0.22831818105E+04  0.20007791901E+04 0.  0.
        1    1    3    3  502    0 -0.52083506298E+03  0.84225294342E+03 -0.71182147590E+03  0.12195691850E+04  0.50400001928E-02 0. -1.
       -1    1    3    3    0  502  0.52083506298E+03 -0.84225294342E+03 -0.38808843501E+03  0.10636126254E+04  0.50400001928E-02 0.  1.
</event>
<event>
 5   0  0.2356996E-06  0.1999838E+04  0.7818609E-02  0.8606696E-01
        1   -1    0    0  501    0  0.00000000000E+00  0.00000000000E+00  0.93957555199E+03  0.93957555201E+03  0.50400001928E-02 0.  1.
       -1   -1    0    0    0  501  0.00000000000E+00  0.00000000000E+00 -0.10641383380E+04  0.10641383380E+04  0.50400001928E-02 0. -1.
    10030    2    1    2    0    0  0.00000000000E+00  0.00000000000E+00 -0.12456278602E+03  0.20037138900E+04  0.19998383598E+04 0.  0.
        4    1    3    3  502    0  0.80159202741E+03 -0.13437648576E+03 -0.64584459546E+03  0.10381347084E+04  0.12699999809E+01 0. -1.
       -4    1    3    3    0  502 -0.80159202741E+03  0.13437648576E+03  0.52128180944E+03  0.96557918167E+03  0.12699999809E+01 0.  1.
</event>
<event>
 5   0  0.2356996E-06  0.1999953E+04  0.7818609E-02  0.8606643E-01
        1   -1    0    0  501    0  0.00000000000E+00  0.00000000000E+00  0.20375315270E+04  0.20375315270E+04  0.50400001928E-02 0.  1.
       -1   -1    0    0    0  501  0.00000000000E+00  0.00000000000E+00 -0.49076699500E+03  0.49076699502E+03  0.50400001928E-02 0. -1.
    10030    2    1    2    0    0  0.00000000000E+00  0.00000000000E+00  0.15467645320E+04  0.25282985220E+04  0.19999532242E+04 0.  0.
        4    1    3    3  502    0 -0.63553478342E+03  0.57381633847E+03  0.12042201791E+03  0.86468070785E+03  0.12699999809E+01 0. -1.
       -4    1    3    3    0  502  0.63553478342E+03 -0.57381633847E+03  0.14263425141E+04  0.16636178141E+04  0.12699999809E+01 0.  1.
</event>
<event>
 5   0  0.5030137E-06  0.1999664E+04  0.7818609E-02  0.8606778E-01
        2   -1    0    0  501    0  0.00000000000E+00  0.00000000000E+00  0.14561125209E+04  0.14561125209E+04  0.25500000920E-02 0.  1.
       -2   -1    0    0    0  501  0.00000000000E+00  0.00000000000E+00 -0.68652923981E+03  0.68652923982E+03  0.25500000920E-02 0. -1.
    10030    2    1    2    0    0  0.00000000000E+00  0.00000000000E+00  0.76958328109E+03  0.21426417607E+04  0.19996637938E+04 0.  0.
        3    1    3    3  502    0 -0.59710547587E+03 -0.64075856183E+03  0.90151440660E+03  0.12569147622E+04  0.10100000352E+00 0. -1.
       -3    1    3    3    0  502  0.59710547587E+03  0.64075856183E+03 -0.13193112550E+03  0.88572699854E+03  0.10100000352E+00 0.  1.
</event>
<event>
 5   0  0.5251252E-06  0.1999374E+04  0.7818609E-02  0.8606913E-01
       -2   -1    0    0    0  501  0.00000000000E+00  0.00000000000E+00  0.75293004837E+03  0.75293004837E+03  0.25500000920E-02 0.  1.
        2   -1    0    0  501    0  0.00000000000E+00  0.00000000000E+00 -0.13273130716E+04  0.13273130716E+04  0.25500000920E-02 0. -1.
    10030    2    1    2    0    0  0.00000000000E+00  0.00000000000E+00 -0.57438302320E+03  0.20802431199E+04  0.19993737971E+04 0.  0.
        5    1    3    3  502    0  0.14430813290E+02  0.71102968369E+03 -0.10181606260E+04  0.12419519353E+04  0.46999998093E+01 0. -1.
       -5    1    3    3    0  502 -0.14430813290E+02 -0.71102968369E+03  0.44377760276E+03  0.83829118459E+03  0.46999998093E+01 0.  1.
</event>
<event>
 5   0  0.5251252E-06  0.1993942E+04  0.7818609E-02  0.8609458E-01
        2   -1    0    0  501    0  0.00000000000E+00  0.00000000000E+00  0.92997672860E+03  0.92997672860E+03  0.25500000920E-02 0.  1.
       -2   -1    0    0    0  501  0.00000000000E+00  0.00000000000E+00 -0.10687910112E+04  0.10687910112E+04  0.25500000920E-02 0. -1.
    10030    2    1    2    0    0  0.00000000000E+00  0.00000000000E+00 -0.13881428265E+03  0.19987677398E+04  0.19939415921E+04 0.  0.
        5    1    3    3  502    0  0.62252853800E+03  0.47843064746E+03  0.54648293611E+03  0.95661034623E+03  0.46999998093E+01 0.  1.
       -5    1    3    3    0  502 -0.62252853800E+03 -0.47843064746E+03 -0.68529721876E+03  0.10421573936E+04  0.46999998093E+01 0. -1.
</event>
<event>
 5   0  0.4956214E-06  0.1999352E+04  0.7818609E-02  0.8606924E-01
        2   -1    0    0  501    0  0.00000000000E+00  0.00000000000E+00  0.18701531180E+04  0.18701531180E+04  0.25500000920E-02 0.  1.
       -2   -1    0    0    0  501  0.00000000000E+00  0.00000000000E+00 -0.53436917054E+03  0.53436917055E+03  0.25500000920E-02 0. -1.
    10030    2    1    2    0    0  0.00000000000E+00  0.00000000000E+00  0.13357839474E+04  0.24045222885E+04  0.19993520655E+04 0.  0.
        1    1    3    3  502    0  0.68925100596E+03 -0.68296177179E+03  0.37863398946E+03  0.10415696947E+04  0.50400001928E-02 0.  1.
       -1    1    3    3    0  502 -0.68925100596E+03  0.68296177179E+03  0.95714995799E+03  0.13629525938E+04  0.50400001928E-02 0. -1.
</event>
<event>
 5   0  0.2313821E-06  0.1999623E+04  0.7818609E-02  0.8606797E-01
       -1   -1    0    0    0  501  0.00000000000E+00  0.00000000000E+00  0.86330136818E+03  0.86330136820E+03  0.50400001928E-02 0. -1.
        1   -1    0    0  501    0  0.00000000000E+00  0.00000000000E+00 -0.11579072375E+04  0.11579072375E+04  0.50400001928E-02 0.  1.
    10030    2    1    2    0    0  0.00000000000E+00  0.00000000000E+00 -0.29460586934E+03  0.20212086057E+04  0.19996228668E+04 0.  0.
        1    1    3    3  502    0  0.67032461407E+03  0.68541531539E+03 -0.43407964626E+03  0.10524040964E+04  0.50400001928E-02 0.  1.
       -1    1    3    3    0  502 -0.67032461407E+03 -0.68541531539E+03  0.13947377692E+03  0.96880450932E+03  0.50400001928E-02 0. -1.
</event>
<event>
 5   0  0.1777750E-06  0.1998008E+04  0.7818609E-02  0.8607552E-01
       -3   -1    0    0    0  501  0.00000000000E+00  0.00000000000E+00  0.97043701444E+03  0.97043701969E+03  0.10100000352E+00 0.  1.
        3   -1    0    0  501    0  0.00000000000E+00  0.00000000000E+00 -0.10284123805E+04  0.10284123855E+04  0.10100000352E+00 0. -1.
    10030    2    1    2    0    0  0.00000000000E+00  0.00000000000E+00 -0.57975366100E+02  0.19988494052E+04  0.19980084588E+04 0.  0.
        4    1    3    3  502    0  0.90592754342E+03  0.92362981391E+02 -0.43997953573E+03  0.10113452620E+04  0.12699999809E+01 0. -1.
       -4    1    3    3    0  502 -0.90592754342E+03 -0.92362981391E+02  0.38200416963E+03  0.98750414317E+03  0.12699999809E+01 0.  1.
</event>
<event>
 5   0  0.5251252E-06  0.1993107E+04  0.7818609E-02  0.8609850E-01
       -2   -1    0    0    0  501  0.00000000000E+00  0.00000000000E+00  0.14202594537E+04  0.14202594537E+04  0.25500000920E-02 0. -1.
        2   -1    0    0  501    0  0.00000000000E+00  0.00000000000E+00 -0.69925157295E+03  0.69925157296E+03  0.25500000920E-02 0.  1.
    10030    2    1    2    0    0  0.00000000000E+00  0.00000000000E+00  0.72100788071E+03  0.21195110266E+04  0.19931067779E+04 0.  0.
        5    1    3    3  502    0 -0.26768680616E+03 -0.76284373526E+03  0.98013225700E+03  0.12705385165E+04  0.46999998093E+01 0. -1.
       -5    1    3    3    0  502  0.26768680616E+03  0.76284373526E+03 -0.25912437629E+03  0.84897251016E+03  0.46999998093E+01 0.  1.
</event>
<event>
 5   0  0.5129100E-06  0.2000187E+04  0.7818609E-02  0.8606533E-01
       -2   -1    0    0    0  501  0.00000000000E+00  0.00000000000E+00  0.44783374614E+03  0.44783374615E+03  0.25500000920E-02 0.  1.
        2   -1    0    0  501    0  0.00000000000E+00  0.00000000000E+00 -0.22333881032E+04  0.22333881032E+04  0.25500000920E-02 0. -1.
    10030    2    1    2    0    0  0.00000000000E+00  0.00000000000E+00 -0.17855543570E+04  0.26812218493E+04  0.20001865521E+04 0.  0.
        2    1    3    3  502    0 -0.65425611777E+03 -0.28632482673E+03  0.45709990349E+02  0.71562726140E+03  0.25500000920E-02 0.  1.
       -2    1    3    3    0  502  0.65425611777E+03  0.28632482673E+03 -0.18312643474E+04  0.19655945879E+04  0.25500000920E-02 0. -1.
</event>
<event>
 5   0  0.5030137E-06  0.1998996E+04  0.7818609E-02  0.8607090E-01
        2   -1    0    0  501    0  0.00000000000E+00  0.00000000000E+00  0.15399129952E+04  0.15399129952E+04  0.25500000920E-02 0. -1.
       -2   -1    0    0    0  501  0.00000000000E+00  0.00000000000E+00 -0.64873552589E+03  0.64873552590E+03  0.25500000920E-02 0.  1.
    10030    2    1    2    0    0  0.00000000000E+00  0.00000000000E+00  0.89117746931E+03  0.21886485211E+04  0.19989960148E+04 0.  0.
        3    1    3    3  502    0  0.86873735507E+03 -0.36515872651E+03  0.80894201685E+02  0.94582734667E+03  0.10100000352E+00 0. -1.
       -3    1    3    3    0  502 -0.86873735507E+03  0.36515872651E+03  0.81028326762E+03  0.12428211744E+04  0.10100000352E+00 0.  1.
</event>
<event>
 5   0  0.2313821E-06  0.1999984E+04  0.7818609E-02  0.8606628E-01
       -1   -1    0    0    0  501  0.00000000000E+00  0.00000000000E+00  0.86204007606E+03  0.86204007607E+03  0.50400001928E-02 0. -1.
        1   -1    0    0  501    0  0.00000000000E+00  0.00000000000E+00 -0.11600207378E+04  0.11600207378E+04  0.50400001928E-02 0.  1.
    10030    2    1    2    0    0  0.00000000000E+00  0.00000000000E+00 -0.29798066178E+03  0.20220608139E+04  0.19999843650E+04 0.  0.
        1    1    3    3  502    0  0.43914897795E+03  0.56365701273E+03  0.55831989728E+03  0.90679775064E+03  0.50400001928E-02 0. -1.
       -1    1    3    3    0  502 -0.43914897795E+03 -0.56365701273E+03 -0.85630055906E+03  0.11152630633E+04  0.50400001928E-02 0.  1.
</event>
<event>
 5   0  0.5030137E-06  0.2000328E+04  0.7818609E-02  0.8606468E-01
        2   -1    0    0  501    0  0.00000000000E+00  0.00000000000E+00  0.85779939012E+03  0.85779939012E+03  0.25500000920E-02 0.  1.
       -2   -1    0    0    0  501  0.00000000000E+00  0.00000000000E+00 -0.11661556824E+04  0.11661556824E+04  0.25500000920E-02 0. -1.
    10030    2    1    2    0    0  0.00000000000E+00  0.00000000000E+00 -0.30835629233E+03  0.20239550726E+04  0.20003276064E+04 0.  0.
        3    1    3    3  502    0 -0.42304791970E+03  0.90594310863E+03 -0.17947677088E+03  0.10158318660E+04  0.10100000352E+00 0.  1.
       -3    1    3    3    0  502  0.42304791970E+03 -0.90594310863E+03 -0.12887952145E+03  0.10081232066E+04  0.10100000352E+00 0. -1.
</event>
<event>
 5   0  0.1777750E-06  0.1999543E+04  0.7818609E-02  0.8606834E-01
        4   -1    0    0  501    0  0.00000000000E+00  0.00000000000E+00  0.11848689371E+04  0.11848696177E+04  0.12699999809E+01 0. -1.
       -4   -1    0    0    0  501  0.00000000000E+00  0.00000000000E+00 -0.84358824010E+03  0.84358919608E+03  0.12699999809E+01 0.  1.
    10030    2    1    2    0    0  0.00000000000E+00  0.00000000000E+00  0.34128069700E+03  0.20284588138E+04  0.19995431091E+04 0.  0.
        2    1    3    3  502    0  0.29615976896E+03  0.31393202761E+03 -0.74422096737E+03  0.86030737239E+03  0.25500000920E-02 0.  1.
       -2    1    3    3    0  502 -0.29615976896E+03 -0.31393202761E+03  0.10855016644E+04  0.11681514414E+04  0.25500000920E-02 0. -1.
</event>
<event>
 5   0  0.2313821E-06  0.1999271E+04  0.7818609E-02  0.8606961E-01
        1   -1    0    0  501    0  0.00000000000E+00  0.00000000000E+00  0.12092480667E+04  0.12092480667E+04  0.50400001928E-02 0.  1.
       -1   -1    0    0    0  501  0.00000000000E+00  0.00000000000E+00 -0.82635780096E+03  0.82635780097E+03  0.50400001928E-02 0. -1.
    10030    2    1    2    0    0  0.00000000000E+00  0.00000000000E+00  0.38289026570E+03  0.20356058676E+04  0.19992714405E+04 0.  0.
        1    1    3    3  502    0  0.91643799644E+03  0.34230949410E+03  0.40069702799E+03  0.10571624754E+04  0.50400001928E-02 0. -1.
       -1    1    3    3    0  502 -0.91643799644E+03 -0.34230949410E+03 -0.17806762294E+02  0.97844339227E+03  0.50400001928E-02 0.  1.
</event>
<event>
 5   0  0.2386776E-06  0.2007366E+04  0.7818609E-02  0.8603184E-01
       -1   -1    0    0    0  501  0.00000000000E+00  0.00000000000E+00  0.10940237824E+04  0.10940237824E+04  0.50400001928E-02 0.  1.
        1   -1    0    0  501    0  0.00000000000E+00  0.00000000000E+00 -0.92080261516E+03  0.92080261517E+03  0.50400001928E-02 0. -1.
    10030    2    1    2    0    0  0.00000000000E+00  0.00000000000E+00  0.17322116719E+03  0.20148263975E+04  0.20073663939E+04 0.  0.
        2    1    3    3  502    0 -0.68912355712E+03 -0.36742153123E+03 -0.54620059437E+03  0.95300836717E+03  0.25500000920E-02 0. -1.
       -2    1    3    3    0  502  0.68912355712E+03  0.36742153123E+03  0.71942176157E+03  0.10618180304E+04  0.25500000920E-02 0.  1.
</event>
<event>
 5   0  0.5118981E-06  0.1999430E+04  0.7818609E-02  0.8606887E-01
        2   -1    0    0  501    0  0.00000000000E+00  0.00000000000E+00  0.11265575040E+04  0.11265575040E+04  0.25500000920E-02 0.  1.
       -2   -1    0    0    0  501  0.00000000000E+00  0.00000000000E+00 -0.88715386903E+03  0.88715386903E+03  0.25500000920E-02 0. -1.
    10030    2    1    2    0    0  0.00000000000E+00  0.00000000000E+00  0.23940363496E+03  0.20137113730E+04  0.19994297671E+04 0.  0.
        4    1    3    3  502    0  0.11724608395E+03  0.62034226732E+03 -0.66098465582E+03  0.91404239560E+03  0.12699999809E+01 0. -1.
       -4    1    3    3    0  502 -0.11724608395E+03 -0.62034226732E+03  0.90038829078E+03  0.10996689774E+04  0.12699999809E+01 0.  1.
</event>
<event>
 5   0  0.5118981E-06  0.2000434E+04  0.7818609E-02  0.8606418E-01
       -2   -1    0    0    0  501  0.00000000000E+00  0.00000000000E+00  0.82953488926E+03  0.82953488926E+03  0.25500000920E-02 0.  1.
        2   -1    0    0  501    0  0.00000000000E+00  0.00000000000E+00 -0.12060177441E+04  0.12060177441E+04  0.25500000920E-02 0. -1.
    10030    2    1    2    0    0  0.00000000000E+00  0.00000000000E+00 -0.37648285484E+03  0.20355526334E+04  0.20004337488E+04 0.  0.
        4    1    3    3  502    0  0.56282054466E+03  0.38209941074E+03  0.55788796905E+03  0.87977697406E+03  0.12699999809E+01 0.  1.
       -4    1    3    3    0  502 -0.56282054466E+03 -0.38209941074E+03 -0.93437082389E+03  0.11557756593E+04  0.12699999809E+01 0. -1.
</event>
<event>
 5   0  0.5129100E-06  0.2001334E+04  0.7818609E-02  0.8605997E-01
       -2   -1    0    0    0  501  0.00000000000E+00  0.00000000000E+00  0.65158602396E+03  0.65158602396E+03  0.25500000920E-02 0.  1.
        2   -1    0    0  501    0  0.00000000000E+00  0.00000000000E+00 -0.15367652980E+04  0.15367652980E+04  0.25500000920E-02 0. -1.
    10030    2    1    2    0    0  0.00000000000E+00  0.00000000000E+00 -0.88517927403E+03  0.21883513220E+04  0.20013343452E+04 0.  0.
        2    1    3    3  502    0  0.46418368912E+03  0.33449246333E+03  0.45509107918E+03  0.73106743576E+03  0.25500000920E-02 0.  1.
       -2    1    3    3    0  502 -0.46418368912E+03 -0.33449246333E+03 -0.13402703532E+04  0.14572838862E+04  0.25500000920E-02 0. -1.
</event>
<event>
 5   0  0.4956214E-06  0.1999814E+04  0.7818609E-02  0.8606708E-01
        2   -1    0    0  501    0  0.00000000000E+00  0.00000000000E+00  0.11250325201E+04  0.11250325201E+04  0.25500000920E-02 0. -1.
       -2   -1    0    0    0  501  0.00000000000E+00  0.00000000000E+00 -0.88869795743E+03  0.88869795743E+03  0.25500000920E-02 0.  1.
    10030    2    1    2    0    0  0.00000000000E+00  0.00000000000E+00  0.23633456269E+03  0.20137304775E+04  0.19998140940E+04 0.  0.
        1    1    3    3  502    0  0.98223003299E+03  0.12755703596E+03 -0.19780447536E+02  0.99067547726E+03  0.50400001928E-02 0.  1.
       -1    1    3    3    0  502 -0.98223003299E+03 -0.12755703596E+03  0.25611501023E+03  0.10230550003E+04  0.50400001928E-02 0. -1.
</event>
<event>
 5   0  0.5118981E-06  0.1999851E+04  0.7818609E-02  0.8606690E-01
       -2   -1    0    0    0  501  0.00000000000E+00  0.00000000000E+00  0.80308964661E+03  0.80308964662E+03  0.25500000920E-02 0. -1.
        2   -1    0    0  501    0  0.00000000000E+00  0.00000000000E+00 -0.12450056322E+04  0.12450056322E+04  0.25500000920E-02 0.  1.
    10030    2    1    2    0    0  0.00000000000E+00  0.00000000000E+00 -0.44191598555E+03  0.20480952788E+04  0.19998511276E+04 0.  0.
        4    1    3    3  502    0 -0.94815852980E+03 -0.18517112059E+03  0.43251236365E+02  0.96703941175E+03  0.12699999809E+01 0. -1.
       -4    1    3    3    0  502  0.94815852980E+03  0.18517112059E+03 -0.48516722192E+03  0.10810558670E+04  0.12699999809E+01 0.  1.
</event>
<event>
 5   0  0.5251252E-06  0.1997967E+04  0.7818609E-02  0.8607572E-01
       -2   -1    0    0    0  501  0.00000000000E+00  0.00000000000E+00  0.89002751851E+03  0.89002751851E+03  0.25500000920E-02 0. -1.
        2   -1    0    0  501    0  0.00000000000E+00  0.00000000000E+00 -0.11212773823E+04  0.11212773823E+04  0.25500000920E-02 0.  1.
    10030    2    1    2    0    0  0.00000000000E+00  0.00000000000E+00 -0.23124986382E+03  0.20113049008E+04  0.19979666926E+04 0.  0.
        5    1    3    3  502    0 -0.35757265200E+03  0.62743156714E+02  0.82126032749E+03  0.89793402913E+03  0.46999998093E+01 0. -1.
       -5    1    3    3    0  502  0.35757265200E+03 -0.62743156714E+02 -0.10525101913E+04  0.11133708717E+04  0.46999998093E+01 0.  1.
</event>
<event>
 5   0  0.2311520E-06  0.1998644E+04  0.7818609E-02  0.8607255E-01
        1   -1    0    0  501    0  0.00000000000E+00  0.00000000000E+00  0.18592303458E+04  0.18592303459E+04  0.50400001928E-02 0.  1.
       -1   -1    0    0    0  501  0.00000000000E+00  0.00000000000E+00 -0.53712803571E+03  0.53712803574E+03  0.50400001928E-02 0. -1.
    10030    2    1    2    0    0  0.00000000000E+00  0.00000000000E+00  0.13221023101E+04  0.23963583816E+04  0.19986442841E+04 0.  0.
        3    1    3    3  502    0 -0.53818528027E+03  0.28582387118E+03  0.16106845996E+04  0.17221044018E+04  0.10100000352E+00 0.  1.
       -3    1    3    3    0  502  0.53818528027E+03 -0.28582387118E+03 -0.28858228946E+03  0.67425397976E+03  0.10100000352E+00 0. -1.
</event>
<event>
 5   0  0.2311520E-06  0.1998881E+04  0.7818609E-02  0.8607144E-01
       -1   -1    0    0    0  501  0.00000000000E+00  0.00000000000E+00  0.10298713568E+04  0.10298713568E+04  0.50400001928E-02 0.  1.
        1   -1    0    0  501    0  0.00000000000E+00  0.00000000000E+00 -0.96990871045E+03  0.96990871046E+03  0.50400001928E-02 0. -1.
    10030    2    1    2    0    0  0.00000000000E+00  0.00000000000E+00  0.59962646366E+02  0.19997800673E+04  0.19988808865E+04 0.  0.
        3    1    3    3  502    0  0.49645361548E+03 -0.52377641292E+03  0.72172078142E+03  0.10206315788E+04  0.10100000352E+00 0.  1.
       -3    1    3    3    0  502 -0.49645361548E+03  0.52377641292E+03 -0.66175813505E+03  0.97914848852E+03  0.10100000352E+00 0. -1.
</event>
<event>
 5   0  0.2356996E-06  0.2000574E+04  0.7818609E-02  0.8606352E-01
       -1   -1    0    0    0  501  0.00000000000E+00  0.00000000000E+00  0.45063124814E+03  0.45063124817E+03  0.50400001928E-02 0. -1.
        1   -1    0    0  501    0  0.00000000000E+00  0.00000000000E+00 -0.22203834736E+04  0.22203834736E+04  0.50400001928E-02 0.  1.
    10030    2    1    2    0    0  0.00000000000E+00  0.00000000000E+00 -0.17697522254E+04  0.26710147218E+04  0.20005740937E+04 0.  0.
        4    1    3    3  502    0  0.11692879059E+03 -0.78417848559E+03 -0.16991533319E+04  0.18750285058E+04  0.12699999809E+01 0.  1.
       -4    1    3    3    0  502 -0.11692879059E+03  0.78417848559E+03 -0.70598893529E+02  0.79598621596E+03  0.12699999809E+01 0. -1.
</event>
<event>
 5   0  0.2313821E-06  0.2000363E+04  0.7818609E-02  0.8606451E-01
       -1   -1    0    0    0  501  0.00000000000E+00  0.00000000000E+00  0.14711602336E+04  0.14711602336E+04  0.50400001928E-02 0. -1.
        1   -1    0    0  501    0  0.00000000000E+00  0.00000000000E+00 -0.67998223589E+03  0.67998223591E+03  0.50400001928E-02 0.  1.
    10030    2    1    2    0    0  0.00000000000E+00  0.00000000000E+00  0.79117799775E+03  0.21511424695E+04  0.20003627921E+04 0.  0.
        1    1    3    3  502    0  0.32995362627E+03 -0.43457227740E+03 -0.50583051300E+03  0.74403425169E+03  0.50400001928E-02 0.  1.
       -1    1    3    3    0  502 -0.32995362627E+03  0.43457227740E+03  0.12970085108E+04  0.14071082179E+04  0.50400001928E-02 0. -1.
</event>
<event>
 5   0  0.4956214E-06  0.2000588E+04  0.7818609E-02  0.8606346E-01
       -2   -1    0    0    0  501  0.00000000000E+00  0.00000000000E+00  0.16125408964E+04  0.16125408964E+04  0.25500000920E-02 0.  1.
        2   -1    0    0  501    0  0.00000000000E+00  0.00000000000E+00 -0.62050391150E+03  0.62050391151E+03  0.25500000920E-02 0. -1.
    10030    2    1    2    0    0  0.00000000000E+00  0.00000000000E+00  0.99203698492E+03  0.22330448079E+04  0.20005878473E+04 0.  0.
        1    1    3    3  502    0 -0.63549336238E+03  0.77090545418E+03  0.55116460118E+03  0.11410212314E+04  0.50400001928E-02 0.  1.
       -1    1    3    3    0  502  0.63549336238E+03 -0.77090545418E+03  0.44087238373E+03  0.10920235765E+04  0.50400001928E-02 0. -1.
</event>
<event>
 5   0  0.5118981E-06  0.1999571E+04  0.7818609E-02  0.8606821E-01
       -2   -1    0    0    0  501  0.00000000000E+00  0.00000000000E+00  0.74944636060E+03  0.74944636060E+03  0.25500000920E-02 0. -1.
        2   -1    0    0  501    0  0.00000000000E+00  0.00000000000E+00 -0.13337464443E+04  0.13337464443E+04  0.25500000920E-02 0.  1.
    10030    2    1    2    0    0  0.00000000000E+00  0.00000000000E+00 -0.58430008366E+03  0.20831928049E+04  0.19995713727E+04 0.  0.
        4    1    3    3  502    0  0.56740049152E+03  0.26605847574E+03  0.51942640147E+03  0.81396303954E+03  0.12699999809E+01 0. -1.
       -4    1    3    3    0  502 -0.56740049152E+03 -0.26605847574E+03 -0.11037264851E+04  0.12692297653E+04  0.12699999809E+01 0.  1.
</event>
<event>
 5   0  0.5129100E-06  0.2004344E+04  0.7818609E-02  0.8604592E-01
        2   -1    0    0  501    0  0.00000000000E+00  0.00000000000E+00  0.17590876012E+04  0.17590876012E+04  0.25500000920E-02 0. -1.
       -2   -1    0    0    0  501  0.00000000000E+00  0.00000000000E+00 -0.57094887989E+03  0.57094887990E+03  0.25500000920E-02 0.  1.
    10030    2    1    2    0    0  0.00000000000E+00  0.00000000000E+00  0.11881387213E+04  0.23300364811E+04  0.20043443771E+04 0.  0.
        2    1    3    3  502    0  0.84239877906E+03 -0.28243071368E+03  0.11330278908E+04  0.14398454821E+04  0.25500000920E-02 0. -1.
       -2    1    3    3    0  502 -0.84239877906E+03  0.28243071368E+03  0.55110830453E+02  0.89019099896E+03  0.25500000920E-02 0.  1.
</event>
<event>
 5   0  0.2379743E-06  0.1999903E+04  0.7818609E-02  0.8606666E-01
       -1   -1    0    0    0  501  0.00000000000E+00  0.00000000000E+00  0.67483893948E+03  0.67483893950E+03  0.50400001928E-02 0.  1.
        1   -1    0    0  501    0  0.00000000000E+00  0.00000000000E+00 -0.14816909464E+04  0.14816909464E+04  0.50400001928E-02 0. -1.
    10030    2    1    2    0    0  0.00000000000E+00  0.00000000000E+00 -0.80685200687E+03  0.21565298859E+04  0.19999027445E+04 0.  0.
        5    1    3    3  502    0 -0.83786742852E+03  0.17544777936E+03 -0.96069485997E+03  0.12867635583E+04  0.46999998093E+01 0.  1.
       -5    1    3    3    0  502  0.83786742852E+03 -0.17544777936E+03  0.15384285310E+03  0.86976632753E+03  0.46999998093E+01 0. -1.
</event>
<event>
 5   0  0.2311520E-06  0.2000523E+04  0.7818609E-02  0.8606376E-01
        1   -1    0    0  501    0  0.00000000000E+00  0.00000000000E+00  0.94711328754E+03  0.94711328755E+03  0.50400001928E-02 0. -1.
       -1   -1    0    0    0  501  0.00000000000E+00  0.00000000000E+00 -0.10563917873E+04  0.10563917874E+04  0.50400001928E-02 0.  1.
    10030    2    1    2    0    0  0.00000000000E+00  0.00000000000E+00 -0.10927849981E+03  0.20035050749E+04  0.20005226304E+04 0.  0.
        3    1    3    3  502    0  0.36073268323E+03 -0.13138977032E+03 -0.97966735560E+03  0.10522069560E+04  0.10100000352E+00 0.  1.
       -3    1    3    3    0  502 -0.36073268323E+03  0.13138977032E+03  0.87038885579E+03  0.95129811888E+03  0.10100000352E+00 0. -1.
</event>
<event>
 5   0  0.4956214E-06  0.1999696E+04  0.7818609E-02  0.8606763E-01
       -2   -1    0    0    0  501  0.00000000000E+00  0.00000000000E+00  0.60839471223E+03  0.60839471224E+03  0.25500000920E-02 0. -1.
        2   -1    0    0  501    0  0.00000000000E+00  0.00000000000E+00 -0.16431703192E+04  0.16431703192E+04  0.25500000920E-02 0.  1.
    10030    2    1    2    0    0  0.00000000000E+00  0.00000000000E+00 -0.10347756070E+04  0.22515650315E+04  0.19996961104E+04 0.  0.
        1    1    3    3  502    0 -0.79764351807E+03  0.15092959963E+03 -0.11745833053E+04  0.14278168184E+04  0.50400001928E-02 0.  1.
       -1    1    3    3    0  502  0.79764351807E+03 -0.15092959963E+03  0.13980769826E+03  0.82374821304E+03  0.50400001928E-02 0. -1.
</event>
<event>
 5   0  0.2356996E-06  0.1999432E+04  0.7818609E-02  0.8606886E-01
       -1   -1    0    0    0  501  0.00000000000E+00  0.00000000000E+00  0.85088437000E+03  0.85088437001E+03  0.50400001928E-02 0. -1.
        1   -1    0    0  501    0  0.00000000000E+00  0.00000000000E+00 -0.11745804726E+04  0.11745804726E+04  0.50400001928E-02 0.  1.
    10030    2    1    2    0    0  0.00000000000E+00  0.00000000000E+00 -0.32369610257E+03  0.20254648426E+04  0.19994320848E+04 0.  0.
        4    1    3    3  502    0  0.79700866119E+03 -0.60318610896E+03 -0.14225024945E+03  0.10096004331E+04  0.12699999809E+01 0.  1.
       -4    1    3    3    0  502 -0.79700866119E+03  0.60318610896E+03 -0.18144585313E+03  0.10158644095E+04  0.12699999809E+01 0. -1.
</event>
<event>
 5   0  0.2311520E-06  0.2000050E+04  0.7818609E-02  0.8606597E-01
        1   -1    0    0  501    0  0.00000000000E+00  0.00000000000E+00  0.12957033879E+04  0.12957033879E+04  0.50400001928E-02 0. -1.
       -1   -1    0    0    0  501  0.00000000000E+00  0.00000000000E+00 -0.77182017298E+03  0.77182017300E+03  0.50400001928E-02 0.  1.
    10030    2    1    2    0    0  0.00000000000E+00  0.00000000000E+00  0.52388321488E+03  0.20675235609E+04  0.20000500124E+04 0.  0.
        3    1    3    3  502    0 -0.51698940855E+03  0.81849058287E+03  0.52108813364E+03  0.10994260939E+04  0.10100000352E+00 0. -1.
       -3    1    3    3    0  502  0.51698940855E+03 -0.81849058287E+03  0.27950812383E+01  0.96809746693E+03  0.10100000352E+00 0.  1.
</event>
<event>
 5   0  0.2313821E-06  0.2000011E+04  0.7818609E-02  0.8606616E-01
       -1   -1    0    0    0  501  0.00000000000E+00  0.00000000000E+00  0.57436584331E+03  0.57436584333E+03  0.50400001928E-02 0.  1.
        1   -1    0    0  501    0  0.00000000000E+00  0.00000000000E+00 -0.17410695515E+04  0.17410695515E+04  0.50400001928E-02 0. -1.
    10030    2    1    2    0    0  0.00000000000E+00  0.00000000000E+00 -0.11667037082E+04  0.23154353949E+04  0.20000108812E+04 0.  0.
        1    1    3    3  502    0 -0.26077209390E+03  0.78468507128E+03 -0.12344326626E+04  0.14857848917E+04  0.50400001928E-02 0. -1.
       -1    1    3    3    0  502  0.26077209390E+03 -0.78468507128E+03  0.67728954365E+02  0.82965050312E+03  0.50400001928E-02 0.  1.
</event>
<event>
 5   0  0.2379743E-06  0.2000319E+04  0.7818609E-02  0.8606471E-01
       -1   -1    0    0    0  501  0.00000000000E+00  0.00000000000E+00  0.72600696761E+03  0.72600696763E+03  0.50400001928E-02 0. -1.
        1   -1    0    0  501    0  0.00000000000E+00  0.00000000000E+00 -0.13778368358E+04  0.13778368358E+04  0.50400001928E-02 0.  1.
    10030    2    1    2    0    0  0.00000000000E+00  0.00000000000E+00 -0.65182986818E+03  0.21038438034E+04  0.20003191176E+04 0.  0.
        5    1    3    3  502    0 -0.41521431434E+03  0.51216210309E+03 -0.11168900228E+04  0.12969881880E+04  0.46999998093E+01 0.  1.
       -5    1    3    3    0  502  0.41521431434E+03 -0.51216210309E+03  0.46506015467E+03  0.80685561542E+03  0.46999998093E+01 0. -1.
</event>
<event>
 5   0  0.2311520E-06  0.2000190E+04  0.7818609E-02  0.8606532E-01
       -1   -1    0    0    0  501  0.00000000000E+00  0.00000000000E+00  0.11843769047E+04  0.11843769048E+04  0.50400001928E-02 0.  1.
        1   -1    0    0  501    0  0.00000000000E+00  0.00000000000E+00 -0.84448620523E+03  0.84448620525E+03  0.50400001928E-02 0. -1.
    10030    2    1    2    0    0  0.00000000000E+00  0.00000000000E+00  0.33989069951E+03  0.20288631100E+04  0.20001899489E+04 0.  0.
        3    1    3    3  502    0  0.78850844885E+03  0.25577305609E+03  0.73745164372E+03  0.11095045593E+04  0.10100000352E+00 0.  1.
       -3    1    3    3    0  502 -0.78850844885E+03 -0.25577305609E+03 -0.39756094421E+03  0.91935855067E+03  0.10100000352E+00 0. -1.
</event>
<event>
 5   0  0.5118981E-06  0.2000484E+04  0.7818609E-02  0.8606394E-01
       -2   -1    0    0    0  501  0.00000000000E+00  0.00000000000E+00  0.13334538638E+04  0.13334538638E+04  0.25500000920E-02 0. -1.
        2   -1    0    0  501    0  0.00000000000E+00  0.00000000000E+00 -0.75029538211E+03  0.75029538212E+03  0.25500000920E-02 0.  1.
    10030    2    1    2    0    0  0.00000000000E+00  0.00000000000E+00  0.58315848169E+03  0.20837492459E+04  0.20004842177E+04 0.  0.
        4    1    3    3  502    0  0.48526616967E+03  0.69411697972E+03 -0.26273717181E+03  0.88674352059E+03  0.12699999809E+01 0.  1.
       -4    1    3    3    0  502 -0.48526616967E+03 -0.69411697972E+03  0.84589565350E+03  0.11970057253E+04  0.12699999809E+01 0. -1.
</event>
<event>
 5   0  0.4956214E-06  0.1999880E+04  0.7818609E-02  0.8606677E-01
        2   -1    0    0  501    0  0.00000000000E+00  0.00000000000E+00  0.10839292378E+04  0.10839292378E+04  0.25500000920E-02 0.  1.
       -2   -1    0    0    0  501  0.00000000000E+00  0.00000000000E+00 -0.92245919368E+03  0.92245919368E+03  0.25500000920E-02 0. -1.
    10030    2    1    2    0    0  0.00000000000E+00  0.00000000000E+00  0.16147004408E+03  0.20063884314E+04  0.19998804871E+04 0.  0.
        1    1    3    3  502    0 -0.15801197496E+02 -0.99194693620E+03  0.20633061790E+03  0.10133018928E+04  0.50400001928E-02 0.  1.
       -1    1    3    3    0  502  0.15801197496E+02  0.99194693620E+03 -0.44860573823E+02  0.99308653862E+03  0.50400001928E-02 0. -1.
</event>
<event>
 5   0  0.2356996E-06  0.1997212E+04  0.7818609E-02  0.8607925E-01
        1   -1    0    0  501    0  0.00000000000E+00  0.00000000000E+00  0.79573916011E+03  0.79573916013E+03  0.50400001928E-02 0.  1.
       -1   -1    0    0    0  501  0.00000000000E+00  0.00000000000E+00 -0.12531919319E+04  0.12531919319E+04  0.50400001928E-02 0. -1.
    10030    2    1    2    0    0  0.00000000000E+00  0.00000000000E+00 -0.45745277175E+03  0.20489310920E+04  0.19972119520E+04 0.  0.
        4    1    3    3  502    0 -0.41664829168E+03 -0.68808969502E+03 -0.83578367165E+03  0.11599996492E+04  0.12699999809E+01 0. -1.
       -4    1    3    3    0  502  0.41664829168E+03  0.68808969502E+03  0.37833089990E+03  0.88893144284E+03  0.12699999809E+01 0.  1.
</event>
<event>
 5   0  0.5251252E-06  0.2000670E+04  0.7818609E-02  0.8606307E-01
       -2   -1    0    0    0  501  0.00000000000E+00  0.00000000000E+00  0.76157185695E+03  0.76157185695E+03  0.25500000920E-02 0.  1.
        2   -1    0    0  501    0  0.00000000000E+00  0.00000000000E+00 -0.13139540758E+04  0.13139540758E+04  0.25500000920E-02 0. -1.
    10030    2    1    2    0    0  0.00000000000E+00  0.00000000000E+00 -0.55238221883E+03  0.20755259327E+04  0.20006703331E+04 0.  0.
        5    1    3    3  502    0 -0.81335208288E+03  0.55550705861E+03 -0.45742328723E+03  0.10859962507E+04  0.46999998093E+01 0. -1.
       -5    1    3    3    0  502  0.81335208288E+03 -0.55550705861E+03 -0.94958931592E+02  0.98952968200E+03  0.46999998093E+01 0.  1.
</event>
<event>
 5   0  0.2356996E-06  0.2006017E+04  0.7818609E-02  0.8603813E-01
        1   -1    0    0  501    0  0.00000000000E+00  0.00000000000E+00  0.98553105589E+03  0.98553105590E+03  0.50400001928E-02 0.  1.
       -1   -1    0    0    0  501  0.00000000000E+00  0.00000000000E+00 -0.10207959161E+04  0.10207959161E+04  0.50400001928E-02 0. -1.
    10030    2    1    2    0    0  0.00000000000E+00  0.00000000000E+00 -0.35264860172E+02  0.20063269720E+04  0.20060170259E+04 0.  0.
        4    1    3    3  502    0  0.87673156896E+03 -0.39523272691E+03  0.26729281024E+03  0.99815540460E+03  0.12699999809E+01 0. -1.
       -4    1    3    3    0  502 -0.87673156896E+03  0.39523272691E+03 -0.30255767041E+03  0.10081715674E+04  0.12699999809E+01 0.  1.
</event>
<event>
 5   0  0.2313821E-06  0.1999038E+04  0.7818609E-02  0.8607070E-01
       -1   -1    0    0    0  501  0.00000000000E+00  0.00000000000E+00  0.10005022901E+04  0.10005022902E+04  0.50400001928E-02 0.  1.
        1   -1    0    0  501    0  0.00000000000E+00  0.00000000000E+00 -0.99853711362E+03  0.99853711363E+03  0.50400001928E-02 0. -1.
    10030    2    1    2    0    0  0.00000000000E+00  0.00000000000E+00  0.19651765192E+01  0.19990394038E+04  0.19990384378E+04 0.  0.
        1    1    3    3  502    0 -0.89719283583E+03  0.37721639219E+03  0.22856010872E+03  0.99974342435E+03  0.50400001928E-02 0. -1.
       -1    1    3    3    0  502  0.89719283583E+03 -0.37721639219E+03 -0.22659493220E+03  0.99929597944E+03  0.50400001928E-02 0.  1.
</event>
<event>
 5   0  0.2313821E-06  0.2000425E+04  0.7818609E-02  0.8606422E-01
        1   -1    0    0  501    0  0.00000000000E+00  0.00000000000E+00  0.67950745425E+03  0.67950745427E+03  0.50400001928E-02 0.  1.
       -1   -1    0    0    0  501  0.00000000000E+00  0.00000000000E+00 -0.14722800966E+04  0.14722800966E+04  0.50400001928E-02 0. -1.
    10030    2    1    2    0    0  0.00000000000E+00  0.00000000000E+00 -0.79277264233E+03  0.21517875509E+04  0.20004252552E+04 0.  0.
        1    1    3    3  502    0  0.41288409600E+03 -0.86185704954E+03 -0.78829208497E+02  0.95889774987E+03  0.50400001928E-02 0. -1.
       -1    1    3    3    0  502 -0.41288409600E+03  0.86185704954E+03 -0.71394343383E+03  0.11928898010E+04  0.50400001928E-02 0.  1.
</event>
<event>
 5   0  0.2311520E-06  0.1999826E+04  0.7818609E-02  0.8606702E-01
       -1   -1    0    0    0  501  0.00000000000E+00  0.00000000000E+00  0.73453917072E+03  0.73453917074E+03  0.50400001928E-02 0.  1.
        1   -1    0    0  501    0  0.00000000000E+00  0.00000000000E+00 -0.13611611302E+04  0.13611611302E+04  0.50400001928E-02 0. -1.
    10030    2    1    2    0    0  0.00000000000E+00  0.00000000000E+00 -0.62662195951E+03  0.20957003010E+04  0.19998261603E+04 0.  0.
        3    1    3    3  502    0  0.21748566399E+03 -0.65940506027E+03  0.44070521385E+03  0.82239658515E+03  0.10100000352E+00 0.  1.
       -3    1    3    3    0  502 -0.21748566399E+03  0.65940506027E+03 -0.10673271734E+04  0.12733037158E+04  0.10100000352E+00 0. -1.
</event>
<event>
 5   0  0.5251252E-06  0.2000350E+04  0.7818609E-02  0.8606457E-01
       -2   -1    0    0    0  501  0.00000000000E+00  0.00000000000E+00  0.99671150746E+03  0.99671150747E+03  0.25500000920E-02 0. -1.
        2   -1    0    0  501    0  0.00000000000E+00  0.00000000000E+00 -0.10036506387E+04  0.10036506387E+04  0.25500000920E-02 0.  1.
    10030    2    1    2    0    0  0.00000000000E+00  0.00000000000E+00 -0.69391311960E+01  0.20003621461E+04  0.20003501104E+04 0.  0.
        5    1    3    3  502    0  0.55598596933E+03 -0.79593783487E+03 -0.24365971985E+03  0.10010142777E+04  0.46999998093E+01 0.  1.
       -5    1    3    3    0  502 -0.55598596933E+03  0.79593783487E+03  0.23672058865E+03  0.99934786844E+03  0.46999998093E+01 0. -1.
</event>
<event>
 5   0  0.4956214E-06  0.2000314E+04  0.7818609E-02  0.8606474E-01
       -2   -1    0    0    0  501  0.00000000000E+00  0.00000000000E+00  0.41543932980E+03  0.41543932980E+03  0.25500000920E-02 0.  1.
        2   -1    0    0  501    0  0.00000000000E+00  0.00000000000E+00 -0.24078471423E+04  0.24078471423E+04  0.25500000920E-02 0. -1.
    10030    2    1    2    0    0  0.00000000000E+00  0.00000000000E+00 -0.19924078125E+04  0.28232864721E+04  0.20003143783E+04 0.  0.
        1    1    3    3  502    0  0.69134569156E+03 -0.72268439204E+03 -0.98336018270E+03  0.14025793542E+04  0.50400001928E-02 0. -1.
       -1    1    3    3    0  502 -0.69134569156E+03  0.72268439204E+03 -0.10090476298E+04  0.14207071179E+04  0.50400001928E-02 0.  1.
</event>
<event>
 5   0  0.2356996E-06  0.2000080E+04  0.7818609E-02  0.8606583E-01
       -1   -1    0    0    0  501  0.00000000000E+00  0.00000000000E+00  0.63351990986E+03  0.63351990988E+03  0.50400001928E-02 0. -1.
        1   -1    0    0  501    0  0.00000000000E+00  0.00000000000E+00 -0.15786088973E+04  0.15786088974E+04  0.50400001928E-02 0.  1.
    10030    2    1    2    0    0  0.00000000000E+00  0.00000000000E+00 -0.94508898749E+03  0.22121288072E+04  0.20000801648E+04 0.  0.
        4    1    3    3  502    0 -0.26039676095E+03 -0.42381294078E+03 -0.14320796452E+04  0.15160071257E+04  0.12699999809E+01 0.  1.
       -4    1    3    3    0  502  0.26039676095E+03  0.42381294078E+03  0.48699065775E+03  0.69612168155E+03  0.12699999809E+01 0. -1.
</event>
<event>
 5   0  0.2311520E-06  0.1994269E+04  0.7818609E-02  0.8609305E-01
       -1   -1    0    0    0  501  0.00000000000E+00  0.00000000000E+00  0.71369714785E+03  0.71369714787E+03  0.50400001928E-02 0.  1.
        1   -1    0    0  501    0  0.00000000000E+00  0.00000000000E+00 -0.13931358168E+04  0.13931358168E+04  0.50400001928E-02 0. -1.
    10030    2    1    2    0    0  0.00000000000E+00  0.00000000000E+00 -0.67943866895E+03  0.21068329647E+04  0.19942688475E+04 0.  0.
        3    1    3    3  502    0 -0.11739903079E+03 -0.48859761571E+03  0.57015228888E+03  0.75998934547E+03  0.10100000352E+00 0.  1.
       -3    1    3    3    0  502  0.11739903079E+03  0.48859761571E+03 -0.12495909578E+04  0.13468436192E+04  0.10100000352E+00 0. -1.
</event>
<event>
 5   0  0.5251252E-06  0.1997222E+04  0.7818609E-02  0.8607921E-01
        2   -1    0    0  501    0  0.00000000000E+00  0.00000000000E+00  0.17671323824E+04  0.17671323824E+04  0.25500000920E-02 0.  1.
       -2   -1    0    0    0  501  0.00000000000E+00  0.00000000000E+00 -0.56431754106E+03  0.56431754106E+03  0.25500000920E-02 0. -1.
    10030    2    1    2    0    0  0.00000000000E+00  0.00000000000E+00  0.12028148414E+04  0.23314499235E+04  0.19972218713E+04 0.  0.
        5    1    3    3  502    0  0.68835827444E+03  0.21398276758E+03 -0.20530921463E+03  0.74953298955E+03  0.46999998093E+01 0. -1.
       -5    1    3    3    0  502 -0.68835827444E+03 -0.21398276758E+03  0.14081240560E+04  0.15819169339E+04  0.46999998093E+01 0.  1.
</event>
<event>
 5   0  0.2311520E-06  0.1999173E+04  0.7818609E-02  0.8607007E-01
        1   -1    0    0  501    0  0.00000000000E+00  0.00000000000E+00  0.15739585224E+04  0.15739585224E+04  0.50400001928E-02 0. -1.
       -1   -1    0    0    0  501  0.00000000000E+00  0.00000000000E+00 -0.63481567129E+03  0.63481567131E+03  0.50400001928E-02 0.  1.
    10030    2    1    2    0    0  0.00000000000E+00  0.00000000000E+00  0.93914285112E+03  0.22087741937E+04  0.19991733652E+04 0.  0.
        3    1    3    3  502    0 -0.56215420285E+03  0.10930194456E+03 -0.43559791041E+03  0.71952054357E+03  0.10100000352E+00 0.  1.
       -3    1    3    3    0  502  0.56215420285E+03 -0.10930194456E+03  0.13747407615E+04  0.14892536502E+04  0.10100000352E+00 0. -1.
</event>
<event>
 5   0  0.2311520E-06  0.1999872E+04  0.7818609E-02  0.8606681E-01
       -1   -1    0    0    0  501  0.00000000000E+00  0.00000000000E+00  0.12738570720E+04  0.12738570720E+04  0.50400001928E-02 0. -1.
        1   -1    0    0  501    0  0.00000000000E+00  0.00000000000E+00 -0.78491671913E+03  0.78491671915E+03  0.50400001928E-02 0.  1.
    10030    2    1    2    0    0  0.00000000000E+00  0.00000000000E+00  0.48894035282E+03  0.20587737911E+04  0.19998717095E+04 0.  0.
        3    1    3    3  502    0  0.46090501658E+03 -0.17812603183E+03  0.11393895339E+04  0.12419222349E+04  0.10100000352E+00 0. -1.
       -3    1    3    3    0  502 -0.46090501658E+03  0.17812603183E+03 -0.65044918104E+03  0.81685155619E+03  0.10100000352E+00 0.  1.
</event>
<event>
 5   0  0.5118981E-06  0.2002747E+04  0.7818609E-02  0.8605338E-01
       -2   -1    0    0    0  501  0.00000000000E+00  0.00000000000E+00  0.11714527099E+04  0.11714527099E+04  0.25500000920E-02 0.  1.
        2   -1    0    0  501    0  0.00000000000E+00  0.00000000000E+00 -0.85598726544E+03  0.85598726544E+03  0.25500000920E-02 0. -1.
    10030    2    1    2    0    0  0.00000000000E+00  0.00000000000E+00  0.31546544447E+03  0.20274399754E+04  0.20027467156E+04 0.  0.
        4    1    3    3  502    0  0.21979501347E+03  0.91721919123E+02 -0.82689737593E+03  0.86051359176E+03  0.12699999809E+01 0. -1.
       -4    1    3    3    0  502 -0.21979501347E+03 -0.91721919123E+02  0.11423628204E+04  0.11669263836E+04  0.12699999809E+01 0.  1.
</event>
<event>
 5   0  0.5129100E-06  0.2000273E+04  0.7818609E-02  0.8606493E-01
       -2   -1    0    0    0  501  0.00000000000E+00  0.00000000000E+00  0.90935645281E+03  0.90935645282E+03  0.25500000920E-02 0. -1.
        2   -1    0    0  501    0  0.00000000000E+00  0.00000000000E+00 -0.10999785594E+04  0.10999785594E+04  0.25500000920E-02 0.  1.
    10030    2    1    2    0    0  0.00000000000E+00  0.00000000000E+00 -0.19062210660E+03  0.20093350122E+04  0.20002725824E+04 0.  0.
        2    1    3    3  502    0  0.11233563784E+03  0.18291929810E+03 -0.10765651275E+04  0.10977573680E+04  0.25500000920E-02 0.  1.
       -2    1    3    3    0  502 -0.11233563784E+03 -0.18291929810E+03  0.88594302093E+03  0.91157764425E+03  0.25500000920E-02 0. -1.
</event>
<event>
 5   0  0.2386776E-06  0.1999639E+04  0.7818609E-02  0.8606790E-01
        1   -1    0    0  501    0  0.00000000000E+00  0.00000000000E+00  0.76768887635E+03  0.76768887637E+03  0.50400001928E-02 0. -1.
       -1   -1    0    0    0  501  0.00000000000E+00  0.00000000000E+00 -0.13021403855E+04  0.13021403855E+04  0.50400001928E-02 0.  1.
    10030    2    1    2    0    0  0.00000000000E+00  0.00000000000E+00 -0.53445150914E+03  0.20698292619E+04  0.19996386568E+04 0.  0.
        2    1    3    3  502    0  0.39799713419E+03  0.64202719757E+03 -0.94522764165E+03  0.12099817915E+04  0.25500000920E-02 0.  1.
       -2    1    3    3    0  502 -0.39799713419E+03 -0.64202719757E+03  0.41077613251E+03  0.85984747036E+03  0.25500000920E-02 0. -1.
</event>
<event>
 5   0  0.5129100E-06  0.2000558E+04  0.7818609E-02  0.8606360E-01
       -2   -1    0    0    0  501  0.00000000000E+00  0.00000000000E+00  0.53720951323E+03  0.53720951323E+03  0.25500000920E-02 0. -1.
        2   -1    0    0  501    0  0.00000000000E+00  0.00000000000E+00 -0.18625090777E+04  0.18625090777E+04  0.25500000920E-02 0.  1.
    10030    2    1    2    0    0  0.00000000000E+00  0.00000000000E+00 -0.13252995645E+04  0.23997185910E+04  0.20005575173E+04 0.  0.
        2    1    3    3  502    0  0.13865001531E+03  0.52218215434E+03 -0.16724328890E+04  0.17575351483E+04  0.25500000920E-02 0.  1.
       -2    1    3    3    0  502 -0.13865001531E+03 -0.52218215434E+03  0.34713332454E+03  0.64218344269E+03  0.25500000920E-02 0. -1.
</event>
<event>
 5   0  0.2386776E-06  0.1998483E+04  0.7818609E-02  0.8607330E-01
        1   -1    0    0  501    0  0.00000000000E+00  0.00000000000E+00  0.16696355930E+04  0.16696355931E+04  0.50400001928E-02 0. -1.
       -1   -1    0    0    0  501  0.00000000000E+00  0.00000000000E+00 -0.59802508835E+03  0.59802508837E+03  0.50400001928E-02 0.  1.
    10030    2    1    2    0    0  0.00000000000E+00  0.00000000000E+00  0.10716105047E+04  0.22676606814E+04  0.19984833981E+04 0.  0.
        2    1    3    3  502    0  0.33395207830E+03 -0.21015461228E+03  0.15774952784E+04  0.16260935720E+04  0.25500000920E-02 0. -1.
       -2    1    3    3    0  502 -0.33395207830E+03  0.21015461228E+03 -0.50588477366E+03  0.64156710942E+03  0.25500000920E-02 0.  1.
</event>
<event>
 5   0  0.1777750E-06  0.2002698E+04  0.7818609E-02  0.8605360E-01
        3   -1    0    0  501    0  0.00000000000E+00  0.00000000000E+00  0.76523459054E+03  0.76523459721E+03  0.10100000352E+00 0.  1.
       -3   -1    0    0    0  501  0.00000000000E+00  0.00000000000E+00 -0.13103173249E+04  0.13103173288E+04  0.10100000352E+00 0. -1.
    10030    2    1    2    0    0  0.00000000000E+00  0.00000000000E+00 -0.54508273432E+03  0.20755519260E+04  0.20026983323E+04 0.  0.
        5    1    3    3  502    0  0.60068893075E+03 -0.73962719534E+03 -0.59164218903E+03  0.11215784188E+04  0.46999998093E+01 0. -1.
       -5    1    3    3    0  502 -0.60068893075E+03  0.73962719534E+03  0.46559454716E+02  0.95397350720E+03  0.46999998093E+01 0.  1.
</event>
<event>
 5   0  0.2313821E-06  0.2000304E+04  0.7818609E-02  0.8606479E-01
        1   -1    0    0  501    0  0.00000000000E+00  0.00000000000E+00  0.15207545077E+04  0.15207545077E+04  0.50400001928E-02 0.  1.
       -1   -1    0    0    0  501  0.00000000000E+00  0.00000000000E+00 -0.65776823210E+03  0.65776823212E+03  0.50400001928E-02 0. -1.
    10030    2    1    2    0    0  0.00000000000E+00  0.00000000000E+00  0.86298627559E+03  0.21785227398E+04  0.20003039809E+04 0.  0.
        1    1    3    3  502    0  0.67243670074E+03 -0.14506144134E+03  0.12221872661E+04  0.14024819613E+04  0.50400001928E-02 0.  1.
       -1    1    3    3    0  502 -0.67243670074E+03  0.14506144134E+03 -0.35920099055E+03  0.77604077851E+03  0.50400001928E-02 0. -1.
</event>
<event>
 5   0  0.5129100E-06  0.1998242E+04  0.7818609E-02  0.8607443E-01
        2   -1    0    0  501    0  0.00000000000E+00  0.00000000000E+00  0.15108948622E+04  0.15108948622E+04  0.25500000920E-02 0. -1.
       -2   -1    0    0    0  501  0.00000000000E+00  0.00000000000E+00 -0.66069609315E+03  0.66069609315E+03  0.25500000920E-02 0.  1.
    10030    2    1    2    0    0  0.00000000000E+00  0.00000000000E+00  0.85019876902E+03  0.21715909553E+04  0.19982415596E+04 0.  0.
        2    1    3    3  502    0 -0.19923295977E+03 -0.33102551597E+03  0.14264274290E+04  0.14778250488E+04  0.25500000920E-02 0. -1.
       -2    1    3    3    0  502  0.19923295977E+03  0.33102551597E+03 -0.57622866000E+03  0.69376590656E+03  0.25500000920E-02 0.  1.
</event>
<event>
 5   0  0.5118981E-06  0.2000299E+04  0.7818609E-02  0.8606481E-01
       -2   -1    0    0    0  501  0.00000000000E+00  0.00000000000E+00  0.91992390465E+03  0.91992390466E+03  0.25500000920E-02 0.  1.
        2   -1    0    0  501    0  0.00000000000E+00  0.00000000000E+00 -0.10873715678E+04  0.10873715678E+04  0.25500000920E-02 0. -1.
    10030    2    1    2    0    0  0.00000000000E+00  0.00000000000E+00 -0.16744766317E+03  0.20072954725E+04  0.20002990761E+04 0.  0.
        4    1    3    3  502    0  0.49880214925E+03 -0.83602533226E+03  0.14632797281E+03  0.98445692075E+03  0.12699999809E+01 0.  1.
       -4    1    3    3    0  502 -0.49880214925E+03  0.83602533226E+03 -0.31377563598E+03  0.10228385517E+04  0.12699999809E+01 0. -1.
</event>
<event>
 5   0  0.4956214E-06  0.2000000E+04  0.7818609E-02  0.8606621E-01
        2   -1    0    0  501    0  0.00000000000E+00  0.00000000000E+00  0.13756161630E+04  0.13756161630E+04  0.25500000920E-02 0.  1.
       -2   -1    0    0    0  501  0.00000000000E+00  0.00000000000E+00 -0.72694719513E+03  0.72694719514E+03  0.25500000920E-02 0. -1.
    10030    2    1    2    0    0  0.00000000000E+00  0.00000000000E+00  0.64866896791E+03  0.21025633582E+04  0.20000003113E+04 0.  0.
        1    1    3    3  502    0 -0.84726886829E+02  0.42885724608E+02 -0.72219632159E+03  0.72841290328E+03  0.50400001928E-02 0. -1.
       -1    1    3    3    0  502  0.84726886829E+02 -0.42885724608E+02  0.13708652895E+04  0.13741504549E+04  0.50400001928E-02 0.  1.
</event>
<event>
 5   0  0.4956214E-06  0.1999844E+04  0.7818609E-02  0.8606694E-01
       -2   -1    0    0    0  501  0.00000000000E+00  0.00000000000E+00  0.49948066243E+03  0.49948066244E+03  0.25500000920E-02 0. -1.
        2   -1    0    0  501    0  0.00000000000E+00  0.00000000000E+00 -0.20017671894E+04  0.20017671894E+04  0.25500000920E-02 0.  1.
    10030    2    1    2    0    0  0.00000000000E+00  0.00000000000E+00 -0.15022865270E+04  0.25012478519E+04  0.19998439957E+04 0.  0.
        1    1    3    3  502    0 -0.83506457678E+03  0.32691707725E+03 -0.19793912780E+03  0.91836132384E+03  0.50400001928E-02 0. -1.
       -1    1    3    3    0  502  0.83506457678E+03 -0.32691707725E+03 -0.13043473992E+04  0.15828865280E+04  0.50400001928E-02 0.  1.
</event>
<event>
 5   0  0.2386776E-06  0.2000043E+04  0.7818609E-02  0.8606600E-01
        1   -1    0    0  501    0  0.00000000000E+00  0.00000000000E+00  0.11878026981E+04  0.11878026981E+04  0.50400001928E-02 0. -1.
       -1   -1    0    0    0  501  0.00000000000E+00  0.00000000000E+00 -0.84192717813E+03  0.84192717815E+03  0.50400001928E-02 0.  1.
    10030    2    1    2    0    0  0.00000000000E+00  0.00000000000E+00  0.34587551996E+03  0.20297298763E+04  0.20000433733E+04 0.  0.
        2    1    3    3  502    0  0.93430435787E+03 -0.33708050582E+03  0.55043437792E+02  0.99477519098E+03  0.25500000920E-02 0. -1.
       -2    1    3    3    0  502 -0.93430435787E+03  0.33708050582E+03  0.29083208216E+03  0.10349546853E+04  0.25500000920E-02 0.  1.
</event>
<event>
 5   0  0.2386776E-06  0.2000470E+04  0.7818609E-02  0.8606401E-01
        1   -1    0    0  501    0  0.00000000000E+00  0.00000000000E+00  0.18109090996E+04  0.18109090997E+04  0.50400001928E-02 0.  1.
       -1   -1    0    0    0  501  0.00000000000E+00  0.00000000000E+00 -0.55246848319E+03  0.55246848321E+03  0.50400001928E-02 0. -1.
    10030    2    1    2    0    0  0.00000000000E+00  0.00000000000E+00  0.12584406165E+04  0.23633775829E+04  0.20004701482E+04 0.  0.
        2    1    3    3  502    0  0.41074535251E+03  0.85404940231E+03  0.25124616043E+03  0.98042682508E+03  0.25500000920E-02 0. -1.
       -2    1    3    3    0  502 -0.41074535251E+03 -0.85404940231E+03  0.10071944560E+04  0.13829507578E+04  0.25500000920E-02 0.  1.
</event>
<event>
 5   0  0.4956214E-06  0.2000092E+04  0.7818609E-02  0.8606578E-01
       -2   -1    0    0    0  501  0.00000000000E+00  0.00000000000E+00  0.17165590199E+04  0.17165590199E+04  0.25500000920E-02 0.  1.
        2   -1    0    0  501    0  0.00000000000E+00  0.00000000000E+00 -0.58261415298E+03  0.58261415299E+03  0.25500000920E-02 0. -1.
    10030    2    1    2    0    0  0.00000000000E+00  0.00000000000E+00  0.11339448669E+04  0.22991731729E+04  0.20000915773E+04 0.  0.
        1    1    3    3  502    0 -0.29070688233E+03 -0.12982704798E+02 -0.53286939006E+03  0.60714811121E+03  0.50400001928E-02 0. -1.
       -1    1    3    3    0  502  0.29070688233E+03  0.12982704798E+02  0.16668142570E+04  0.16920250617E+04  0.50400001928E-02 0.  1.
</event>
<event>
 5   0  0.5251252E-06  0.1997893E+04  0.7818609E-02  0.8607606E-01
       -2   -1    0    0    0  501  0.00000000000E+00  0.00000000000E+00  0.11110551380E+04  0.11110551380E+04  0.25500000920E-02 0. -1.
        2   -1    0    0  501    0  0.00000000000E+00  0.00000000000E+00 -0.89815006580E+03  0.89815006581E+03  0.25500000920E-02 0.  1.
    10030    2    1    2    0    0  0.00000000000E+00  0.00000000000E+00  0.21290507221E+03  0.20092052038E+04  0.19978931356E+04 0.  0.
        5    1    3    3  502    0 -0.49493411361E+03 -0.28021993258E+03  0.93231424894E+03  0.10921148915E+04  0.46999998093E+01 0. -1.
       -5    1    3    3    0  502  0.49493411361E+03  0.28021993258E+03 -0.71940917673E+03  0.91709031234E+03  0.46999998093E+01 0.  1.
</event>
<event>
 5   0  0.5118981E-06  0.2002666E+04  0.7818609E-02  0.8605375E-01
       -2   -1    0    0    0  501  0.00000000000E+00  0.00000000000E+00  0.10579525319E+04  0.10579525319E+04  0.25500000920E-02 0.  1.
        2   -1    0    0  501    0  0.00000000000E+00  0.00000000000E+00 -0.94774382863E+03  0.94774382863E+03  0.25500000920E-02 0. -1.
    10030    2    1    2    0    0  0.00000000000E+00  0.00000000000E+00  0.11020870327E+03  0.20056963605E+04  0.20026662059E+04 0.  0.
        4    1    3    3  502    0  0.18902769191E+03 -0.93735178944E+02 -0.92522737018E+03  0.94898105962E+03  0.12699999809E+01 0. -1.
       -4    1    3    3    0  502 -0.18902769191E+03  0.93735178944E+02  0.10354360735E+04  0.10567153009E+04  0.12699999809E+01 0.  1.
</event>
<event>
 5   0  0.2313821E-06  0.1993987E+04  0.7818609E-02  0.8609437E-01
       -1   -1    0    0    0  501  0.00000000000E+00  0.00000000000E+00  0.10748133292E+04  0.10748133292E+04  0.50400001928E-02 0.  1.
        1   -1    0    0  501    0  0.00000000000E+00  0.00000000000E+00 -0.92480848442E+03  0.92480848443E+03  0.50400001928E-02 0. -1.
    10030    2    1    2    0    0  0.00000000000E+00  0.00000000000E+00  0.15000484480E+03  0.19996218137E+04  0.19939874484E+04 0.  0.
        1    1    3    3  502    0 -0.12634397149E+03 -0.98627554288E+03  0.14796955415E+03  0.10052846535E+04  0.50400001928E-02 0.  1.
       -1    1    3    3    0  502  0.12634397149E+03  0.98627554288E+03  0.20352906445E+01  0.99433716014E+03  0.50400001928E-02 0. -1.
</event>
<event>
 5   0  0.5030137E-06  0.2001351E+04  0.7818609E-02  0.8605989E-01
       -2   -1    0    0    0  501  0.00000000000E+00  0.00000000000E+00  0.14441136745E+04  0.14441136745E+04  0.25500000920E-02 0.  1.
        2   -1    0    0  501    0  0.00000000000E+00  0.00000000000E+00 -0.69340197351E+03  0.69340197351E+03  0.25500000920E-02 0. -1.
    10030    2    1    2    0    0  0.00000000000E+00  0.00000000000E+00  0.75071170096E+03  0.21375156480E+04  0.20013508157E+04 0.  0.
        3    1    3    3  502    0 -0.26248911443E+02  0.21703092440E+03 -0.66758590395E+03  0.70246877286E+03  0.10100000352E+00 0. -1.
       -3    1    3    3    0  502  0.26248911443E+02 -0.21703092440E+03  0.14182976049E+04  0.14350468751E+04  0.10100000352E+00 0.  1.
</event>
<event>
 5   0  0.4956214E-06  0.2002887E+04  0.7818609E-02  0.8605272E-01
        2   -1    0    0  501    0  0.00000000000E+00  0.00000000000E+00  0.16262097653E+04  0.16262097653E+04  0.25500000920E-02 0. -1.
       -2   -1    0    0    0  501  0.00000000000E+00  0.00000000000E+00 -0.61670350689E+03  0.61670350690E+03  0.25500000920E-02 0.  1.
    10030    2    1    2    0    0  0.00000000000E+00  0.00000000000E+00  0.10095062585E+04  0.22429132722E+04  0.20028871813E+04 0.  0.
        1    1    3    3  502    0 -0.26443275127E+03 -0.76119753456E+03  0.11706041241E+04  0.14211475581E+04  0.50400001928E-02 0. -1.
       -1    1    3    3    0  502  0.26443275127E+03  0.76119753456E+03 -0.16109786565E+03  0.82176571412E+03  0.50400001928E-02 0.  1.
</event>
<event>
 5   0  0.2356996E-06  0.1999249E+04  0.7818609E-02  0.8606972E-01
       -1   -1    0    0    0  501  0.00000000000E+00  0.00000000000E+00  0.79986525029E+03  0.79986525030E+03  0.50400001928E-02 0.  1.
        1   -1    0    0  501    0  0.00000000000E+00  0.00000000000E+00 -0.12492712887E+04  0.12492712887E+04  0.50400001928E-02 0. -1.
    10030    2    1    2    0    0  0.00000000000E+00  0.00000000000E+00 -0.44940603839E+03  0.20491365390E+04  0.19992485509E+04 0.  0.
        4    1    3    3  502    0 -0.90060287627E+03  0.32393447159E+03  0.70988472147E+02  0.95971873938E+03  0.12699999809E+01 0.  1.
       -4    1    3    3    0  502  0.90060287627E+03 -0.32393447159E+03 -0.52039451054E+03  0.10894177996E+04  0.12699999809E+01 0. -1.
</event>
<event>
 5   0  0.5030137E-06  0.1998448E+04  0.7818609E-02  0.8607347E-01
        2   -1    0    0  501    0  0.00000000000E+00  0.00000000000E+00  0.20985176148E+04  0.20985176148E+04  0.25500000920E-02 0.  1.
       -2   -1    0    0    0  501  0.00000000000E+00  0.00000000000E+00 -0.47578758652E+03  0.47578758653E+03  0.25500000920E-02 0. -1.
    10030    2    1    2    0    0  0.00000000000E+00  0.00000000000E+00  0.16227300283E+04  0.25743052013E+04  0.19984480291E+04 0.  0.
        3    1    3    3  502    0  0.86805701103E+03  0.44345993937E+03  0.52835551942E+03  0.11087557248E+04  0.10100000352E+00 0. -1.
       -3    1    3    3    0  502 -0.86805701103E+03 -0.44345993937E+03  0.10943745089E+04  0.14655494765E+04  0.10100000352E+00 0.  1.
</event>
<event>
 5   0  0.4956214E-06  0.2000809E+04  0.7818609E-02  0.8606242E-01
        2   -1    0    0  501    0  0.00000000000E+00  0.00000000000E+00  0.16109575451E+04  0.16109575451E+04  0.25500000920E-02 0.  1.
       -2   -1    0    0    0  501  0.00000000000E+00  0.00000000000E+00 -0.62125135192E+03  0.62125135192E+03  0.25500000920E-02 0. -1.
    10030    2    1    2    0    0  0.00000000000E+00  0.00000000000E+00  0.98970619318E+03  0.22322088970E+04  0.20008093890E+04 0.  0.
        1    1    3    3  502    0 -0.84515308997E+03 -0.35346193348E+03  0.94332680584E+03  0.13149465946E+04  0.50400001928E-02 0. -1.
       -1    1    3    3    0  502  0.84515308997E+03  0.35346193348E+03  0.46379387338E+02  0.91726230245E+03  0.50400001928E-02 0.  1.
</event>
<event>
 5   0  0.2386776E-06  0.1999707E+04  0.7818609E-02  0.8606758E-01
       -1   -1    0    0    0  501  0.00000000000E+00  0.00000000000E+00  0.88770295884E+03  0.88770295885E+03  0.50400001928E-02 0. -1.
        1   -1    0    0  501    0  0.00000000000E+00  0.00000000000E+00 -0.11261727964E+04  0.11261727965E+04  0.50400001928E-02 0.  1.
    10030    2    1    2    0    0  0.00000000000E+00  0.00000000000E+00 -0.23846983761E+03  0.20138757553E+04  0.19997069021E+04 0.  0.
        2    1    3    3  502    0 -0.57664221805E+03  0.47284076058E+03  0.55152655952E+03  0.92751074299E+03  0.25500000920E-02 0. -1.
       -2    1    3    3    0  502  0.57664221805E+03 -0.47284076058E+03 -0.78999639713E+03  0.10863650123E+04  0.25500000920E-02 0.  1.
</event>
<event>
 5   0  0.5251252E-06  0.2000270E+04  0.7818609E-02  0.8606494E-01
        2   -1    0    0  501    0  0.00000000000E+00  0.00000000000E+00  0.15554150220E+04  0.15554150220E+04  0.25500000920E-02 0. -1.
       -2   -1    0    0    0  501  0.00000000000E+00  0.00000000000E+00 -0.64308910533E+03  0.64308910533E+03  0.25500000920E-02 0.  1.
    10030    2    1    2    0    0  0.00000000000E+00  0.00000000000E+00  0.91232591664E+03  0.21985041273E+04  0.20002704366E+04 0.  0.
        5    1    3    3  502    0 -0.76168152184E+03  0.62251277161E+03  0.65451222642E+03  0.11815622015E+04  0.46999998093E+01 0.  1.
       -5    1    3    3    0  502  0.76168152184E+03 -0.62251277161E+03  0.25781369021E+03  0.10169419258E+04  0.46999998093E+01 0. -1.
</event>
<event>
 5   0  0.2313821E-06  0.2000624E+04  0.7818609E-02  0.8606329E-01
        1   -1    0    0  501    0  0.00000000000E+00  0.00000000000E+00  0.12849396710E+04  0.12849396710E+04  0.50400001928E-02 0.  1.
       -1   -1    0    0    0  501  0.00000000000E+00  0.00000000000E+00 -0.77873258095E+03  0.77873258096E+03  0.50400001928E-02 0. -1.
    10030    2    1    2    0    0  0.00000000000E+00  0.00000000000E+00  0.50620709003E+03  0.20636722519E+04  0.20006242889E+04 0.  0.
        1    1    3    3  502    0 -0.24525586735E+03  0.21490994181E+03 -0.72236620753E+03  0.79255893243E+03  0.50400001928E-02 0. -1.
       -1    1    3    3    0  502  0.24525586735E+03 -0.21490994181E+03  0.12285732976E+04  0.12711133195E+04  0.50400001928E-02 0.  1.
</event>
<event>
 5   0  0.4956214E-06  0.1999911E+04  0.7818609E-02  0.8606662E-01
       -2   -1    0    0    0  501  0.00000000000E+00  0.00000000000E+00  0.55427083827E+03  0.55427083827E+03  0.25500000920E-02 0.  1.
        2   -1    0    0  501    0  0.00000000000E+00  0.00000000000E+00 -0.18040118266E+04  0.18040118266E+04  0.25500000920E-02 0. -1.
    10030    2    1    2    0    0  0.00000000000E+00  0.00000000000E+00 -0.12497409884E+04  0.23582826649E+04  0.19999111454E+04 0.  0.
        1    1    3    3  502    0  0.95164150904E+03 -0.20512905698E+03 -0.35542626262E+03  0.10363528935E+04  0.50400001928E-02 0.  1.
       -1    1    3    3    0  502 -0.95164150904E+03  0.20512905698E+03 -0.89431472574E+03  0.13219297714E+04  0.50400001928E-02 0. -1.
</event>
<event>
 5   0  0.5129100E-06  0.1999866E+04  0.7818609E-02  0.8606683E-01
       -2   -1    0    0    0  501  0.00000000000E+00  0.00000000000E+00  0.10263451898E+04  0.10263451898E+04  0.25500000920E-02 0. -1.
        2   -1    0    0  501    0  0.00000000000E+00  0.00000000000E+00 -0.97420031694E+03  0.97420031694E+03  0.25500000920E-02 0.  1.
    10030    2    1    2    0    0  0.00000000000E+00  0.00000000000E+00  0.52144872876E+02  0.20005455068E+04  0.19998658047E+04 0.  0.
        2    1    3    3  502    0 -0.76933947488E+02  0.36004219823E+03  0.95607469958E+03  0.10245135665E+04  0.25500000920E-02 0. -1.
       -2    1    3    3    0  502  0.76933947488E+02 -0.36004219823E+03 -0.90392982670E+03  0.97603194025E+03  0.25500000920E-02 0.  1.
</event>
<event>
 5   0  0.2379743E-06  0.1999868E+04  0.7818609E-02  0.8606682E-01
       -1   -1    0    0    0  501  0.00000000000E+00  0.00000000000E+00  0.90449410433E+03  0.90449410434E+03  0.50400001928E-02 0.  1.
        1   -1    0    0  501    0  0.00000000000E+00  0.00000000000E+00 -0.11054446646E+04  0.11054446646E+04  0.50400001928E-02 0. -1.
    10030    2    1    2    0    0  0.00000000000E+00  0.00000000000E+00 -0.20095056026E+03  0.20099387689E+04  0.19998681775E+04 0.  0.
        5    1    3    3  502    0 -0.57244452248E+02 -0.39105567246E+03  0.82265124353E+03  0.91267662661E+03  0.46999998093E+01 0.  1.
       -5    1    3    3    0  502  0.57244452248E+02  0.39105567246E+03 -0.10236018038E+04  0.10972621423E+04  0.46999998093E+01 0. -1.
</event>
<event>
 5   0  0.2311520E-06  0.2001155E+04  0.7818609E-02  0.8606081E-01
        1   -1    0    0  501    0  0.00000000000E+00  0.00000000000E+00  0.12815044982E+04  0.12815044982E+04  0.50400001928E-02 0.  1.
       -1   -1    0    0    0  501  0.00000000000E+00  0.00000000000E+00 -0.78123434820E+03  0.78123434822E+03  0.50400001928E-02 0. -1.
    10030    2    1    2    0    0  0.00000000000E+00  0.00000000000E+00  0.50027015000E+03  0.20627388464E+04  0.20011549979E+04 0.  0.
        3    1    3    3  502    0  0.39882810347E+03  0.86899361415E+03  0.55406764540E+03  0.11050813198E+04  0.10100000352E+00 0.  1.
       -3    1    3    3    0  502 -0.39882810347E+03 -0.86899361415E+03 -0.53797495398E+02  0.95765752660E+03  0.10100000352E+00 0. -1.
</event>
<event>
 5   0  0.5030137E-06  0.1999705E+04  0.7818609E-02  0.8606758E-01
       -2   -1    0    0    0  501  0.00000000000E+00  0.00000000000E+00  0.53628032659E+03  0.53628032659E+03  0.25500000920E-02 0.  1.
        2   -1    0    0  501    0  0.00000000000E+00  0.00000000000E+00 -0.18641470340E+04  0.18641470340E+04  0.25500000920E-02 0. -1.
    10030    2    1    2    0    0  0.00000000000E+00  0.00000000000E+00 -0.13278667074E+04  0.24004273606E+04  0.19997053585E+04 0.  0.
        3    1    3    3  502    0  0.16000737034E+03  0.40135193528E+02 -0.18476986838E+04  0.18550481473E+04  0.10100000352E+00 0. -1.
       -3    1    3    3    0  502 -0.16000737034E+03 -0.40135193528E+02  0.51983197645E+03  0.54537921327E+03  0.10100000352E+00 0.  1.
</event>
<event>
 5   0  0.5251252E-06  0.1999767E+04  0.7818609E-02  0.8606730E-01
        2   -1    0    0  501    0  0.00000000000E+00  0.00000000000E+00  0.10850166982E+04  0.10850166982E+04  0.25500000920E-02 0.  1.
       -2   -1    0    0    0  501  0.00000000000E+00  0.00000000000E+00 -0.92142978556E+03  0.92142978556E+03  0.25500000920E-02 0. -1.
    10030    2    1    2    0    0  0.00000000000E+00  0.00000000000E+00  0.16358691260E+03  0.20064464837E+04  0.19997666899E+04 0.  0.
        5    1    3    3  502    0 -0.35658062134E+03  0.10169439756E+03 -0.84988411086E+03  0.92726295187E+03  0.46999998093E+01 0. -1.
       -5    1    3    3    0  502  0.35658062134E+03 -0.10169439756E+03  0.10134710235E+04  0.10791835318E+04  0.46999998093E+01 0.  1.
</event>
<event>
 5   0  0.2379743E-06  0.1999111E+04  0.7818609E-02  0.8607036E-01
        1   -1    0    0  501    0  0.00000000000E+00  0.00000000000E+00  0.12514098551E+04  0.12514098551E+04  0.50400001928E-02 0. -1.
       -1   -1    0    0    0  501  0.00000000000E+00  0.00000000000E+00 -0.79838862614E+03  0.79838862615E+03  0.50400001928E-02 0.  1.
    10030    2    1    2    0    0  0.00000000000E+00  0.00000000000E+00  0.45302122896E+03  0.20497984813E+04  0.19991111975E+04 0.  0.
        5    1    3    3  502    0  0.10400561244E+02  0.35379675073E+03 -0.73196809443E+03  0.81306807449E+03  0.46999998093E+01 0.  1.
       -5    1    3    3    0  502 -0.10400561244E+02 -0.35379675073E+03  0.11849893234E+04  0.12367304068E+04  0.46999998093E+01 0. -1.
</event>
<event>
 5   0  0.4956214E-06  0.1999450E+04  0.7818609E-02  0.8606878E-01
       -2   -1    0    0    0  501  0.00000000000E+00  0.00000000000E+00  0.58980901825E+03  0.58980901826E+03  0.25500000920E-02 0. -1.
        2   -1    0    0  501    0  0.00000000000E+00  0.00000000000E+00 -0.16945312577E+04  0.16945312577E+04  0.25500000920E-02 0.  1.
    10030    2    1    2    0    0  0.00000000000E+00  0.00000000000E+00 -0.11047222394E+04  0.22843402760E+04  0.19994497418E+04 0.  0.
        1    1    3    3  502    0  0.15113010984E+02 -0.98528152874E+03 -0.35968483660E+03  0.10489905985E+04  0.50400001928E-02 0. -1.
       -1    1    3    3    0  502 -0.15113010984E+02  0.98528152874E+03 -0.74503740284E+03  0.12353496775E+04  0.50400001928E-02 0.  1.
</event>
<event>
 5   0  0.2313821E-06  0.2000158E+04  0.7818609E-02  0.8606547E-01
       -1   -1    0    0    0  501  0.00000000000E+00  0.00000000000E+00  0.88137644328E+03  0.88137644330E+03  0.50400001928E-02 0. -1.
        1   -1    0    0  501    0  0.00000000000E+00  0.00000000000E+00 -0.11347679255E+04  0.11347679255E+04  0.50400001928E-02 0.  1.
    10030    2    1    2    0    0  0.00000000000E+00  0.00000000000E+00 -0.25339148217E+03  0.20161443688E+04  0.20001577119E+04 0.  0.
        1    1    3    3  502    0  0.90203568772E+03 -0.26608413657E+03  0.21615303988E+03  0.96498253162E+03  0.50400001928E-02 0. -1.
       -1    1    3    3    0  502 -0.90203568772E+03  0.26608413657E+03 -0.46954452205E+03  0.10511618371E+04  0.50400001928E-02 0.  1.
</event>
<event>
 5   0  0.5030137E-06  0.1998253E+04  0.7818609E-02  0.8607438E-01
        2   -1    0    0  501    0  0.00000000000E+00  0.00000000000E+00  0.89939848572E+03  0.89939848572E+03  0.25500000920E-02 0.  1.
       -2   -1    0    0    0  501  0.00000000000E+00  0.00000000000E+00 -0.11099125661E+04  0.11099125661E+04  0.25500000920E-02 0. -1.
    10030    2    1    2    0    0  0.00000000000E+00  0.00000000000E+00 -0.21051408039E+03  0.20093110518E+04  0.19982529182E+04 0.  0.
        3    1    3    3  502    0 -0.65940355589E+03  0.44219785333E+03  0.50464853411E+03  0.94075615554E+03  0.10100000352E+00 0.  1.
       -3    1    3    3    0  502  0.65940355589E+03 -0.44219785333E+03 -0.71516261449E+03  0.10685548963E+04  0.10100000352E+00 0. -1.
</event>
<event>
 5   0  0.5118981E-06  0.1999562E+04  0.7818609E-02  0.8606825E-01
        2   -1    0    0  501    0  0.00000000000E+00  0.00000000000E+00  0.86867612944E+03  0.86867612945E+03  0.25500000920E-02 0.  1.
       -2   -1    0    0    0  501  0.00000000000E+00  0.00000000000E+00 -0.11506731926E+04  0.11506731926E+04  0.25500000920E-02 0. -1.
    10030    2    1    2    0    0  0.00000000000E+00  0.00000000000E+00 -0.28199706316E+03  0.20193493221E+04  0.19995622873E+04 0.  0.
        4    1    3    3  502    0  0.67419195730E+03  0.18573272528E+03  0.58058538392E+03  0.90890727879E+03  0.12699999809E+01 0.  1.
       -4    1    3    3    0  502 -0.67419195730E+03 -0.18573272528E+03 -0.86258244708E+03  0.11104420433E+04  0.12699999809E+01 0. -1.
</event>
<event>
 5   0  0.5129100E-06  0.2000086E+04  0.7818609E-02  0.8606581E-01
       -2   -1    0    0    0  501  0.00000000000E+00  0.00000000000E+00  0.65480378246E+03  0.65480378246E+03  0.25500000920E-02 0. -1.
        2   -1    0    0  501    0  0.00000000000E+00  0.00000000000E+00 -0.15273057330E+04  0.15273057330E+04  0.25500000920E-02 0.  1.
    10030    2    1    2    0    0  0.00000000000E+00  0.00000000000E+00 -0.87250195050E+03  0.21821095154E+04  0.20000855691E+04 0.  0.
        2    1    3    3  502    0  0.16681911168E+03  0.27039319233E+02  0.63911215597E+03  0.66107797476E+03  0.25500000920E-02 0. -1.
       -2    1    3    3    0  502 -0.16681911168E+03 -0.27039319233E+02 -0.15116141065E+04  0.15210315407E+04  0.25500000920E-02 0.  1.
</event>
<event>
 5   0  0.5118981E-06  0.1998512E+04  0.7818609E-02  0.8607316E-01
       -2   -1    0    0    0  501  0.00000000000E+00  0.00000000000E+00  0.99522814068E+03  0.99522814069E+03  0.25500000920E-02 0. -1.
        2   -1    0    0  501    0  0.00000000000E+00  0.00000000000E+00 -0.10033006564E+04  0.10033006564E+04  0.25500000920E-02 0.  1.
    10030    2    1    2    0    0  0.00000000000E+00  0.00000000000E+00 -0.80725157516E+01  0.19985287971E+04  0.19985124937E+04 0.  0.
        4    1    3    3  502    0 -0.33037785205E+03  0.40277262275E+02  0.93817079740E+03  0.99545860837E+03  0.12699999809E+01 0. -1.
       -4    1    3    3    0  502  0.33037785205E+03 -0.40277262275E+02 -0.94624331315E+03  0.10030701888E+04  0.12699999809E+01 0.  1.
</event>
<event>
 5   0  0.4956214E-06  0.2000231E+04  0.7818609E-02  0.8606513E-01
        2   -1    0    0  501    0  0.00000000000E+00  0.00000000000E+00  0.23532835631E+04  0.23532835631E+04  0.25500000920E-02 0. -1.
       -2   -1    0    0    0  501  0.00000000000E+00  0.00000000000E+00 -0.42503638666E+03  0.42503638667E+03  0.25500000920E-02 0.  1.
    10030    2    1    2    0    0  0.00000000000E+00  0.00000000000E+00  0.19282471765E+04  0.27783199498E+04  0.20002311291E+04 0.  0.
        1    1    3    3  502    0  0.77220699669E+03 -0.62392951173E+03  0.79606348712E+03  0.12725206312E+04  0.50400001928E-02 0.  1.
       -1    1    3    3    0  502 -0.77220699669E+03  0.62392951173E+03  0.11321836893E+04  0.15057993186E+04  0.50400001928E-02 0. -1.
</event>
<event>
 5   0  0.2379743E-06  0.2002265E+04  0.7818609E-02  0.8605563E-01
       -1   -1    0    0    0  501  0.00000000000E+00  0.00000000000E+00  0.78277560596E+03  0.78277560598E+03  0.50400001928E-02 0.  1.
        1   -1    0    0  501    0  0.00000000000E+00  0.00000000000E+00 -0.12804000400E+04  0.12804000400E+04  0.50400001928E-02 0. -1.
    10030    2    1    2    0    0  0.00000000000E+00  0.00000000000E+00 -0.49762443407E+03  0.20631756460E+04  0.20022646351E+04 0.  0.
        5    1    3    3  502    0 -0.41434348564E+03 -0.90831530265E+03 -0.17220947824E+03  0.10131117448E+04  0.46999998093E+01 0. -1.
       -5    1    3    3    0  502  0.41434348564E+03  0.90831530265E+03 -0.32541495582E+03  0.10500639012E+04  0.46999998093E+01 0.  1.
</event>
<event>
 5   0  0.2313821E-06  0.2000944E+04  0.7818609E-02  0.8606179E-01
        1   -1    0    0  501    0  0.00000000000E+00  0.00000000000E+00  0.11809116349E+04  0.11809116349E+04  0.50400001928E-02 0.  1.
       -1   -1    0    0    0  501  0.00000000000E+00  0.00000000000E+00 -0.84760306098E+03  0.84760306100E+03  0.50400001928E-02 0. -1.
    10030    2    1    2    0    0  0.00000000000E+00  0.00000000000E+00  0.33330857392E+03  0.20285146959E+04  0.20009440937E+04 0.  0.
        1    1    3    3  502    0  0.35604895289E+03 -0.42675982835E+03  0.10100119317E+04  0.11528308246E+04  0.50400001928E-02 0.  1.
       -1    1    3    3    0  502 -0.35604895289E+03  0.42675982835E+03 -0.67670335780E+03  0.87568387129E+03  0.50400001928E-02 0. -1.
</event>
<event>
 5   0  0.4956214E-06  0.2000384E+04  0.7818609E-02  0.8606441E-01
        2   -1    0    0  501    0  0.00000000000E+00  0.00000000000E+00  0.13823948913E+04  0.13823948913E+04  0.25500000920E-02 0. -1.
       -2   -1    0    0    0  501  0.00000000000E+00  0.00000000000E+00 -0.72366024710E+03  0.72366024710E+03  0.25500000920E-02 0.  1.
    10030    2    1    2    0    0  0.00000000000E+00  0.00000000000E+00  0.65873464419E+03  0.21060551384E+04  0.20003841917E+04 0.  0.
        1    1    3    3  502    0 -0.47670690696E+03  0.35826075407E+03 -0.51603501596E+03  0.78860153485E+03  0.50400001928E-02 0.  1.
       -1    1    3    3    0  502  0.47670690696E+03 -0.35826075407E+03  0.11747696602E+04  0.13174536035E+04  0.50400001928E-02 0. -1.
</event>
<event>
 5   0  0.2386776E-06  0.1999002E+04  0.7818609E-02  0.8607087E-01
       -1   -1    0    0    0  501  0.00000000000E+00  0.00000000000E+00  0.65041186804E+03  0.65041186806E+03  0.50400001928E-02 0. -1.
        1   -1    0    0  501    0  0.00000000000E+00  0.00000000000E+00 -0.15359536098E+04  0.15359536098E+04  0.50400001928E-02 0.  1.
    10030    2    1    2    0    0  0.00000000000E+00  0.00000000000E+00 -0.88554174177E+03  0.21863654779E+04  0.19990022077E+04 0.  0.
        2    1    3    3  502    0 -0.54682128555E+03  0.15885384718E+03  0.45565520445E+03  0.72929399315E+03  0.25500000920E-02 0. -1.
       -2    1    3    3    0  502  0.54682128555E+03 -0.15885384718E+03 -0.13411969462E+04  0.14570714847E+04  0.25500000920E-02 0.  1.
</event>
<event>
 5   0  0.2311520E-06  0.1997433E+04  0.7818609E-02  0.8607822E-01
        1   -1    0    0  501    0  0.00000000000E+00  0.00000000000E+00  0.11241424031E+04  0.11241424031E+04  0.50400001928E-02 0.  1.
       -1   -1    0    0    0  501  0.00000000000E+00  0.00000000000E+00 -0.88728487092E+03  0.88728487093E+03  0.50400001928E-02 0. -1.
    10030    2    1    2    0    0  0.00000000000E+00  0.00000000000E+00  0.23685753215E+03  0.20114272740E+04  0.19974328995E+04 0.  0.
        3    1    3    3  502    0 -0.70453086950E+03 -0.64868180629E+03  0.40375593951E+03  0.10393126097E+04  0.10100000352E+00 0.  1.
       -3    1    3    3    0  502  0.70453086950E+03  0.64868180629E+03 -0.16689840737E+03  0.97211466426E+03  0.10100000352E+00 0. -1.
</event>
<event>
 5   0  0.2356996E-06  0.1999478E+04  0.7818609E-02  0.8606865E-01
        1   -1    0    0  501    0  0.00000000000E+00  0.00000000000E+00  0.98382636752E+03  0.98382636753E+03  0.50400001928E-02 0.  1.
       -1   -1    0    0    0  501  0.00000000000E+00  0.00000000000E+00 -0.10159087575E+04  0.10159087576E+04  0.50400001928E-02 0. -1.
    10030    2    1    2    0    0  0.00000000000E+00  0.00000000000E+00 -0.32082390020E+02  0.19997351251E+04  0.19994777545E+04 0.  0.
        4    1    3    3  502    0  0.23682221162E+02 -0.12554223158E+03  0.97562791700E+03  0.98395789790E+03  0.12699999809E+01 0.  1.
       -4    1    3    3    0  502 -0.23682221162E+02  0.12554223158E+03 -0.10077103070E+04  0.10157772272E+04  0.12699999809E+01 0. -1.
</event>
<event>
 5   0  0.4956214E-06  0.2003155E+04  0.7818609E-02  0.8605147E-01
        2   -1    0    0  501    0  0.00000000000E+00  0.00000000000E+00  0.74485484823E+03  0.74485484823E+03  0.25500000920E-02 0.  1.
       -2   -1    0    0    0  501  0.00000000000E+00  0.00000000000E+00 -0.13467825110E+04  0.13467825110E+04  0.25500000920E-02 0. -1.
    10030    2    1    2    0    0  0.00000000000E+00  0.00000000000E+00 -0.60192766277E+03  0.20916373592E+04  0.20031549943E+04 0.  0.
        1    1    3    3  502    0 -0.73202307363E+03  0.66848979043E+03 -0.45017846937E+03  0.10887594016E+04  0.50400001928E-02 0. -1.
       -1    1    3    3    0  502  0.73202307363E+03 -0.66848979043E+03 -0.15174919340E+03  0.10028779577E+04  0.50400001928E-02 0.  1.
</event>
<event>
 5   0  0.2386776E-06  0.2010397E+04  0.7818609E-02  0.8601775E-01
        1   -1    0    0  501    0  0.00000000000E+00  0.00000000000E+00  0.21067553802E+04  0.21067553802E+04  0.50400001928E-02 0. -1.
       -1   -1    0    0    0  501  0.00000000000E+00  0.00000000000E+00 -0.47961162546E+03  0.47961162548E+03  0.50400001928E-02 0.  1.
    10030    2    1    2    0    0  0.00000000000E+00  0.00000000000E+00  0.16271437548E+04  0.25863670057E+04  0.20103973462E+04 0.  0.
        2    1    3    3  502    0 -0.32974826609E+03  0.32958426337E+03 -0.33210605954E+03  0.57241081440E+03  0.25500000920E-02 0.  1.
       -2    1    3    3    0  502  0.32974826609E+03 -0.32958426337E+03  0.19592498143E+04  0.20139561913E+04  0.25500000920E-02 0. -1.
</event>
<event>
 5   0  0.2379743E-06  0.2000168E+04  0.7818609E-02  0.8606542E-01
        1   -1    0    0  501    0  0.00000000000E+00  0.00000000000E+00  0.66374834443E+03  0.66374834445E+03  0.50400001928E-02 0.  1.
       -1   -1    0    0    0  501  0.00000000000E+00  0.00000000000E+00 -0.15068475676E+04  0.15068475676E+04  0.50400001928E-02 0. -1.
    10030    2    1    2    0    0  0.00000000000E+00  0.00000000000E+00 -0.84309922313E+03  0.21705959120E+04  0.20001675713E+04 0.  0.
        5    1    3    3  502    0  0.39365316696E+03 -0.37568071406E+02 -0.14183885105E+04  0.14724884490E+04  0.46999998093E+01 0. -1.
       -5    1    3    3    0  502 -0.39365316696E+03  0.37568071406E+02  0.57528928732E+03  0.69810746304E+03  0.46999998093E+01 0.  1.
</event>
<event>
 5   0  0.2379743E-06  0.2000048E+04  0.7818609E-02  0.8606598E-01
        1   -1    0    0  501    0  0.00000000000E+00  0.00000000000E+00  0.17226452752E+04  0.17226452752E+04  0.50400001928E-02 0.  1.
       -1   -1    0    0    0  501  0.00000000000E+00  0.00000000000E+00 -0.58053021644E+03  0.58053021646E+03  0.50400001928E-02 0. -1.
    10030    2    1    2    0    0  0.00000000000E+00  0.00000000000E+00  0.11421150588E+04  0.23031754917E+04  0.20000476339E+04 0.  0.
        5    1    3    3  502    0 -0.10309341132E+03  0.75436540091E+03  0.13176471622E+04  0.15218119278E+04  0.46999998093E+01 0.  1.
       -5    1    3    3    0  502  0.10309341132E+03 -0.75436540091E+03 -0.17553210348E+03  0.78136356383E+03  0.46999998093E+01 0. -1.
</event>
<event>
 5   0  0.4956214E-06  0.2000072E+04  0.7818609E-02  0.8606587E-01
       -2   -1    0    0    0  501  0.00000000000E+00  0.00000000000E+00  0.60310532615E+03  0.60310532616E+03  0.25500000920E-02 0.  1.
        2   -1    0    0  501    0  0.00000000000E+00  0.00000000000E+00 -0.16582045911E+04  0.16582045911E+04  0.25500000920E-02 0. -1.
    10030    2    1    2    0    0  0.00000000000E+00  0.00000000000E+00 -0.10550992649E+04  0.22613099172E+04  0.20000720194E+04 0.  0.
        1    1    3    3  502    0 -0.35137350671E+02  0.99906188755E+03 -0.55773369038E+03  0.11447384671E+04  0.50400001928E-02 0.  1.
       -1    1    3    3    0  502  0.35137350671E+02 -0.99906188755E+03 -0.49736557455E+03  0.11165714502E+04  0.50400001928E-02 0. -1.
</event>
<event>
 5   0  0.2379743E-06  0.1999643E+04  0.7818609E-02  0.8606788E-01
        1   -1    0    0  501    0  0.00000000000E+00  0.00000000000E+00  0.12841336921E+04  0.12841336921E+04  0.50400001928E-02 0. -1.
       -1   -1    0    0    0  501  0.00000000000E+00  0.00000000000E+00 -0.77845693151E+03  0.77845693153E+03  0.50400001928E-02 0.  1.
    10030    2    1    2    0    0  0.00000000000E+00  0.00000000000E+00  0.50567676055E+03  0.20625906236E+04  0.19996427417E+04 0.  0.
        5    1    3    3  502    0  0.15209520580E+03  0.10207273883E+03  0.12666673015E+04  0.12798515298E+04  0.46999998093E+01 0. -1.
       -5    1    3    3    0  502 -0.15209520580E+03 -0.10207273883E+03 -0.76099054092E+03  0.78273909383E+03  0.46999998093E+01 0.  1.
</event>
<event>
 5   0  0.5129100E-06  0.2000131E+04  0.7818609E-02  0.8606559E-01
        2   -1    0    0  501    0  0.00000000000E+00  0.00000000000E+00  0.14835786712E+04  0.14835786712E+04  0.25500000920E-02 0. -1.
       -2   -1    0    0    0  501  0.00000000000E+00  0.00000000000E+00 -0.67413414269E+03  0.67413414269E+03  0.25500000920E-02 0.  1.
    10030    2    1    2    0    0  0.00000000000E+00  0.00000000000E+00  0.80944452855E+03  0.21577128139E+04  0.20001310314E+04 0.  0.
        2    1    3    3  502    0 -0.98086460582E+03 -0.95561753690E+02  0.58812729820E+03  0.11476589836E+04  0.25500000920E-02 0. -1.
       -2    1    3    3    0  502  0.98086460582E+03  0.95561753690E+02  0.22131723036E+03  0.10100538303E+04  0.25500000920E-02 0.  1.
</event>
<event>
 5   0  0.2386776E-06  0.1999985E+04  0.7818609E-02  0.8606627E-01
        1   -1    0    0  501    0  0.00000000000E+00  0.00000000000E+00  0.17142456427E+04  0.17142456427E+04  0.50400001928E-02 0. -1.
       -1   -1    0    0    0  501  0.00000000000E+00  0.00000000000E+00 -0.58333850548E+03  0.58333850550E+03  0.50400001928E-02 0.  1.
    10030    2    1    2    0    0  0.00000000000E+00  0.00000000000E+00  0.11309071372E+04  0.22975841482E+04  0.19999854912E+04 0.  0.
        2    1    3    3  502    0  0.33202060389E+03 -0.81618922700E+03  0.22248357546E+02  0.88141790604E+03  0.25500000920E-02 0.  1.
       -2    1    3    3    0  502 -0.33202060389E+03  0.81618922700E+03  0.11086587796E+04  0.14161662421E+04  0.25500000920E-02 0. -1.
</event>
<event>
 5   0  0.5251252E-06  0.1999126E+04  0.7818609E-02  0.8607029E-01
       -2   -1    0    0    0  501  0.00000000000E+00  0.00000000000E+00  0.11318547005E+04  0.11318547005E+04  0.25500000920E-02 0.  1.
        2   -1    0    0  501    0  0.00000000000E+00  0.00000000000E+00 -0.88273359617E+03  0.88273359617E+03  0.25500000920E-02 0. -1.
    10030    2    1    2    0    0  0.00000000000E+00  0.00000000000E+00  0.24912110437E+03  0.20145882967E+04  0.19991259792E+04 0.  0.
        5    1    3    3  502    0 -0.21643750932E+03 -0.80059381889E+03 -0.43770513186E+03  0.93776517890E+03  0.46999998093E+01 0. -1.
       -5    1    3    3    0  502  0.21643750932E+03  0.80059381889E+03  0.68682623623E+03  0.10768231178E+04  0.46999998093E+01 0.  1.
</event>
<event>
 5   0  0.5118981E-06  0.1999642E+04  0.7818609E-02  0.8606788E-01
        2   -1    0    0  501    0  0.00000000000E+00  0.00000000000E+00  0.15434850549E+04  0.15434850549E+04  0.25500000920E-02 0. -1.
       -2   -1    0    0    0  501  0.00000000000E+00  0.00000000000E+00 -0.64765238822E+03  0.64765238823E+03  0.25500000920E-02 0.  1.
    10030    2    1    2    0    0  0.00000000000E+00  0.00000000000E+00  0.89583266668E+03  0.21911374431E+04  0.19996417499E+04 0.  0.
        4    1    3    3  502    0  0.56672400495E+03 -0.29591974655E+03  0.12902279563E+04  0.14399424941E+04  0.12699999809E+01 0. -1.
       -4    1    3    3    0  502 -0.56672400495E+03  0.29591974655E+03 -0.39439528957E+03  0.75119494908E+03  0.12699999809E+01 0.  1.
</event>
<event>
 5   0  0.5118981E-06  0.1999092E+04  0.7818609E-02  0.8607045E-01
        2   -1    0    0  501    0  0.00000000000E+00  0.00000000000E+00  0.16867684066E+04  0.16867684066E+04  0.25500000920E-02 0. -1.
       -2   -1    0    0    0  501  0.00000000000E+00  0.00000000000E+00 -0.59231120593E+03  0.59231120594E+03  0.25500000920E-02 0.  1.
    10030    2    1    2    0    0  0.00000000000E+00  0.00000000000E+00  0.10944572007E+04  0.22790796126E+04  0.19990916228E+04 0.  0.
        4    1    3    3  502    0 -0.96742990055E+03 -0.25121995292E+03  0.55592141358E+03  0.11437142599E+04  0.12699999809E+01 0. -1.
       -4    1    3    3    0  502  0.96742990055E+03  0.25121995292E+03  0.53853578713E+03  0.11353653527E+04  0.12699999809E+01 0.  1.
</event>
<event>
 5   0  0.2379743E-06  0.1997668E+04  0.7818609E-02  0.8607712E-01
        1   -1    0    0  501    0  0.00000000000E+00  0.00000000000E+00  0.16954649643E+04  0.16954649643E+04  0.50400001928E-02 0.  1.
       -1   -1    0    0    0  501  0.00000000000E+00  0.00000000000E+00 -0.58843402034E+03  0.58843402036E+03  0.50400001928E-02 0. -1.
    10030    2    1    2    0    0  0.00000000000E+00  0.00000000000E+00  0.11070309440E+04  0.22838989847E+04  0.19976679057E+04 0.  0.
        5    1    3    3  502    0 -0.10643761936E+03  0.14813296588E+03  0.16762485892E+04  0.16861505760E+04  0.46999998093E+01 0.  1.
       -5    1    3    3    0  502  0.10643761936E+03 -0.14813296588E+03 -0.56921764521E+03  0.59774840863E+03  0.46999998093E+01 0. -1.
</event>
<event>
 5   0  0.1777750E-06  0.1999914E+04  0.7818609E-02  0.8606661E-01
       -3   -1    0    0    0  501  0.00000000000E+00  0.00000000000E+00  0.72442689499E+03  0.72442690203E+03  0.10100000352E+00 0.  1.
        3   -1    0    0  501    0  0.00000000000E+00  0.00000000000E+00 -0.13802828955E+04  0.13802828992E+04  0.10100000352E+00 0. -1.
    10030    2    1    2    0    0  0.00000000000E+00  0.00000000000E+00 -0.65585600051E+03  0.21047098012E+04  0.19999140616E+04 0.  0.
        4    1    3    3  502    0 -0.56413107893E+03 -0.61578797616E+03 -0.90672294738E+03  0.12327152234E+04  0.12699999809E+01 0. -1.
       -4    1    3    3    0  502  0.56413107893E+03  0.61578797616E+03  0.25086694688E+03  0.87199457781E+03  0.12699999809E+01 0.  1.
</event>
<event>
 5   0  0.2379743E-06  0.1999986E+04  0.7818609E-02  0.8606627E-01
       -1   -1    0    0    0  501  0.00000000000E+00  0.00000000000E+00  0.12038021287E+04  0.12038021288E+04  0.50400001928E-02 0. -1.
        1   -1    0    0  501    0  0.00000000000E+00  0.00000000000E+00 -0.83068936881E+03  0.83068936882E+03  0.50400001928E-02 0.  1.
    10030    2    1    2    0    0  0.00000000000E+00  0.00000000000E+00  0.37311275994E+03  0.20344914976E+04  0.19999856305E+04 0.  0.
        5    1    3    3  502    0 -0.40027825749E+03  0.51109193265E+03 -0.58717534560E+03  0.87534828698E+03  0.46999998093E+01 0.  1.
       -5    1    3    3    0  502  0.40027825749E+03 -0.51109193265E+03  0.96028810554E+03  0.11591432106E+04  0.46999998093E+01 0. -1.
</event>
<event>
 5   0  0.4956214E-06  0.2000197E+04  0.7818609E-02  0.8606529E-01
       -2   -1    0    0    0  501  0.00000000000E+00  0.00000000000E+00  0.40156485449E+03  0.40156485450E+03  0.25500000920E-02 0. -1.
        2   -1    0    0  501    0  0.00000000000E+00  0.00000000000E+00 -0.24907474666E+04  0.24907474666E+04  0.25500000920E-02 0.  1.
    10030    2    1    2    0    0  0.00000000000E+00  0.00000000000E+00 -0.20891826121E+04  0.28923123211E+04  0.20001966343E+04 0.  0.
        1    1    3    3  502    0 -0.69533292139E+03 -0.69323147070E+03 -0.13194819526E+04  0.16447158924E+04  0.50400001928E-02 0.  1.
       -1    1    3    3    0  502  0.69533292139E+03  0.69323147070E+03 -0.76970065944E+03  0.12475964286E+04  0.50400001928E-02 0. -1.
</event>
<event>
 5   0  0.5251252E-06  0.1999864E+04  0.7818609E-02  0.8606684E-01
       -2   -1    0    0    0  501  0.00000000000E+00  0.00000000000E+00  0.14617786070E+04  0.14617786070E+04  0.25500000920E-02 0.  1.
        2   -1    0    0  501    0  0.00000000000E+00  0.00000000000E+00 -0.68400510581E+03  0.68400510582E+03  0.25500000920E-02 0. -1.
    10030    2    1    2    0    0  0.00000000000E+00  0.00000000000E+00  0.77777350123E+03  0.21457837129E+04  0.19998640262E+04 0.  0.
        5    1    3    3  502    0  0.41331095605E+02 -0.92013710021E+03  0.80649121102E+03  0.12242592479E+04  0.46999998093E+01 0.  1.
       -5    1    3    3    0  502 -0.41331095605E+02  0.92013710021E+03 -0.28717709792E+02  0.92152446495E+03  0.46999998093E+01 0. -1.
</event>
<event>
 5   0  0.2311520E-06  0.1999792E+04  0.7818609E-02  0.8606718E-01
        1   -1    0    0  501    0  0.00000000000E+00  0.00000000000E+00  0.98642397557E+03  0.98642397558E+03  0.50400001928E-02 0.  1.
       -1   -1    0    0    0  501  0.00000000000E+00  0.00000000000E+00 -0.10135518923E+04  0.10135518923E+04  0.50400001928E-02 0. -1.
    10030    2    1    2    0    0  0.00000000000E+00  0.00000000000E+00 -0.27127916753E+02  0.19999758679E+04  0.19997918763E+04 0.  0.
        3    1    3    3  502    0  0.67063430159E+03  0.74025915681E+03  0.31804200847E+02  0.99937255471E+03  0.10100000352E+00 0.  1.
       -3    1    3    3    0  502 -0.67063430159E+03 -0.74025915681E+03 -0.58932117600E+02  0.10006033132E+04  0.10100000352E+00 0. -1.
</event>
<event>
 5   0  0.5118981E-06  0.1999146E+04  0.7818609E-02  0.8607020E-01
       -2   -1    0    0    0  501  0.00000000000E+00  0.00000000000E+00  0.11418151355E+04  0.11418151356E+04  0.25500000920E-02 0. -1.
        2   -1    0    0  501    0  0.00000000000E+00  0.00000000000E+00 -0.87505106411E+03  0.87505106412E+03  0.25500000920E-02 0.  1.
    10030    2    1    2    0    0  0.00000000000E+00  0.00000000000E+00  0.26676407144E+03  0.20168661997E+04  0.19991463672E+04 0.  0.
        4    1    3    3  502    0  0.69390836235E+03  0.22687766282E+03 -0.55543079993E+03  0.91732615554E+03  0.12699999809E+01 0.  1.
       -4    1    3    3    0  502 -0.69390836235E+03 -0.22687766282E+03  0.82219487137E+03  0.10995400441E+04  0.12699999809E+01 0. -1.
</event>
<event>
 5   0  0.4956214E-06  0.1999465E+04  0.7818609E-02  0.8606871E-01
        2   -1    0    0  501    0  0.00000000000E+00  0.00000000000E+00  0.12249266996E+04  0.12249266996E+04  0.25500000920E-02 0.  1.
       -2   -1    0    0    0  501  0.00000000000E+00  0.00000000000E+00 -0.81593871813E+03  0.81593871814E+03  0.25500000920E-02 0. -1.
    10030    2    1    2    0    0  0.00000000000E+00  0.00000000000E+00  0.40898798150E+03  0.20408654178E+04  0.19994650496E+04 0.  0.
        1    1    3    3  502    0 -0.51582470510E+03 -0.15389239849E+03  0.10643785134E+04  0.11927529570E+04  0.50400001928E-02 0.  1.
       -1    1    3    3    0  502  0.51582470510E+03  0.15389239849E+03 -0.65539053191E+03  0.84811246073E+03  0.50400001928E-02 0. -1.
</event>
<event>
 5   0  0.2311520E-06  0.1999883E+04  0.7818609E-02  0.8606675E-01
        1   -1    0    0  501    0  0.00000000000E+00  0.00000000000E+00  0.13356521160E+04  0.13356521160E+04  0.50400001928E-02 0.  1.
       -1   -1    0    0    0  501  0.00000000000E+00  0.00000000000E+00 -0.74861024297E+03  0.74861024299E+03  0.50400001928E-02 0. -1.
    10030    2    1    2    0    0  0.00000000000E+00  0.00000000000E+00  0.58704187300E+03  0.20842623590E+04  0.19998828517E+04 0.  0.
        3    1    3    3  502    0  0.90402811617E+03 -0.23529798519E+03  0.66529424470E+03  0.11468428048E+04  0.10100000352E+00 0.  1.
       -3    1    3    3    0  502 -0.90402811617E+03  0.23529798519E+03 -0.78252371704E+02  0.93741955417E+03  0.10100000352E+00 0. -1.
</event>
<event>
 5   0  0.5030137E-06  0.2000562E+04  0.7818609E-02  0.8606358E-01
       -2   -1    0    0    0  501  0.00000000000E+00  0.00000000000E+00  0.13304187864E+04  0.13304187864E+04  0.25500000920E-02 0.  1.
        2   -1    0    0  501    0  0.00000000000E+00  0.00000000000E+00 -0.75206552758E+03  0.75206552758E+03  0.25500000920E-02 0. -1.
    10030    2    1    2    0    0  0.00000000000E+00  0.00000000000E+00  0.57835325885E+03  0.20824843140E+04  0.20005620276E+04 0.  0.
        3    1    3    3  502    0 -0.68445894894E+03 -0.20787328299E+01  0.10484805163E+04  0.12521181163E+04  0.10100000352E+00 0.  1.
       -3    1    3    3    0  502  0.68445894894E+03  0.20787328299E+01 -0.47012725745E+03  0.83036619771E+03  0.10100000352E+00 0. -1.
</event>
<event>
 5   0  0.2311520E-06  0.2003243E+04  0.7818609E-02  0.8605106E-01
       -1   -1    0    0    0  501  0.00000000000E+00  0.00000000000E+00  0.19565276296E+04  0.19565276297E+04  0.50400001928E-02 0.  1.
        1   -1    0    0  501    0  0.00000000000E+00  0.00000000000E+00 -0.51276840793E+03  0.51276840796E+03  0.50400001928E-02 0. -1.
    10030    2    1    2    0    0  0.00000000000E+00  0.00000000000E+00  0.14437592217E+04  0.24692960376E+04  0.20032429286E+04 0.  0.
        3    1    3    3  502    0 -0.38677017918E+03 -0.36583227626E+03  0.17676873086E+04  0.18461156131E+04  0.10100000352E+00 0.  1.
       -3    1    3    3    0  502  0.38677017918E+03  0.36583227626E+03 -0.32392808684E+03  0.62318042452E+03  0.10100000352E+00 0. -1.
</event>
<event>
 5   0  0.2379743E-06  0.1999750E+04  0.7818609E-02  0.8606738E-01
        1   -1    0    0  501    0  0.00000000000E+00  0.00000000000E+00  0.11418159777E+04  0.11418159777E+04  0.50400001928E-02 0. -1.
       -1   -1    0    0    0  501  0.00000000000E+00  0.00000000000E+00 -0.87557860983E+03  0.87557860984E+03  0.50400001928E-02 0.  1.
    10030    2    1    2    0    0  0.00000000000E+00  0.00000000000E+00  0.26623736788E+03  0.20173945876E+04  0.19997496308E+04 0.  0.
        5    1    3    3  502    0 -0.89489106972E+03  0.42545955500E+03 -0.17836893712E+01  0.99089410693E+03  0.46999998093E+01 0.  1.
       -5    1    3    3    0  502  0.89489106972E+03 -0.42545955500E+03  0.26802105725E+03  0.10265004806E+04  0.46999998093E+01 0. -1.
</event>
<event>
 5   0  0.2313821E-06  0.2000117E+04  0.7818609E-02  0.8606566E-01
       -1   -1    0    0    0  501  0.00000000000E+00  0.00000000000E+00  0.10813738574E+04  0.10813738574E+04  0.50400001928E-02 0. -1.
        1   -1    0    0  501    0  0.00000000000E+00  0.00000000000E+00 -0.92485789064E+03  0.92485789065E+03  0.50400001928E-02 0.  1.
    10030    2    1    2    0    0  0.00000000000E+00  0.00000000000E+00  0.15651596673E+03  0.20062317480E+04  0.20001171413E+04 0.  0.
        1    1    3    3  502    0 -0.16471310546E+03 -0.48264321671E+03 -0.78462902070E+03  0.93579783175E+03  0.50400001928E-02 0.  1.
       -1    1    3    3    0  502  0.16471310546E+03  0.48264321671E+03  0.94114498743E+03  0.10704339163E+04  0.50400001928E-02 0. -1.
</event>
<event>
 5   0  0.2313821E-06  0.2001111E+04  0.7818609E-02  0.8606101E-01
       -1   -1    0    0    0  501  0.00000000000E+00  0.00000000000E+00  0.90690002691E+03  0.90690002693E+03  0.50400001928E-02 0.  1.
        1   -1    0    0  501    0  0.00000000000E+00  0.00000000000E+00 -0.11038828149E+04  0.11038828149E+04  0.50400001928E-02 0. -1.
    10030    2    1    2    0    0  0.00000000000E+00  0.00000000000E+00 -0.19698278800E+03  0.20107828418E+04  0.20011110460E+04 0.  0.
        1    1    3    3  502    0  0.62282070745E+03  0.41077476484E+03  0.57141653313E+03  0.93976507459E+03  0.50400001928E-02 0.  1.
       -1    1    3    3    0  502 -0.62282070745E+03 -0.41077476484E+03 -0.76839932113E+03  0.10710177673E+04  0.50400001928E-02 0. -1.
</event>
<event>
 5   0  0.5030137E-06  0.2000226E+04  0.7818609E-02  0.8606515E-01
        2   -1    0    0  501    0  0.00000000000E+00  0.00000000000E+00  0.10971377833E+04  0.10971377833E+04  0.25500000920E-02 0. -1.
       -2   -1    0    0    0  501  0.00000000000E+00  0.00000000000E+00 -0.91166880821E+03  0.91166880822E+03  0.25500000920E-02 0.  1.
    10030    2    1    2    0    0  0.00000000000E+00  0.00000000000E+00  0.18546897505E+03  0.20088065915E+04  0.20002262825E+04 0.  0.
        3    1    3    3  502    0 -0.66084142504E+03  0.66322838356E+03 -0.26040296119E+03  0.97179884246E+03  0.10100000352E+00 0.  1.
       -3    1    3    3    0  502  0.66084142504E+03 -0.66322838356E+03  0.44587193625E+03  0.10370077490E+04  0.10100000352E+00 0. -1.
</event>
<event>
 5   0  0.2313821E-06  0.2000551E+04  0.7818609E-02  0.8606363E-01
        1   -1    0    0  501    0  0.00000000000E+00  0.00000000000E+00  0.15799775996E+04  0.15799775996E+04  0.50400001928E-02 0.  1.
       -1   -1    0    0    0  501  0.00000000000E+00  0.00000000000E+00 -0.63326922673E+03  0.63326922675E+03  0.50400001928E-02 0. -1.
    10030    2    1    2    0    0  0.00000000000E+00  0.00000000000E+00  0.94670837283E+03  0.22132468263E+04  0.20005511168E+04 0.  0.
        1    1    3    3  502    0 -0.87240010272E+03 -0.48477961524E+03  0.54722096593E+03  0.11382196625E+04  0.50400001928E-02 0.  1.
       -1    1    3    3    0  502  0.87240010272E+03  0.48477961524E+03  0.39948740690E+03  0.10750271638E+04  0.50400001928E-02 0. -1.
</event>
<event>
 5   0  0.2386776E-06  0.1998995E+04  0.7818609E-02  0.8607091E-01
        1   -1    0    0  501    0  0.00000000000E+00  0.00000000000E+00  0.17598579336E+04  0.17598579336E+04  0.50400001928E-02 0. -1.
       -1   -1    0    0    0  501  0.00000000000E+00  0.00000000000E+00 -0.56765680214E+03  0.56765680216E+03  0.50400001928E-02 0.  1.
    10030    2    1    2    0    0  0.00000000000E+00  0.00000000000E+00  0.11922011315E+04  0.23275147358E+04  0.19989950744E+04 0.  0.
        2    1    3    3  502    0 -0.61004231994E+03  0.13539917711E+02 -0.32561480304E+03  0.69163571441E+03  0.25500000920E-02 0.  1.
       -2    1    3    3    0  502  0.61004231994E+03 -0.13539917711E+02  0.15178159345E+04  0.16358790214E+04  0.25500000920E-02 0. -1.
</event>
<event>
 5   0  0.2379743E-06  0.1999853E+04  0.7818609E-02  0.8606689E-01
       -1   -1    0    0    0  501  0.00000000000E+00  0.00000000000E+00  0.69923172073E+03  0.69923172075E+03  0.50400001928E-02 0. -1.
        1   -1    0    0  501    0  0.00000000000E+00  0.00000000000E+00 -0.14299306473E+04  0.14299306474E+04  0.50400001928E-02 0.  1.
    10030    2    1    2    0    0  0.00000000000E+00  0.00000000000E+00 -0.73069892662E+03  0.21291623681E+04  0.19998528617E+04 0.  0.
        5    1    3    3  502    0  0.56857541594E+03 -0.52443686632E+03  0.30927743228E+03  0.83305861167E+03  0.46999998093E+01 0. -1.
       -5    1    3    3    0  502 -0.56857541594E+03  0.52443686632E+03 -0.10399763589E+04  0.12961037564E+04  0.46999998093E+01 0.  1.
</event>
<event>
 5   0  0.4956214E-06  0.2000003E+04  0.7818609E-02  0.8606619E-01
       -2   -1    0    0    0  501  0.00000000000E+00  0.00000000000E+00  0.47059279280E+03  0.47059279281E+03  0.25500000920E-02 0.  1.
        2   -1    0    0  501    0  0.00000000000E+00  0.00000000000E+00 -0.21249866098E+04  0.21249866098E+04  0.25500000920E-02 0. -1.
    10030    2    1    2    0    0  0.00000000000E+00  0.00000000000E+00 -0.16543938170E+04  0.25955794026E+04  0.20000033834E+04 0.  0.
        1    1    3    3  502    0  0.31909512599E+03 -0.15610568090E+03 -0.20403420551E+04  0.20710350998E+04  0.50400001928E-02 0. -1.
       -1    1    3    3    0  502 -0.31909512599E+03  0.15610568090E+03  0.38594823809E+03  0.52454430275E+03  0.50400001928E-02 0.  1.
</event>
<event>
 5   0  0.5030137E-06  0.2000252E+04  0.7818609E-02  0.8606503E-01
        2   -1    0    0  501    0  0.00000000000E+00  0.00000000000E+00  0.15209895809E+04  0.15209895809E+04  0.25500000920E-02 0. -1.
       -2   -1    0    0    0  501  0.00000000000E+00  0.00000000000E+00 -0.65763260462E+03  0.65763260462E+03  0.25500000920E-02 0.  1.
    10030    2    1    2    0    0  0.00000000000E+00  0.00000000000E+00  0.86335697629E+03  0.21786221855E+04  0.20002523238E+04 0.  0.
        3    1    3    3  502    0  0.26677427637E+03 -0.48525100826E+03 -0.47542421740E+03  0.72983919615E+03  0.10100000352E+00 0.  1.
       -3    1    3    3    0  502 -0.26677427637E+03  0.48525100826E+03  0.13387811937E+04  0.14487829894E+04  0.10100000352E+00 0. -1.
</event>
<event>
 5   0  0.2313821E-06  0.1999704E+04  0.7818609E-02  0.8606759E-01
        1   -1    0    0  501    0  0.00000000000E+00  0.00000000000E+00  0.74778809498E+03  0.74778809500E+03  0.50400001928E-02 0.  1.
       -1   -1    0    0    0  501  0.00000000000E+00  0.00000000000E+00 -0.13368815651E+04  0.13368815652E+04  0.50400001928E-02 0. -1.
    10030    2    1    2    0    0  0.00000000000E+00  0.00000000000E+00 -0.58909347016E+03  0.20846696602E+04  0.19997040970E+04 0.  0.
        1    1    3    3  502    0 -0.97451001604E+03 -0.21806088897E+03 -0.34650199067E+03  0.10570165336E+04  0.50400001928E-02 0. -1.
       -1    1    3    3    0  502  0.97451001604E+03  0.21806088897E+03 -0.24259147949E+03  0.10276531266E+04  0.50400001928E-02 0.  1.
</event>
<event>
 5   0  0.2386776E-06  0.2000438E+04  0.7818609E-02  0.8606416E-01
       -1   -1    0    0    0  501  0.00000000000E+00  0.00000000000E+00  0.91000514347E+03  0.91000514349E+03  0.50400001928E-02 0. -1.
        1   -1    0    0  501    0  0.00000000000E+00  0.00000000000E+00 -0.10993761282E+04  0.10993761282E+04  0.50400001928E-02 0.  1.
    10030    2    1    2    0    0  0.00000000000E+00  0.00000000000E+00 -0.18937098473E+03  0.20093812717E+04  0.20004378834E+04 0.  0.
        2    1    3    3  502    0  0.73517347197E+03 -0.38104594630E+03  0.46885917936E+03  0.95158025261E+03  0.25500000920E-02 0. -1.
       -2    1    3    3    0  502 -0.73517347197E+03  0.38104594630E+03 -0.65823016409E+03  0.10578010191E+04  0.25500000920E-02 0.  1.
</event>
<event>
 5   0  0.2356996E-06  0.1998890E+04  0.7818609E-02  0.8607140E-01
        1   -1    0    0  501    0  0.00000000000E+00  0.00000000000E+00  0.21514682063E+04  0.21514682063E+04  0.50400001928E-02 0.  1.
       -1   -1    0    0    0  501  0.00000000000E+00  0.00000000000E+00 -0.46428312513E+03  0.46428312516E+03  0.50400001928E-02 0. -1.
    10030    2    1    2    0    0  0.00000000000E+00  0.00000000000E+00  0.16871850812E+04  0.26157513314E+04  0.19988900745E+04 0.  0.
        4    1    3    3  502    0 -0.45188640203E+02  0.35958215346E+03  0.20624534748E+04  0.20940528376E+04  0.12699999809E+01 0.  1.
       -4    1    3    3    0  502  0.45188640203E+02 -0.35958215346E+03 -0.37526839363E+03  0.52169849381E+03  0.12699999809E+01 0. -1.
</event>
<event>
 5   0  0.2311520E-06  0.1999995E+04  0.7818609E-02  0.8606623E-01
        1   -1    0    0  501    0  0.00000000000E+00  0.00000000000E+00  0.12388113609E+04  0.12388113609E+04  0.50400001928E-02 0.  1.
       -1   -1    0    0    0  501  0.00000000000E+00  0.00000000000E+00 -0.80722163279E+03  0.80722163280E+03  0.50400001928E-02 0. -1.
    10030    2    1    2    0    0  0.00000000000E+00  0.00000000000E+00  0.43158972808E+03  0.20460329937E+04  0.19999953295E+04 0.  0.
        3    1    3    3  502    0  0.83681249540E+03 -0.41204697178E+03 -0.15299948539E+03  0.94522310178E+03  0.10100000352E+00 0. -1.
       -3    1    3    3    0  502 -0.83681249540E+03  0.41204697178E+03  0.58458921347E+03  0.11008098919E+04  0.10100000352E+00 0.  1.
</event>
<event>
 5   0  0.1777750E-06  0.2000366E+04  0.7818609E-02  0.8606449E-01
       -3   -1    0    0    0  501  0.00000000000E+00  0.00000000000E+00  0.91602550348E+03  0.91602550905E+03  0.10100000352E+00 0. -1.
        3   -1    0    0  501    0  0.00000000000E+00  0.00000000000E+00 -0.10920724793E+04  0.10920724840E+04  0.10100000352E+00 0.  1.
    10030    2    1    2    0    0  0.00000000000E+00  0.00000000000E+00 -0.17604697581E+03  0.20080979930E+04  0.20003662194E+04 0.  0.
        5    1    3    3  502    0 -0.75532385150E+03 -0.60188837009E+03 -0.34895203736E+03  0.10269242158E+04  0.46999998093E+01 0. -1.
       -5    1    3    3    0  502  0.75532385150E+03  0.60188837009E+03  0.17290506155E+03  0.98117377717E+03  0.46999998093E+01 0.  1.
</event>
<event>
 5   0  0.2313821E-06  0.1999981E+04  0.7818609E-02  0.8606629E-01
        1   -1    0    0  501    0  0.00000000000E+00  0.00000000000E+00  0.10828534566E+04  0.10828534566E+04  0.50400001928E-02 0. -1.
       -1   -1    0    0    0  501  0.00000000000E+00  0.00000000000E+00 -0.92346854334E+03  0.92346854335E+03  0.50400001928E-02 0.  1.
    10030    2    1    2    0    0  0.00000000000E+00  0.00000000000E+00  0.15938491326E+03  0.20063220000E+04  0.19999811041E+04 0.  0.
        1    1    3    3  502    0 -0.61645767670E+03 -0.58404934166E+01  0.86954313007E+03  0.10659077979E+04  0.50400001928E-02 0. -1.
       -1    1    3    3    0  502  0.61645767670E+03  0.58404934166E+01 -0.71015821681E+03  0.94041420207E+03  0.50400001928E-02 0.  1.
</event>
<event>
 5   0  0.5118981E-06  0.1999442E+04  0.7818609E-02  0.8606881E-01
       -2   -1    0    0    0  501  0.00000000000E+00  0.00000000000E+00  0.58859768556E+03  0.58859768556E+03  0.25500000920E-02 0.  1.
        2   -1    0    0  501    0  0.00000000000E+00  0.00000000000E+00 -0.16980058701E+04  0.16980058701E+04  0.25500000920E-02 0. -1.
    10030    2    1    2    0    0  0.00000000000E+00  0.00000000000E+00 -0.11094081846E+04  0.22866035557E+04  0.19994422475E+04 0.  0.
        4    1    3    3  502    0 -0.47911926809E+03 -0.75105783205E+02  0.44506150517E+03  0.65823818486E+03  0.12699999809E+01 0.  1.
       -4    1    3    3    0  502  0.47911926809E+03  0.75105783205E+02 -0.15544696898E+04  0.16283653709E+04  0.12699999809E+01 0. -1.
</event>
<event>
 5   0  0.5118981E-06  0.1996017E+04  0.7818609E-02  0.8608485E-01
        2   -1    0    0  501    0  0.00000000000E+00  0.00000000000E+00  0.11635352222E+04  0.11635352222E+04  0.25500000920E-02 0.  1.
       -2   -1    0    0    0  501  0.00000000000E+00  0.00000000000E+00 -0.85602952285E+03  0.85602952285E+03  0.25500000920E-02 0. -1.
    10030    2    1    2    0    0  0.00000000000E+00  0.00000000000E+00  0.30750569935E+03  0.20195647450E+04  0.19960165341E+04 0.  0.
        4    1    3    3  502    0 -0.75386180585E+03 -0.88499313976E+02 -0.50187258637E+03  0.90995464543E+03  0.12699999809E+01 0. -1.
       -4    1    3    3    0  502  0.75386180585E+03  0.88499313976E+02  0.80937828572E+03  0.11096100996E+04  0.12699999809E+01 0.  1.
</event>
<event>
 5   0  0.2313821E-06  0.2000180E+04  0.7818609E-02  0.8606536E-01
       -1   -1    0    0    0  501  0.00000000000E+00  0.00000000000E+00  0.39178173084E+03  0.39178173088E+03  0.50400001928E-02 0.  1.
        1   -1    0    0  501    0  0.00000000000E+00  0.00000000000E+00 -0.25529022140E+04  0.25529022140E+04  0.50400001928E-02 0. -1.
    10030    2    1    2    0    0  0.00000000000E+00  0.00000000000E+00 -0.21611204832E+04  0.29446839449E+04  0.20001804400E+04 0.  0.
        1    1    3    3  502    0  0.23417754630E+03  0.22686367404E+03 -0.24724592111E+04  0.24938646315E+04  0.50400001928E-02 0. -1.
       -1    1    3    3    0  502 -0.23417754630E+03 -0.22686367404E+03  0.31133872792E+03  0.45081931338E+03  0.50400001928E-02 0.  1.
</event>
<event>
 5   0  0.2356996E-06  0.1999229E+04  0.7818609E-02  0.8606981E-01
       -1   -1    0    0    0  501  0.00000000000E+00  0.00000000000E+00  0.70342580161E+03  0.70342580162E+03  0.50400001928E-02 0. -1.
        1   -1    0    0  501    0  0.00000000000E+00  0.00000000000E+00 -0.14205181119E+04  0.14205181120E+04  0.50400001928E-02 0.  1.
    10030    2    1    2    0    0  0.00000000000E+00  0.00000000000E+00 -0.71709231034E+03  0.21239439136E+04  0.19992289430E+04 0.  0.
        4    1    3    3  502    0  0.57911808604E+03 -0.61022160881E+03  0.21502113968E+03  0.86832244751E+03  0.12699999809E+01 0. -1.
       -4    1    3    3    0  502 -0.57911808604E+03  0.61022160881E+03 -0.93211345001E+03  0.12556214661E+04  0.12699999809E+01 0.  1.
</event>
<event>
 5   0  0.5118981E-06  0.2001433E+04  0.7818609E-02  0.8605951E-01
       -2   -1    0    0    0  501  0.00000000000E+00  0.00000000000E+00  0.12256847013E+04  0.12256847013E+04  0.25500000920E-02 0.  1.
        2   -1    0    0  501    0  0.00000000000E+00  0.00000000000E+00 -0.81704046962E+03  0.81704046963E+03  0.25500000920E-02 0. -1.
    10030    2    1    2    0    0  0.00000000000E+00  0.00000000000E+00  0.40864423167E+03  0.20427251709E+04  0.20014334902E+04 0.  0.
        4    1    3    3  502    0  0.97732010109E+03  0.21504223164E+03  0.21032995661E+03  0.10225644454E+04  0.12699999809E+01 0.  1.
       -4    1    3    3    0  502 -0.97732010109E+03 -0.21504223164E+03  0.19831427506E+03  0.10201607256E+04  0.12699999809E+01 0. -1.
</event>
<event>
 5   0  0.5118981E-06  0.1999799E+04  0.7818609E-02  0.8606715E-01
        2   -1    0    0  501    0  0.00000000000E+00  0.00000000000E+00  0.11734455567E+04  0.11734455567E+04  0.25500000920E-02 0. -1.
       -2   -1    0    0    0  501  0.00000000000E+00  0.00000000000E+00 -0.85202015273E+03  0.85202015274E+03  0.25500000920E-02 0.  1.
    10030    2    1    2    0    0  0.00000000000E+00  0.00000000000E+00  0.32142540395E+03  0.20254657094E+04  0.19997992524E+04 0.  0.
        4    1    3    3  502    0 -0.77909557600E+03 -0.58774082658E+03  0.38114899423E+03  0.10477143525E+04  0.12699999809E+01 0.  1.
       -4    1    3    3    0  502  0.77909557600E+03  0.58774082658E+03 -0.59723590279E+02  0.97775135690E+03  0.12699999809E+01 0. -1.
</event>
<event>
 5   0  0.5251252E-06  0.2000485E+04  0.7818609E-02  0.8606394E-01
       -2   -1    0    0    0  501  0.00000000000E+00  0.00000000000E+00  0.83844586555E+03  0.83844586555E+03  0.25500000920E-02 0.  1.
        2   -1    0    0  501    0  0.00000000000E+00  0.00000000000E+00 -0.11932619078E+04  0.11932619078E+04  0.25500000920E-02 0. -1.
    10030    2    1    2    0    0  0.00000000000E+00  0.00000000000E+00 -0.35481604220E+03  0.20317077733E+04  0.20004854542E+04 0.  0.
        5    1    3    3  502    0  0.93651819781E+03 -0.23843957996E+03 -0.43939467605E+03  0.10616070551E+04  0.46999998093E+01 0.  1.
       -5    1    3    3    0  502 -0.93651819781E+03  0.23843957996E+03  0.84578633852E+02  0.97010071819E+03  0.46999998093E+01 0. -1.
</event>
<event>
 5   0  0.4956214E-06  0.2006895E+04  0.7818609E-02  0.8603404E-01
       -2   -1    0    0    0  501  0.00000000000E+00  0.00000000000E+00  0.56833894545E+03  0.56833894545E+03  0.25500000920E-02 0. -1.
        2   -1    0    0  501    0  0.00000000000E+00  0.00000000000E+00 -0.17716668838E+04  0.17716668838E+04  0.25500000920E-02 0.  1.
    10030    2    1    2    0    0  0.00000000000E+00  0.00000000000E+00 -0.12033279384E+04  0.23400058293E+04  0.20068954018E+04 0.  0.
        1    1    3    3  502    0  0.68059172502E+03 -0.16320101098E+03  0.23676422362E+03  0.73884840378E+03  0.50400001928E-02 0. -1.
       -1    1    3    3    0  502 -0.68059172502E+03  0.16320101098E+03 -0.14400921620E+04  0.16011574255E+04  0.50400001928E-02 0.  1.
</event>
<event>
 5   0  0.2379743E-06  0.2008250E+04  0.7818609E-02  0.8602773E-01
       -1   -1    0    0    0  501  0.00000000000E+00  0.00000000000E+00  0.80433898553E+03  0.80433898555E+03  0.50400001928E-02 0.  1.
        1   -1    0    0  501    0  0.00000000000E+00  0.00000000000E+00 -0.12535354928E+04  0.12535354928E+04  0.50400001928E-02 0. -1.
    10030    2    1    2    0    0  0.00000000000E+00  0.00000000000E+00 -0.44919650725E+03  0.20578744783E+04  0.20082504491E+04 0.  0.
        5    1    3    3  502    0  0.75563862592E+03  0.56620670374E+03 -0.57460179664E+03  0.11053366361E+04  0.46999998093E+01 0. -1.
       -5    1    3    3    0  502 -0.75563862592E+03 -0.56620670374E+03  0.12540528939E+03  0.95253784226E+03  0.46999998093E+01 0.  1.
</event>
<event>
 5   0  0.5251252E-06  0.1999905E+04  0.7818609E-02  0.8606665E-01
        2   -1    0    0  501    0  0.00000000000E+00  0.00000000000E+00  0.25974528491E+04  0.25974528491E+04  0.25500000920E-02 0.  1.
       -2   -1    0    0    0  501  0.00000000000E+00  0.00000000000E+00 -0.38495592668E+03  0.38495592668E+03  0.25500000920E-02 0. -1.
    10030    2    1    2    0    0  0.00000000000E+00  0.00000000000E+00  0.22124969224E+04  0.29824087758E+04  0.19999048663E+04 0.  0.
        5    1    3    3  502    0  0.97582813356E+03 -0.21784319839E+03  0.10858788637E+04  0.14760932227E+04  0.46999998093E+01 0.  1.
       -5    1    3    3    0  502 -0.97582813356E+03  0.21784319839E+03  0.11266180587E+04  0.15063155531E+04  0.46999998093E+01 0. -1.
</event>
<event>
 5   0  0.2386776E-06  0.2000298E+04  0.7818609E-02  0.8606482E-01
       -1   -1    0    0    0  501  0.00000000000E+00  0.00000000000E+00  0.95546037800E+03  0.95546037801E+03  0.50400001928E-02 0.  1.
        1   -1    0    0  501    0  0.00000000000E+00  0.00000000000E+00 -0.10469273515E+04  0.10469273515E+04  0.50400001928E-02 0. -1.
    10030    2    1    2    0    0  0.00000000000E+00  0.00000000000E+00 -0.91466973505E+02  0.20023877295E+04  0.20002975809E+04 0.  0.
        2    1    3    3  502    0  0.89874033092E+03  0.42769035293E+03 -0.14404192147E+03  0.10056844911E+04  0.25500000920E-02 0.  1.
       -2    1    3    3    0  502 -0.89874033092E+03 -0.42769035293E+03  0.52574947961E+02  0.99670323846E+03  0.25500000920E-02 0. -1.
</event>
<event>
 5   0  0.5251252E-06  0.1999634E+04  0.7818609E-02  0.8606792E-01
       -2   -1    0    0    0  501  0.00000000000E+00  0.00000000000E+00  0.93769431850E+03  0.93769431850E+03  0.25500000920E-02 0. -1.
        2   -1    0    0  501    0  0.00000000000E+00  0.00000000000E+00 -0.10660548683E+04  0.10660548683E+04  0.25500000920E-02 0.  1.
    10030    2    1    2    0    0  0.00000000000E+00  0.00000000000E+00 -0.12836054982E+03  0.20037491868E+04  0.19996335597E+04 0.  0.
        5    1    3    3  502    0 -0.11789964138E+02  0.26643611631E+03 -0.10297424037E+04  0.10637286850E+04  0.46999998093E+01 0.  1.
       -5    1    3    3    0  502  0.11789964138E+02 -0.26643611631E+03  0.90138185388E+03  0.94002050181E+03  0.46999998093E+01 0. -1.
</event>
<event>
 5   0  0.2311520E-06  0.2000134E+04  0.7818609E-02  0.8606558E-01
        1   -1    0    0  501    0  0.00000000000E+00  0.00000000000E+00  0.18998247831E+04  0.18998247831E+04  0.50400001928E-02 0.  1.
       -1   -1    0    0    0  501  0.00000000000E+00  0.00000000000E+00 -0.52643482764E+03  0.52643482767E+03  0.50400001928E-02 0. -1.
    10030    2    1    2    0    0  0.00000000000E+00  0.00000000000E+00  0.13733899554E+04  0.24262596108E+04  0.20001339278E+04 0.  0.
        3    1    3    3  502    0  0.93894676642E+03 -0.37007303226E+01  0.26911862684E+03  0.97675973048E+03  0.10100000352E+00 0.  1.
       -3    1    3    3    0  502 -0.93894676642E+03  0.37007303226E+01  0.11042713286E+04  0.14494998803E+04  0.10100000352E+00 0. -1.
</event>
<event>
 5   0  0.2356996E-06  0.1997735E+04  0.7818609E-02  0.8607680E-01
       -1   -1    0    0    0  501  0.00000000000E+00  0.00000000000E+00  0.69625679176E+03  0.69625679178E+03  0.50400001928E-02 0.  1.
        1   -1    0    0  501    0  0.00000000000E+00  0.00000000000E+00 -0.14330000002E+04  0.14330000002E+04  0.50400001928E-02 0. -1.
    10030    2    1    2    0    0  0.00000000000E+00  0.00000000000E+00 -0.73674320840E+03  0.21292567919E+04  0.19977346998E+04 0.  0.
        4    1    3    3  502    0  0.99078047681E+03  0.10940091602E+03 -0.43678344184E+03  0.10882995459E+04  0.12699999809E+01 0.  1.
       -4    1    3    3    0  502 -0.99078047681E+03 -0.10940091602E+03 -0.29995976655E+03  0.10409572460E+04  0.12699999809E+01 0. -1.
</event>
<event>
 5   0  0.2311520E-06  0.2000611E+04  0.7818609E-02  0.8606335E-01
        1   -1    0    0  501    0  0.00000000000E+00  0.00000000000E+00  0.15994851575E+04  0.15994851575E+04  0.50400001928E-02 0.  1.
       -1   -1    0    0    0  501  0.00000000000E+00  0.00000000000E+00 -0.62558347493E+03  0.62558347495E+03  0.50400001928E-02 0. -1.
    10030    2    1    2    0    0  0.00000000000E+00  0.00000000000E+00  0.97390168256E+03  0.22250686324E+04  0.20006113895E+04 0.  0.
        3    1    3    3  502    0 -0.65041393883E+03 -0.21148218448E+03  0.12988134401E+04  0.14678826140E+04  0.10100000352E+00 0.  1.
       -3    1    3    3    0  502  0.65041393883E+03  0.21148218448E+03 -0.32491175750E+03  0.75718601845E+03  0.10100000352E+00 0. -1.
</event>
<event>
 5   0  0.2311520E-06  0.2000391E+04  0.7818609E-02  0.8606438E-01
        1   -1    0    0  501    0  0.00000000000E+00  0.00000000000E+00  0.79560552362E+03  0.79560552364E+03  0.50400001928E-02 0. -1.
       -1   -1    0    0    0  501  0.00000000000E+00  0.00000000000E+00 -0.12573955311E+04  0.12573955311E+04  0.50400001928E-02 0.  1.
    10030    2    1    2    0    0  0.00000000000E+00  0.00000000000E+00 -0.46179000748E+03  0.20530010548E+04  0.20003907918E+04 0.  0.
        3    1    3    3  502    0 -0.99075031086E+01  0.14825941848E+03  0.78421468519E+03  0.79816771198E+03  0.10100000352E+00 0. -1.
       -3    1    3    3    0  502  0.99075031086E+01 -0.14825941848E+03 -0.12460046927E+04  0.12548333428E+04  0.10100000352E+00 0.  1.
</event>
<event>
 5   0  0.5129100E-06  0.2000850E+04  0.7818609E-02  0.8606224E-01
        2   -1    0    0  501    0  0.00000000000E+00  0.00000000000E+00  0.10233337282E+04  0.10233337282E+04  0.25500000920E-02 0.  1.
       -2   -1    0    0    0  501  0.00000000000E+00  0.00000000000E+00 -0.97802865187E+03  0.97802865187E+03  0.25500000920E-02 0. -1.
    10030    2    1    2    0    0  0.00000000000E+00  0.00000000000E+00  0.45305076366E+02  0.20013623801E+04  0.20008495262E+04 0.  0.
        2    1    3    3  502    0  0.34724204796E+03 -0.61777751240E+03  0.72896638994E+03  0.10166701001E+04  0.25500000920E-02 0.  1.
       -2    1    3    3    0  502 -0.34724204796E+03  0.61777751240E+03 -0.68366131358E+03  0.98469228005E+03  0.25500000920E-02 0. -1.
</event>
<event>
 5   0  0.2379743E-06  0.1998619E+04  0.7818609E-02  0.8607266E-01
        1   -1    0    0  501    0  0.00000000000E+00  0.00000000000E+00  0.80505318612E+03  0.80505318613E+03  0.50400001928E-02 0.  1.
       -1   -1    0    0    0  501  0.00000000000E+00  0.00000000000E+00 -0.12404397333E+04  0.12404397333E+04  0.50400001928E-02 0. -1.
    10030    2    1    2    0    0  0.00000000000E+00  0.00000000000E+00 -0.43538654717E+03  0.20454929194E+04  0.19986194830E+04 0.  0.
        5    1    3    3  502    0  0.19913468458E+03 -0.35006022200E+03 -0.11536917856E+04  0.12219752893E+04  0.46999998093E+01 0. -1.
       -5    1    3    3    0  502 -0.19913468458E+03  0.35006022200E+03  0.71830523838E+03  0.82351763012E+03  0.46999998093E+01 0.  1.
</event>
<event>
 5   0  0.2386776E-06  0.1998827E+04  0.7818609E-02  0.8607169E-01
       -1   -1    0    0    0  501  0.00000000000E+00  0.00000000000E+00  0.46650142087E+03  0.46650142089E+03  0.50400001928E-02 0. -1.
        1   -1    0    0  501    0  0.00000000000E+00  0.00000000000E+00 -0.21411027150E+04  0.21411027150E+04  0.50400001928E-02 0.  1.
    10030    2    1    2    0    0  0.00000000000E+00  0.00000000000E+00 -0.16746012941E+04  0.26076041359E+04  0.19988271149E+04 0.  0.
        2    1    3    3  502    0  0.82965671053E+03  0.42201773995E+03 -0.13119878419E+04  0.16086458055E+04  0.25500000920E-02 0.  1.
       -2    1    3    3    0  502 -0.82965671053E+03 -0.42201773995E+03 -0.36261345220E+03  0.99895833040E+03  0.25500000920E-02 0. -1.
</event>
<event>
 5   0  0.2311520E-06  0.2000407E+04  0.7818609E-02  0.8606431E-01
        1   -1    0    0  501    0  0.00000000000E+00  0.00000000000E+00  0.57523839707E+03  0.57523839709E+03  0.50400001928E-02 0.  1.
       -1   -1    0    0    0  501  0.00000000000E+00  0.00000000000E+00 -0.17391168856E+04  0.17391168856E+04  0.50400001928E-02 0. -1.
    10030    2    1    2    0    0  0.00000000000E+00  0.00000000000E+00 -0.11638784886E+04  0.23143552827E+04  0.20004067683E+04 0.  0.
        3    1    3    3  502    0 -0.31785927274E+03  0.53333101143E+03 -0.14891844162E+04  0.16134270113E+04  0.10100000352E+00 0. -1.
       -3    1    3    3    0  502  0.31785927274E+03 -0.53333101143E+03  0.32530592761E+03  0.70092827148E+03  0.10100000352E+00 0.  1.
</event>
<event>
 5   0  0.4956214E-06  0.1999862E+04  0.7818609E-02  0.8606685E-01
       -2   -1    0    0    0  501  0.00000000000E+00  0.00000000000E+00  0.31950559705E+04  0.31950559705E+04  0.25500000920E-02 0.  1.
        2   -1    0    0  501    0  0.00000000000E+00  0.00000000000E+00 -0.31294036873E+03  0.31294036874E+03  0.25500000920E-02 0. -1.
    10030    2    1    2    0    0  0.00000000000E+00  0.00000000000E+00  0.28821156018E+04  0.35079963393E+04  0.19998619888E+04 0.  0.
        1    1    3    3  502    0 -0.75665588034E+03 -0.44127442598E+03  0.22870648846E+04  0.24490645207E+04  0.50400001928E-02 0.  1.
       -1    1    3    3    0  502  0.75665588034E+03  0.44127442598E+03  0.59505071719E+03  0.10589318185E+04  0.50400001928E-02 0. -1.
</event>
<event>
 5   0  0.5129100E-06  0.1999880E+04  0.7818609E-02  0.8606677E-01
       -2   -1    0    0    0  501  0.00000000000E+00  0.00000000000E+00  0.59805335092E+03  0.59805335092E+03  0.25500000920E-02 0. -1.
        2   -1    0    0  501    0  0.00000000000E+00  0.00000000000E+00 -0.16718912560E+04  0.16718912560E+04  0.25500000920E-02 0.  1.
    10030    2    1    2    0    0  0.00000000000E+00  0.00000000000E+00 -0.10738379050E+04  0.22699446069E+04  0.19998801644E+04 0.  0.
        2    1    3    3  502    0  0.67495810685E+03 -0.26935175278E+03  0.24268219121E+03  0.76616803553E+03  0.25500000920E-02 0. -1.
       -2    1    3    3    0  502 -0.67495810685E+03  0.26935175278E+03 -0.13165200962E+04  0.15037765714E+04  0.25500000920E-02 0.  1.
</event>
<event>
 5   0  0.2311520E-06  0.1995099E+04  0.7818609E-02  0.8608916E-01
        1   -1    0    0  501    0  0.00000000000E+00  0.00000000000E+00  0.12094200668E+04  0.12094200668E+04  0.50400001928E-02 0. -1.
       -1   -1    0    0    0  501  0.00000000000E+00  0.00000000000E+00 -0.82279477985E+03  0.82279477986E+03  0.50400001928E-02 0.  1.
    10030    2    1    2    0    0  0.00000000000E+00  0.00000000000E+00  0.38662528696E+03  0.20322148467E+04  0.19950985115E+04 0.  0.
        3    1    3    3  502    0  0.22040874311E+03  0.97221437040E+03  0.23037234594E+03  0.10231579663E+04  0.10100000352E+00 0. -1.
       -3    1    3    3    0  502 -0.22040874311E+03 -0.97221437040E+03  0.15625294102E+03  0.10090568804E+04  0.10100000352E+00 0.  1.
</event>
<event>
 5   0  0.4956214E-06  0.1999938E+04  0.7818609E-02  0.8606650E-01
       -2   -1    0    0    0  501  0.00000000000E+00  0.00000000000E+00  0.11624629444E+04  0.11624629444E+04  0.25500000920E-02 0.  1.
        2   -1    0    0  501    0  0.00000000000E+00  0.00000000000E+00 -0.86018899312E+03  0.86018899312E+03  0.25500000920E-02 0. -1.
    10030    2    1    2    0    0  0.00000000000E+00  0.00000000000E+00  0.30227395132E+03  0.20226519376E+04  0.19999378288E+04 0.  0.
        1    1    3    3  502    0  0.54907257320E+03  0.53951170704E+03  0.79665263295E+03  0.11077946517E+04  0.50400001928E-02 0.  1.
       -1    1    3    3    0  502 -0.54907257320E+03 -0.53951170704E+03 -0.49437868162E+03  0.91485728589E+03  0.50400001928E-02 0. -1.
</event>
<event>
 5   0  0.2313821E-06  0.2001172E+04  0.7818609E-02  0.8606073E-01
        1   -1    0    0  501    0  0.00000000000E+00  0.00000000000E+00  0.71920079822E+03  0.71920079824E+03  0.50400001928E-02 0. -1.
       -1   -1    0    0    0  501  0.00000000000E+00  0.00000000000E+00 -0.13920618873E+04  0.13920618873E+04  0.50400001928E-02 0.  1.
    10030    2    1    2    0    0  0.00000000000E+00  0.00000000000E+00 -0.67286108904E+03  0.21112626855E+04  0.20011716773E+04 0.  0.
        1    1    3    3  502    0 -0.13105772078E+03 -0.24535779498E+03 -0.13504489385E+04  0.13787998076E+04  0.50400001928E-02 0.  1.
       -1    1    3    3    0  502  0.13105772078E+03  0.24535779498E+03  0.67758784950E+03  0.73246287793E+03  0.50400001928E-02 0. -1.
</event>
<event>
 5   0  0.2311520E-06  0.1999023E+04  0.7818609E-02  0.8607078E-01
       -1   -1    0    0    0  501  0.00000000000E+00  0.00000000000E+00  0.74940698479E+03  0.74940698480E+03  0.50400001928E-02 0.  1.
        1   -1    0    0  501    0  0.00000000000E+00  0.00000000000E+00 -0.13330851816E+04  0.13330851816E+04  0.50400001928E-02 0. -1.
    10030    2    1    2    0    0  0.00000000000E+00  0.00000000000E+00 -0.58367819684E+03  0.20824921664E+04  0.19990231079E+04 0.  0.
        3    1    3    3  502    0  0.63077846814E+02 -0.88240565332E+03 -0.77645648496E+03  0.11770740142E+04  0.10100000352E+00 0. -1.
       -3    1    3    3    0  502 -0.63077846814E+02  0.88240565332E+03  0.19277828812E+03  0.90541815220E+03  0.10100000352E+00 0.  1.
</event>
<event>
 5   0  0.5118981E-06  0.2000068E+04  0.7818609E-02  0.8606589E-01
        2   -1    0    0  501    0  0.00000000000E+00  0.00000000000E+00  0.14161924783E+04  0.14161924783E+04  0.25500000920E-02 0. -1.
       -2   -1    0    0    0  501  0.00000000000E+00  0.00000000000E+00 -0.70616656272E+03  0.70616656272E+03  0.25500000920E-02 0.  1.
    10030    2    1    2    0    0  0.00000000000E+00  0.00000000000E+00  0.71002591554E+03  0.21223590410E+04  0.20000677734E+04 0.  0.
        4    1    3    3  502    0  0.13152193090E+03 -0.69550981797E+02 -0.69435598505E+03  0.71011773971E+03  0.12699999809E+01 0.  1.
       -4    1    3    3    0  502 -0.13152193090E+03  0.69550981797E+02  0.14043819006E+04  0.14122413013E+04  0.12699999809E+01 0. -1.
</event>
<event>
 5   0  0.2386776E-06  0.2000009E+04  0.7818609E-02  0.8606616E-01
        1   -1    0    0  501    0  0.00000000000E+00  0.00000000000E+00  0.11936315488E+04  0.11936315488E+04  0.50400001928E-02 0.  1.
       -1   -1    0    0    0  501  0.00000000000E+00  0.00000000000E+00 -0.83778701449E+03  0.83778701451E+03  0.50400001928E-02 0. -1.
    10030    2    1    2    0    0  0.00000000000E+00  0.00000000000E+00  0.35584453434E+03  0.20314185633E+04  0.20000090117E+04 0.  0.
        2    1    3    3  502    0 -0.22522271951E+03 -0.60028680868E+03  0.95739836188E+03  0.11522504716E+04  0.25500000920E-02 0.  1.
       -2    1    3    3    0  502  0.22522271951E+03  0.60028680868E+03 -0.60155382754E+03  0.87916809171E+03  0.25500000920E-02 0. -1.
</event>
<event>
 5   0  0.4956214E-06  0.2000110E+04  0.7818609E-02  0.8606569E-01
        2   -1    0    0  501    0  0.00000000000E+00  0.00000000000E+00  0.12334029759E+04  0.12334029759E+04  0.25500000920E-02 0.  1.
       -2   -1    0    0    0  501  0.00000000000E+00  0.00000000000E+00 -0.81085381739E+03  0.81085381739E+03  0.25500000920E-02 0. -1.
    10030    2    1    2    0    0  0.00000000000E+00  0.00000000000E+00  0.42254915856E+03  0.20442567933E+04  0.20001095084E+04 0.  0.
        1    1    3    3  502    0  0.34351051413E+03 -0.10336282121E+03 -0.74283218114E+03  0.82491393217E+03  0.50400001928E-02 0. -1.
       -1    1    3    3    0  502 -0.34351051413E+03  0.10336282121E+03  0.11653813397E+04  0.12193428612E+04  0.50400001928E-02 0.  1.
</event>
<event>
 5   0  0.5251252E-06  0.1999893E+04  0.7818609E-02  0.8606671E-01
        2   -1    0    0  501    0  0.00000000000E+00  0.00000000000E+00  0.95470073800E+03  0.95470073801E+03  0.25500000920E-02 0. -1.
       -2   -1    0    0    0  501  0.00000000000E+00  0.00000000000E+00 -0.10473367123E+04  0.10473367123E+04  0.25500000920E-02 0.  1.
    10030    2    1    2    0    0  0.00000000000E+00  0.00000000000E+00 -0.92635974317E+02  0.20020374503E+04  0.19998931293E+04 0.  0.
        5    1    3    3  502    0  0.24335571588E+03  0.83944824591E+03  0.43997614825E+03  0.97851748223E+03  0.46999998093E+01 0. -1.
       -5    1    3    3    0  502 -0.24335571588E+03 -0.83944824591E+03 -0.53261212256E+03  0.10235199681E+04  0.46999998093E+01 0.  1.
</event>
<event>
 5   0  0.5118981E-06  0.1998589E+04  0.7818609E-02  0.8607281E-01
       -2   -1    0    0    0  501  0.00000000000E+00  0.00000000000E+00  0.10491587614E+04  0.10491587614E+04  0.25500000920E-02 0.  1.
        2   -1    0    0  501    0  0.00000000000E+00  0.00000000000E+00 -0.95180024658E+03  0.95180024658E+03  0.25500000920E-02 0. -1.
    10030    2    1    2    0    0  0.00000000000E+00  0.00000000000E+00  0.97358514823E+02  0.20009590080E+04  0.19985890701E+04 0.  0.
        4    1    3    3  502    0  0.74140630902E+03 -0.49468649518E+03 -0.40373035511E+03  0.97846709505E+03  0.12699999809E+01 0. -1.
       -4    1    3    3    0  502 -0.74140630902E+03  0.49468649518E+03  0.50108886993E+03  0.10224919129E+04  0.12699999809E+01 0.  1.
</event>
<event>
 5   0  0.2311520E-06  0.1999526E+04  0.7818609E-02  0.8606842E-01
       -1   -1    0    0    0  501  0.00000000000E+00  0.00000000000E+00  0.71696280875E+03  0.71696280876E+03  0.50400001928E-02 0. -1.
        1   -1    0    0  501    0  0.00000000000E+00  0.00000000000E+00 -0.13941114611E+04  0.13941114611E+04  0.50400001928E-02 0.  1.
    10030    2    1    2    0    0  0.00000000000E+00  0.00000000000E+00 -0.67714865237E+03  0.21110742699E+04  0.19995260127E+04 0.  0.
        3    1    3    3  502    0 -0.29896893402E+02  0.49696894334E+03 -0.12539207109E+04  0.13491438449E+04  0.10100000352E+00 0.  1.
       -3    1    3    3    0  502  0.29896893402E+02 -0.49696894334E+03  0.57677205849E+03  0.76193042500E+03  0.10100000352E+00 0. -1.
</event>
<event>
 5   0  0.2311520E-06  0.1998919E+04  0.7818609E-02  0.8607126E-01
        1   -1    0    0  501    0  0.00000000000E+00  0.00000000000E+00  0.24703018574E+04  0.24703018574E+04  0.50400001928E-02 0.  1.
       -1   -1    0    0    0  501  0.00000000000E+00  0.00000000000E+00 -0.40437125723E+03  0.40437125726E+03  0.50400001928E-02 0. -1.
    10030    2    1    2    0    0  0.00000000000E+00  0.00000000000E+00  0.20659306002E+04  0.28746731147E+04  0.19989187756E+04 0.  0.
        3    1    3    3  502    0 -0.50583639966E+03 -0.24642137588E+03 -0.15495962203E+03  0.58361498642E+03  0.10100000352E+00 0. -1.
       -3    1    3    3    0  502  0.50583639966E+03  0.24642137588E+03  0.22208902222E+04  0.22910581283E+04  0.10100000352E+00 0.  1.
</event>
<event>
 5   0  0.5030137E-06  0.2001609E+04  0.7818609E-02  0.8605869E-01
       -2   -1    0    0    0  501  0.00000000000E+00  0.00000000000E+00  0.58364743921E+03  0.58364743922E+03  0.25500000920E-02 0. -1.
        2   -1    0    0  501    0  0.00000000000E+00  0.00000000000E+00 -0.17161205827E+04  0.17161205827E+04  0.25500000920E-02 0.  1.
    10030    2    1    2    0    0  0.00000000000E+00  0.00000000000E+00 -0.11324731435E+04  0.22997680219E+04  0.20016087365E+04 0.  0.
        3    1    3    3  502    0 -0.34293155272E+03 -0.19782045267E+03 -0.16223265377E+04  0.16699336473E+04  0.10100000352E+00 0.  1.
       -3    1    3    3    0  502  0.34293155272E+03  0.19782045267E+03  0.48985339424E+03  0.62983437457E+03  0.10100000352E+00 0. -1.
</event>
<event>
 5   0  0.5118981E-06  0.1998194E+04  0.7818609E-02  0.8607465E-01
       -2   -1    0    0    0  501  0.00000000000E+00  0.00000000000E+00  0.11480958057E+04  0.11480958057E+04  0.25500000920E-02 0. -1.
        2   -1    0    0  501    0  0.00000000000E+00  0.00000000000E+00 -0.86943516212E+03  0.86943516212E+03  0.25500000920E-02 0.  1.
    10030    2    1    2    0    0  0.00000000000E+00  0.00000000000E+00  0.27866064353E+03  0.20175309678E+04  0.19981940476E+04 0.  0.
        4    1    3    3  502    0 -0.98689634549E+03  0.13840392291E+03  0.21124604589E+03  0.10186984576E+04  0.12699999809E+01 0. -1.
       -4    1    3    3    0  502  0.98689634549E+03 -0.13840392291E+03  0.67414597642E+02  0.99883251023E+03  0.12699999809E+01 0.  1.
</event>
<event>
 5   0  0.2356996E-06  0.1999942E+04  0.7818609E-02  0.8606648E-01
       -1   -1    0    0    0  501  0.00000000000E+00  0.00000000000E+00  0.97008150601E+03  0.97008150602E+03  0.50400001928E-02 0.  1.
        1   -1    0    0  501    0  0.00000000000E+00  0.00000000000E+00 -0.10307817099E+04  0.10307817099E+04  0.50400001928E-02 0. -1.
    10030    2    1    2    0    0  0.00000000000E+00  0.00000000000E+00 -0.60700203915E+02  0.20008632160E+04  0.19999422727E+04 0.  0.
        4    1    3    3  502    0  0.11073886592E+03  0.98886405223E+03  0.68818952950E+02  0.99742311554E+03  0.12699999809E+01 0.  1.
       -4    1    3    3    0  502 -0.11073886592E+03 -0.98886405223E+03 -0.12951915687E+03  0.10034401004E+04  0.12699999809E+01 0. -1.
</event>
<event>
 5   0  0.2313821E-06  0.1999482E+04  0.7818609E-02  0.8606863E-01
       -1   -1    0    0    0  501  0.00000000000E+00  0.00000000000E+00  0.71635741033E+03  0.71635741035E+03  0.50400001928E-02 0.  1.
        1   -1    0    0  501    0  0.00000000000E+00  0.00000000000E+00 -0.13952283363E+04  0.13952283363E+04  0.50400001928E-02 0. -1.
    10030    2    1    2    0    0  0.00000000000E+00  0.00000000000E+00 -0.67887092595E+03  0.21115857466E+04  0.19994820908E+04 0.  0.
        1    1    3    3  502    0 -0.76136254335E+03  0.59984120944E+03 -0.80753614441E+02  0.97262713576E+03  0.50400001928E-02 0. -1.
       -1    1    3    3    0  502  0.76136254335E+03 -0.59984120944E+03 -0.59811731151E+03  0.11389586109E+04  0.50400001928E-02 0.  1.
</event>
<event>
 5   0  0.2386776E-06  0.1999854E+04  0.7818609E-02  0.8606689E-01
        1   -1    0    0  501    0  0.00000000000E+00  0.00000000000E+00  0.64774157383E+03  0.64774157385E+03  0.50400001928E-02 0.  1.
       -1   -1    0    0    0  501  0.00000000000E+00  0.00000000000E+00 -0.15436006029E+04  0.15436006029E+04  0.50400001928E-02 0. -1.
    10030    2    1    2    0    0  0.00000000000E+00  0.00000000000E+00 -0.89585902905E+03  0.21913421767E+04  0.19998542786E+04 0.  0.
        2    1    3    3  502    0  0.67360278865E+03 -0.73529761618E+03 -0.52882964954E+03  0.11287444793E+04  0.25500000920E-02 0.  1.
       -2    1    3    3    0  502 -0.67360278865E+03  0.73529761618E+03 -0.36702937951E+03  0.10625976975E+04  0.25500000920E-02 0. -1.
</event>
<event>
 5   0  0.5118981E-06  0.1999450E+04  0.7818609E-02  0.8606878E-01
       -2   -1    0    0    0  501  0.00000000000E+00  0.00000000000E+00  0.42255866276E+03  0.42255866276E+03  0.25500000920E-02 0. -1.
        2   -1    0    0  501    0  0.00000000000E+00  0.00000000000E+00 -0.23652338364E+04  0.23652338364E+04  0.25500000920E-02 0.  1.
    10030    2    1    2    0    0  0.00000000000E+00  0.00000000000E+00 -0.19426751736E+04  0.27877924991E+04  0.19994499714E+04 0.  0.
        4    1    3    3  502    0 -0.92757993816E+02  0.39646027796E+03 -0.22443872094E+04  0.22810217790E+04  0.12699999809E+01 0.  1.
       -4    1    3    3    0  502  0.92757993816E+02 -0.39646027796E+03  0.30171203578E+03  0.50677072020E+03  0.12699999809E+01 0. -1.
</event>
<event>
 5   0  0.5118981E-06  0.2001106E+04  0.7818609E-02  0.8606104E-01
        2   -1    0    0  501    0  0.00000000000E+00  0.00000000000E+00  0.14572402401E+04  0.14572402401E+04  0.25500000920E-02 0.  1.
       -2   -1    0    0    0  501  0.00000000000E+00  0.00000000000E+00 -0.68698800931E+03  0.68698800932E+03  0.25500000920E-02 0. -1.
    10030    2    1    2    0    0  0.00000000000E+00  0.00000000000E+00  0.77025223079E+03  0.21442282494E+04  0.20011062657E+04 0.  0.
        4    1    3    3  502    0 -0.85824731191E+03 -0.31335141313E+03 -0.51875219800E+02  0.91513398354E+03  0.12699999809E+01 0. -1.
       -4    1    3    3    0  502  0.85824731191E+03  0.31335141313E+03  0.82212745059E+03  0.12290942659E+04  0.12699999809E+01 0.  1.
</event>
<event>
 5   0  0.5251252E-06  0.1999340E+04  0.7818609E-02  0.8606929E-01
        2   -1    0    0  501    0  0.00000000000E+00  0.00000000000E+00  0.10283880849E+04  0.10283880849E+04  0.25500000920E-02 0. -1.
       -2   -1    0    0    0  501  0.00000000000E+00  0.00000000000E+00 -0.97175399733E+03  0.97175399733E+03  0.25500000920E-02 0.  1.
    10030    2    1    2    0    0  0.00000000000E+00  0.00000000000E+00  0.56634087555E+02  0.20001420822E+04  0.19993401234E+04 0.  0.
        5    1    3    3  502    0  0.84933643339E+02 -0.83962651496E+03  0.56437872298E+03  0.10152496448E+04  0.46999998093E+01 0. -1.
       -5    1    3    3    0  502 -0.84933643339E+02  0.83962651496E+03 -0.50774463543E+03  0.98489243738E+03  0.46999998093E+01 0.  1.
</event>
<event>
 5   0  0.2311520E-06  0.2000747E+04  0.7818609E-02  0.8606271E-01
       -1   -1    0    0    0  501  0.00000000000E+00  0.00000000000E+00  0.65629398211E+03  0.65629398213E+03  0.50400001928E-02 0. -1.
        1   -1    0    0  501    0  0.00000000000E+00  0.00000000000E+00 -0.15248462145E+04  0.15248462145E+04  0.50400001928E-02 0.  1.
    10030    2    1    2    0    0  0.00000000000E+00  0.00000000000E+00 -0.86855223239E+03  0.21811401966E+04  0.20007472547E+04 0.  0.
        3    1    3    3  502    0  0.63409619950E+02 -0.12414380783E+03  0.64565375151E+03  0.66053103028E+03  0.10100000352E+00 0. -1.
       -3    1    3    3    0  502 -0.63409619950E+02  0.12414380783E+03 -0.15142059839E+04  0.15206091664E+04  0.10100000352E+00 0.  1.
</event>
<event>
 5   0  0.2386776E-06  0.2000133E+04  0.7818609E-02  0.8606558E-01
        1   -1    0    0  501    0  0.00000000000E+00  0.00000000000E+00  0.62625511173E+03  0.62625511175E+03  0.50400001928E-02 0. -1.
       -1   -1    0    0    0  501  0.00000000000E+00  0.00000000000E+00 -0.15970064845E+04  0.15970064845E+04  0.50400001928E-02 0.  1.
    10030    2    1    2    0    0  0.00000000000E+00  0.00000000000E+00 -0.97075137276E+03  0.22232615962E+04  0.20001334700E+04 0.  0.
        2    1    3    3  502    0  0.18417293318E+03  0.97940614217E+03 -0.39252634492E+03  0.10710896284E+04  0.25500000920E-02 0.  1.
       -2    1    3    3    0  502 -0.18417293318E+03 -0.97940614217E+03 -0.57822502784E+03  0.11521719678E+04  0.25500000920E-02 0. -1.
</event>
<event>
 5   0  0.4956214E-06  0.2000637E+04  0.7818609E-02  0.8606323E-01
       -2   -1    0    0    0  501  0.00000000000E+00  0.00000000000E+00  0.13174637214E+04  0.13174637214E+04  0.25500000920E-02 0. -1.
        2   -1    0    0  501    0  0.00000000000E+00  0.00000000000E+00 -0.75951782042E+03  0.75951782042E+03  0.25500000920E-02 0.  1.
    10030    2    1    2    0    0  0.00000000000E+00  0.00000000000E+00  0.55794590095E+03  0.20769815418E+04  0.20006370727E+04 0.  0.
        1    1    3    3  502    0  0.89130649100E+03  0.38420802559E+03  0.53027225812E+03  0.11059980721E+04  0.50400001928E-02 0.  1.
       -1    1    3    3    0  502 -0.89130649100E+03 -0.38420802559E+03  0.27673642833E+02  0.97098346966E+03  0.50400001928E-02 0. -1.
</event>
<event>
 5   0  0.2356996E-06  0.2000034E+04  0.7818609E-02  0.8606605E-01
        1   -1    0    0  501    0  0.00000000000E+00  0.00000000000E+00  0.76428329521E+03  0.76428329523E+03  0.50400001928E-02 0. -1.
       -1   -1    0    0    0  501  0.00000000000E+00  0.00000000000E+00 -0.13084597585E+04  0.13084597585E+04  0.50400001928E-02 0.  1.
    10030    2    1    2    0    0  0.00000000000E+00  0.00000000000E+00 -0.54417646325E+03  0.20727430537E+04  0.20000339356E+04 0.  0.
        4    1    3    3  502    0  0.76679181513E+03 -0.63986881387E+03 -0.21893492938E+03  0.10224166973E+04  0.12699999809E+01 0. -1.
       -4    1    3    3    0  502 -0.76679181513E+03  0.63986881387E+03 -0.32524153387E+03  0.10503263564E+04  0.12699999809E+01 0.  1.
</event>
<event>
 5   0  0.4956214E-06  0.1999578E+04  0.7818609E-02  0.8606818E-01
        2   -1    0    0  501    0  0.00000000000E+00  0.00000000000E+00  0.16954688691E+04  0.16954688691E+04  0.25500000920E-02 0.  1.
       -2   -1    0    0    0  501  0.00000000000E+00  0.00000000000E+00 -0.58955867878E+03  0.58955867878E+03  0.25500000920E-02 0. -1.
    10030    2    1    2    0    0  0.00000000000E+00  0.00000000000E+00  0.11059101904E+04  0.22850275479E+04  0.19995783419E+04 0.  0.
        1    1    3    3  502    0  0.14234232769E+02 -0.32600380296E+03  0.16329019966E+04  0.16651876841E+04  0.50400001928E-02 0.  1.
       -1    1    3    3    0  502 -0.14234232769E+02  0.32600380296E+03 -0.52699180620E+03  0.61983986380E+03  0.50400001928E-02 0. -1.
</event>
<event>
 5   0  0.5129100E-06  0.1999769E+04  0.7818609E-02  0.8606729E-01
       -2   -1    0    0    0  501  0.00000000000E+00  0.00000000000E+00  0.13225610399E+04  0.13225610399E+04  0.25500000920E-02 0. -1.
        2   -1    0    0  501    0  0.00000000000E+00  0.00000000000E+00 -0.75593403913E+03  0.75593403913E+03  0.25500000920E-02 0.  1.
    10030    2    1    2    0    0  0.00000000000E+00  0.00000000000E+00  0.56662700079E+03  0.20784950791E+04  0.19997688956E+04 0.  0.
        2    1    3    3  502    0  0.65474051312E+02 -0.97429872149E+03  0.59851732635E+02  0.97832871777E+03  0.25500000920E-02 0.  1.
       -2    1    3    3    0  502 -0.65474051312E+02  0.97429872149E+03  0.50677526816E+03  0.11001663613E+04  0.25500000920E-02 0. -1.
</event>
<event>
 5   0  0.2313821E-06  0.2000776E+04  0.7818609E-02  0.8606258E-01
       -1   -1    0    0    0  501  0.00000000000E+00  0.00000000000E+00  0.77391572091E+03  0.77391572092E+03  0.50400001928E-02 0. -1.
        1   -1    0    0  501    0  0.00000000000E+00  0.00000000000E+00 -0.12931328368E+04  0.12931328368E+04  0.50400001928E-02 0.  1.
    10030    2    1    2    0    0  0.00000000000E+00  0.00000000000E+00 -0.51921711591E+03  0.20670485578E+04  0.20007756812E+04 0.  0.
        1    1    3    3  502    0  0.13280165006E+03 -0.34019823964E+03 -0.12218037161E+04  0.12752158410E+04  0.50400001928E-02 0.  1.
       -1    1    3    3    0  502 -0.13280165006E+03  0.34019823964E+03  0.70258660018E+03  0.79183271673E+03  0.50400001928E-02 0. -1.
</event>
<event>
 5   0  0.5118981E-06  0.2000194E+04  0.7818609E-02  0.8606530E-01
        2   -1    0    0  501    0  0.00000000000E+00  0.00000000000E+00  0.13404418914E+04  0.13404418914E+04  0.25500000920E-02 0. -1.
       -2   -1    0    0    0  501  0.00000000000E+00  0.00000000000E+00 -0.74616773738E+03  0.74616773738E+03  0.25500000920E-02 0.  1.
    10030    2    1    2    0    0  0.00000000000E+00  0.00000000000E+00  0.59427415399E+03  0.20866096288E+04  0.20001944837E+04 0.  0.
        4    1    3    3  502    0 -0.29977635844E+03 -0.28514852796E+03 -0.65270364981E+03  0.77278665585E+03  0.12699999809E+01 0.  1.
       -4    1    3    3    0  502  0.29977635844E+03  0.28514852796E+03  0.12469778038E+04  0.13138229729E+04  0.12699999809E+01 0. -1.
</event>
<event>
 5   0  0.2311520E-06  0.1997893E+04  0.7818609E-02  0.8607607E-01
        1   -1    0    0  501    0  0.00000000000E+00  0.00000000000E+00  0.91947005191E+03  0.91947005192E+03  0.50400001928E-02 0.  1.
       -1   -1    0    0    0  501  0.00000000000E+00  0.00000000000E+00 -0.10852921294E+04  0.10852921294E+04  0.50400001928E-02 0. -1.
    10030    2    1    2    0    0  0.00000000000E+00  0.00000000000E+00 -0.16582207746E+03  0.20047621813E+04  0.19978925002E+04 0.  0.
        3    1    3    3  502    0  0.22434010300E+03 -0.63967950576E+03 -0.81917456583E+03  0.10632804575E+04  0.10100000352E+00 0. -1.
       -3    1    3    3    0  502 -0.22434010300E+03  0.63967950576E+03  0.65335248837E+03  0.94148172376E+03  0.10100000352E+00 0.  1.
</event>
<event>
 5   0  0.5251252E-06  0.2000631E+04  0.7818609E-02  0.8606326E-01
       -2   -1    0    0    0  501  0.00000000000E+00  0.00000000000E+00  0.64416087889E+03  0.64416087890E+03  0.25500000920E-02 0.  1.
        2   -1    0    0  501    0  0.00000000000E+00  0.00000000000E+00 -0.15533862768E+04  0.15533862769E+04  0.25500000920E-02 0. -1.
    10030    2    1    2    0    0  0.00000000000E+00  0.00000000000E+00 -0.90922539796E+03  0.21975471557E+04  0.20006305700E+04 0.  0.
        5    1    3    3  502    0 -0.34408858750E+03 -0.16440151794E+03  0.56117050167E+03  0.67849777973E+03  0.46999998093E+01 0.  1.
       -5    1    3    3    0  502  0.34408858750E+03  0.16440151794E+03 -0.14703958996E+04  0.15190493760E+04  0.46999998093E+01 0. -1.
</event>
<event>
 5   0  0.5251252E-06  0.1999790E+04  0.7818609E-02  0.8606719E-01
       -2   -1    0    0    0  501  0.00000000000E+00  0.00000000000E+00  0.74031919632E+03  0.74031919632E+03  0.25500000920E-02 0. -1.
        2   -1    0    0  501    0  0.00000000000E+00  0.00000000000E+00 -0.13504855216E+04  0.13504855216E+04  0.25500000920E-02 0.  1.
    10030    2    1    2    0    0  0.00000000000E+00  0.00000000000E+00 -0.61016632524E+03  0.20908047179E+04  0.19997903450E+04 0.  0.
        5    1    3    3  502    0 -0.63905219071E+03  0.22338071610E+03 -0.10744276807E+04  0.12699226661E+04  0.46999998093E+01 0.  1.
       -5    1    3    3    0  502  0.63905219071E+03 -0.22338071610E+03  0.46426135547E+03  0.82088205179E+03  0.46999998093E+01 0. -1.
</event>
<event>
 5   0  0.4956214E-06  0.1999291E+04  0.7818609E-02  0.8606952E-01
        2   -1    0    0  501    0  0.00000000000E+00  0.00000000000E+00  0.17737902369E+04  0.17737902369E+04  0.25500000920E-02 0. -1.
       -2   -1    0    0    0  501  0.00000000000E+00  0.00000000000E+00 -0.56336475267E+03  0.56336475268E+03  0.25500000920E-02 0.  1.
    10030    2    1    2    0    0  0.00000000000E+00  0.00000000000E+00  0.12104254842E+04  0.23371549896E+04  0.19992907724E+04 0.  0.
        1    1    3    3  502    0  0.31009451761E+03  0.14097464354E+03 -0.49342736611E+03  0.59958571166E+03  0.50400001928E-02 0.  1.
       -1    1    3    3    0  502 -0.31009451761E+03 -0.14097464354E+03  0.17038528503E+04  0.17375692779E+04  0.50400001928E-02 0. -1.
</event>
<event>
 5   0  0.2356996E-06  0.1999673E+04  0.7818609E-02  0.8606774E-01
        1   -1    0    0  501    0  0.00000000000E+00  0.00000000000E+00  0.16337071444E+04  0.16337071444E+04  0.50400001928E-02 0. -1.
       -1   -1    0    0    0  501  0.00000000000E+00  0.00000000000E+00 -0.61190458552E+03  0.61190458555E+03  0.50400001928E-02 0.  1.
    10030    2    1    2    0    0  0.00000000000E+00  0.00000000000E+00  0.10218025589E+04  0.22456117299E+04  0.19996728663E+04 0.  0.
        4    1    3    3  502    0  0.99474478563E+03  0.26310305281E+02  0.40166573908E+03  0.10731012998E+04  0.12699999809E+01 0. -1.
       -4    1    3    3    0  502 -0.99474478563E+03 -0.26310305281E+02  0.62013681977E+03  0.11725104302E+04  0.12699999809E+01 0.  1.
</event>
<event>
 5   0  0.2311520E-06  0.2002260E+04  0.7818609E-02  0.8605565E-01
        1   -1    0    0  501    0  0.00000000000E+00  0.00000000000E+00  0.20573887208E+04  0.20573887208E+04  0.50400001928E-02 0. -1.
       -1   -1    0    0    0  501  0.00000000000E+00  0.00000000000E+00 -0.48715212187E+03  0.48715212189E+03  0.50400001928E-02 0.  1.
    10030    2    1    2    0    0  0.00000000000E+00  0.00000000000E+00  0.15702365989E+04  0.25445408427E+04  0.20022600040E+04 0.  0.
        3    1    3    3  502    0  0.69550655604E+03  0.65093702020E+03  0.39380675375E+03  0.10307919981E+04  0.10100000352E+00 0.  1.
       -3    1    3    3    0  502 -0.69550655604E+03 -0.65093702020E+03  0.11764298451E+04  0.15137488446E+04  0.10100000352E+00 0. -1.
</event>
<event>
 5   0  0.2311520E-06  0.1999606E+04  0.7818609E-02  0.8606805E-01
       -1   -1    0    0    0  501  0.00000000000E+00  0.00000000000E+00  0.17977156738E+04  0.17977156738E+04  0.50400001928E-02 0.  1.
        1   -1    0    0  501    0  0.00000000000E+00  0.00000000000E+00 -0.55604209626E+03  0.55604209628E+03  0.50400001928E-02 0. -1.
    10030    2    1    2    0    0  0.00000000000E+00  0.00000000000E+00  0.12416735775E+04  0.23537577701E+04  0.19996055529E+04 0.  0.
        3    1    3    3  502    0  0.44781848411E+03 -0.25627291875E+03 -0.38721871306E+03  0.64510119015E+03  0.10100000352E+00 0. -1.
       -3    1    3    3    0  502 -0.44781848411E+03  0.25627291875E+03  0.16288922906E+04  0.17086565799E+04  0.10100000352E+00 0.  1.
</event>
<event>
 5   0  0.5118981E-06  0.1994885E+04  0.7818609E-02  0.8609016E-01
        2   -1    0    0  501    0  0.00000000000E+00  0.00000000000E+00  0.12925254231E+04  0.12925254231E+04  0.25500000920E-02 0.  1.
       -2   -1    0    0    0  501  0.00000000000E+00  0.00000000000E+00 -0.76972682957E+03  0.76972682957E+03  0.25500000920E-02 0. -1.
    10030    2    1    2    0    0  0.00000000000E+00  0.00000000000E+00  0.52279859350E+03  0.20622522526E+04  0.19948849551E+04 0.  0.
        4    1    3    3  502    0  0.50884302869E+03  0.63116410077E+03  0.86205484580E+03  0.11833974480E+04  0.12699999809E+01 0.  1.
       -4    1    3    3    0  502 -0.50884302869E+03 -0.63116410077E+03 -0.33925625230E+03  0.87885480460E+03  0.12699999809E+01 0. -1.
</event>
<event>
 5   0  0.2379743E-06  0.1998231E+04  0.7818609E-02  0.8607448E-01
        1   -1    0    0  501    0  0.00000000000E+00  0.00000000000E+00  0.86175826956E+03  0.86175826958E+03  0.50400001928E-02 0. -1.
       -1   -1    0    0    0  501  0.00000000000E+00  0.00000000000E+00 -0.11583665795E+04  0.11583665795E+04  0.50400001928E-02 0.  1.
    10030    2    1    2    0    0  0.00000000000E+00  0.00000000000E+00 -0.29660830991E+03  0.20201248491E+04  0.19982311969E+04 0.  0.
        5    1    3    3  502    0  0.47783423327E+03 -0.29155775403E+03 -0.98494529047E+03  0.11329037001E+04  0.46999998093E+01 0.  1.
       -5    1    3    3    0  502 -0.47783423327E+03  0.29155775403E+03  0.68833698056E+03  0.88722114899E+03  0.46999998093E+01 0. -1.
</event>
<event>
 5   0  0.2313821E-06  0.1999793E+04  0.7818609E-02  0.8606717E-01
       -1   -1    0    0    0  501  0.00000000000E+00  0.00000000000E+00  0.13265280173E+04  0.13265280173E+04  0.50400001928E-02 0.  1.
        1   -1    0    0  501    0  0.00000000000E+00  0.00000000000E+00 -0.75369164223E+03  0.75369164224E+03  0.50400001928E-02 0. -1.
    10030    2    1    2    0    0  0.00000000000E+00  0.00000000000E+00  0.57283637507E+03  0.20802196596E+04  0.19997930691E+04 0.  0.
        1    1    3    3  502    0 -0.35353747717E+03 -0.29501730571E+02 -0.68602323609E+03  0.77232569577E+03  0.50400001928E-02 0. -1.
       -1    1    3    3    0  502  0.35353747717E+03  0.29501730571E+02  0.12588596112E+04  0.13078939638E+04  0.50400001928E-02 0.  1.
</event>
<event>
 5   0  0.2386776E-06  0.2003250E+04  0.7818609E-02  0.8605102E-01
       -1   -1    0    0    0  501  0.00000000000E+00  0.00000000000E+00  0.57346152056E+03  0.57346152058E+03  0.50400001928E-02 0.  1.
        1   -1    0    0  501    0  0.00000000000E+00  0.00000000000E+00 -0.17494688594E+04  0.17494688594E+04  0.50400001928E-02 0. -1.
    10030    2    1    2    0    0  0.00000000000E+00  0.00000000000E+00 -0.11760073388E+04  0.23229303800E+04  0.20032504310E+04 0.  0.
        2    1    3    3  502    0 -0.60792183942E+02 -0.99976254955E+03 -0.59458649146E+03  0.11647978112E+04  0.25500000920E-02 0.  1.
       -2    1    3    3    0  502  0.60792183942E+02  0.99976254955E+03 -0.58142084735E+03  0.11581325688E+04  0.25500000920E-02 0. -1.
</event>
<event>
 5   0  0.5030137E-06  0.1998081E+04  0.7818609E-02  0.8607518E-01
        2   -1    0    0  501    0  0.00000000000E+00  0.00000000000E+00  0.18778634319E+04  0.18778634319E+04  0.25500000920E-02 0. -1.
       -2   -1    0    0    0  501  0.00000000000E+00  0.00000000000E+00 -0.53149880003E+03  0.53149880003E+03  0.25500000920E-02 0.  1.
    10030    2    1    2    0    0  0.00000000000E+00  0.00000000000E+00  0.13463646319E+04  0.24093622320E+04  0.19980812403E+04 0.  0.
        3    1    3    3  502    0 -0.72607925231E+01  0.11357428215E+03 -0.52365686298E+03  0.53588091683E+03  0.10100000352E+00 0.  1.
       -3    1    3    3    0  502  0.72607925231E+01 -0.11357428215E+03  0.18700214949E+04  0.18734813151E+04  0.10100000352E+00 0. -1.
</event>
<event>
 5   0  0.5118981E-06  0.1998137E+04  0.7818609E-02  0.8607492E-01
        2   -1    0    0  501    0  0.00000000000E+00  0.00000000000E+00  0.18326120603E+04  0.18326120603E+04  0.25500000920E-02 0.  1.
       -2   -1    0    0    0  501  0.00000000000E+00  0.00000000000E+00 -0.54465323564E+03  0.54465323564E+03  0.25500000920E-02 0. -1.
    10030    2    1    2    0    0  0.00000000000E+00  0.00000000000E+00  0.12879588247E+04  0.23772652960E+04  0.19981372208E+04 0.  0.
        4    1    3    3  502    0 -0.11975723466E+03  0.49988112274E+03  0.16632154988E+04  0.17408361039E+04  0.12699999809E+01 0.  1.
       -4    1    3    3    0  502  0.11975723466E+03 -0.49988112274E+03 -0.37525667415E+03  0.63642919208E+03  0.12699999809E+01 0. -1.
</event>
<event>
 5   0  0.4956214E-06  0.1998536E+04  0.7818609E-02  0.8607306E-01
       -2   -1    0    0    0  501  0.00000000000E+00  0.00000000000E+00  0.59155678963E+03  0.59155678964E+03  0.25500000920E-02 0.  1.
        2   -1    0    0  501    0  0.00000000000E+00  0.00000000000E+00 -0.16879803305E+04  0.16879803305E+04  0.25500000920E-02 0. -1.
    10030    2    1    2    0    0  0.00000000000E+00  0.00000000000E+00 -0.10964235409E+04  0.22795371202E+04  0.19985356892E+04 0.  0.
        1    1    3    3  502    0 -0.99627605945E+03 -0.29396088943E+02 -0.46670760899E+03  0.11005662674E+04  0.50400001928E-02 0.  1.
       -1    1    3    3    0  502  0.99627605945E+03  0.29396088943E+02 -0.62971593191E+03  0.11789708527E+04  0.50400001928E-02 0. -1.
</event>
<event>
 5   0  0.5030137E-06  0.1999644E+04  0.7818609E-02  0.8606787E-01
       -2   -1    0    0    0  501  0.00000000000E+00  0.00000000000E+00  0.20771247611E+04  0.20771247611E+04  0.25500000920E-02 0. -1.
        2   -1    0    0  501    0  0.00000000000E+00  0.00000000000E+00 -0.48126313889E+03  0.48126313890E+03  0.25500000920E-02 0.  1.
    10030    2    1    2    0    0  0.00000000000E+00  0.00000000000E+00  0.15958616222E+04  0.25583879000E+04  0.19996435506E+04 0.  0.
        3    1    3    3  502    0 -0.38186286763E+03  0.15807223585E+03 -0.36686151099E+03  0.55262415787E+03  0.10100000352E+00 0.  1.
       -3    1    3    3    0  502  0.38186286763E+03 -0.15807223585E+03  0.19627231332E+04  0.20057637421E+04  0.10100000352E+00 0. -1.
</event>
<event>
 5   0  0.2379743E-06  0.2000376E+04  0.7818609E-02  0.8606445E-01
        1   -1    0    0  501    0  0.00000000000E+00  0.00000000000E+00  0.16177781734E+04  0.16177781734E+04  0.50400001928E-02 0.  1.
       -1   -1    0    0    0  501  0.00000000000E+00  0.00000000000E+00 -0.61836389862E+03  0.61836389864E+03  0.50400001928E-02 0. -1.
    10030    2    1    2    0    0  0.00000000000E+00  0.00000000000E+00  0.99941427477E+03  0.22361420720E+04  0.20003755832E+04 0.  0.
        5    1    3    3  502    0  0.39131077304E+03 -0.92020573329E+03  0.47597223818E+03  0.11074630351E+04  0.46999998093E+01 0.  1.
       -5    1    3    3    0  502 -0.39131077304E+03  0.92020573329E+03  0.52344203659E+03  0.11286790369E+04  0.46999998093E+01 0. -1.
</event>
<event>
 5   0  0.2356996E-06  0.2000537E+04  0.7818609E-02  0.8606370E-01
        1   -1    0    0  501    0  0.00000000000E+00  0.00000000000E+00  0.10863617736E+04  0.10863617736E+04  0.50400001928E-02 0.  1.
       -1   -1    0    0    0  501  0.00000000000E+00  0.00000000000E+00 -0.92099789826E+03  0.92099789827E+03  0.50400001928E-02 0. -1.
    10030    2    1    2    0    0  0.00000000000E+00  0.00000000000E+00  0.16536387534E+03  0.20073596719E+04  0.20005368382E+04 0.  0.
        4    1    3    3  502    0 -0.98595506599E+03 -0.13403632315E+03 -0.19951650670E+02  0.99522500438E+03  0.12699999809E+01 0. -1.
       -4    1    3    3    0  502  0.98595506599E+03  0.13403632315E+03  0.18531552601E+03  0.10121346675E+04  0.12699999809E+01 0.  1.
</event>
<event>
 5   0  0.2379743E-06  0.2000779E+04  0.7818609E-02  0.8606256E-01
       -1   -1    0    0    0  501  0.00000000000E+00  0.00000000000E+00  0.14751459785E+04  0.14751459785E+04  0.50400001928E-02 0. -1.
        1   -1    0    0  501    0  0.00000000000E+00  0.00000000000E+00 -0.67842739380E+03  0.67842739382E+03  0.50400001928E-02 0.  1.
    10030    2    1    2    0    0  0.00000000000E+00  0.00000000000E+00  0.79671858470E+03  0.21535733723E+04  0.20007792899E+04 0.  0.
        5    1    3    3  502    0  0.88563177312E+03 -0.75112168185E+02 -0.95799833745E+02  0.89397157310E+03  0.46999998093E+01 0.  1.
       -5    1    3    3    0  502 -0.88563177312E+03  0.75112168185E+02  0.89251841845E+03  0.12596017992E+04  0.46999998093E+01 0. -1.
</event>
<event>
 5   0  0.2313821E-06  0.2000923E+04  0.7818609E-02  0.8606189E-01
       -1   -1    0    0    0  501  0.00000000000E+00  0.00000000000E+00  0.13357820777E+04  0.13357820777E+04  0.50400001928E-02 0. -1.
        1   -1    0    0  501    0  0.00000000000E+00  0.00000000000E+00 -0.74931647460E+03  0.74931647462E+03  0.50400001928E-02 0.  1.
    10030    2    1    2    0    0  0.00000000000E+00  0.00000000000E+00  0.58646560313E+03  0.20850985524E+04  0.20009233042E+04 0.  0.
        1    1    3    3  502    0 -0.18351513703E+03  0.82169686156E+03  0.85639328048E+03  0.12009467052E+04  0.50400001928E-02 0. -1.
       -1    1    3    3    0  502  0.18351513703E+03 -0.82169686156E+03 -0.26992767736E+03  0.88415184717E+03  0.50400001928E-02 0.  1.
</event>
<event>
 5   0  0.5118981E-06  0.1997363E+04  0.7818609E-02  0.8607854E-01
        2   -1    0    0  501    0  0.00000000000E+00  0.00000000000E+00  0.11827483197E+04  0.11827483197E+04  0.25500000920E-02 0.  1.
       -2   -1    0    0    0  501  0.00000000000E+00  0.00000000000E+00 -0.84326072002E+03  0.84326072002E+03  0.25500000920E-02 0. -1.
    10030    2    1    2    0    0  0.00000000000E+00  0.00000000000E+00  0.33948759972E+03  0.20260090398E+04  0.19973634619E+04 0.  0.
        4    1    3    3  502    0  0.72529653735E+03 -0.44678376129E+03  0.69846087319E+03  0.11015988384E+04  0.12699999809E+01 0.  1.
       -4    1    3    3    0  502 -0.72529653735E+03  0.44678376129E+03 -0.35897327347E+03  0.92441020138E+03  0.12699999809E+01 0. -1.
</event>
<event>
 5   0  0.4956214E-06  0.2001620E+04  0.7818609E-02  0.8605864E-01
       -2   -1    0    0    0  501  0.00000000000E+00  0.00000000000E+00  0.99699982415E+03  0.99699982415E+03  0.25500000920E-02 0. -1.
        2   -1    0    0  501    0  0.00000000000E+00  0.00000000000E+00 -0.10046343026E+04  0.10046343027E+04  0.25500000920E-02 0.  1.
    10030    2    1    2    0    0  0.00000000000E+00  0.00000000000E+00 -0.76344784977E+01  0.20016341268E+04  0.20016195673E+04 0.  0.
        1    1    3    3  502    0  0.27558207322E+03 -0.31348819418E+03  0.90580462334E+03  0.99734765386E+03  0.50400001928E-02 0. -1.
       -1    1    3    3    0  502 -0.27558207322E+03  0.31348819418E+03 -0.91343910183E+03  0.10042864730E+04  0.50400001928E-02 0.  1.
</event>
<event>
 5   0  0.5129100E-06  0.2000246E+04  0.7818609E-02  0.8606506E-01
        2   -1    0    0  501    0  0.00000000000E+00  0.00000000000E+00  0.16383607155E+04  0.16383607155E+04  0.25500000920E-02 0.  1.
       -2   -1    0    0    0  501  0.00000000000E+00  0.00000000000E+00 -0.61051614746E+03  0.61051614747E+03  0.25500000920E-02 0. -1.
    10030    2    1    2    0    0  0.00000000000E+00  0.00000000000E+00  0.10278445680E+04  0.22488768630E+04  0.20002456571E+04 0.  0.
        2    1    3    3  502    0 -0.55737408129E+03  0.70259993619E+03  0.10115863509E+04  0.13518947748E+04  0.25500000920E-02 0.  1.
       -2    1    3    3    0  502  0.55737408129E+03 -0.70259993619E+03  0.16258217130E+02  0.89698208815E+03  0.25500000920E-02 0. -1.
</event>
<event>
 5   0  0.2311520E-06  0.1999539E+04  0.7818609E-02  0.8606836E-01
        1   -1    0    0  501    0  0.00000000000E+00  0.00000000000E+00  0.97076251637E+03  0.97076251638E+03  0.50400001928E-02 0. -1.
       -1   -1    0    0    0  501  0.00000000000E+00  0.00000000000E+00 -0.10296429133E+04  0.10296429133E+04  0.50400001928E-02 0.  1.
    10030    2    1    2    0    0  0.00000000000E+00  0.00000000000E+00 -0.58880396885E+02  0.20004054296E+04  0.19995386923E+04 0.  0.
        3    1    3    3  502    0 -0.34815738825E+03 -0.77930078164E+03 -0.55025731063E+03  0.10155325664E+04  0.10100000352E+00 0.  1.
       -3    1    3    3    0  502  0.34815738825E+03  0.77930078164E+03  0.49137691374E+03  0.98487286328E+03  0.10100000352E+00 0. -1.
</event>
<event>
 5   0  0.5030137E-06  0.1999934E+04  0.7818609E-02  0.8606652E-01
        2   -1    0    0  501    0  0.00000000000E+00  0.00000000000E+00  0.93396710959E+03  0.93396710959E+03  0.25500000920E-02 0.  1.
       -2   -1    0    0    0  501  0.00000000000E+00  0.00000000000E+00 -0.10706305550E+04  0.10706305550E+04  0.25500000920E-02 0. -1.
    10030    2    1    2    0    0  0.00000000000E+00  0.00000000000E+00 -0.13666344537E+03  0.20045976645E+04  0.19999337238E+04 0.  0.
        3    1    3    3  502    0 -0.95103488664E+03  0.16435993553E+03 -0.33057552214E+03  0.10201773032E+04  0.10100000352E+00 0. -1.
       -3    1    3    3    0  502  0.95103488664E+03 -0.16435993553E+03  0.19391207677E+03  0.98442036130E+03  0.10100000352E+00 0.  1.
</event>
<event>
 5   0  0.5251252E-06  0.1999743E+04  0.7818609E-02  0.8606741E-01
       -2   -1    0    0    0  501  0.00000000000E+00  0.00000000000E+00  0.59654202334E+03  0.59654202334E+03  0.25500000920E-02 0.  1.
        2   -1    0    0  501    0  0.00000000000E+00  0.00000000000E+00 -0.16758972190E+04  0.16758972190E+04  0.25500000920E-02 0. -1.
    10030    2    1    2    0    0  0.00000000000E+00  0.00000000000E+00 -0.10793551956E+04  0.22724392423E+04  0.19997431014E+04 0.  0.
        5    1    3    3  502    0  0.43109378808E+03 -0.22700115086E+03  0.45251315738E+03  0.66495234732E+03  0.46999998093E+01 0.  1.
       -5    1    3    3    0  502 -0.43109378808E+03  0.22700115086E+03 -0.15318683530E+04  0.16074868950E+04  0.46999998093E+01 0. -1.
</event>
<event>
 5   0  0.4956214E-06  0.1999708E+04  0.7818609E-02  0.8606757E-01
       -2   -1    0    0    0  501  0.00000000000E+00  0.00000000000E+00  0.51890894600E+03  0.51890894601E+03  0.25500000920E-02 0. -1.
        2   -1    0    0  501    0  0.00000000000E+00  0.00000000000E+00 -0.19265575276E+04  0.19265575276E+04  0.25500000920E-02 0.  1.
    10030    2    1    2    0    0  0.00000000000E+00  0.00000000000E+00 -0.14076485816E+04  0.24454664736E+04  0.19997079147E+04 0.  0.
        1    1    3    3  502    0 -0.23968133558E+03 -0.26007942504E+03  0.43985622448E+03  0.56441292348E+03  0.50400001928E-02 0. -1.
       -1    1    3    3    0  502  0.23968133558E+03  0.26007942504E+03 -0.18475048061E+04  0.18810535501E+04  0.50400001928E-02 0.  1.
</event>
<event>
 5   0  0.2311520E-06  0.1999142E+04  0.7818609E-02  0.8607022E-01
        1   -1    0    0  501    0  0.00000000000E+00  0.00000000000E+00  0.12117774725E+04  0.12117774725E+04  0.50400001928E-02 0. -1.
       -1   -1    0    0    0  501  0.00000000000E+00  0.00000000000E+00 -0.82452633488E+03  0.82452633489E+03  0.50400001928E-02 0.  1.
    10030    2    1    2    0    0  0.00000000000E+00  0.00000000000E+00  0.38725113759E+03  0.20363038074E+04  0.19991422542E+04 0.  0.
        3    1    3    3  502    0  0.81683931119E+03  0.44779145911E+03  0.56285349051E+03  0.10883692908E+04  0.10100000352E+00 0. -1.
       -3    1    3    3    0  502 -0.81683931119E+03 -0.44779145911E+03 -0.17560235292E+03  0.94793451657E+03  0.10100000352E+00 0.  1.
</event>
<event>
 5   0  0.2356996E-06  0.1998633E+04  0.7818609E-02  0.8607260E-01
        1   -1    0    0  501    0  0.00000000000E+00  0.00000000000E+00  0.18460339520E+04  0.18460339520E+04  0.50400001928E-02 0. -1.
       -1   -1    0    0    0  501  0.00000000000E+00  0.00000000000E+00 -0.54096137762E+03  0.54096137764E+03  0.50400001928E-02 0.  1.
    10030    2    1    2    0    0  0.00000000000E+00  0.00000000000E+00  0.13050725744E+04  0.23869953297E+04  0.19986326024E+04 0.  0.
        4    1    3    3  502    0 -0.85495323574E+03  0.21020757460E+03  0.12171567135E+04  0.15021998328E+04  0.12699999809E+01 0. -1.
       -4    1    3    3    0  502  0.85495323574E+03 -0.21020757460E+03  0.87915860930E+02  0.88479549684E+03  0.12699999809E+01 0.  1.
</event>
<event>
 5   0  0.2311520E-06  0.1999650E+04  0.7818609E-02  0.8606784E-01
       -1   -1    0    0    0  501  0.00000000000E+00  0.00000000000E+00  0.54890935118E+03  0.54890935120E+03  0.50400001928E-02 0. -1.
        1   -1    0    0  501    0  0.00000000000E+00  0.00000000000E+00 -0.18211561890E+04  0.18211561890E+04  0.50400001928E-02 0.  1.
    10030    2    1    2    0    0  0.00000000000E+00  0.00000000000E+00 -0.12722468378E+04  0.23700655402E+04  0.19996496314E+04 0.  0.
        3    1    3    3  502    0 -0.52252484495E+03 -0.96647753282E+02 -0.16399294370E+04  0.17238740007E+04  0.10100000352E+00 0.  1.
       -3    1    3    3    0  502  0.52252484495E+03  0.96647753282E+02  0.36768259916E+03  0.64619153951E+03  0.10100000352E+00 0. -1.
</event>
<event>
 5   0  0.4956214E-06  0.1999818E+04  0.7818609E-02  0.8606706E-01
        2   -1    0    0  501    0  0.00000000000E+00  0.00000000000E+00  0.92427073643E+03  0.92427073644E+03  0.25500000920E-02 0.  1.
       -2   -1    0    0    0  501  0.00000000000E+00  0.00000000000E+00 -0.10817370342E+04  0.10817370342E+04  0.25500000920E-02 0. -1.
    10030    2    1    2    0    0  0.00000000000E+00  0.00000000000E+00 -0.15746629778E+03  0.20060077707E+04  0.19998178770E+04 0.  0.
        1    1    3    3  502    0 -0.39844657847E+03  0.90082812613E+03  0.93749349862E+02  0.98946446594E+03  0.50400001928E-02 0. -1.
       -1    1    3    3    0  502  0.39844657847E+03 -0.90082812613E+03 -0.25121564764E+03  0.10165433047E+04  0.50400001928E-02 0.  1.
</event>
<event>
 5   0  0.5251252E-06  0.1999936E+04  0.7818609E-02  0.8606651E-01
       -2   -1    0    0    0  501  0.00000000000E+00  0.00000000000E+00  0.96762632987E+03  0.96762632987E+03  0.25500000920E-02 0. -1.
        2   -1    0    0  501    0  0.00000000000E+00  0.00000000000E+00 -0.10333905476E+04  0.10333905476E+04  0.25500000920E-02 0.  1.
    10030    2    1    2    0    0  0.00000000000E+00  0.00000000000E+00 -0.65764217759E+02  0.20010168775E+04  0.19999359019E+04 0.  0.
        5    1    3    3  502    0  0.13206382038E+03  0.15071990685E+03 -0.10130832397E+04  0.10327231399E+04  0.46999998093E+01 0.  1.
       -5    1    3    3    0  502 -0.13206382038E+03 -0.15071990685E+03  0.94731902197E+03  0.96829373764E+03  0.46999998093E+01 0. -1.
</event>
<event>
 5   0  0.5129100E-06  0.2000291E+04  0.7818609E-02  0.8606484E-01
        2   -1    0    0  501    0  0.00000000000E+00  0.00000000000E+00  0.22227059161E+04  0.22227059161E+04  0.25500000920E-02 0.  1.
       -2   -1    0    0    0  501  0.00000000000E+00  0.00000000000E+00 -0.45003316415E+03  0.45003316416E+03  0.25500000920E-02 0. -1.
    10030    2    1    2    0    0  0.00000000000E+00  0.00000000000E+00  0.17726727519E+04  0.26727390802E+04  0.20002913552E+04 0.  0.
        2    1    3    3  502    0 -0.16539186776E+03 -0.25399810922E+03  0.21598602642E+04  0.21810240417E+04  0.25500000920E-02 0.  1.
       -2    1    3    3    0  502  0.16539186776E+03  0.25399810922E+03 -0.38718751233E+03  0.49171503853E+03  0.25500000920E-02 0. -1.
</event>
<event>
 5   0  0.5030137E-06  0.2000177E+04  0.7818609E-02  0.8606538E-01
        2   -1    0    0  501    0  0.00000000000E+00  0.00000000000E+00  0.14167419651E+04  0.14167419651E+04  0.25500000920E-02 0.  1.
       -2   -1    0    0    0  501  0.00000000000E+00  0.00000000000E+00 -0.70596968407E+03  0.70596968408E+03  0.25500000920E-02 0. -1.
    10030    2    1    2    0    0  0.00000000000E+00  0.00000000000E+00  0.71077228098E+03  0.21227116491E+04  0.20001768697E+04 0.  0.
        3    1    3    3  502    0 -0.93360167399E+03  0.35512196853E+03  0.30282239014E+03  0.10437552914E+04  0.10100000352E+00 0.  1.
       -3    1    3    3    0  502  0.93360167399E+03 -0.35512196853E+03  0.40794989084E+03  0.10789563577E+04  0.10100000352E+00 0. -1.
</event>
<event>
 5   0  0.5129100E-06  0.1998689E+04  0.7818609E-02  0.8607234E-01
       -2   -1    0    0    0  501  0.00000000000E+00  0.00000000000E+00  0.62672629677E+03  0.62672629678E+03  0.25500000920E-02 0.  1.
        2   -1    0    0  501    0  0.00000000000E+00  0.00000000000E+00 -0.15935021137E+04  0.15935021137E+04  0.25500000920E-02 0. -1.
    10030    2    1    2    0    0  0.00000000000E+00  0.00000000000E+00 -0.96677581695E+03  0.22202284105E+04  0.19986892491E+04 0.  0.
        2    1    3    3  502    0  0.57566553693E+03  0.75760305011E+03 -0.14401427048E+03  0.96233741590E+03  0.25500000920E-02 0.  1.
       -2    1    3    3    0  502 -0.57566553693E+03 -0.75760305011E+03 -0.82276154648E+03  0.12578909946E+04  0.25500000920E-02 0. -1.
</event>
<event>
 5   0  0.5030137E-06  0.1993665E+04  0.7818609E-02  0.8609588E-01
        2   -1    0    0  501    0  0.00000000000E+00  0.00000000000E+00  0.19064708506E+04  0.19064708506E+04  0.25500000920E-02 0.  1.
       -2   -1    0    0    0  501  0.00000000000E+00  0.00000000000E+00 -0.52121200291E+03  0.52121200291E+03  0.25500000920E-02 0. -1.
    10030    2    1    2    0    0  0.00000000000E+00  0.00000000000E+00  0.13852588477E+04  0.24276828535E+04  0.19936654589E+04 0.  0.
        3    1    3    3  502    0  0.60464037637E+03  0.57570956669E+03  0.29409684435E+02  0.83540195694E+03  0.10100000352E+00 0. -1.
       -3    1    3    3    0  502 -0.60464037637E+03 -0.57570956669E+03  0.13558491633E+04  0.15922808966E+04  0.10100000352E+00 0.  1.
</event>
<event>
 5   0  0.5030137E-06  0.2000881E+04  0.7818609E-02  0.8606209E-01
        2   -1    0    0  501    0  0.00000000000E+00  0.00000000000E+00  0.73439125271E+03  0.73439125271E+03  0.25500000920E-02 0. -1.
       -2   -1    0    0    0  501  0.00000000000E+00  0.00000000000E+00 -0.13628716184E+04  0.13628716184E+04  0.25500000920E-02 0.  1.
    10030    2    1    2    0    0  0.00000000000E+00  0.00000000000E+00 -0.62848036572E+03  0.20972628711E+04  0.20008808012E+04 0.  0.
        3    1    3    3  502    0 -0.48119019887E+03  0.83770776661E+03 -0.41750953416E+02  0.96697541957E+03  0.10100000352E+00 0.  1.
       -3    1    3    3    0  502  0.48119019887E+03 -0.83770776661E+03 -0.58672941231E+03  0.11302874516E+04  0.10100000352E+00 0. -1.
</event>
<event>
 5   0  0.5118981E-06  0.1996291E+04  0.7818609E-02  0.8608357E-01
       -2   -1    0    0    0  501  0.00000000000E+00  0.00000000000E+00  0.73757496665E+03  0.73757496665E+03  0.25500000920E-02 0. -1.
        2   -1    0    0  501    0  0.00000000000E+00  0.00000000000E+00 -0.13507700682E+04  0.13507700682E+04  0.25500000920E-02 0.  1.
    10030    2    1    2    0    0  0.00000000000E+00  0.00000000000E+00 -0.61319510155E+03  0.20883450349E+04  0.19962907484E+04 0.  0.
        4    1    3    3  502    0  0.79757307541E+03 -0.54175175727E+02  0.31865482204E+03  0.86058135512E+03  0.12699999809E+01 0. -1.
       -4    1    3    3    0  502 -0.79757307541E+03  0.54175175727E+02 -0.93184992359E+03  0.12277636797E+04  0.12699999809E+01 0.  1.
</event>
<event>
 5   0  0.2379743E-06  0.2000614E+04  0.7818609E-02  0.8606334E-01
        1   -1    0    0  501    0  0.00000000000E+00  0.00000000000E+00  0.10862368271E+04  0.10862368271E+04  0.50400001928E-02 0.  1.
       -1   -1    0    0    0  501  0.00000000000E+00  0.00000000000E+00 -0.92117461961E+03  0.92117461963E+03  0.50400001928E-02 0. -1.
    10030    2    1    2    0    0  0.00000000000E+00  0.00000000000E+00  0.16506220751E+03  0.20074114468E+04  0.20006137019E+04 0.  0.
        5    1    3    3  502    0 -0.23178092369E+03 -0.68460807047E+03  0.77638712341E+03  0.10607590029E+04  0.46999998093E+01 0.  1.
       -5    1    3    3    0  502  0.23178092369E+03  0.68460807047E+03 -0.61132491591E+03  0.94665244390E+03  0.46999998093E+01 0. -1.
</event>
<event>
 5   0  0.2386776E-06  0.2000525E+04  0.7818609E-02  0.8606375E-01
        1   -1    0    0  501    0  0.00000000000E+00  0.00000000000E+00  0.53085014041E+03  0.53085014043E+03  0.50400001928E-02 0.  1.
       -1   -1    0    0    0  501  0.00000000000E+00  0.00000000000E+00 -0.18847601032E+04  0.18847601033E+04  0.50400001928E-02 0. -1.
    10030    2    1    2    0    0  0.00000000000E+00  0.00000000000E+00 -0.13539099628E+04  0.24156102437E+04  0.20005250966E+04 0.  0.
        2    1    3    3  502    0 -0.45007703165E+03 -0.35437121676E+03  0.31316823005E+03  0.65285728456E+03  0.25500000920E-02 0.  1.
       -2    1    3    3    0  502  0.45007703165E+03  0.35437121676E+03 -0.16670781929E+04  0.17627529591E+04  0.25500000920E-02 0. -1.
</event>
<event>
 5   0  0.2386776E-06  0.1999918E+04  0.7818609E-02  0.8606659E-01
       -1   -1    0    0    0  501  0.00000000000E+00  0.00000000000E+00  0.50405329228E+03  0.50405329230E+03  0.50400001928E-02 0. -1.
        1   -1    0    0  501    0  0.00000000000E+00  0.00000000000E+00 -0.19837545081E+04  0.19837545081E+04  0.50400001928E-02 0.  1.
    10030    2    1    2    0    0  0.00000000000E+00  0.00000000000E+00 -0.14797012159E+04  0.24878078004E+04  0.19999179893E+04 0.  0.
        2    1    3    3  502    0  0.31976821518E+03 -0.65422358491E+03  0.11265137724E+03  0.73685177837E+03  0.25500000920E-02 0. -1.
       -2    1    3    3    0  502 -0.31976821518E+03  0.65422358491E+03 -0.15923525931E+04  0.17509560221E+04  0.25500000920E-02 0.  1.
</event>
<event>
 5   0  0.2311520E-06  0.1999786E+04  0.7818609E-02  0.8606721E-01
        1   -1    0    0  501    0  0.00000000000E+00  0.00000000000E+00  0.65893996324E+03  0.65893996326E+03  0.50400001928E-02 0. -1.
       -1   -1    0    0    0  501  0.00000000000E+00  0.00000000000E+00 -0.15172642299E+04  0.15172642299E+04  0.50400001928E-02 0.  1.
    10030    2    1    2    0    0  0.00000000000E+00  0.00000000000E+00 -0.85832426665E+03  0.21762041932E+04  0.19997860245E+04 0.  0.
        3    1    3    3  502    0  0.23846185789E+01 -0.99547776629E+03 -0.32705292385E+03  0.10478288480E+04  0.10100000352E+00 0.  1.
       -3    1    3    3    0  502 -0.23846185789E+01  0.99547776629E+03 -0.53127134279E+03  0.11283753451E+04  0.10100000352E+00 0. -1.
</event>
<event>
 5   0  0.4956214E-06  0.1998905E+04  0.7818609E-02  0.8607133E-01
        2   -1    0    0  501    0  0.00000000000E+00  0.00000000000E+00  0.69430196890E+03  0.69430196891E+03  0.25500000920E-02 0.  1.
       -2   -1    0    0    0  501  0.00000000000E+00  0.00000000000E+00 -0.14387189124E+04  0.14387189125E+04  0.25500000920E-02 0. -1.
    10030    2    1    2    0    0  0.00000000000E+00  0.00000000000E+00 -0.74441694355E+03  0.21330208814E+04  0.19989050739E+04 0.  0.
        1    1    3    3  502    0  0.68043094469E+03 -0.67521425351E+03 -0.70379447894E+02  0.96117315055E+03  0.50400001928E-02 0.  1.
       -1    1    3    3    0  502 -0.68043094469E+03  0.67521425351E+03 -0.67403749565E+03  0.11718477308E+04  0.50400001928E-02 0. -1.
</event>
<event>
 5   0  0.2311520E-06  0.2001001E+04  0.7818609E-02  0.8606153E-01
       -1   -1    0    0    0  501  0.00000000000E+00  0.00000000000E+00  0.61674418617E+03  0.61674418619E+03  0.50400001928E-02 0. -1.
        1   -1    0    0  501    0  0.00000000000E+00  0.00000000000E+00 -0.16230407140E+04  0.16230407141E+04  0.50400001928E-02 0.  1.
    10030    2    1    2    0    0  0.00000000000E+00  0.00000000000E+00 -0.10062965279E+04  0.22397849002E+04  0.20010006740E+04 0.  0.
        3    1    3    3  502    0 -0.16162881464E+03 -0.73118431355E+03 -0.12458373694E+04  0.14535697903E+04  0.10100000352E+00 0.  1.
       -3    1    3    3    0  502  0.16162881464E+03  0.73118431355E+03  0.23954084153E+03  0.78621510992E+03  0.10100000352E+00 0. -1.
</event>
<event>
 5   0  0.5030137E-06  0.1999680E+04  0.7818609E-02  0.8606770E-01
       -2   -1    0    0    0  501  0.00000000000E+00  0.00000000000E+00  0.61693715810E+03  0.61693715811E+03  0.25500000920E-02 0.  1.
        2   -1    0    0  501    0  0.00000000000E+00  0.00000000000E+00 -0.16203921201E+04  0.16203921201E+04  0.25500000920E-02 0. -1.
    10030    2    1    2    0    0  0.00000000000E+00  0.00000000000E+00 -0.10034549620E+04  0.22373292782E+04  0.19996800840E+04 0.  0.
        3    1    3    3  502    0 -0.21710330321E+03  0.52781156560E+02  0.58864884769E+03  0.62962462693E+03  0.10100000352E+00 0.  1.
       -3    1    3    3    0  502  0.21710330321E+03 -0.52781156560E+02 -0.15921038096E+04  0.16077046512E+04  0.10100000352E+00 0. -1.
</event>
<event>
 5   0  0.2313821E-06  0.2000592E+04  0.7818609E-02  0.8606344E-01
       -1   -1    0    0    0  501  0.00000000000E+00  0.00000000000E+00  0.62660738213E+03  0.62660738215E+03  0.50400001928E-02 0. -1.
        1   -1    0    0  501    0  0.00000000000E+00  0.00000000000E+00 -0.15968404930E+04  0.15968404930E+04  0.50400001928E-02 0.  1.
    10030    2    1    2    0    0  0.00000000000E+00  0.00000000000E+00 -0.97023311090E+03  0.22234478752E+04  0.20005919534E+04 0.  0.
        1    1    3    3  502    0 -0.13384788168E+03 -0.18983567298E+03 -0.15664525953E+04  0.15835803016E+04  0.50400001928E-02 0.  1.
       -1    1    3    3    0  502  0.13384788168E+03  0.18983567298E+03  0.59621948440E+03  0.63986757362E+03  0.50400001928E-02 0. -1.
</event>
<event>
 5   0  0.5118981E-06  0.1999405E+04  0.7818609E-02  0.8606899E-01
        2   -1    0    0  501    0  0.00000000000E+00  0.00000000000E+00  0.16665760219E+04  0.16665760219E+04  0.25500000920E-02 0. -1.
       -2   -1    0    0    0  501  0.00000000000E+00  0.00000000000E+00 -0.59967595526E+03  0.59967595526E+03  0.25500000920E-02 0.  1.
    10030    2    1    2    0    0  0.00000000000E+00  0.00000000000E+00  0.10669000666E+04  0.22662519771E+04  0.19994054796E+04 0.  0.
        4    1    3    3  502    0  0.94866963433E+03 -0.27896750315E+03  0.36683864784E+03  0.10546891245E+04  0.12699999809E+01 0.  1.
       -4    1    3    3    0  502 -0.94866963433E+03  0.27896750315E+03  0.70006141877E+03  0.12115628526E+04  0.12699999809E+01 0. -1.
</event>
<event>
 5   0  0.5118981E-06  0.2000860E+04  0.7818609E-02  0.8606219E-01
       -2   -1    0    0    0  501  0.00000000000E+00  0.00000000000E+00  0.76145131820E+03  0.76145131821E+03  0.25500000920E-02 0. -1.
        2   -1    0    0  501    0  0.00000000000E+00  0.00000000000E+00 -0.13144111467E+04  0.13144111467E+04  0.25500000920E-02 0.  1.
    10030    2    1    2    0    0  0.00000000000E+00  0.00000000000E+00 -0.55295982853E+03  0.20758624649E+04  0.20008599155E+04 0.  0.
        4    1    3    3  502    0  0.94610153906E+03  0.32480017098E+03 -0.29305417922E+03  0.10423462180E+04  0.12699999809E+01 0. -1.
       -4    1    3    3    0  502 -0.94610153906E+03 -0.32480017098E+03 -0.25990564931E+03  0.10335162470E+04  0.12699999809E+01 0.  1.
</event>
<event>
 5   0  0.2379743E-06  0.1997094E+04  0.7818609E-02  0.8607980E-01
        1   -1    0    0  501    0  0.00000000000E+00  0.00000000000E+00  0.20103625050E+04  0.20103625050E+04  0.50400001928E-02 0.  1.
       -1   -1    0    0    0  501  0.00000000000E+00  0.00000000000E+00 -0.49597846836E+03  0.49597846839E+03  0.50400001928E-02 0. -1.
    10030    2    1    2    0    0  0.00000000000E+00  0.00000000000E+00  0.15143840366E+04  0.25063409734E+04  0.19970944055E+04 0.  0.
        5    1    3    3  502    0 -0.39495071786E+03  0.74277780231E+03  0.82092294133E+02  0.84526100578E+03  0.46999998093E+01 0. -1.
       -5    1    3    3    0  502  0.39495071786E+03 -0.74277780231E+03  0.14322917425E+04  0.16610799676E+04  0.46999998093E+01 0.  1.
</event>
<event>
 5   0  0.2311520E-06  0.1999902E+04  0.7818609E-02  0.8606666E-01
        1   -1    0    0  501    0  0.00000000000E+00  0.00000000000E+00  0.98574487348E+03  0.98574487349E+03  0.50400001928E-02 0.  1.
       -1   -1    0    0    0  501  0.00000000000E+00  0.00000000000E+00 -0.10143623442E+04  0.10143623442E+04  0.50400001928E-02 0. -1.
    10030    2    1    2    0    0  0.00000000000E+00  0.00000000000E+00 -0.28617470711E+02  0.20001072177E+04  0.19999024783E+04 0.  0.
        3    1    3    3  502    0  0.85110865539E+03 -0.24101998374E+02 -0.53870545219E+03  0.10075566605E+04  0.10100000352E+00 0. -1.
       -3    1    3    3    0  502 -0.85110865539E+03  0.24101998374E+02  0.51008798148E+03  0.99255055723E+03  0.10100000352E+00 0.  1.
</event>
<event>
 5   0  0.2386776E-06  0.2000070E+04  0.7818609E-02  0.8606588E-01
       -1   -1    0    0    0  501  0.00000000000E+00  0.00000000000E+00  0.61327126361E+03  0.61327126363E+03  0.50400001928E-02 0. -1.
        1   -1    0    0  501    0  0.00000000000E+00  0.00000000000E+00 -0.16307145894E+04  0.16307145894E+04  0.50400001928E-02 0.  1.
    10030    2    1    2    0    0  0.00000000000E+00  0.00000000000E+00 -0.10174433258E+04  0.22439858531E+04  0.20000703956E+04 0.  0.
        2    1    3    3  502    0 -0.41778441202E+03  0.36570692882E+03  0.42444756925E+03  0.69888562137E+03  0.25500000920E-02 0. -1.
       -2    1    3    3    0  502  0.41778441202E+03 -0.36570692882E+03 -0.14418908950E+04  0.15451002317E+04  0.25500000920E-02 0.  1.
</event>
<event>
 5   0  0.5118981E-06  0.2000416E+04  0.7818609E-02  0.8606426E-01
       -2   -1    0    0    0  501  0.00000000000E+00  0.00000000000E+00  0.42087667511E+03  0.42087667511E+03  0.25500000920E-02 0. -1.
        2   -1    0    0  501    0  0.00000000000E+00  0.00000000000E+00 -0.23769815132E+04  0.23769815132E+04  0.25500000920E-02 0.  1.
    10030    2    1    2    0    0  0.00000000000E+00  0.00000000000E+00 -0.19561048381E+04  0.27978581883E+04  0.20004160328E+04 0.  0.
        4    1    3    3  502    0 -0.44633700643E+03  0.56998443694E+03 -0.19433311127E+04  0.20737975813E+04  0.12699999809E+01 0.  1.
       -4    1    3    3    0  502  0.44633700643E+03 -0.56998443694E+03 -0.12773725381E+02  0.72406060701E+03  0.12699999809E+01 0. -1.
</event>
<event>
 5   0  0.2311520E-06  0.2001194E+04  0.7818609E-02  0.8606063E-01
       -1   -1    0    0    0  501  0.00000000000E+00  0.00000000000E+00  0.72269759804E+03  0.72269759806E+03  0.50400001928E-02 0. -1.
        1   -1    0    0  501    0  0.00000000000E+00  0.00000000000E+00 -0.13853576063E+04  0.13853576064E+04  0.50400001928E-02 0.  1.
    10030    2    1    2    0    0  0.00000000000E+00  0.00000000000E+00 -0.66266000831E+03  0.21080552044E+04  0.20011942580E+04 0.  0.
        3    1    3    3  502    0  0.35189233858E+03 -0.65519829471E+03  0.37380338169E+03  0.83237131240E+03  0.10100000352E+00 0. -1.
       -3    1    3    3    0  502 -0.35189233858E+03  0.65519829471E+03 -0.10364633900E+04  0.12756838920E+04  0.10100000352E+00 0.  1.
</event>
<event>
 5   0  0.5129100E-06  0.2000692E+04  0.7818609E-02  0.8606297E-01
        2   -1    0    0  501    0  0.00000000000E+00  0.00000000000E+00  0.15799810569E+04  0.15799810569E+04  0.25500000920E-02 0. -1.
       -2   -1    0    0    0  501  0.00000000000E+00  0.00000000000E+00 -0.63335672504E+03  0.63335672505E+03  0.25500000920E-02 0.  1.
    10030    2    1    2    0    0  0.00000000000E+00  0.00000000000E+00  0.94662433183E+03  0.22133377819E+04  0.20006915083E+04 0.  0.
        2    1    3    3  502    0  0.87013896135E+03  0.42404506662E+03  0.75260423184E+03  0.12261195539E+04  0.25500000920E-02 0. -1.
       -2    1    3    3    0  502 -0.87013896135E+03 -0.42404506662E+03  0.19402009999E+03  0.98721822805E+03  0.25500000920E-02 0.  1.
</event>
<event>
 5   0  0.5118981E-06  0.2001243E+04  0.7818609E-02  0.8606040E-01
        2   -1    0    0  501    0  0.00000000000E+00  0.00000000000E+00  0.10260162644E+04  0.10260162644E+04  0.25500000920E-02 0. -1.
       -2   -1    0    0    0  501  0.00000000000E+00  0.00000000000E+00 -0.97585482673E+03  0.97585482673E+03  0.25500000920E-02 0.  1.
    10030    2    1    2    0    0  0.00000000000E+00  0.00000000000E+00  0.50161437636E+02  0.20018710911E+04  0.20012425379E+04 0.  0.
        4    1    3    3  502    0  0.97960028680E+03 -0.94042945676E+02  0.20619148103E+03  0.10054736880E+04  0.12699999809E+01 0.  1.
       -4    1    3    3    0  502 -0.97960028680E+03  0.94042945676E+02 -0.15603004340E+03  0.99639740308E+03  0.12699999809E+01 0. -1.
</event>
<event>
 5   0  0.2379743E-06  0.1998653E+04  0.7818609E-02  0.8607251E-01
       -1   -1    0    0    0  501  0.00000000000E+00  0.00000000000E+00  0.95433035600E+03  0.95433035601E+03  0.50400001928E-02 0.  1.
        1   -1    0    0  501    0  0.00000000000E+00  0.00000000000E+00 -0.10464442856E+04  0.10464442856E+04  0.50400001928E-02 0. -1.
    10030    2    1    2    0    0  0.00000000000E+00  0.00000000000E+00 -0.92113929602E+02  0.20007746416E+04  0.19986530941E+04 0.  0.
        5    1    3    3  502    0 -0.33043694034E+03 -0.69612127533E+03 -0.68301694530E+03  0.10297124060E+04  0.46999998093E+01 0. -1.
       -5    1    3    3    0  502  0.33043694034E+03  0.69612127533E+03  0.59090301570E+03  0.97106223563E+03  0.46999998093E+01 0.  1.
</event>
<event>
 5   0  0.2386776E-06  0.1999603E+04  0.7818609E-02  0.8606807E-01
        1   -1    0    0  501    0  0.00000000000E+00  0.00000000000E+00  0.92226750577E+03  0.92226750578E+03  0.50400001928E-02 0. -1.
       -1   -1    0    0    0  501  0.00000000000E+00  0.00000000000E+00 -0.10838531950E+04  0.10838531950E+04  0.50400001928E-02 0.  1.
    10030    2    1    2    0    0  0.00000000000E+00  0.00000000000E+00 -0.16158568924E+03  0.20061207008E+04  0.19996025433E+04 0.  0.
        2    1    3    3  502    0  0.93812208814E+03  0.20380395647E+03  0.19939063356E+03  0.98049259542E+03  0.25500000920E-02 0.  1.
       -2    1    3    3    0  502 -0.93812208814E+03 -0.20380395647E+03 -0.36097632280E+03  0.10256281054E+04  0.25500000920E-02 0. -1.
</event>
<event>
 5   0  0.5129100E-06  0.2002130E+04  0.7818609E-02  0.8605625E-01
        2   -1    0    0  501    0  0.00000000000E+00  0.00000000000E+00  0.65227778524E+03  0.65227778524E+03  0.25500000920E-02 0. -1.
       -2   -1    0    0    0  501  0.00000000000E+00  0.00000000000E+00 -0.15363570949E+04  0.15363570949E+04  0.25500000920E-02 0.  1.
    10030    2    1    2    0    0  0.00000000000E+00  0.00000000000E+00 -0.88407930969E+03  0.21886348802E+04  0.20021304685E+04 0.  0.
        2    1    3    3  502    0  0.61176689336E+03  0.34619089941E+03  0.33711446150E+03  0.77958516585E+03  0.25500000920E-02 0. -1.
       -2    1    3    3    0  502 -0.61176689336E+03 -0.34619089941E+03 -0.12211937712E+04  0.14090497143E+04  0.25500000920E-02 0.  1.
</event>
<event>
 5   0  0.5030137E-06  0.2001064E+04  0.7818609E-02  0.8606123E-01
        2   -1    0    0  501    0  0.00000000000E+00  0.00000000000E+00  0.10036990094E+04  0.10036990094E+04  0.25500000920E-02 0.  1.
       -2   -1    0    0    0  501  0.00000000000E+00  0.00000000000E+00 -0.99737530659E+03  0.99737530659E+03  0.25500000920E-02 0. -1.
    10030    2    1    2    0    0  0.00000000000E+00  0.00000000000E+00  0.63237028333E+01  0.20010743160E+04  0.20010643241E+04 0.  0.
        3    1    3    3  502    0  0.13117064146E+03 -0.23024548136E+03  0.96797021282E+03  0.10035861009E+04  0.10100000352E+00 0.  1.
       -3    1    3    3    0  502 -0.13117064146E+03  0.23024548136E+03 -0.96164650999E+03  0.99748821509E+03  0.10100000352E+00 0. -1.
</event>
<event>
 5   0  0.5251252E-06  0.2000997E+04  0.7818609E-02  0.8606155E-01
       -2   -1    0    0    0  501  0.00000000000E+00  0.00000000000E+00  0.12767017642E+04  0.12767017642E+04  0.25500000920E-02 0. -1.
        2   -1    0    0  501    0  0.00000000000E+00  0.00000000000E+00 -0.78404901599E+03  0.78404901599E+03  0.25500000920E-02 0.  1.
    10030    2    1    2    0    0  0.00000000000E+00  0.00000000000E+00  0.49265274825E+03  0.20607507802E+04  0.20009965137E+04 0.  0.
        5    1    3    3  502    0  0.30740570749E+03 -0.79857343833E+03 -0.28757240220E+03  0.90273904419E+03  0.46999998093E+01 0.  1.
       -5    1    3    3    0  502 -0.30740570749E+03  0.79857343833E+03  0.78022515046E+03  0.11580117360E+04  0.46999998093E+01 0. -1.
</event>
<event>
 5   0  0.2386776E-06  0.1999633E+04  0.7818609E-02  0.8606792E-01
       -1   -1    0    0    0  501  0.00000000000E+00  0.00000000000E+00  0.12164244576E+04  0.12164244576E+04  0.50400001928E-02 0.  1.
        1   -1    0    0  501    0  0.00000000000E+00  0.00000000000E+00 -0.82178001971E+03  0.82178001972E+03  0.50400001928E-02 0. -1.
    10030    2    1    2    0    0  0.00000000000E+00  0.00000000000E+00  0.39464443786E+03  0.20382044773E+04  0.19996332811E+04 0.  0.
        2    1    3    3  502    0 -0.70065255711E+03  0.40594186971E+03 -0.40044589479E+03  0.90336023934E+03  0.25500000920E-02 0. -1.
       -2    1    3    3    0  502  0.70065255711E+03 -0.40594186971E+03  0.79509033265E+03  0.11348442380E+04  0.25500000920E-02 0.  1.
</event>
<event>
 5   0  0.5129100E-06  0.2002040E+04  0.7818609E-02  0.8605668E-01
       -2   -1    0    0    0  501  0.00000000000E+00  0.00000000000E+00  0.52378258058E+03  0.52378258059E+03  0.25500000920E-02 0. -1.
        2   -1    0    0  501    0  0.00000000000E+00  0.00000000000E+00 -0.19130858101E+04  0.19130858101E+04  0.25500000920E-02 0.  1.
    10030    2    1    2    0    0  0.00000000000E+00  0.00000000000E+00 -0.13893032296E+04  0.24368683907E+04  0.20020399821E+04 0.  0.
        2    1    3    3  502    0 -0.83182321211E+03  0.16388232532E+03 -0.13424608904E+04  0.15877621091E+04  0.25500000920E-02 0.  1.
       -2    1    3    3    0  502  0.83182321211E+03 -0.16388232532E+03 -0.46842339127E+02  0.84910628163E+03  0.25500000920E-02 0. -1.
</event>
<event>
 5   0  0.2386776E-06  0.2000809E+04  0.7818609E-02  0.8606242E-01
       -1   -1    0    0    0  501  0.00000000000E+00  0.00000000000E+00  0.73299199768E+03  0.73299199770E+03  0.50400001928E-02 0. -1.
        1   -1    0    0  501    0  0.00000000000E+00  0.00000000000E+00 -0.13653755401E+04  0.13653755401E+04  0.50400001928E-02 0.  1.
    10030    2    1    2    0    0  0.00000000000E+00  0.00000000000E+00 -0.63238354246E+03  0.20983675378E+04  0.20008091811E+04 0.  0.
        2    1    3    3  502    0 -0.24053824205E+03 -0.41436952573E+03  0.60483675279E+03  0.77161405331E+03  0.25500000920E-02 0. -1.
       -2    1    3    3    0  502  0.24053824205E+03  0.41436952573E+03 -0.12372202952E+04  0.13267534845E+04  0.25500000920E-02 0.  1.
</event>
<event>
 5   0  0.5251252E-06  0.2008579E+04  0.7818609E-02  0.8602620E-01
       -2   -1    0    0    0  501  0.00000000000E+00  0.00000000000E+00  0.89059308520E+03  0.89059308520E+03  0.25500000920E-02 0.  1.
        2   -1    0    0  501    0  0.00000000000E+00  0.00000000000E+00 -0.11325013431E+04  0.11325013431E+04  0.25500000920E-02 0. -1.
    10030    2    1    2    0    0  0.00000000000E+00  0.00000000000E+00 -0.24190825785E+03  0.20230944283E+04  0.20085794633E+04 0.  0.
        5    1    3    3  502    0  0.34596966505E+03  0.21018359017E+03 -0.10466734217E+04  0.11222386076E+04  0.46999998093E+01 0. -1.
       -5    1    3    3    0  502 -0.34596966505E+03 -0.21018359017E+03  0.80476516383E+03  0.90085582066E+03  0.46999998093E+01 0.  1.
</event>
<event>
 5   0  0.2313821E-06  0.2000456E+04  0.7818609E-02  0.8606407E-01
       -1   -1    0    0    0  501  0.00000000000E+00  0.00000000000E+00  0.11467964164E+04  0.11467964164E+04  0.50400001928E-02 0.  1.
        1   -1    0    0  501    0  0.00000000000E+00  0.00000000000E+00 -0.87239243772E+03  0.87239243774E+03  0.50400001928E-02 0. -1.
    10030    2    1    2    0    0  0.00000000000E+00  0.00000000000E+00  0.27440397869E+03  0.20191888542E+04  0.20004564692E+04 0.  0.
        1    1    3    3  502    0 -0.95976595976E+03 -0.19919187595E+03 -0.63730986064E+02  0.98228801253E+03  0.50400001928E-02 0. -1.
       -1    1    3    3    0  502  0.95976595976E+03  0.19919187595E+03  0.33813496475E+03  0.10369008416E+04  0.50400001928E-02 0.  1.
</event>
<event>
 5   0  0.2356996E-06  0.1999560E+04  0.7818609E-02  0.8606827E-01
        1   -1    0    0  501    0  0.00000000000E+00  0.00000000000E+00  0.13340273238E+04  0.13340273238E+04  0.50400001928E-02 0. -1.
       -1   -1    0    0    0  501  0.00000000000E+00  0.00000000000E+00 -0.74927987236E+03  0.74927987237E+03  0.50400001928E-02 0.  1.
    10030    2    1    2    0    0  0.00000000000E+00  0.00000000000E+00  0.58474745140E+03  0.20833071961E+04  0.19995597744E+04 0.  0.
        4    1    3    3  502    0 -0.68907146609E+03  0.72040328578E+03  0.37143218723E+03  0.10638439087E+04  0.12699999809E+01 0.  1.
       -4    1    3    3    0  502  0.68907146609E+03 -0.72040328578E+03  0.21331526417E+03  0.10194632874E+04  0.12699999809E+01 0. -1.
</event>
<event>
 5   0  0.2313821E-06  0.1997514E+04  0.7818609E-02  0.8607784E-01
        1   -1    0    0  501    0  0.00000000000E+00  0.00000000000E+00  0.98405629754E+03  0.98405629755E+03  0.50400001928E-02 0. -1.
       -1   -1    0    0    0  501  0.00000000000E+00  0.00000000000E+00 -0.10136772126E+04  0.10136772126E+04  0.50400001928E-02 0.  1.
    10030    2    1    2    0    0  0.00000000000E+00  0.00000000000E+00 -0.29620915015E+02  0.19977335101E+04  0.19975138995E+04 0.  0.
        1    1    3    3  502    0 -0.25081849624E+03  0.43186692099E+03 -0.87983126223E+03  0.10116926438E+04  0.50400001928E-02 0.  1.
       -1    1    3    3    0  502  0.25081849624E+03 -0.43186692099E+03  0.85021034721E+03  0.98604086631E+03  0.50400001928E-02 0. -1.
</event>
<event>
 5   0  0.5251252E-06  0.2000359E+04  0.7818609E-02  0.8606453E-01
        2   -1    0    0  501    0  0.00000000000E+00  0.00000000000E+00  0.18967333703E+04  0.18967333703E+04  0.25500000920E-02 0. -1.
       -2   -1    0    0    0  501  0.00000000000E+00  0.00000000000E+00 -0.52741128433E+03  0.52741128434E+03  0.25500000920E-02 0.  1.
    10030    2    1    2    0    0  0.00000000000E+00  0.00000000000E+00  0.13693220860E+04  0.24241446546E+04  0.20003585507E+04 0.  0.
        5    1    3    3  502    0 -0.58021948144E+01  0.58718812929E+02  0.18946089283E+04  0.18955333407E+04  0.46999998093E+01 0. -1.
       -5    1    3    3    0  502  0.58021948144E+01 -0.58718812929E+02 -0.52528684236E+03  0.52861131393E+03  0.46999998093E+01 0.  1.
</event>
<event>
 5   0  0.2379743E-06  0.1999447E+04  0.7818609E-02  0.8606879E-01
       -1   -1    0    0    0  501  0.00000000000E+00  0.00000000000E+00  0.73925814221E+03  0.73925814223E+03  0.50400001928E-02 0. -1.
        1   -1    0    0  501    0  0.00000000000E+00  0.00000000000E+00 -0.13519598584E+04  0.13519598584E+04  0.50400001928E-02 0.  1.
    10030    2    1    2    0    0  0.00000000000E+00  0.00000000000E+00 -0.61270171622E+03  0.20912180007E+04  0.19994472569E+04 0.  0.
        5    1    3    3  502    0  0.60429266362E+03  0.41590215123E+03 -0.10167004726E+04  0.12537328917E+04  0.46999998093E+01 0.  1.
       -5    1    3    3    0  502 -0.60429266362E+03 -0.41590215123E+03  0.40399875634E+03  0.83748510902E+03  0.46999998093E+01 0. -1.
</event>
<event>
 5   0  0.2311520E-06  0.1997320E+04  0.7818609E-02  0.8607874E-01
       -1   -1    0    0    0  501  0.00000000000E+00  0.00000000000E+00  0.84639110618E+03  0.84639110620E+03  0.50400001928E-02 0. -1.
        1   -1    0    0  501    0  0.00000000000E+00  0.00000000000E+00 -0.11783230938E+04  0.11783230938E+04  0.50400001928E-02 0.  1.
    10030    2    1    2    0    0  0.00000000000E+00  0.00000000000E+00 -0.33193198759E+03  0.20247142000E+04  0.19973203917E+04 0.  0.
        3    1    3    3  502    0  0.24168178679E+03 -0.94716964479E+03  0.41243347113E+02  0.97838716568E+03  0.10100000352E+00 0.  1.
       -3    1    3    3    0  502 -0.24168178679E+03  0.94716964479E+03 -0.37317533470E+03  0.10463270343E+04  0.10100000352E+00 0. -1.
</event>
<event>
 5   0  0.4956214E-06  0.2000325E+04  0.7818609E-02  0.8606469E-01
       -2   -1    0    0    0  501  0.00000000000E+00  0.00000000000E+00  0.94656641476E+03  0.94656641477E+03  0.25500000920E-02 0. -1.
        2   -1    0    0  501    0  0.00000000000E+00  0.00000000000E+00 -0.10567929675E+04  0.10567929675E+04  0.25500000920E-02 0.  1.
    10030    2    1    2    0    0  0.00000000000E+00  0.00000000000E+00 -0.11022655276E+03  0.20033593823E+04  0.20003247041E+04 0.  0.
        1    1    3    3  502    0 -0.81857763301E+03 -0.53473070206E+03 -0.26595216714E+03  0.10132802279E+04  0.50400001928E-02 0. -1.
       -1    1    3    3    0  502  0.81857763301E+03  0.53473070206E+03  0.15572561438E+03  0.99007915441E+03  0.50400001928E-02 0.  1.
</event>
<event>
 5   0  0.2311520E-06  0.1985434E+04  0.7818609E-02  0.8613461E-01
       -1   -1    0    0    0  501  0.00000000000E+00  0.00000000000E+00  0.15117152658E+04  0.15117152658E+04  0.50400001928E-02 0. -1.
        1   -1    0    0  501    0  0.00000000000E+00  0.00000000000E+00 -0.65189997285E+03  0.65189997287E+03  0.50400001928E-02 0.  1.
    10030    2    1    2    0    0  0.00000000000E+00  0.00000000000E+00  0.85981529296E+03  0.21636152387E+04  0.19854340994E+04 0.  0.
        3    1    3    3  502    0  0.27568241446E+03 -0.10855674563E+03 -0.60259362652E+03  0.67149419178E+03  0.10100000352E+00 0.  1.
       -3    1    3    3    0  502 -0.27568241446E+03  0.10855674563E+03  0.14624089195E+04  0.14921210469E+04  0.10100000352E+00 0. -1.
</event>
<event>
 5   0  0.5030137E-06  0.2000138E+04  0.7818609E-02  0.8606556E-01
       -2   -1    0    0    0  501  0.00000000000E+00  0.00000000000E+00  0.12363903450E+04  0.12363903450E+04  0.25500000920E-02 0.  1.
        2   -1    0    0  501    0  0.00000000000E+00  0.00000000000E+00 -0.80891765526E+03  0.80891765527E+03  0.25500000920E-02 0. -1.
    10030    2    1    2    0    0  0.00000000000E+00  0.00000000000E+00  0.42747268972E+03  0.20453080003E+04  0.20001379741E+04 0.  0.
        3    1    3    3  502    0 -0.33591885905E+03 -0.31001433948E+03 -0.69583861788E+03  0.83255135751E+03  0.10100000352E+00 0. -1.
       -3    1    3    3    0  502  0.33591885905E+03  0.31001433948E+03  0.11233113076E+04  0.12127566428E+04  0.10100000352E+00 0.  1.
</event>
<event>
 5   0  0.2313821E-06  0.1999781E+04  0.7818609E-02  0.8606723E-01
       -1   -1    0    0    0  501  0.00000000000E+00  0.00000000000E+00  0.77417147450E+03  0.77417147452E+03  0.50400001928E-02 0. -1.
        1   -1    0    0  501    0  0.00000000000E+00  0.00000000000E+00 -0.12914207986E+04  0.12914207986E+04  0.50400001928E-02 0.  1.
    10030    2    1    2    0    0  0.00000000000E+00  0.00000000000E+00 -0.51724932405E+03  0.20655922731E+04  0.19997811319E+04 0.  0.
        1    1    3    3  502    0  0.40402930674E+03 -0.13250526064E+03  0.67613463766E+03  0.79872108591E+03  0.50400001928E-02 0. -1.
       -1    1    3    3    0  502 -0.40402930674E+03  0.13250526064E+03 -0.11933839617E+04  0.12668711872E+04  0.50400001928E-02 0.  1.
</event>
<event>
 5   0  0.2313821E-06  0.1999850E+04  0.7818609E-02  0.8606691E-01
        1   -1    0    0  501    0  0.00000000000E+00  0.00000000000E+00  0.14980218021E+04  0.14980218021E+04  0.50400001928E-02 0.  1.
       -1   -1    0    0    0  501  0.00000000000E+00  0.00000000000E+00 -0.66744662948E+03  0.66744662950E+03  0.50400001928E-02 0. -1.
    10030    2    1    2    0    0  0.00000000000E+00  0.00000000000E+00  0.83057517265E+03  0.21654684316E+04  0.19998495971E+04 0.  0.
        1    1    3    3  502    0 -0.31355823711E+03  0.31765731851E+03 -0.55359021175E+03  0.71111677145E+03  0.50400001928E-02 0. -1.
       -1    1    3    3    0  502  0.31355823711E+03 -0.31765731851E+03  0.13841653844E+04  0.14543516602E+04  0.50400001928E-02 0.  1.
</event>
<event>
 5   0  0.4956214E-06  0.1999909E+04  0.7818609E-02  0.8606663E-01
        2   -1    0    0  501    0  0.00000000000E+00  0.00000000000E+00  0.12641491703E+04  0.12641491703E+04  0.25500000920E-02 0.  1.
       -2   -1    0    0    0  501  0.00000000000E+00  0.00000000000E+00 -0.79097426498E+03  0.79097426499E+03  0.25500000920E-02 0. -1.
    10030    2    1    2    0    0  0.00000000000E+00  0.00000000000E+00  0.47317490531E+03  0.20551234353E+04  0.19999094588E+04 0.  0.
        1    1    3    3  502    0  0.19280205012E+03  0.59794484424E+03  0.10360103881E+04  0.12116221324E+04  0.50400001928E-02 0.  1.
       -1    1    3    3    0  502 -0.19280205012E+03 -0.59794484424E+03 -0.56283548282E+03  0.84350130292E+03  0.50400001928E-02 0. -1.
</event>
<event>
 5   0  0.2311520E-06  0.1998728E+04  0.7818609E-02  0.8607216E-01
       -1   -1    0    0    0  501  0.00000000000E+00  0.00000000000E+00  0.10973781897E+04  0.10973781897E+04  0.50400001928E-02 0. -1.
        1   -1    0    0  501    0  0.00000000000E+00  0.00000000000E+00 -0.91010375707E+03  0.91010375708E+03  0.50400001928E-02 0.  1.
    10030    2    1    2    0    0  0.00000000000E+00  0.00000000000E+00  0.18727443264E+03  0.20074819468E+04  0.19987276087E+04 0.  0.
        3    1    3    3  502    0  0.97444819374E+03  0.16428340453E+03  0.24325168504E+03  0.10176982420E+04  0.10100000352E+00 0. -1.
       -3    1    3    3    0  502 -0.97444819374E+03 -0.16428340453E+03 -0.55977252400E+02  0.98978370480E+03  0.10100000352E+00 0.  1.
</event>
<event>
 5   0  0.2313821E-06  0.1998339E+04  0.7818609E-02  0.8607398E-01
       -1   -1    0    0    0  501  0.00000000000E+00  0.00000000000E+00  0.15271051931E+04  0.15271051931E+04  0.50400001928E-02 0. -1.
        1   -1    0    0  501    0  0.00000000000E+00  0.00000000000E+00 -0.65374663281E+03  0.65374663283E+03  0.50400001928E-02 0.  1.
    10030    2    1    2    0    0  0.00000000000E+00  0.00000000000E+00  0.87335856024E+03  0.21808518259E+04  0.19983391884E+04 0.  0.
        1    1    3    3  502    0  0.23957199340E+03 -0.11817335992E+03  0.14874118194E+04  0.15112093182E+04  0.50400001928E-02 0. -1.
       -1    1    3    3    0  502 -0.23957199340E+03  0.11817335992E+03 -0.61405325913E+03  0.66964250768E+03  0.50400001928E-02 0.  1.
</event>
<event>
 5   0  0.5030137E-06  0.1999619E+04  0.7818609E-02  0.8606799E-01
       -2   -1    0    0    0  501  0.00000000000E+00  0.00000000000E+00  0.94022895302E+03  0.94022895302E+03  0.25500000920E-02 0. -1.
        2   -1    0    0  501    0  0.00000000000E+00  0.00000000000E+00 -0.10631655693E+04  0.10631655693E+04  0.25500000920E-02 0.  1.
    10030    2    1    2    0    0  0.00000000000E+00  0.00000000000E+00 -0.12293661626E+03  0.20033945223E+04  0.19996190138E+04 0.  0.
        3    1    3    3  502    0 -0.74327942878E+02 -0.95312733396E+03 -0.35466857017E+03  0.10196892481E+04  0.10100000352E+00 0.  1.
       -3    1    3    3    0  502  0.74327942878E+02  0.95312733396E+03  0.23173195391E+03  0.98370527420E+03  0.10100000352E+00 0. -1.
</event>
<event>
 5   0  0.5251252E-06  0.1999283E+04  0.7818609E-02  0.8606956E-01
        2   -1    0    0  501    0  0.00000000000E+00  0.00000000000E+00  0.10985495078E+04  0.10985495078E+04  0.25500000920E-02 0.  1.
       -2   -1    0    0    0  501  0.00000000000E+00  0.00000000000E+00 -0.90963900003E+03  0.90963900003E+03  0.25500000920E-02 0. -1.
    10030    2    1    2    0    0  0.00000000000E+00  0.00000000000E+00  0.18891050777E+03  0.20081885078E+04  0.19992833474E+04 0.  0.
        5    1    3    3  502    0  0.48085296476E+03 -0.45560237452E+02  0.97354840549E+03  0.10867906407E+04  0.46999998093E+01 0.  1.
       -5    1    3    3    0  502 -0.48085296476E+03  0.45560237452E+02 -0.78463789772E+03  0.92139786710E+03  0.46999998093E+01 0. -1.
</event>
<event>
 5   0  0.5129100E-06  0.2001403E+04  0.7818609E-02  0.8605965E-01
       -2   -1    0    0    0  501  0.00000000000E+00  0.00000000000E+00  0.60375692515E+03  0.60375692516E+03  0.25500000920E-02 0.  1.
        2   -1    0    0  501    0  0.00000000000E+00  0.00000000000E+00 -0.16586195636E+04  0.16586195636E+04  0.25500000920E-02 0. -1.
    10030    2    1    2    0    0  0.00000000000E+00  0.00000000000E+00 -0.10548626384E+04  0.22623764888E+04  0.20014025559E+04 0.  0.
        2    1    3    3  502    0  0.28002298178E+03  0.59084119539E+03  0.32891089348E+03  0.73190748347E+03  0.25500000920E-02 0.  1.
       -2    1    3    3    0  502 -0.28002298178E+03 -0.59084119539E+03 -0.13837735319E+04  0.15304690053E+04  0.25500000920E-02 0. -1.
</event>
<event>
 5   0  0.5129100E-06  0.2000410E+04  0.7818609E-02  0.8606429E-01
        2   -1    0    0  501    0  0.00000000000E+00  0.00000000000E+00  0.12707610019E+04  0.12707610019E+04  0.25500000920E-02 0.  1.
       -2   -1    0    0    0  501  0.00000000000E+00  0.00000000000E+00 -0.78725276705E+03  0.78725276705E+03  0.25500000920E-02 0. -1.
    10030    2    1    2    0    0  0.00000000000E+00  0.00000000000E+00  0.48350823487E+03  0.20580137690E+04  0.20004100730E+04 0.  0.
        2    1    3    3  502    0 -0.99230651402E+03 -0.12240803417E+03  0.21350115489E+03  0.10223691543E+04  0.25500000920E-02 0.  1.
       -2    1    3    3    0  502  0.99230651402E+03  0.12240803417E+03  0.27000707998E+03  0.10356446146E+04  0.25500000920E-02 0. -1.
</event>
<event>
 5   0  0.5030137E-06  0.2000629E+04  0.7818609E-02  0.8606326E-01
       -2   -1    0    0    0  501  0.00000000000E+00  0.00000000000E+00  0.40629651604E+03  0.40629651604E+03  0.25500000920E-02 0.  1.
        2   -1    0    0  501    0  0.00000000000E+00  0.00000000000E+00 -0.24628062465E+04  0.24628062465E+04  0.25500000920E-02 0. -1.
    10030    2    1    2    0    0  0.00000000000E+00  0.00000000000E+00 -0.20565097305E+04  0.28691027626E+04  0.20006294986E+04 0.  0.
        3    1    3    3  502    0 -0.54789984005E+03 -0.82161327568E+03 -0.79975553131E+03  0.12707680865E+04  0.10100000352E+00 0. -1.
       -3    1    3    3    0  502  0.54789984005E+03  0.82161327568E+03 -0.12567541992E+04  0.15983346761E+04  0.10100000352E+00 0.  1.
</event>
<event>
 5   0  0.2386776E-06  0.2002009E+04  0.7818609E-02  0.8605682E-01
        1   -1    0    0  501    0  0.00000000000E+00  0.00000000000E+00  0.11172106958E+04  0.11172106958E+04  0.50400001928E-02 0.  1.
       -1   -1    0    0    0  501  0.00000000000E+00  0.00000000000E+00 -0.89688516265E+03  0.89688516266E+03  0.50400001928E-02 0. -1.
    10030    2    1    2    0    0  0.00000000000E+00  0.00000000000E+00  0.22032553315E+03  0.20140958585E+04  0.20020086879E+04 0.  0.
        2    1    3    3  502    0 -0.73834738433E+03  0.17157964748E+03 -0.54755288225E+03  0.93509924299E+03  0.25500000920E-02 0. -1.
       -2    1    3    3    0  502  0.73834738433E+03 -0.17157964748E+03  0.76787841540E+03  0.10789966155E+04  0.25500000920E-02 0.  1.
</event>
<event>
 5   0  0.4956214E-06  0.2000042E+04  0.7818609E-02  0.8606601E-01
        2   -1    0    0  501    0  0.00000000000E+00  0.00000000000E+00  0.12013116613E+04  0.12013116613E+04  0.25500000920E-02 0.  1.
       -2   -1    0    0    0  501  0.00000000000E+00  0.00000000000E+00 -0.83245804547E+03  0.83245804548E+03  0.25500000920E-02 0. -1.
    10030    2    1    2    0    0  0.00000000000E+00  0.00000000000E+00  0.36885361581E+03  0.20337697068E+04  0.20000415571E+04 0.  0.
        1    1    3    3  502    0 -0.33557000636E+01 -0.99281267933E+03  0.30625234702E+03  0.10389796808E+04  0.50400001928E-02 0. -1.
       -1    1    3    3    0  502  0.33557000636E+01  0.99281267933E+03  0.62601268786E+02  0.99479002600E+03  0.50400001928E-02 0.  1.
</event>
<event>
 5   0  0.2311520E-06  0.1999837E+04  0.7818609E-02  0.8606697E-01
       -1   -1    0    0    0  501  0.00000000000E+00  0.00000000000E+00  0.10907565985E+04  0.10907565985E+04  0.50400001928E-02 0.  1.
        1   -1    0    0  501    0  0.00000000000E+00  0.00000000000E+00 -0.91664510955E+03  0.91664510957E+03  0.50400001928E-02 0. -1.
    10030    2    1    2    0    0  0.00000000000E+00  0.00000000000E+00  0.17411148896E+03  0.20074017081E+04  0.19998366951E+04 0.  0.
        3    1    3    3  502    0  0.64232221305E+03  0.33468671506E+03  0.77904272965E+03  0.10637201735E+04  0.10100000352E+00 0.  1.
       -3    1    3    3    0  502 -0.64232221305E+03 -0.33468671506E+03 -0.60493124069E+03  0.94368153462E+03  0.10100000352E+00 0. -1.
</event>
<event>
 5   0  0.2311520E-06  0.1999554E+04  0.7818609E-02  0.8606829E-01
        1   -1    0    0  501    0  0.00000000000E+00  0.00000000000E+00  0.94223850414E+03  0.94223850415E+03  0.50400001928E-02 0. -1.
       -1   -1    0    0    0  501  0.00000000000E+00  0.00000000000E+00 -0.10608291373E+04  0.10608291374E+04  0.50400001928E-02 0.  1.
    10030    2    1    2    0    0  0.00000000000E+00  0.00000000000E+00 -0.11859063320E+03  0.20030676415E+04  0.19995540098E+04 0.  0.
        3    1    3    3  502    0 -0.22543235661E+03 -0.11364198392E+03  0.90978236374E+03  0.94416005396E+03  0.10100000352E+00 0. -1.
       -3    1    3    3    0  502  0.22543235661E+03  0.11364198392E+03 -0.10283729969E+04  0.10589075875E+04  0.10100000352E+00 0.  1.
</event>
<event>
 5   0  0.2356996E-06  0.2002327E+04  0.7818609E-02  0.8605534E-01
        1   -1    0    0  501    0  0.00000000000E+00  0.00000000000E+00  0.14352400297E+04  0.14352400297E+04  0.50400001928E-02 0. -1.
       -1   -1    0    0    0  501  0.00000000000E+00  0.00000000000E+00 -0.69836952045E+03  0.69836952047E+03  0.50400001928E-02 0.  1.
    10030    2    1    2    0    0  0.00000000000E+00  0.00000000000E+00  0.73687050925E+03  0.21336095502E+04  0.20023265381E+04 0.  0.
        4    1    3    3  502    0  0.86989256201E+03 -0.38243163974E+03  0.70431529391E+03  0.11828054255E+04  0.12699999809E+01 0.  1.
       -4    1    3    3    0  502 -0.86989256201E+03  0.38243163974E+03  0.32555215332E+02  0.95080412465E+03  0.12699999809E+01 0. -1.
</event>
<event>
 5   0  0.5118981E-06  0.2000106E+04  0.7818609E-02  0.8606571E-01
        2   -1    0    0  501    0  0.00000000000E+00  0.00000000000E+00  0.99650825479E+03  0.99650825479E+03  0.25500000920E-02 0.  1.
       -2   -1    0    0    0  501  0.00000000000E+00  0.00000000000E+00 -0.10036107880E+04  0.10036107880E+04  0.25500000920E-02 0. -1.
    10030    2    1    2    0    0  0.00000000000E+00  0.00000000000E+00 -0.71025331771E+01  0.20001190428E+04  0.20001064320E+04 0.  0.
        4    1    3    3  502    0 -0.81941456850E+03  0.48278019567E+03 -0.31272609559E+03  0.10011574183E+04  0.12699999809E+01 0. -1.
       -4    1    3    3    0  502  0.81941456850E+03 -0.48278019567E+03  0.30562356241E+03  0.99896162449E+03  0.12699999809E+01 0.  1.
</event>
<event>
 5   0  0.2311520E-06  0.1999361E+04  0.7818609E-02  0.8606919E-01
       -1   -1    0    0    0  501  0.00000000000E+00  0.00000000000E+00  0.65224349493E+03  0.65224349495E+03  0.50400001928E-02 0.  1.
        1   -1    0    0  501    0  0.00000000000E+00  0.00000000000E+00 -0.15321907614E+04  0.15321907614E+04  0.50400001928E-02 0. -1.
    10030    2    1    2    0    0  0.00000000000E+00  0.00000000000E+00 -0.87994726649E+03  0.21844342564E+04  0.19993613552E+04 0.  0.
        3    1    3    3  502    0  0.15175439752E+03  0.38804732978E+03  0.55285049516E+03  0.69228159553E+03  0.10100000352E+00 0.  1.
       -3    1    3    3    0  502 -0.15175439752E+03 -0.38804732978E+03 -0.14327977616E+04  0.14921526609E+04  0.10100000352E+00 0. -1.
</event>
<event>
 5   0  0.5251252E-06  0.1999407E+04  0.7818609E-02  0.8606898E-01
        2   -1    0    0  501    0  0.00000000000E+00  0.00000000000E+00  0.14137245675E+04  0.14137245675E+04  0.25500000920E-02 0. -1.
       -2   -1    0    0    0  501  0.00000000000E+00  0.00000000000E+00 -0.70693212960E+03  0.70693212961E+03  0.25500000920E-02 0.  1.
    10030    2    1    2    0    0  0.00000000000E+00  0.00000000000E+00  0.70679243792E+03  0.21206566971E+04  0.19994072314E+04 0.  0.
        5    1    3    3  502    0 -0.22785327599E+03  0.69679495052E+03 -0.36748581707E+03  0.82006599381E+03  0.46999998093E+01 0.  1.
       -5    1    3    3    0  502  0.22785327599E+03 -0.69679495052E+03  0.10742782550E+04  0.13005907033E+04  0.46999998093E+01 0. -1.
</event>
<event>
 5   0  0.2311520E-06  0.2001151E+04  0.7818609E-02  0.8606083E-01
       -1   -1    0    0    0  501  0.00000000000E+00  0.00000000000E+00  0.70102198679E+03  0.70102198681E+03  0.50400001928E-02 0.  1.
        1   -1    0    0  501    0  0.00000000000E+00  0.00000000000E+00 -0.14281313783E+04  0.14281313783E+04  0.50400001928E-02 0. -1.
    10030    2    1    2    0    0  0.00000000000E+00  0.00000000000E+00 -0.72710939149E+03  0.21291533651E+04  0.20011511649E+04 0.  0.
        3    1    3    3  502    0  0.99074940005E+01  0.24152744897E+03  0.66948713396E+03  0.71179119114E+03  0.10100000352E+00 0.  1.
       -3    1    3    3    0  502 -0.99074940005E+01 -0.24152744897E+03 -0.13965965255E+04  0.14173621740E+04  0.10100000352E+00 0. -1.
</event>
<event>
 5   0  0.4956214E-06  0.1999141E+04  0.7818609E-02  0.8607022E-01
       -2   -1    0    0    0  501  0.00000000000E+00  0.00000000000E+00  0.75015688816E+03  0.75015688816E+03  0.25500000920E-02 0.  1.
        2   -1    0    0  501    0  0.00000000000E+00  0.00000000000E+00 -0.13319099081E+04  0.13319099081E+04  0.25500000920E-02 0. -1.
    10030    2    1    2    0    0  0.00000000000E+00  0.00000000000E+00 -0.58175301994E+03  0.20820667963E+04  0.19991412076E+04 0.  0.
        1    1    3    3  502    0  0.71060161720E+01 -0.98346659157E+03 -0.10490773195E+03  0.98907161745E+03  0.50400001928E-02 0.  1.
       -1    1    3    3    0  502 -0.71060161720E+01  0.98346659157E+03 -0.47684528798E+03  0.10929951788E+04  0.50400001928E-02 0. -1.
</event>
<event>
 5   0  0.2311520E-06  0.2000002E+04  0.7818609E-02  0.8606620E-01
       -1   -1    0    0    0  501  0.00000000000E+00  0.00000000000E+00  0.82938003277E+03  0.82938003279E+03  0.50400001928E-02 0. -1.
        1   -1    0    0  501    0  0.00000000000E+00  0.00000000000E+00 -0.12057224754E+04  0.12057224754E+04  0.50400001928E-02 0.  1.
    10030    2    1    2    0    0  0.00000000000E+00  0.00000000000E+00 -0.37634244262E+03  0.20351025082E+04  0.20000021462E+04 0.  0.
        3    1    3    3  502    0 -0.50922752516E+03  0.58873966004E+03 -0.82694239916E+03  0.11356763630E+04  0.10100000352E+00 0.  1.
       -3    1    3    3    0  502  0.50922752516E+03 -0.58873966004E+03  0.45059995654E+03  0.89942614522E+03  0.10100000352E+00 0. -1.
</event>
<event>
 5   0  0.5251252E-06  0.1999704E+04  0.7818609E-02  0.8606759E-01
        2   -1    0    0  501    0  0.00000000000E+00  0.00000000000E+00  0.16392524252E+04  0.16392524252E+04  0.25500000920E-02 0.  1.
       -2   -1    0    0    0  501  0.00000000000E+00  0.00000000000E+00 -0.60985354591E+03  0.60985354592E+03  0.25500000920E-02 0. -1.
    10030    2    1    2    0    0  0.00000000000E+00  0.00000000000E+00  0.10293988792E+04  0.22491059711E+04  0.19997038822E+04 0.  0.
        5    1    3    3  502    0  0.11397155786E+03  0.98821940870E+03  0.62781456931E+03  0.11763249292E+04  0.46999998093E+01 0. -1.
       -5    1    3    3    0  502 -0.11397155786E+03 -0.98821940870E+03  0.40158430994E+03  0.10727810418E+04  0.46999998093E+01 0.  1.
</event>
<event>
 5   0  0.5030137E-06  0.2000435E+04  0.7818609E-02  0.8606417E-01
       -2   -1    0    0    0  501  0.00000000000E+00  0.00000000000E+00  0.10117565996E+04  0.10117565997E+04  0.25500000920E-02 0. -1.
        2   -1    0    0  501    0  0.00000000000E+00  0.00000000000E+00 -0.98881034245E+03  0.98881034246E+03  0.25500000920E-02 0.  1.
    10030    2    1    2    0    0  0.00000000000E+00  0.00000000000E+00  0.22946257195E+02  0.20005669421E+04  0.20004353424E+04 0.  0.
        3    1    3    3  502    0  0.43438560825E+02 -0.23652599020E+03  0.98241491391E+03  0.10114200541E+04  0.10100000352E+00 0. -1.
       -3    1    3    3    0  502 -0.43438560825E+02  0.23652599020E+03 -0.95946865671E+03  0.98914688799E+03  0.10100000352E+00 0.  1.
</event>
<event>
 5   0  0.5030137E-06  0.1999939E+04  0.7818609E-02  0.8606649E-01
       -2   -1    0    0    0  501  0.00000000000E+00  0.00000000000E+00  0.86055550247E+03  0.86055550248E+03  0.25500000920E-02 0.  1.
        2   -1    0    0  501    0  0.00000000000E+00  0.00000000000E+00 -0.11619689296E+04  0.11619689296E+04  0.25500000920E-02 0. -1.
    10030    2    1    2    0    0  0.00000000000E+00  0.00000000000E+00 -0.30141342715E+03  0.20225244321E+04  0.19999387552E+04 0.  0.
        3    1    3    3  502    0 -0.26959725837E+03  0.30187947739E+03 -0.10754318107E+04  0.11490724478E+04  0.10100000352E+00 0. -1.
       -3    1    3    3    0  502  0.26959725837E+03 -0.30187947739E+03  0.77401838356E+03  0.87345198431E+03  0.10100000352E+00 0.  1.
</event>
<event>
 5   0  0.2313821E-06  0.1999849E+04  0.7818609E-02  0.8606691E-01
        1   -1    0    0  501    0  0.00000000000E+00  0.00000000000E+00  0.14416742957E+04  0.14416742957E+04  0.50400001928E-02 0.  1.
       -1   -1    0    0    0  501  0.00000000000E+00  0.00000000000E+00 -0.69353322151E+03  0.69353322153E+03  0.50400001928E-02 0. -1.
    10030    2    1    2    0    0  0.00000000000E+00  0.00000000000E+00  0.74814107419E+03  0.21352075172E+04  0.19998490130E+04 0.  0.
        1    1    3    3  502    0  0.91364041654E+03  0.60729179919E+01 -0.59721259409E+02  0.91561035377E+03  0.50400001928E-02 0. -1.
       -1    1    3    3    0  502 -0.91364041654E+03 -0.60729179919E+01  0.80786233360E+03  0.12195971635E+04  0.50400001928E-02 0.  1.
</event>
<event>
 5   0  0.2356996E-06  0.1999557E+04  0.7818609E-02  0.8606828E-01
       -1   -1    0    0    0  501  0.00000000000E+00  0.00000000000E+00  0.56959639046E+03  0.56959639048E+03  0.50400001928E-02 0.  1.
        1   -1    0    0  501    0  0.00000000000E+00  0.00000000000E+00 -0.17548522228E+04  0.17548522228E+04  0.50400001928E-02 0. -1.
    10030    2    1    2    0    0  0.00000000000E+00  0.00000000000E+00 -0.11852558323E+04  0.23244486133E+04  0.19995574429E+04 0.  0.
        4    1    3    3  502    0  0.65519329462E+03 -0.71572573726E+03 -0.87262504184E+03  0.13049971881E+04  0.12699999809E+01 0. -1.
       -4    1    3    3    0  502 -0.65519329462E+03  0.71572573726E+03 -0.31263079048E+03  0.10194514252E+04  0.12699999809E+01 0.  1.
</event>
<event>
 5   0  0.2313821E-06  0.2000167E+04  0.7818609E-02  0.8606543E-01
       -1   -1    0    0    0  501  0.00000000000E+00  0.00000000000E+00  0.17253629585E+04  0.17253629585E+04  0.50400001928E-02 0. -1.
        1   -1    0    0  501    0  0.00000000000E+00  0.00000000000E+00 -0.57968497279E+03  0.57968497282E+03  0.50400001928E-02 0.  1.
    10030    2    1    2    0    0  0.00000000000E+00  0.00000000000E+00  0.11456779857E+04  0.23050479313E+04  0.20001669727E+04 0.  0.
        1    1    3    3  502    0 -0.32206481159E+03  0.79716677633E+03 -0.15877196734E+02  0.85991435478E+03  0.50400001928E-02 0. -1.
       -1    1    3    3    0  502  0.32206481159E+03 -0.79716677633E+03  0.11615551824E+04  0.14451335765E+04  0.50400001928E-02 0.  1.
</event>
<event>
 5   0  0.1777750E-06  0.1999783E+04  0.7818609E-02  0.8606722E-01
       -3   -1    0    0    0  501  0.00000000000E+00  0.00000000000E+00  0.80865995028E+03  0.80865995659E+03  0.10100000352E+00 0. -1.
        3   -1    0    0  501    0  0.00000000000E+00  0.00000000000E+00 -0.12363452139E+04  0.12363452180E+04  0.10100000352E+00 0.  1.
    10030    2    1    2    0    0  0.00000000000E+00  0.00000000000E+00 -0.42768526361E+03  0.20450051746E+04  0.19997828581E+04 0.  0.
        4    1    3    3  502    0  0.33596273131E+03 -0.30588108145E+03 -0.11246849069E+04  0.12129929701E+04  0.12699999809E+01 0.  1.
       -4    1    3    3    0  502 -0.33596273131E+03  0.30588108145E+03  0.69699964328E+03  0.83201220451E+03  0.12699999809E+01 0. -1.
</event>
<event>
 5   0  0.2379743E-06  0.1999798E+04  0.7818609E-02  0.8606715E-01
       -1   -1    0    0    0  501  0.00000000000E+00  0.00000000000E+00  0.10401240384E+04  0.10401240384E+04  0.50400001928E-02 0.  1.
        1   -1    0    0  501    0  0.00000000000E+00  0.00000000000E+00 -0.96122980969E+03  0.96122980971E+03  0.50400001928E-02 0. -1.
    10030    2    1    2    0    0  0.00000000000E+00  0.00000000000E+00  0.78894228742E+02  0.20013538482E+04  0.19997982214E+04 0.  0.
        5    1    3    3  502    0  0.90757135718E+02 -0.50020936243E+03  0.90112203867E+03  0.10346445199E+04  0.46999998093E+01 0.  1.
       -5    1    3    3    0  502 -0.90757135718E+02  0.50020936243E+03 -0.82222780993E+03  0.96670932827E+03  0.46999998093E+01 0. -1.
</event>
<event>
 5   0  0.2356996E-06  0.1999936E+04  0.7818609E-02  0.8606650E-01
        1   -1    0    0  501    0  0.00000000000E+00  0.00000000000E+00  0.20985588997E+04  0.20985588997E+04  0.50400001928E-02 0.  1.
       -1   -1    0    0    0  501  0.00000000000E+00  0.00000000000E+00 -0.47648709900E+03  0.47648709903E+03  0.50400001928E-02 0. -1.
    10030    2    1    2    0    0  0.00000000000E+00  0.00000000000E+00  0.16220718007E+04  0.25750459987E+04  0.19999362412E+04 0.  0.
        4    1    3    3  502    0  0.95122662460E+03  0.28338337164E+03  0.65441601127E+03  0.11888650703E+04  0.12699999809E+01 0.  1.
       -4    1    3    3    0  502 -0.95122662460E+03 -0.28338337164E+03  0.96765578943E+03  0.13861809284E+04  0.12699999809E+01 0. -1.
</event>
<event>
 5   0  0.2386776E-06  0.1999970E+04  0.7818609E-02  0.8606634E-01
       -1   -1    0    0    0  501  0.00000000000E+00  0.00000000000E+00  0.79927684125E+03  0.79927684127E+03  0.50400001928E-02 0. -1.
        1   -1    0    0  501    0  0.00000000000E+00  0.00000000000E+00 -0.12510940187E+04  0.12510940187E+04  0.50400001928E-02 0.  1.
    10030    2    1    2    0    0  0.00000000000E+00  0.00000000000E+00 -0.45181717741E+03  0.20503708599E+04  0.19999704752E+04 0.  0.
        2    1    3    3  502    0  0.70086045030E+03  0.67758337739E+03 -0.45433715025E+03  0.10755216642E+04  0.25500000920E-02 0. -1.
       -2    1    3    3    0  502 -0.70086045030E+03 -0.67758337739E+03  0.25199728402E+01  0.97484919572E+03  0.25500000920E-02 0.  1.
</event>
<event>
 5   0  0.5129100E-06  0.1998435E+04  0.7818609E-02  0.8607353E-01
       -2   -1    0    0    0  501  0.00000000000E+00  0.00000000000E+00  0.10461741596E+04  0.10461741596E+04  0.25500000920E-02 0. -1.
        2   -1    0    0  501    0  0.00000000000E+00  0.00000000000E+00 -0.95436858311E+03  0.95436858312E+03  0.25500000920E-02 0.  1.
    10030    2    1    2    0    0  0.00000000000E+00  0.00000000000E+00  0.91805576465E+02  0.20005427427E+04  0.19984351382E+04 0.  0.
        2    1    3    3  502    0  0.55260613311E+03  0.81463591963E+03 -0.12583142411E+03  0.99239043083E+03  0.25500000920E-02 0.  1.
       -2    1    3    3    0  502 -0.55260613311E+03 -0.81463591963E+03  0.21763700057E+03  0.10081523119E+04  0.25500000920E-02 0. -1.
</event>
<event>
 5   0  0.2379743E-06  0.2000382E+04  0.7818609E-02  0.8606442E-01
        1   -1    0    0  501    0  0.00000000000E+00  0.00000000000E+00  0.10079157311E+04  0.10079157311E+04  0.50400001928E-02 0. -1.
       -1   -1    0    0    0  501  0.00000000000E+00  0.00000000000E+00 -0.99252513452E+03  0.99252513453E+03  0.50400001928E-02 0.  1.
    10030    2    1    2    0    0  0.00000000000E+00  0.00000000000E+00  0.15390596612E+02  0.20004408657E+04  0.20003816602E+04 0.  0.
        5    1    3    3  502    0 -0.51611245179E+03  0.79331890657E+02 -0.84537976917E+03  0.99365721247E+03  0.46999998093E+01 0.  1.
       -5    1    3    3    0  502  0.51611245179E+03 -0.79331890657E+02  0.86077036578E+03  0.10067836532E+04  0.46999998093E+01 0. -1.
</event>
<event>
 5   0  0.2311520E-06  0.2000641E+04  0.7818609E-02  0.8606321E-01
        1   -1    0    0  501    0  0.00000000000E+00  0.00000000000E+00  0.15315392535E+04  0.15315392535E+04  0.50400001928E-02 0.  1.
       -1   -1    0    0    0  501  0.00000000000E+00  0.00000000000E+00 -0.65335662902E+03  0.65335662904E+03  0.50400001928E-02 0. -1.
    10030    2    1    2    0    0  0.00000000000E+00  0.00000000000E+00  0.87818262450E+03  0.21848958826E+04  0.20006412211E+04 0.  0.
        3    1    3    3  502    0  0.13650085117E+03 -0.67649676581E+03 -0.35172698175E+03  0.77459165785E+03  0.10100000352E+00 0. -1.
       -3    1    3    3    0  502 -0.13650085117E+03  0.67649676581E+03  0.12299096062E+04  0.14103042247E+04  0.10100000352E+00 0.  1.
</event>
<event>
 5   0  0.5129100E-06  0.2000627E+04  0.7818609E-02  0.8606328E-01
        2   -1    0    0  501    0  0.00000000000E+00  0.00000000000E+00  0.52290881997E+03  0.52290881998E+03  0.25500000920E-02 0. -1.
       -2   -1    0    0    0  501  0.00000000000E+00  0.00000000000E+00 -0.19135776548E+04  0.19135776548E+04  0.25500000920E-02 0.  1.
    10030    2    1    2    0    0  0.00000000000E+00  0.00000000000E+00 -0.13906688348E+04  0.24364864747E+04  0.20006265352E+04 0.  0.
        2    1    3    3  502    0 -0.13703378325E+03  0.97448440343E+01  0.51136524201E+03  0.52949752641E+03  0.25500000920E-02 0. -1.
       -2    1    3    3    0  502  0.13703378325E+03 -0.97448440343E+01 -0.19020340768E+04  0.19069889483E+04  0.25500000920E-02 0.  1.
</event>
<event>
 5   0  0.2386776E-06  0.2000189E+04  0.7818609E-02  0.8606532E-01
       -1   -1    0    0    0  501  0.00000000000E+00  0.00000000000E+00  0.48044074823E+03  0.48044074826E+03  0.50400001928E-02 0. -1.
        1   -1    0    0  501    0  0.00000000000E+00  0.00000000000E+00 -0.20818155731E+04  0.20818155731E+04  0.50400001928E-02 0.  1.
    10030    2    1    2    0    0  0.00000000000E+00  0.00000000000E+00 -0.16013748249E+04  0.25622563214E+04  0.20001890227E+04 0.  0.
        2    1    3    3  502    0 -0.50541329725E+03  0.59507983468E+03 -0.16013183005E+04  0.17815114118E+04  0.25500000920E-02 0.  1.
       -2    1    3    3    0  502  0.50541329725E+03 -0.59507983468E+03 -0.56524371466E-01  0.78074490962E+03  0.25500000920E-02 0. -1.
</event>
<event>
 5   0  0.2379743E-06  0.2004482E+04  0.7818609E-02  0.8604528E-01
       -1   -1    0    0    0  501  0.00000000000E+00  0.00000000000E+00  0.42825303485E+03  0.42825303488E+03  0.50400001928E-02 0.  1.
        1   -1    0    0  501    0  0.00000000000E+00  0.00000000000E+00 -0.23455458002E+04  0.23455458002E+04  0.50400001928E-02 0. -1.
    10030    2    1    2    0    0  0.00000000000E+00  0.00000000000E+00 -0.19172927654E+04  0.27737988351E+04  0.20044820851E+04 0.  0.
        5    1    3    3  502    0 -0.46407000788E+03  0.73429271993E+03 -0.16504323766E+04  0.18650726234E+04  0.46999998093E+01 0. -1.
       -5    1    3    3    0  502  0.46407000788E+03 -0.73429271993E+03 -0.26686038874E+03  0.90872621170E+03  0.46999998093E+01 0.  1.
</event>
<event>
 5   0  0.4956214E-06  0.1999395E+04  0.7818609E-02  0.8606903E-01
        2   -1    0    0  501    0  0.00000000000E+00  0.00000000000E+00  0.98421618965E+03  0.98421618966E+03  0.25500000920E-02 0.  1.
       -2   -1    0    0    0  501  0.00000000000E+00  0.00000000000E+00 -0.10154224922E+04  0.10154224922E+04  0.25500000920E-02 0. -1.
    10030    2    1    2    0    0  0.00000000000E+00  0.00000000000E+00 -0.31206302569E+02  0.19996386819E+04  0.19993951647E+04 0.  0.
        1    1    3    3  502    0  0.67626489554E+03  0.45101258823E+03 -0.59760932756E+03  0.10089021122E+04  0.50400001928E-02 0. -1.
       -1    1    3    3    0  502 -0.67626489554E+03 -0.45101258823E+03  0.56640302499E+03  0.99073656964E+03  0.50400001928E-02 0.  1.
</event>
<event>
 5   0  0.5129100E-06  0.1998000E+04  0.7818609E-02  0.8607556E-01
       -2   -1    0    0    0  501  0.00000000000E+00  0.00000000000E+00  0.77231747133E+03  0.77231747133E+03  0.25500000920E-02 0.  1.
        2   -1    0    0  501    0  0.00000000000E+00  0.00000000000E+00 -0.12922158759E+04  0.12922158759E+04  0.25500000920E-02 0. -1.
    10030    2    1    2    0    0  0.00000000000E+00  0.00000000000E+00 -0.51989840461E+03  0.20645333473E+04  0.19979998976E+04 0.  0.
        2    1    3    3  502    0  0.41735251038E+03 -0.54441204332E+03 -0.10103792521E+04  0.12212427375E+04  0.25500000920E-02 0. -1.
       -2    1    3    3    0  502 -0.41735251038E+03  0.54441204332E+03  0.49048084746E+03  0.84329060979E+03  0.25500000920E-02 0.  1.
</event>
<event>
 5   0  0.5118981E-06  0.1999527E+04  0.7818609E-02  0.8606842E-01
        2   -1    0    0  501    0  0.00000000000E+00  0.00000000000E+00  0.20617628380E+04  0.20617628380E+04  0.25500000920E-02 0. -1.
       -2   -1    0    0    0  501  0.00000000000E+00  0.00000000000E+00 -0.48479246264E+03  0.48479246265E+03  0.25500000920E-02 0.  1.
    10030    2    1    2    0    0  0.00000000000E+00  0.00000000000E+00  0.15769703754E+04  0.25465553007E+04  0.19995270277E+04 0.  0.
        4    1    3    3  502    0  0.56135633462E+03  0.59720248247E+03  0.15176062686E+04  0.17247904623E+04  0.12699999809E+01 0. -1.
       -4    1    3    3    0  502 -0.56135633462E+03 -0.59720248247E+03  0.59364106774E+02  0.82176483835E+03  0.12699999809E+01 0.  1.
</event>
<event>
 5   0  0.5251252E-06  0.2000845E+04  0.7818609E-02  0.8606226E-01
        2   -1    0    0  501    0  0.00000000000E+00  0.00000000000E+00  0.98432763305E+03  0.98432763305E+03  0.25500000920E-02 0.  1.
       -2   -1    0    0    0  501  0.00000000000E+00  0.00000000000E+00 -0.10167805957E+04  0.10167805957E+04  0.25500000920E-02 0. -1.
    10030    2    1    2    0    0  0.00000000000E+00  0.00000000000E+00 -0.32452962634E+02  0.20011082287E+04  0.20008450586E+04 0.  0.
        5    1    3    3  502    0 -0.69373188522E+03  0.71077062691E+03  0.10364058406E+03  0.99861017084E+03  0.46999998093E+01 0.  1.
       -5    1    3    3    0  502  0.69373188522E+03 -0.71077062691E+03 -0.13609354669E+03  0.10024980579E+04  0.46999998093E+01 0. -1.
</event>
<event>
 5   0  0.5118981E-06  0.2000224E+04  0.7818609E-02  0.8606516E-01
       -2   -1    0    0    0  501  0.00000000000E+00  0.00000000000E+00  0.66666622995E+03  0.66666622995E+03  0.25500000920E-02 0. -1.
        2   -1    0    0  501    0  0.00000000000E+00  0.00000000000E+00 -0.15003375344E+04  0.15003375344E+04  0.25500000920E-02 0.  1.
    10030    2    1    2    0    0  0.00000000000E+00  0.00000000000E+00 -0.83367130446E+03  0.21670037644E+04  0.20002243551E+04 0.  0.
        4    1    3    3  502    0 -0.90775510009E+03 -0.12838856342E+03  0.16136881373E+02  0.91693236217E+03  0.12699999809E+01 0. -1.
       -4    1    3    3    0  502  0.90775510009E+03  0.12838856342E+03 -0.84980818583E+03  0.12500714022E+04  0.12699999809E+01 0.  1.
</event>
<event>
 5   0  0.4956214E-06  0.2000868E+04  0.7818609E-02  0.8606215E-01
        2   -1    0    0  501    0  0.00000000000E+00  0.00000000000E+00  0.17306480349E+04  0.17306480349E+04  0.25500000920E-02 0.  1.
       -2   -1    0    0    0  501  0.00000000000E+00  0.00000000000E+00 -0.57832012755E+03  0.57832012756E+03  0.25500000920E-02 0. -1.
    10030    2    1    2    0    0  0.00000000000E+00  0.00000000000E+00  0.11523279074E+04  0.23089681625E+04  0.20008684038E+04 0.  0.
        1    1    3    3  502    0  0.71915960863E+03  0.38412499473E+03  0.12452015086E+04  0.14883780942E+04  0.50400001928E-02 0.  1.
       -1    1    3    3    0  502 -0.71915960863E+03 -0.38412499473E+03 -0.92873601264E+02  0.82059006825E+03  0.50400001928E-02 0. -1.
</event>
<event>
 5   0  0.2356996E-06  0.2000548E+04  0.7818609E-02  0.8606365E-01
       -1   -1    0    0    0  501  0.00000000000E+00  0.00000000000E+00  0.13420333001E+04  0.13420333001E+04  0.50400001928E-02 0.  1.
        1   -1    0    0  501    0  0.00000000000E+00  0.00000000000E+00 -0.74554635202E+03  0.74554635204E+03  0.50400001928E-02 0. -1.
    10030    2    1    2    0    0  0.00000000000E+00  0.00000000000E+00  0.59648694803E+03  0.20875796521E+04  0.20005479561E+04 0.  0.
        4    1    3    3  502    0  0.69843009805E+03 -0.28055696916E+03 -0.38922654740E+03  0.84735809013E+03  0.12699999809E+01 0. -1.
       -4    1    3    3    0  502 -0.69843009805E+03  0.28055696916E+03  0.98571349543E+03  0.12402215620E+04  0.12699999809E+01 0.  1.
</event>
<event>
 5   0  0.5129100E-06  0.2002841E+04  0.7818609E-02  0.8605294E-01
       -2   -1    0    0    0  501  0.00000000000E+00  0.00000000000E+00  0.53092553006E+03  0.53092553006E+03  0.25500000920E-02 0.  1.
        2   -1    0    0  501    0  0.00000000000E+00  0.00000000000E+00 -0.18888581844E+04  0.18888581844E+04  0.25500000920E-02 0. -1.
    10030    2    1    2    0    0  0.00000000000E+00  0.00000000000E+00 -0.13579326543E+04  0.24197837145E+04  0.20028410149E+04 0.  0.
        2    1    3    3  502    0  0.33381710633E+03  0.81635065472E+03 -0.10590278099E+03  0.88830042833E+03  0.25500000920E-02 0.  1.
       -2    1    3    3    0  502 -0.33381710633E+03 -0.81635065472E+03 -0.12520298734E+04  0.15314832861E+04  0.25500000920E-02 0. -1.
</event>
<event>
 5   0  0.5030137E-06  0.1999337E+04  0.7818609E-02  0.8606931E-01
        2   -1    0    0  501    0  0.00000000000E+00  0.00000000000E+00  0.13262807260E+04  0.13262807260E+04  0.25500000920E-02 0. -1.
       -2   -1    0    0    0  501  0.00000000000E+00  0.00000000000E+00 -0.75348801690E+03  0.75348801691E+03  0.25500000920E-02 0.  1.
    10030    2    1    2    0    0  0.00000000000E+00  0.00000000000E+00  0.57279270913E+03  0.20797687429E+04  0.19993365241E+04 0.  0.
        3    1    3    3  502    0  0.29837055097E+03 -0.51178630855E+02 -0.70466032579E+03  0.76693573582E+03  0.10100000352E+00 0.  1.
       -3    1    3    3    0  502 -0.29837055097E+03  0.51178630855E+02  0.12774530349E+04  0.13128330071E+04  0.10100000352E+00 0. -1.
</event>
<event>
 5   0  0.2386776E-06  0.1997291E+04  0.7818609E-02  0.8607888E-01
        1   -1    0    0  501    0  0.00000000000E+00  0.00000000000E+00  0.10355589989E+04  0.10355589989E+04  0.50400001928E-02 0.  1.
       -1   -1    0    0    0  501  0.00000000000E+00  0.00000000000E+00 -0.96304817032E+03  0.96304817033E+03  0.50400001928E-02 0. -1.
    10030    2    1    2    0    0  0.00000000000E+00  0.00000000000E+00  0.72510828595E+02  0.19986071693E+04  0.19972913650E+04 0.  0.
        2    1    3    3  502    0 -0.22002626213E+02  0.53577428713E+03 -0.80676918206E+03  0.96871807841E+03  0.25500000920E-02 0. -1.
       -2    1    3    3    0  502  0.22002626213E+02 -0.53577428713E+03  0.87928001065E+03  0.10298890908E+04  0.25500000920E-02 0.  1.
</event>
<event>
 5   0  0.4956214E-06  0.2000465E+04  0.7818609E-02  0.8606403E-01
        2   -1    0    0  501    0  0.00000000000E+00  0.00000000000E+00  0.96640535368E+03  0.96640535368E+03  0.25500000920E-02 0. -1.
       -2   -1    0    0    0  501  0.00000000000E+00  0.00000000000E+00 -0.10352439647E+04  0.10352439648E+04  0.25500000920E-02 0.  1.
    10030    2    1    2    0    0  0.00000000000E+00  0.00000000000E+00 -0.68838611067E+02  0.20016493184E+04  0.20004652558E+04 0.  0.
        1    1    3    3  502    0 -0.64261116569E+03  0.29705451022E+03 -0.74143134761E+03  0.10251394713E+04  0.50400001928E-02 0.  1.
       -1    1    3    3    0  502  0.64261116569E+03 -0.29705451022E+03  0.67259273655E+03  0.97650984716E+03  0.50400001928E-02 0. -1.
</event>
<event>
 5   0  0.2313821E-06  0.2000127E+04  0.7818609E-02  0.8606561E-01
       -1   -1    0    0    0  501  0.00000000000E+00  0.00000000000E+00  0.68008048737E+03  0.68008048739E+03  0.50400001928E-02 0. -1.
        1   -1    0    0  501    0  0.00000000000E+00  0.00000000000E+00 -0.14706010132E+04  0.14706010132E+04  0.50400001928E-02 0.  1.
    10030    2    1    2    0    0  0.00000000000E+00  0.00000000000E+00 -0.79052052585E+03  0.21506815006E+04  0.20001270498E+04 0.  0.
        1    1    3    3  502    0 -0.14288955914E+03  0.22056161312E+02  0.66878316349E+03  0.68423301598E+03  0.50400001928E-02 0. -1.
       -1    1    3    3    0  502  0.14288955914E+03 -0.22056161312E+02 -0.14593036893E+04  0.14664484846E+04  0.50400001928E-02 0.  1.
</event>
<event>
 5   0  0.5129100E-06  0.2002057E+04  0.7818609E-02  0.8605659E-01
       -2   -1    0    0    0  501  0.00000000000E+00  0.00000000000E+00  0.70364879543E+03  0.70364879543E+03  0.25500000920E-02 0. -1.
        2   -1    0    0  501    0  0.00000000000E+00  0.00000000000E+00 -0.14240890299E+04  0.14240890299E+04  0.25500000920E-02 0.  1.
    10030    2    1    2    0    0  0.00000000000E+00  0.00000000000E+00 -0.72044023449E+03  0.21277378254E+04  0.20020574722E+04 0.  0.
        2    1    3    3  502    0  0.25574680452E+03 -0.95201973511E+02 -0.13837942342E+04  0.14104454354E+04  0.25500000920E-02 0.  1.
       -2    1    3    3    0  502 -0.25574680452E+03  0.95201973511E+02  0.66335399967E+03  0.71729238994E+03  0.25500000920E-02 0. -1.
</event>
<event>
 5   0  0.2379743E-06  0.1999725E+04  0.7818609E-02  0.8606749E-01
       -1   -1    0    0    0  501  0.00000000000E+00  0.00000000000E+00  0.82292707204E+03  0.82292707206E+03  0.50400001928E-02 0.  1.
        1   -1    0    0  501    0  0.00000000000E+00  0.00000000000E+00 -0.12148407732E+04  0.12148407733E+04  0.50400001928E-02 0. -1.
    10030    2    1    2    0    0  0.00000000000E+00  0.00000000000E+00 -0.39191370120E+03  0.20377678453E+04  0.19997253417E+04 0.  0.
        5    1    3    3  502    0 -0.42063308983E+03  0.80709140662E+03  0.22589261213E+03  0.93775172467E+03  0.46999998093E+01 0.  1.
       -5    1    3    3    0  502  0.42063308983E+03 -0.80709140662E+03 -0.61780631333E+03  0.11000161207E+04  0.46999998093E+01 0. -1.
</event>
<event>
 5   0  0.5251252E-06  0.2000739E+04  0.7818609E-02  0.8606275E-01
        2   -1    0    0  501    0  0.00000000000E+00  0.00000000000E+00  0.96186335218E+03  0.96186335218E+03  0.25500000920E-02 0.  1.
       -2   -1    0    0    0  501  0.00000000000E+00  0.00000000000E+00 -0.10404167878E+04  0.10404167878E+04  0.25500000920E-02 0. -1.
    10030    2    1    2    0    0  0.00000000000E+00  0.00000000000E+00 -0.78553435609E+02  0.20022801400E+04  0.20007386428E+04 0.  0.
        5    1    3    3  502    0 -0.87927495658E+03 -0.22964356608E+03  0.37920340943E+03  0.98472226157E+03  0.46999998093E+01 0.  1.
       -5    1    3    3    0  502  0.87927495658E+03  0.22964356608E+03 -0.45775684503E+03  0.10175578784E+04  0.46999998093E+01 0. -1.
</event>
<event>
 5   0  0.2356996E-06  0.1999304E+04  0.7818609E-02  0.8606946E-01
       -1   -1    0    0    0  501  0.00000000000E+00  0.00000000000E+00  0.71619343763E+03  0.71619343764E+03  0.50400001928E-02 0. -1.
        1   -1    0    0  501    0  0.00000000000E+00  0.00000000000E+00 -0.13952997705E+04  0.13952997705E+04  0.50400001928E-02 0.  1.
    10030    2    1    2    0    0  0.00000000000E+00  0.00000000000E+00 -0.67910633285E+03  0.21114932081E+04  0.19993044182E+04 0.  0.
        4    1    3    3  502    0 -0.11207419223E+03 -0.48343961132E+03  0.57691303589E+03  0.76098932072E+03  0.12699999809E+01 0. -1.
       -4    1    3    3    0  502  0.11207419223E+03  0.48343961132E+03 -0.12560193687E+04  0.13505038874E+04  0.12699999809E+01 0.  1.
</event>
<event>
 5   0  0.5118981E-06  0.2000601E+04  0.7818609E-02  0.8606340E-01
        2   -1    0    0  501    0  0.00000000000E+00  0.00000000000E+00  0.14265744576E+04  0.14265744576E+04  0.25500000920E-02 0.  1.
       -2   -1    0    0    0  501  0.00000000000E+00  0.00000000000E+00 -0.70140096695E+03  0.70140096696E+03  0.25500000920E-02 0. -1.
    10030    2    1    2    0    0  0.00000000000E+00  0.00000000000E+00  0.72517349063E+03  0.21279754245E+04  0.20006006138E+04 0.  0.
        4    1    3    3  502    0 -0.17220501944E+03 -0.82887695304E+03 -0.20416733790E+03  0.87084871634E+03  0.12699999809E+01 0. -1.
       -4    1    3    3    0  502  0.17220501944E+03  0.82887695304E+03  0.92934082853E+03  0.12571267082E+04  0.12699999809E+01 0.  1.
</event>
<event>
 5   0  0.2313821E-06  0.1998821E+04  0.7818609E-02  0.8607172E-01
       -1   -1    0    0    0  501  0.00000000000E+00  0.00000000000E+00  0.11740671677E+04  0.11740671677E+04  0.50400001928E-02 0.  1.
        1   -1    0    0  501    0  0.00000000000E+00  0.00000000000E+00 -0.85073621614E+03  0.85073621615E+03  0.50400001928E-02 0. -1.
    10030    2    1    2    0    0  0.00000000000E+00  0.00000000000E+00  0.32333095151E+03  0.20248033838E+04  0.19988211123E+04 0.  0.
        1    1    3    3  502    0 -0.19597650453E+03  0.36042491038E+03 -0.76150304023E+03  0.86498542568E+03  0.50400001928E-02 0. -1.
       -1    1    3    3    0  502  0.19597650453E+03 -0.36042491038E+03  0.10848339917E+04  0.11598179581E+04  0.50400001928E-02 0.  1.
</event>
<event>
 5   0  0.4956214E-06  0.1991461E+04  0.7818609E-02  0.8610623E-01
        2   -1    0    0  501    0  0.00000000000E+00  0.00000000000E+00  0.99393691134E+03  0.99393691135E+03  0.25500000920E-02 0. -1.
       -2   -1    0    0    0  501  0.00000000000E+00  0.00000000000E+00 -0.99752703102E+03  0.99752703102E+03  0.25500000920E-02 0.  1.
    10030    2    1    2    0    0  0.00000000000E+00  0.00000000000E+00 -0.35901196732E+01  0.19914639424E+04  0.19914607063E+04 0.  0.
        1    1    3    3  502    0  0.59376788744E+03  0.46165209891E+03 -0.65432655747E+03  0.99690832498E+03  0.50400001928E-02 0.  1.
       -1    1    3    3    0  502 -0.59376788744E+03 -0.46165209891E+03  0.65073643780E+03  0.99455561739E+03  0.50400001928E-02 0. -1.
</event>
<event>
 5   0  0.2356996E-06  0.1999769E+04  0.7818609E-02  0.8606728E-01
        1   -1    0    0  501    0  0.00000000000E+00  0.00000000000E+00  0.15781960476E+04  0.15781960476E+04  0.50400001928E-02 0. -1.
       -1   -1    0    0    0  501  0.00000000000E+00  0.00000000000E+00 -0.63348877900E+03  0.63348877902E+03  0.50400001928E-02 0.  1.
    10030    2    1    2    0    0  0.00000000000E+00  0.00000000000E+00  0.94470726864E+03  0.22116848267E+04  0.19997694740E+04 0.  0.
        4    1    3    3  502    0  0.90720254634E+03  0.90496189374E+02  0.18283483691E+02  0.91188920328E+03  0.12699999809E+01 0.  1.
       -4    1    3    3    0  502 -0.90720254634E+03 -0.90496189374E+02  0.92642378494E+03  0.12997956234E+04  0.12699999809E+01 0. -1.
</event>
<event>
 5   0  0.5030137E-06  0.2000861E+04  0.7818609E-02  0.8606218E-01
       -2   -1    0    0    0  501  0.00000000000E+00  0.00000000000E+00  0.11098658679E+04  0.11098658679E+04  0.25500000920E-02 0. -1.
        2   -1    0    0  501    0  0.00000000000E+00  0.00000000000E+00 -0.90178557910E+03  0.90178557911E+03  0.25500000920E-02 0.  1.
    10030    2    1    2    0    0  0.00000000000E+00  0.00000000000E+00  0.20808028882E+03  0.20116514470E+04  0.20008608492E+04 0.  0.
        3    1    3    3  502    0  0.29996643205E+03 -0.49213876051E+03  0.92617906908E+03  0.10908657562E+04  0.10100000352E+00 0. -1.
       -3    1    3    3    0  502 -0.29996643205E+03  0.49213876051E+03 -0.71809878026E+03  0.92078569079E+03  0.10100000352E+00 0.  1.
</event>
<event>
 5   0  0.2311520E-06  0.2001494E+04  0.7818609E-02  0.8605922E-01
       -1   -1    0    0    0  501  0.00000000000E+00  0.00000000000E+00  0.80716092261E+03  0.80716092262E+03  0.50400001928E-02 0.  1.
        1   -1    0    0  501    0  0.00000000000E+00  0.00000000000E+00 -0.12407621299E+04  0.12407621299E+04  0.50400001928E-02 0. -1.
    10030    2    1    2    0    0  0.00000000000E+00  0.00000000000E+00 -0.43360120725E+03  0.20479230525E+04  0.20014941474E+04 0.  0.
        3    1    3    3  502    0 -0.13497246533E+03 -0.81345743833E+03  0.36341994541E+03  0.90111299919E+03  0.10100000352E+00 0.  1.
       -3    1    3    3    0  502  0.13497246533E+03  0.81345743833E+03 -0.79702115266E+03  0.11468100533E+04  0.10100000352E+00 0. -1.
</event>
<event>
 5   0  0.4956214E-06  0.1998319E+04  0.7818609E-02  0.8607407E-01
        2   -1    0    0  501    0  0.00000000000E+00  0.00000000000E+00  0.13165633893E+04  0.13165633893E+04  0.25500000920E-02 0.  1.
       -2   -1    0    0    0  501  0.00000000000E+00  0.00000000000E+00 -0.75827681926E+03  0.75827681927E+03  0.25500000920E-02 0. -1.
    10030    2    1    2    0    0  0.00000000000E+00  0.00000000000E+00  0.55828657007E+03  0.20748402086E+04  0.19983187926E+04 0.  0.
        1    1    3    3  502    0 -0.12595251379E+03 -0.46503408495E+02  0.13071544013E+04  0.13140316707E+04  0.50400001928E-02 0.  1.
       -1    1    3    3    0  502  0.12595251379E+03  0.46503408495E+02 -0.74886783121E+03  0.76080853793E+03  0.50400001928E-02 0. -1.
</event>
<event>
 5   0  0.2356996E-06  0.1999814E+04  0.7818609E-02  0.8606708E-01
       -1   -1    0    0    0  501  0.00000000000E+00  0.00000000000E+00  0.74704366505E+03  0.74704366507E+03  0.50400001928E-02 0.  1.
        1   -1    0    0  501    0  0.00000000000E+00  0.00000000000E+00 -0.13383604483E+04  0.13383604483E+04  0.50400001928E-02 0. -1.
    10030    2    1    2    0    0  0.00000000000E+00  0.00000000000E+00 -0.59131678327E+03  0.20854041134E+04  0.19998136858E+04 0.  0.
        4    1    3    3  502    0  0.80761895028E+03 -0.48228643610E+02 -0.90837521330E+03  0.12164380428E+04  0.12699999809E+01 0. -1.
       -4    1    3    3    0  502 -0.80761895028E+03  0.48228643610E+02  0.31705843004E+03  0.86896607061E+03  0.12699999809E+01 0.  1.
</event>
<event>
 5   0  0.5030137E-06  0.2000479E+04  0.7818609E-02  0.8606397E-01
       -2   -1    0    0    0  501  0.00000000000E+00  0.00000000000E+00  0.97348678669E+03  0.97348678670E+03  0.25500000920E-02 0. -1.
        2   -1    0    0  501    0  0.00000000000E+00  0.00000000000E+00 -0.10277271266E+04  0.10277271266E+04  0.25500000920E-02 0.  1.
    10030    2    1    2    0    0  0.00000000000E+00  0.00000000000E+00 -0.54240339949E+02  0.20012139133E+04  0.20004787208E+04 0.  0.
        3    1    3    3  502    0  0.89528404215E+03  0.35288646917E+03  0.24577376362E+03  0.99321051613E+03  0.10100000352E+00 0. -1.
       -3    1    3    3    0  502 -0.89528404215E+03 -0.35288646917E+03 -0.30001410357E+03  0.10080033972E+04  0.10100000352E+00 0.  1.
</event>
<event>
 5   0  0.2356996E-06  0.1999921E+04  0.7818609E-02  0.8606658E-01
        1   -1    0    0  501    0  0.00000000000E+00  0.00000000000E+00  0.10320418273E+04  0.10320418273E+04  0.50400001928E-02 0. -1.
       -1   -1    0    0    0  501  0.00000000000E+00  0.00000000000E+00 -0.96887618810E+03  0.96887618811E+03  0.50400001928E-02 0.  1.
    10030    2    1    2    0    0  0.00000000000E+00  0.00000000000E+00  0.63165639177E+02  0.20009180154E+04  0.19999207500E+04 0.  0.
        4    1    3    3  502    0  0.30199281129E+03  0.79398590956E+03  0.55939290005E+03  0.10171210902E+04  0.12699999809E+01 0. -1.
       -4    1    3    3    0  502 -0.30199281129E+03 -0.79398590956E+03 -0.49622726088E+03  0.98379692518E+03  0.12699999809E+01 0.  1.
</event>
<event>
 5   0  0.1777750E-06  0.2000339E+04  0.7818609E-02  0.8606462E-01
       -3   -1    0    0    0  501  0.00000000000E+00  0.00000000000E+00  0.11273545733E+04  0.11273545778E+04  0.10100000352E+00 0.  1.
        3   -1    0    0  501    0  0.00000000000E+00  0.00000000000E+00 -0.88733312337E+03  0.88733312912E+03  0.10100000352E+00 0. -1.
    10030    2    1    2    0    0  0.00000000000E+00  0.00000000000E+00  0.24002144990E+03  0.20146877069E+04  0.20003390363E+04 0.  0.
        1    1    3    3  502    0  0.92918805899E+02 -0.16994809681E+03  0.11082845895E+04  0.11250826599E+04  0.50400001928E-02 0.  1.
       -1    1    3    3    0  502 -0.92918805899E+02  0.16994809681E+03 -0.86826313963E+03  0.88960504706E+03  0.50400001928E-02 0. -1.
</event>
<event>
 5   0  0.2356996E-06  0.1999980E+04  0.7818609E-02  0.8606630E-01
        1   -1    0    0  501    0  0.00000000000E+00  0.00000000000E+00  0.97695925731E+03  0.97695925732E+03  0.50400001928E-02 0. -1.
       -1   -1    0    0    0  501  0.00000000000E+00  0.00000000000E+00 -0.10235635658E+04  0.10235635658E+04  0.50400001928E-02 0.  1.
    10030    2    1    2    0    0  0.00000000000E+00  0.00000000000E+00 -0.46604308507E+02  0.20005228232E+04  0.19999799010E+04 0.  0.
        4    1    3    3  502    0  0.47086396405E+03 -0.66799875803E+03 -0.59969036948E+03  0.10136889886E+04  0.12699999809E+01 0.  1.
       -4    1    3    3    0  502 -0.47086396405E+03  0.66799875803E+03  0.55308606097E+03  0.98683383460E+03  0.12699999809E+01 0. -1.
</event>
<event>
 5   0  0.2379743E-06  0.1999981E+04  0.7818609E-02  0.8606630E-01
        1   -1    0    0  501    0  0.00000000000E+00  0.00000000000E+00  0.11132497663E+04  0.11132497663E+04  0.50400001928E-02 0. -1.
       -1   -1    0    0    0  501  0.00000000000E+00  0.00000000000E+00 -0.89825375023E+03  0.89825375025E+03  0.50400001928E-02 0.  1.
    10030    2    1    2    0    0  0.00000000000E+00  0.00000000000E+00  0.21499601606E+03  0.20115035165E+04  0.19999807774E+04 0.  0.
        5    1    3    3  502    0 -0.99574387313E+03  0.91857327222E+02  0.10359517460E+03  0.10053346108E+04  0.46999998093E+01 0.  1.
       -5    1    3    3    0  502  0.99574387313E+03 -0.91857327222E+02  0.11140084146E+03  0.10061689058E+04  0.46999998093E+01 0. -1.
</event>
<event>
 5   0  0.5129100E-06  0.2000196E+04  0.7818609E-02  0.8606529E-01
       -2   -1    0    0    0  501  0.00000000000E+00  0.00000000000E+00  0.38565252349E+03  0.38565252350E+03  0.25500000920E-02 0. -1.
        2   -1    0    0  501    0  0.00000000000E+00  0.00000000000E+00 -0.25935172156E+04  0.25935172156E+04  0.25500000920E-02 0.  1.
    10030    2    1    2    0    0  0.00000000000E+00  0.00000000000E+00 -0.22078646922E+04  0.29791697391E+04  0.20001964493E+04 0.  0.
        2    1    3    3  502    0 -0.28808902987E+03 -0.38144062313E+03 -0.24123549366E+04  0.24592577291E+04  0.25500000920E-02 0.  1.
       -2    1    3    3    0  502  0.28808902987E+03  0.38144062313E+03  0.20449024443E+03  0.51991201004E+03  0.25500000920E-02 0. -1.
</event>
<event>
 5   0  0.5118981E-06  0.1992855E+04  0.7818609E-02  0.8609968E-01
       -2   -1    0    0    0  501  0.00000000000E+00  0.00000000000E+00  0.65144020032E+03  0.65144020033E+03  0.25500000920E-02 0. -1.
        2   -1    0    0  501    0  0.00000000000E+00  0.00000000000E+00 -0.15241125782E+04  0.15241125782E+04  0.25500000920E-02 0.  1.
    10030    2    1    2    0    0  0.00000000000E+00  0.00000000000E+00 -0.87267237787E+03  0.21755527785E+04  0.19928554421E+04 0.  0.
        4    1    3    3  502    0 -0.71487868333E+03  0.11738367576E+03  0.31051403764E+03  0.78819479806E+03  0.12699999809E+01 0. -1.
       -4    1    3    3    0  502  0.71487868333E+03 -0.11738367576E+03 -0.11831864155E+04  0.13873579805E+04  0.12699999809E+01 0.  1.
</event>
<event>
 5   0  0.5251252E-06  0.1999843E+04  0.7818609E-02  0.8606694E-01
        2   -1    0    0  501    0  0.00000000000E+00  0.00000000000E+00  0.23374182325E+04  0.23374182325E+04  0.25500000920E-02 0.  1.
       -2   -1    0    0    0  501  0.00000000000E+00  0.00000000000E+00 -0.42775516522E+03  0.42775516522E+03  0.25500000920E-02 0. -1.
    10030    2    1    2    0    0  0.00000000000E+00  0.00000000000E+00  0.19096630673E+04  0.27651733977E+04  0.19998427160E+04 0.  0.
        5    1    3    3  502    0  0.23845475437E+03 -0.60070496599E+03  0.20097778682E+04  0.21111457305E+04  0.46999998093E+01 0.  1.
       -5    1    3    3    0  502 -0.23845475437E+03  0.60070496599E+03 -0.10011480095E+03  0.65402766716E+03  0.46999998093E+01 0. -1.
</event>
<event>
 5   0  0.1777750E-06  0.1999638E+04  0.7818609E-02  0.8606790E-01
        4   -1    0    0  501    0  0.00000000000E+00  0.00000000000E+00  0.12089668900E+04  0.12089675570E+04  0.12699999809E+01 0. -1.
       -4   -1    0    0    0  501  0.00000000000E+00  0.00000000000E+00 -0.82685151036E+03  0.82685248569E+03  0.12699999809E+01 0.  1.
    10030    2    1    2    0    0  0.00000000000E+00  0.00000000000E+00  0.38211537962E+03  0.20358200427E+04  0.19996377380E+04 0.  0.
        5    1    3    3  502    0  0.80206584734E+03  0.55897084553E+03 -0.22153869184E+02  0.97789105402E+03  0.46999998093E+01 0. -1.
       -5    1    3    3    0  502 -0.80206584734E+03 -0.55897084553E+03  0.40426924881E+03  0.10579289887E+04  0.46999998093E+01 0.  1.
</event>
<event>
 5   0  0.2356996E-06  0.1999102E+04  0.7818609E-02  0.8607041E-01
        1   -1    0    0  501    0  0.00000000000E+00  0.00000000000E+00  0.75002281525E+03  0.75002281527E+03  0.50400001928E-02 0. -1.
       -1   -1    0    0    0  501  0.00000000000E+00  0.00000000000E+00 -0.13320955008E+04  0.13320955008E+04  0.50400001928E-02 0.  1.
    10030    2    1    2    0    0  0.00000000000E+00  0.00000000000E+00 -0.58207268553E+03  0.20821183161E+04  0.19991018160E+04 0.  0.
        4    1    3    3  502    0 -0.57221395550E+03 -0.10606689374E+03 -0.11374468817E+04  0.12776799359E+04  0.12699999809E+01 0.  1.
       -4    1    3    3    0  502  0.57221395550E+03  0.10606689374E+03  0.55537419621E+03  0.80443838020E+03  0.12699999809E+01 0. -1.
</event>
<event>
 5   0  0.2313821E-06  0.1996092E+04  0.7818609E-02  0.8608450E-01
       -1   -1    0    0    0  501  0.00000000000E+00  0.00000000000E+00  0.77499149130E+03  0.77499149131E+03  0.50400001928E-02 0. -1.
        1   -1    0    0  501    0  0.00000000000E+00  0.00000000000E+00 -0.12852984841E+04  0.12852984842E+04  0.50400001928E-02 0.  1.
    10030    2    1    2    0    0  0.00000000000E+00  0.00000000000E+00 -0.51030699285E+03  0.20602899755E+04  0.19960915701E+04 0.  0.
        1    1    3    3  502    0  0.55544704968E+03  0.66480678998E+03 -0.76667898991E+03  0.11568431901E+04  0.50400001928E-02 0.  1.
       -1    1    3    3    0  502 -0.55544704968E+03 -0.66480678998E+03  0.25637199706E+03  0.90344678532E+03  0.50400001928E-02 0. -1.
</event>
<event>
 5   0  0.5030137E-06  0.1999398E+04  0.7818609E-02  0.8606902E-01
        2   -1    0    0  501    0  0.00000000000E+00  0.00000000000E+00  0.10364644559E+04  0.10364644559E+04  0.25500000920E-02 0.  1.
       -2   -1    0    0    0  501  0.00000000000E+00  0.00000000000E+00 -0.96423782076E+03  0.96423782076E+03  0.25500000920E-02 0. -1.
    10030    2    1    2    0    0  0.00000000000E+00  0.00000000000E+00  0.72226635110E+02  0.20007022766E+04  0.19993981377E+04 0.  0.
        3    1    3    3  502    0 -0.10222609321E+03  0.72088809139E+03 -0.64936518588E+03  0.97560492479E+03  0.10100000352E+00 0. -1.
       -3    1    3    3    0  502  0.10222609321E+03 -0.72088809139E+03  0.72159182099E+03  0.10250973518E+04  0.10100000352E+00 0.  1.
</event>
<event>
 5   0  0.4956214E-06  0.2000268E+04  0.7818609E-02  0.8606495E-01
        2   -1    0    0  501    0  0.00000000000E+00  0.00000000000E+00  0.13424906257E+04  0.13424906257E+04  0.25500000920E-02 0. -1.
       -2   -1    0    0    0  501  0.00000000000E+00  0.00000000000E+00 -0.74508410439E+03  0.74508410439E+03  0.25500000920E-02 0.  1.
    10030    2    1    2    0    0  0.00000000000E+00  0.00000000000E+00  0.59740652131E+03  0.20875747301E+04  0.20002684075E+04 0.  0.
        1    1    3    3  502    0  0.83944527240E+03 -0.41521823866E+03 -0.67606349327E+02  0.93895962084E+03  0.50400001928E-02 0.  1.
       -1    1    3    3    0  502 -0.83944527240E+03  0.41521823866E+03  0.66501287064E+03  0.11486151093E+04  0.50400001928E-02 0. -1.
</event>
<event>
 5   0  0.5251252E-06  0.1999183E+04  0.7818609E-02  0.8607003E-01
       -2   -1    0    0    0  501  0.00000000000E+00  0.00000000000E+00  0.46327898668E+03  0.46327898669E+03  0.25500000920E-02 0.  1.
        2   -1    0    0  501    0  0.00000000000E+00  0.00000000000E+00 -0.21567641767E+04  0.21567641767E+04  0.25500000920E-02 0. -1.
    10030    2    1    2    0    0  0.00000000000E+00  0.00000000000E+00 -0.16934851900E+04  0.26200431634E+04  0.19991833556E+04 0.  0.
        5    1    3    3  502    0 -0.21046183345E+03  0.47168269947E+03 -0.19683086364E+04  0.20349544787E+04  0.46999998093E+01 0. -1.
       -5    1    3    3    0  502  0.21046183345E+03 -0.47168269947E+03  0.27482344634E+03  0.58508868471E+03  0.46999998093E+01 0.  1.
</event>
<event>
 5   0  0.2311520E-06  0.1998587E+04  0.7818609E-02  0.8607282E-01
        1   -1    0    0  501    0  0.00000000000E+00  0.00000000000E+00  0.98502410045E+03  0.98502410046E+03  0.50400001928E-02 0.  1.
       -1   -1    0    0    0  501  0.00000000000E+00  0.00000000000E+00 -0.10137691614E+04  0.10137691614E+04  0.50400001928E-02 0. -1.
    10030    2    1    2    0    0  0.00000000000E+00  0.00000000000E+00 -0.28745060934E+02  0.19987932619E+04  0.19985865568E+04 0.  0.
        3    1    3    3  502    0 -0.19959107854E+03  0.95847727180E+03 -0.21457257098E+03  0.10022757493E+04  0.10100000352E+00 0. -1.
       -3    1    3    3    0  502  0.19959107854E+03 -0.95847727180E+03  0.18582751005E+03  0.99651751258E+03  0.10100000352E+00 0.  1.
</event>
<event>
 5   0  0.5129100E-06  0.1998380E+04  0.7818609E-02  0.8607379E-01
       -2   -1    0    0    0  501  0.00000000000E+00  0.00000000000E+00  0.80457118280E+03  0.80457118281E+03  0.25500000920E-02 0.  1.
        2   -1    0    0  501    0  0.00000000000E+00  0.00000000000E+00 -0.12408848522E+04  0.12408848522E+04  0.25500000920E-02 0. -1.
    10030    2    1    2    0    0  0.00000000000E+00  0.00000000000E+00 -0.43631366944E+03  0.20454560351E+04  0.19983795368E+04 0.  0.
        2    1    3    3  502    0  0.48641315292E+03  0.85853831023E+03 -0.37900328596E+03  0.10570379729E+04  0.25500000920E-02 0. -1.
       -2    1    3    3    0  502 -0.48641315292E+03 -0.85853831023E+03 -0.57310383484E+02  0.98841806212E+03  0.25500000920E-02 0.  1.
</event>
<event>
 5   0  0.2313821E-06  0.1999975E+04  0.7818609E-02  0.8606632E-01
        1   -1    0    0  501    0  0.00000000000E+00  0.00000000000E+00  0.83870516981E+03  0.83870516982E+03  0.50400001928E-02 0.  1.
       -1   -1    0    0    0  501  0.00000000000E+00  0.00000000000E+00 -0.11922846177E+04  0.11922846177E+04  0.50400001928E-02 0. -1.
    10030    2    1    2    0    0  0.00000000000E+00  0.00000000000E+00 -0.35357944787E+03  0.20309897875E+04  0.19999752726E+04 0.  0.
        1    1    3    3  502    0  0.51678117549E+03 -0.76721542973E+02 -0.10426706493E+04  0.11662379952E+04  0.50400001928E-02 0. -1.
       -1    1    3    3    0  502 -0.51678117549E+03  0.76721542973E+02  0.68909120139E+03  0.86475179235E+03  0.50400001928E-02 0.  1.
</event>
<event>
 5   0  0.5030137E-06  0.1999786E+04  0.7818609E-02  0.8606721E-01
       -2   -1    0    0    0  501  0.00000000000E+00  0.00000000000E+00  0.72789486936E+03  0.72789486936E+03  0.25500000920E-02 0.  1.
        2   -1    0    0  501    0  0.00000000000E+00  0.00000000000E+00 -0.13735311142E+04  0.13735311142E+04  0.25500000920E-02 0. -1.
    10030    2    1    2    0    0  0.00000000000E+00  0.00000000000E+00 -0.64563624482E+03  0.21014259835E+04  0.19997862395E+04 0.  0.
        3    1    3    3  502    0 -0.37956548654E+03  0.13312815390E+01 -0.12948823703E+04  0.13493672940E+04  0.10100000352E+00 0. -1.
       -3    1    3    3    0  502  0.37956548654E+03 -0.13312815390E+01  0.64924612550E+03  0.75205868957E+03  0.10100000352E+00 0.  1.
</event>
<event>
 5   0  0.5129100E-06  0.1999651E+04  0.7818609E-02  0.8606784E-01
       -2   -1    0    0    0  501  0.00000000000E+00  0.00000000000E+00  0.86448036795E+03  0.86448036795E+03  0.25500000920E-02 0.  1.
        2   -1    0    0  501    0  0.00000000000E+00  0.00000000000E+00 -0.11563611407E+04  0.11563611407E+04  0.25500000920E-02 0. -1.
    10030    2    1    2    0    0  0.00000000000E+00  0.00000000000E+00 -0.29188077271E+03  0.20208415086E+04  0.19996514740E+04 0.  0.
        2    1    3    3  502    0  0.52666548021E+03 -0.81964199520E+03 -0.37295827102E+03  0.10432101420E+04  0.25500000920E-02 0.  1.
       -2    1    3    3    0  502 -0.52666548021E+03  0.81964199520E+03  0.81077498311E+02  0.97763136666E+03  0.25500000920E-02 0. -1.
</event>
<event>
 5   0  0.2313821E-06  0.1999493E+04  0.7818609E-02  0.8606858E-01
       -1   -1    0    0    0  501  0.00000000000E+00  0.00000000000E+00  0.14617169022E+04  0.14617169022E+04  0.50400001928E-02 0.  1.
        1   -1    0    0  501    0  0.00000000000E+00  0.00000000000E+00 -0.68378000044E+03  0.68378000046E+03  0.50400001928E-02 0. -1.
    10030    2    1    2    0    0  0.00000000000E+00  0.00000000000E+00  0.77793690174E+03  0.21454969026E+04  0.19994927197E+04 0.  0.
        1    1    3    3  502    0 -0.98686189190E+03 -0.10289649878E+03  0.25751269231E+03  0.10250838355E+04  0.50400001928E-02 0. -1.
       -1    1    3    3    0  502  0.98686189190E+03  0.10289649878E+03  0.52042420942E+03  0.11204130671E+04  0.50400001928E-02 0.  1.
</event>
<event>
 5   0  0.5251252E-06  0.1998139E+04  0.7818609E-02  0.8607491E-01
        2   -1    0    0  501    0  0.00000000000E+00  0.00000000000E+00  0.15954801829E+04  0.15954801829E+04  0.25500000920E-02 0. -1.
       -2   -1    0    0    0  501  0.00000000000E+00  0.00000000000E+00 -0.62560464808E+03  0.62560464808E+03  0.25500000920E-02 0.  1.
    10030    2    1    2    0    0  0.00000000000E+00  0.00000000000E+00  0.96987553481E+03  0.22210848310E+04  0.19981389525E+04 0.  0.
        5    1    3    3  502    0  0.80725401295E+03 -0.53512898673E+03  0.21244122597E+03  0.99155203512E+03  0.46999998093E+01 0.  1.
       -5    1    3    3    0  502 -0.80725401295E+03  0.53512898673E+03  0.75743430884E+03  0.12295327959E+04  0.46999998093E+01 0. -1.
</event>
<event>
 5   0  0.5129100E-06  0.2000503E+04  0.7818609E-02  0.8606385E-01
        2   -1    0    0  501    0  0.00000000000E+00  0.00000000000E+00  0.19134674464E+04  0.19134674464E+04  0.25500000920E-02 0. -1.
       -2   -1    0    0    0  501  0.00000000000E+00  0.00000000000E+00 -0.52287455612E+03  0.52287455613E+03  0.25500000920E-02 0.  1.
    10030    2    1    2    0    0  0.00000000000E+00  0.00000000000E+00  0.13905928903E+04  0.24363420025E+04  0.20005033783E+04 0.  0.
        2    1    3    3  502    0 -0.80759847477E+03 -0.57139766307E+03  0.51551037616E+03  0.11155543616E+04  0.25500000920E-02 0.  1.
       -2    1    3    3    0  502  0.80759847477E+03  0.57139766307E+03  0.87508251409E+03  0.13207876409E+04  0.25500000920E-02 0. -1.
</event>
<event>
 5   0  0.1777750E-06  0.1999688E+04  0.7818609E-02  0.8606767E-01
        4   -1    0    0  501    0  0.00000000000E+00  0.00000000000E+00  0.90019699665E+03  0.90019789251E+03  0.12699999809E+01 0.  1.
       -4   -1    0    0    0  501  0.00000000000E+00  0.00000000000E+00 -0.11105196894E+04  0.11105204156E+04  0.12699999809E+01 0. -1.
    10030    2    1    2    0    0  0.00000000000E+00  0.00000000000E+00 -0.21032269272E+03  0.20107183081E+04  0.19996880955E+04 0.  0.
        4    1    3    3  502    0 -0.51996635476E+03  0.41041274128E+03 -0.85821351345E+03  0.10841289941E+04  0.12699999809E+01 0. -1.
       -4    1    3    3    0  502  0.51996635476E+03 -0.41041274128E+03  0.64789082072E+03  0.92658931397E+03  0.12699999809E+01 0.  1.
</event>
<event>
 5   0  0.2313821E-06  0.1999843E+04  0.7818609E-02  0.8606694E-01
        1   -1    0    0  501    0  0.00000000000E+00  0.00000000000E+00  0.50149617493E+03  0.50149617495E+03  0.50400001928E-02 0.  1.
       -1   -1    0    0    0  501  0.00000000000E+00  0.00000000000E+00 -0.19937196727E+04  0.19937196727E+04  0.50400001928E-02 0. -1.
    10030    2    1    2    0    0  0.00000000000E+00  0.00000000000E+00 -0.14922234977E+04  0.24952158476E+04  0.19998427836E+04 0.  0.
        1    1    3    3  502    0  0.34884871401E+03  0.65580294868E+03 -0.15813014477E+04  0.17470796208E+04  0.50400001928E-02 0. -1.
       -1    1    3    3    0  502 -0.34884871401E+03 -0.65580294868E+03  0.89077949949E+02  0.74813622688E+03  0.50400001928E-02 0.  1.
</event>
<event>
 5   0  0.5118981E-06  0.1999274E+04  0.7818609E-02  0.8606960E-01
        2   -1    0    0  501    0  0.00000000000E+00  0.00000000000E+00  0.20088922195E+04  0.20088922195E+04  0.25500000920E-02 0. -1.
       -2   -1    0    0    0  501  0.00000000000E+00  0.00000000000E+00 -0.49742530710E+03  0.49742530711E+03  0.25500000920E-02 0.  1.
    10030    2    1    2    0    0  0.00000000000E+00  0.00000000000E+00  0.15114669124E+04  0.25063175266E+04  0.19992736973E+04 0.  0.
        4    1    3    3  502    0  0.38376293485E+03 -0.45949951544E+03  0.17592970235E+04  0.18583706370E+04  0.12699999809E+01 0. -1.
       -4    1    3    3    0  502 -0.38376293485E+03  0.45949951544E+03 -0.24783011108E+03  0.64794688958E+03  0.12699999809E+01 0.  1.
</event>
<event>
 5   0  0.5030137E-06  0.2000047E+04  0.7818609E-02  0.8606599E-01
       -2   -1    0    0    0  501  0.00000000000E+00  0.00000000000E+00  0.48577469063E+03  0.48577469064E+03  0.25500000920E-02 0. -1.
        2   -1    0    0  501    0  0.00000000000E+00  0.00000000000E+00 -0.20586637247E+04  0.20586637247E+04  0.25500000920E-02 0.  1.
    10030    2    1    2    0    0  0.00000000000E+00  0.00000000000E+00 -0.15728890341E+04  0.25444384154E+04  0.20000467335E+04 0.  0.
        3    1    3    3  502    0 -0.44647258565E+03 -0.22476677053E+03  0.31544259528E+03  0.59106844950E+03  0.10100000352E+00 0. -1.
       -3    1    3    3    0  502  0.44647258565E+03  0.22476677053E+03 -0.18883316294E+04  0.19533699659E+04  0.10100000352E+00 0.  1.
</event>
<event>
 5   0  0.1777750E-06  0.1999829E+04  0.7818609E-02  0.8606701E-01
        4   -1    0    0  501    0  0.00000000000E+00  0.00000000000E+00  0.10951501104E+04  0.10951508468E+04  0.12699999809E+01 0. -1.
       -4   -1    0    0    0  501  0.00000000000E+00  0.00000000000E+00 -0.91295929909E+03  0.91296018243E+03  0.12699999809E+01 0.  1.
    10030    2    1    2    0    0  0.00000000000E+00  0.00000000000E+00  0.18219081134E+03  0.20081110292E+04  0.19998290962E+04 0.  0.
        3    1    3    3  502    0 -0.78493319061E+03  0.29820389925E+03  0.63628349696E+03  0.10535190449E+04  0.10100000352E+00 0. -1.
       -3    1    3    3    0  502  0.78493319061E+03 -0.29820389925E+03 -0.45409268562E+03  0.95459198435E+03  0.10100000352E+00 0.  1.
</event>
<event>
 5   0  0.5030137E-06  0.2000556E+04  0.7818609E-02  0.8606361E-01
        2   -1    0    0  501    0  0.00000000000E+00  0.00000000000E+00  0.93719003580E+03  0.93719003580E+03  0.25500000920E-02 0. -1.
       -2   -1    0    0    0  501  0.00000000000E+00  0.00000000000E+00 -0.10676125401E+04  0.10676125401E+04  0.25500000920E-02 0.  1.
    10030    2    1    2    0    0  0.00000000000E+00  0.00000000000E+00 -0.13042250434E+03  0.20048025759E+04  0.20005557575E+04 0.  0.
        3    1    3    3  502    0  0.69112287880E+03 -0.54100179843E+03  0.41562190193E+03  0.97112066968E+03  0.10100000352E+00 0. -1.
       -3    1    3    3    0  502 -0.69112287880E+03  0.54100179843E+03 -0.54604440627E+03  0.10336819063E+04  0.10100000352E+00 0.  1.
</event>
<event>
 5   0  0.2311520E-06  0.2000463E+04  0.7818609E-02  0.8606404E-01
       -1   -1    0    0    0  501  0.00000000000E+00  0.00000000000E+00  0.96545166736E+03  0.96545166737E+03  0.50400001928E-02 0. -1.
        1   -1    0    0  501    0  0.00000000000E+00  0.00000000000E+00 -0.10362644542E+04  0.10362644542E+04  0.50400001928E-02 0.  1.
    10030    2    1    2    0    0  0.00000000000E+00  0.00000000000E+00 -0.70812786843E+02  0.20017161216E+04  0.20004631915E+04 0.  0.
        3    1    3    3  502    0 -0.24998519948E+03  0.69777970132E+03  0.63663477634E+03  0.97708390641E+03  0.10100000352E+00 0.  1.
       -3    1    3    3    0  502  0.24998519948E+03 -0.69777970132E+03 -0.70744756318E+03  0.10246322152E+04  0.10100000352E+00 0. -1.
</event>
<event>
 5   0  0.2311520E-06  0.2000131E+04  0.7818609E-02  0.8606559E-01
       -1   -1    0    0    0  501  0.00000000000E+00  0.00000000000E+00  0.80320684437E+03  0.80320684439E+03  0.50400001928E-02 0. -1.
        1   -1    0    0  501    0  0.00000000000E+00  0.00000000000E+00 -0.12451724906E+04  0.12451724906E+04  0.50400001928E-02 0.  1.
    10030    2    1    2    0    0  0.00000000000E+00  0.00000000000E+00 -0.44196564624E+03  0.20483793350E+04  0.20001310626E+04 0.  0.
        3    1    3    3  502    0  0.20675544556E+03 -0.32808765744E+02  0.78051626771E+03  0.80810264430E+03  0.10100000352E+00 0. -1.
       -3    1    3    3    0  502 -0.20675544556E+03  0.32808765744E+02 -0.12224819140E+04  0.12402766907E+04  0.10100000352E+00 0.  1.
</event>
<event>
 5   0  0.5118981E-06  0.1986060E+04  0.7818609E-02  0.8613166E-01
        2   -1    0    0  501    0  0.00000000000E+00  0.00000000000E+00  0.12893685702E+04  0.12893685702E+04  0.25500000920E-02 0.  1.
       -2   -1    0    0    0  501  0.00000000000E+00  0.00000000000E+00 -0.76479939841E+03  0.76479939841E+03  0.25500000920E-02 0. -1.
    10030    2    1    2    0    0  0.00000000000E+00  0.00000000000E+00  0.52456917177E+03  0.20541679686E+04  0.19860597240E+04 0.  0.
        4    1    3    3  502    0 -0.17693810341E+03  0.34529174115E+03 -0.68315961743E+03  0.78564760213E+03  0.12699999809E+01 0. -1.
       -4    1    3    3    0  502  0.17693810341E+03 -0.34529174115E+03  0.12077287892E+04  0.12685203665E+04  0.12699999809E+01 0.  1.
</event>
<event>
 5   0  0.2379743E-06  0.1998234E+04  0.7818609E-02  0.8607447E-01
       -1   -1    0    0    0  501  0.00000000000E+00  0.00000000000E+00  0.16266412993E+04  0.16266412993E+04  0.50400001928E-02 0.  1.
        1   -1    0    0  501    0  0.00000000000E+00  0.00000000000E+00 -0.61367834605E+03  0.61367834607E+03  0.50400001928E-02 0. -1.
    10030    2    1    2    0    0  0.00000000000E+00  0.00000000000E+00  0.10129629532E+04  0.22403196454E+04  0.19982337623E+04 0.  0.
        5    1    3    3  502    0  0.13531900506E+03 -0.88644625418E+03  0.10004421935E+04  0.13435046956E+04  0.46999998093E+01 0.  1.
       -5    1    3    3    0  502 -0.13531900506E+03  0.88644625418E+03  0.12520759766E+02  0.89681494975E+03  0.46999998093E+01 0. -1.
</event>
<event>
 5   0  0.2379743E-06  0.2000288E+04  0.7818609E-02  0.8606486E-01
       -1   -1    0    0    0  501  0.00000000000E+00  0.00000000000E+00  0.20468762736E+04  0.20468762736E+04  0.50400001928E-02 0.  1.
        1   -1    0    0  501    0  0.00000000000E+00  0.00000000000E+00 -0.48868984964E+03  0.48868984967E+03  0.50400001928E-02 0. -1.
    10030    2    1    2    0    0  0.00000000000E+00  0.00000000000E+00  0.15581864239E+04  0.25355661232E+04  0.20002876377E+04 0.  0.
        5    1    3    3  502    0 -0.12098923824E+03  0.22688744755E+03  0.20042470547E+04  0.20206792561E+04  0.46999998093E+01 0.  1.
       -5    1    3    3    0  502  0.12098923824E+03 -0.22688744755E+03 -0.44606063080E+03  0.51488686716E+03  0.46999998093E+01 0. -1.
</event>
<event>
 5   0  0.1777750E-06  0.1998851E+04  0.7818609E-02  0.8607158E-01
        3   -1    0    0  501    0  0.00000000000E+00  0.00000000000E+00  0.13352825422E+04  0.13352825461E+04  0.10100000352E+00 0.  1.
       -3   -1    0    0    0  501  0.00000000000E+00  0.00000000000E+00 -0.74804514418E+03  0.74804515100E+03  0.10100000352E+00 0. -1.
    10030    2    1    2    0    0  0.00000000000E+00  0.00000000000E+00  0.58723739806E+03  0.20833276971E+04  0.19988513030E+04 0.  0.
        3    1    3    3  502    0  0.41749982399E+03 -0.35717213496E+03  0.11637509377E+04  0.12869321241E+04  0.10100000352E+00 0.  1.
       -3    1    3    3    0  502 -0.41749982399E+03  0.35717213496E+03 -0.57651353960E+03  0.79639557292E+03  0.10100000352E+00 0. -1.
</event>
<event>
 5   0  0.2311520E-06  0.2000176E+04  0.7818609E-02  0.8606538E-01
        1   -1    0    0  501    0  0.00000000000E+00  0.00000000000E+00  0.12292550137E+04  0.12292550137E+04  0.50400001928E-02 0.  1.
       -1   -1    0    0    0  501  0.00000000000E+00  0.00000000000E+00 -0.81364416596E+03  0.81364416597E+03  0.50400001928E-02 0. -1.
    10030    2    1    2    0    0  0.00000000000E+00  0.00000000000E+00  0.41561084770E+03  0.20428991796E+04  0.20001761626E+04 0.  0.
        3    1    3    3  502    0 -0.61340940364E+03  0.21368939016E+03  0.98446994909E+03  0.11794555281E+04  0.10100000352E+00 0.  1.
       -3    1    3    3    0  502  0.61340940364E+03 -0.21368939016E+03 -0.56885910139E+03  0.86344365153E+03  0.10100000352E+00 0. -1.
</event>
<event>
 5   0  0.4956214E-06  0.2000667E+04  0.7818609E-02  0.8606309E-01
       -2   -1    0    0    0  501  0.00000000000E+00  0.00000000000E+00  0.84552048054E+03  0.84552048054E+03  0.25500000920E-02 0.  1.
        2   -1    0    0  501    0  0.00000000000E+00  0.00000000000E+00 -0.11834921787E+04  0.11834921787E+04  0.25500000920E-02 0. -1.
    10030    2    1    2    0    0  0.00000000000E+00  0.00000000000E+00 -0.33797169814E+03  0.20290126592E+04  0.20006667645E+04 0.  0.
        1    1    3    3  502    0  0.43731108502E+03  0.68994944134E+03  0.41659918574E+03  0.91696570180E+03  0.50400001928E-02 0. -1.
       -1    1    3    3    0  502 -0.43731108502E+03 -0.68994944134E+03 -0.75457088387E+03  0.11120469574E+04  0.50400001928E-02 0.  1.
</event>
<event>
 5   0  0.2386776E-06  0.1998589E+04  0.7818609E-02  0.8607281E-01
       -1   -1    0    0    0  501  0.00000000000E+00  0.00000000000E+00  0.50305906196E+03  0.50305906199E+03  0.50400001928E-02 0. -1.
        1   -1    0    0  501    0  0.00000000000E+00  0.00000000000E+00 -0.19850341233E+04  0.19850341233E+04  0.50400001928E-02 0.  1.
    10030    2    1    2    0    0  0.00000000000E+00  0.00000000000E+00 -0.14819750613E+04  0.24880931853E+04  0.19985889063E+04 0.  0.
        2    1    3    3  502    0 -0.47247284474E+02 -0.63213589282E+03  0.22072106793E+03  0.67122714688E+03  0.25500000920E-02 0. -1.
       -2    1    3    3    0  502  0.47247284474E+02  0.63213589282E+03 -0.17026961293E+04  0.18168660384E+04  0.25500000920E-02 0.  1.
</event>
<event>
 5   0  0.2311520E-06  0.1999500E+04  0.7818609E-02  0.8606854E-01
       -1   -1    0    0    0  501  0.00000000000E+00  0.00000000000E+00  0.71442912881E+03  0.71442912883E+03  0.50400001928E-02 0.  1.
        1   -1    0    0  501    0  0.00000000000E+00  0.00000000000E+00 -0.13990195356E+04  0.13990195356E+04  0.50400001928E-02 0. -1.
    10030    2    1    2    0    0  0.00000000000E+00  0.00000000000E+00 -0.68459040679E+03  0.21134486644E+04  0.19995002456E+04 0.  0.
        3    1    3    3  502    0 -0.11391308596E+02  0.38286606763E+03 -0.13183850412E+04  0.13729003295E+04  0.10100000352E+00 0. -1.
       -3    1    3    3    0  502  0.11391308596E+02 -0.38286606763E+03  0.63379463438E+03  0.74054833497E+03  0.10100000352E+00 0.  1.
</event>
<event>
 5   0  0.2386776E-06  0.1998706E+04  0.7818609E-02  0.8607226E-01
       -1   -1    0    0    0  501  0.00000000000E+00  0.00000000000E+00  0.10832156901E+04  0.10832156901E+04  0.50400001928E-02 0.  1.
        1   -1    0    0  501    0  0.00000000000E+00  0.00000000000E+00 -0.92198342339E+03  0.92198342341E+03  0.50400001928E-02 0. -1.
    10030    2    1    2    0    0  0.00000000000E+00  0.00000000000E+00  0.16123226670E+03  0.20051991135E+04  0.19987064920E+04 0.  0.
        2    1    3    3  502    0 -0.81014815389E+03  0.19294327828E+03  0.63480511686E+03  0.10471602916E+04  0.25500000920E-02 0.  1.
       -2    1    3    3    0  502  0.81014815389E+03 -0.19294327828E+03 -0.47357285016E+03  0.95803882192E+03  0.25500000920E-02 0. -1.
</event>
<event>
 5   0  0.2311520E-06  0.1997905E+04  0.7818609E-02  0.8607601E-01
        1   -1    0    0  501    0  0.00000000000E+00  0.00000000000E+00  0.90929128442E+03  0.90929128443E+03  0.50400001928E-02 0.  1.
       -1   -1    0    0    0  501  0.00000000000E+00  0.00000000000E+00 -0.10974549100E+04  0.10974549100E+04  0.50400001928E-02 0. -1.
    10030    2    1    2    0    0  0.00000000000E+00  0.00000000000E+00 -0.18816362562E+03  0.20067461945E+04  0.19979050876E+04 0.  0.
        3    1    3    3  502    0  0.36823759479E+03 -0.47450135402E+03 -0.89583442976E+03  0.10785498583E+04  0.10100000352E+00 0. -1.
       -3    1    3    3    0  502 -0.36823759479E+03  0.47450135402E+03  0.70767080415E+03  0.92819633614E+03  0.10100000352E+00 0.  1.
</event>
<event>
 5   0  0.5251252E-06  0.2000746E+04  0.7818609E-02  0.8606272E-01
        2   -1    0    0  501    0  0.00000000000E+00  0.00000000000E+00  0.22201129921E+04  0.22201129921E+04  0.25500000920E-02 0.  1.
       -2   -1    0    0    0  501  0.00000000000E+00  0.00000000000E+00 -0.45076357141E+03  0.45076357142E+03  0.25500000920E-02 0. -1.
    10030    2    1    2    0    0  0.00000000000E+00  0.00000000000E+00  0.17693494207E+04  0.26708765635E+04  0.20007459222E+04 0.  0.
        5    1    3    3  502    0  0.83301559422E+03 -0.55043312360E+03  0.96731568894E+03  0.13901846409E+04  0.46999998093E+01 0. -1.
       -5    1    3    3    0  502 -0.83301559422E+03  0.55043312360E+03  0.80203373172E+03  0.12806919226E+04  0.46999998093E+01 0.  1.
</event>
<event>
 5   0  0.4956214E-06  0.2000066E+04  0.7818609E-02  0.8606590E-01
       -2   -1    0    0    0  501  0.00000000000E+00  0.00000000000E+00  0.10459495392E+04  0.10459495392E+04  0.25500000920E-02 0. -1.
        2   -1    0    0  501    0  0.00000000000E+00  0.00000000000E+00 -0.95613230349E+03  0.95613230349E+03  0.25500000920E-02 0.  1.
    10030    2    1    2    0    0  0.00000000000E+00  0.00000000000E+00  0.89817235740E+02  0.20020818427E+04  0.20000661412E+04 0.  0.
        1    1    3    3  502    0 -0.78919798750E+03 -0.22357511553E+03 -0.52772284218E+03  0.97535157453E+03  0.50400001928E-02 0.  1.
       -1    1    3    3    0  502  0.78919798750E+03  0.22357511553E+03  0.61754007792E+03  0.10267302682E+04  0.50400001928E-02 0. -1.
</event>
<event>
 5   0  0.2313821E-06  0.1999875E+04  0.7818609E-02  0.8606679E-01
        1   -1    0    0  501    0  0.00000000000E+00  0.00000000000E+00  0.40126689798E+03  0.40126689802E+03  0.50400001928E-02 0.  1.
       -1   -1    0    0    0  501  0.00000000000E+00  0.00000000000E+00 -0.24917944290E+04  0.24917944290E+04  0.50400001928E-02 0. -1.
    10030    2    1    2    0    0  0.00000000000E+00  0.00000000000E+00 -0.20905275310E+04  0.28930613270E+04  0.19998746171E+04 0.  0.
        1    1    3    3  502    0  0.82027457619E+03  0.54776870334E+03 -0.80767547175E+03  0.12748492461E+04  0.50400001928E-02 0.  1.
       -1    1    3    3    0  502 -0.82027457619E+03 -0.54776870334E+03 -0.12828520593E+04  0.16182120809E+04  0.50400001928E-02 0. -1.
</event>
<event>
 5   0  0.5129100E-06  0.2001119E+04  0.7818609E-02  0.8606097E-01
       -2   -1    0    0    0  501  0.00000000000E+00  0.00000000000E+00  0.64333235956E+03  0.64333235956E+03  0.25500000920E-02 0. -1.
        2   -1    0    0  501    0  0.00000000000E+00  0.00000000000E+00 -0.15561471192E+04  0.15561471192E+04  0.25500000920E-02 0.  1.
    10030    2    1    2    0    0  0.00000000000E+00  0.00000000000E+00 -0.91281475962E+03  0.21994794787E+04  0.20011194847E+04 0.  0.
        2    1    3    3  502    0  0.74815522067E+02 -0.99407482415E+03 -0.55055866818E+03  0.11388138414E+04  0.25500000920E-02 0. -1.
       -2    1    3    3    0  502 -0.74815522067E+02  0.99407482415E+03 -0.36225609144E+03  0.10606656373E+04  0.25500000920E-02 0.  1.
</event>
<event>
 5   0  0.5251252E-06  0.1997507E+04  0.7818609E-02  0.8607787E-01
        2   -1    0    0  501    0  0.00000000000E+00  0.00000000000E+00  0.10336686246E+04  0.10336686246E+04  0.25500000920E-02 0.  1.
       -2   -1    0    0    0  501  0.00000000000E+00  0.00000000000E+00 -0.96501744285E+03  0.96501744286E+03  0.25500000920E-02 0. -1.
    10030    2    1    2    0    0  0.00000000000E+00  0.00000000000E+00  0.68651181739E+02  0.19986860675E+04  0.19975066987E+04 0.  0.
        5    1    3    3  502    0 -0.19230367653E+03 -0.40341310910E+03 -0.85937773343E+03  0.96864597212E+03  0.46999998093E+01 0. -1.
       -5    1    3    3    0  502  0.19230367653E+03  0.40341310910E+03  0.92802891517E+03  0.10300400953E+04  0.46999998093E+01 0.  1.
</event>
<event>
 5   0  0.2386776E-06  0.2001052E+04  0.7818609E-02  0.8606129E-01
       -1   -1    0    0    0  501  0.00000000000E+00  0.00000000000E+00  0.16867367436E+04  0.16867367436E+04  0.50400001928E-02 0. -1.
        1   -1    0    0  501    0  0.00000000000E+00  0.00000000000E+00 -0.59348463305E+03  0.59348463307E+03  0.50400001928E-02 0.  1.
    10030    2    1    2    0    0  0.00000000000E+00  0.00000000000E+00  0.10932521106E+04  0.22802213767E+04  0.20010520607E+04 0.  0.
        2    1    3    3  502    0 -0.78903785752E+03 -0.25452123059E+03  0.11848444775E+04  0.14461045029E+04  0.25500000920E-02 0. -1.
       -2    1    3    3    0  502  0.78903785752E+03  0.25452123059E+03 -0.91592366967E+02  0.83411687377E+03  0.25500000920E-02 0.  1.
</event>
<event>
 5   0  0.5129100E-06  0.1999489E+04  0.7818609E-02  0.8606860E-01
       -2   -1    0    0    0  501  0.00000000000E+00  0.00000000000E+00  0.73076286907E+03  0.73076286907E+03  0.25500000920E-02 0.  1.
        2   -1    0    0  501    0  0.00000000000E+00  0.00000000000E+00 -0.13677338919E+04  0.13677338919E+04  0.25500000920E-02 0. -1.
    10030    2    1    2    0    0  0.00000000000E+00  0.00000000000E+00 -0.63697102279E+03  0.20984967609E+04  0.19994890777E+04 0.  0.
        2    1    3    3  502    0 -0.23740128585E+03 -0.12438758272E+03 -0.13293270906E+04  0.13560760137E+04  0.25500000920E-02 0. -1.
       -2    1    3    3    0  502  0.23740128585E+03  0.12438758272E+03  0.69235606779E+03  0.74242074720E+03  0.25500000920E-02 0.  1.
</event>
<event>
 5   0  0.5030137E-06  0.1997652E+04  0.7818609E-02  0.8607719E-01
        2   -1    0    0  501    0  0.00000000000E+00  0.00000000000E+00  0.16231837553E+04  0.16231837553E+04  0.25500000920E-02 0.  1.
       -2   -1    0    0    0  501  0.00000000000E+00  0.00000000000E+00 -0.61462737206E+03  0.61462737207E+03  0.25500000920E-02 0. -1.
    10030    2    1    2    0    0  0.00000000000E+00  0.00000000000E+00  0.10085563832E+04  0.22378111274E+04  0.19976517874E+04 0.  0.
        3    1    3    3  502    0 -0.46371789671E+03 -0.86652640607E+03  0.70388776065E+03  0.12088673583E+04  0.10100000352E+00 0.  1.
       -3    1    3    3    0  502  0.46371789671E+03  0.86652640607E+03  0.30466862259E+03  0.10289437691E+04  0.10100000352E+00 0. -1.
</event>
<event>
 5   0  0.1777750E-06  0.2001428E+04  0.7818609E-02  0.8605953E-01
       -3   -1    0    0    0  501  0.00000000000E+00  0.00000000000E+00  0.11598843313E+04  0.11598843357E+04  0.10100000352E+00 0.  1.
        3   -1    0    0  501    0  0.00000000000E+00  0.00000000000E+00 -0.86338648338E+03  0.86338648929E+03  0.10100000352E+00 0. -1.
    10030    2    1    2    0    0  0.00000000000E+00  0.00000000000E+00  0.29649784789E+03  0.20232708250E+04  0.20014279546E+04 0.  0.
        4    1    3    3  502    0 -0.43891221226E+03 -0.22361923693E+03 -0.73233598675E+03  0.88259113047E+03  0.12699999809E+01 0. -1.
       -4    1    3    3    0  502  0.43891221226E+03  0.22361923693E+03  0.10288338346E+04  0.11406796945E+04  0.12699999809E+01 0.  1.
</event>
<event>
 5   0  0.2379743E-06  0.2000500E+04  0.7818609E-02  0.8606387E-01
        1   -1    0    0  501    0  0.00000000000E+00  0.00000000000E+00  0.16285983590E+04  0.16285983590E+04  0.50400001928E-02 0. -1.
       -1   -1    0    0    0  501  0.00000000000E+00  0.00000000000E+00 -0.61433217829E+03  0.61433217831E+03  0.50400001928E-02 0.  1.
    10030    2    1    2    0    0  0.00000000000E+00  0.00000000000E+00  0.10142661807E+04  0.22429305373E+04  0.20005003149E+04 0.  0.
        5    1    3    3  502    0  0.73019783509E+03  0.54681638668E+03  0.47199570178E+02  0.91348066675E+03  0.46999998093E+01 0.  1.
       -5    1    3    3    0  502 -0.73019783509E+03 -0.54681638668E+03  0.96706661050E+03  0.13294498705E+04  0.46999998093E+01 0. -1.
</event>
<event>
 5   0  0.4956214E-06  0.2000679E+04  0.7818609E-02  0.8606303E-01
       -2   -1    0    0    0  501  0.00000000000E+00  0.00000000000E+00  0.84932387268E+03  0.84932387269E+03  0.25500000920E-02 0. -1.
        2   -1    0    0  501    0  0.00000000000E+00  0.00000000000E+00 -0.11782062506E+04  0.11782062506E+04  0.25500000920E-02 0.  1.
    10030    2    1    2    0    0  0.00000000000E+00  0.00000000000E+00 -0.32888237787E+03  0.20275301232E+04  0.20006785804E+04 0.  0.
        1    1    3    3  502    0 -0.30332816722E+03 -0.60463326675E+03 -0.91127784961E+03  0.11349082269E+04  0.50400001928E-02 0.  1.
       -1    1    3    3    0  502  0.30332816722E+03  0.60463326675E+03  0.58239547174E+03  0.89262189634E+03  0.50400001928E-02 0. -1.
</event>
<event>
 5   0  0.2356996E-06  0.1992072E+04  0.7818609E-02  0.8610336E-01
       -1   -1    0    0    0  501  0.00000000000E+00  0.00000000000E+00  0.48476991870E+03  0.48476991873E+03  0.50400001928E-02 0.  1.
        1   -1    0    0  501    0  0.00000000000E+00  0.00000000000E+00 -0.20465120682E+04  0.20465120682E+04  0.50400001928E-02 0. -1.
    10030    2    1    2    0    0  0.00000000000E+00  0.00000000000E+00 -0.15617421495E+04  0.25312819870E+04  0.19920717748E+04 0.  0.
        4    1    3    3  502    0  0.10326642841E+03 -0.59052473792E+02 -0.20374520511E+04  0.20409222483E+04  0.12699999809E+01 0. -1.
       -4    1    3    3    0  502 -0.10326642841E+03  0.59052473792E+02  0.47570990163E+03  0.49035973867E+03  0.12699999809E+01 0.  1.
</event>
<event>
 5   0  0.2386776E-06  0.1999024E+04  0.7818609E-02  0.8607077E-01
       -1   -1    0    0    0  501  0.00000000000E+00  0.00000000000E+00  0.10578576153E+04  0.10578576153E+04  0.50400001928E-02 0. -1.
        1   -1    0    0  501    0  0.00000000000E+00  0.00000000000E+00 -0.94438446615E+03  0.94438446617E+03  0.50400001928E-02 0.  1.
    10030    2    1    2    0    0  0.00000000000E+00  0.00000000000E+00  0.11347314917E+03  0.20022420815E+04  0.19990240612E+04 0.  0.
        2    1    3    3  502    0  0.14100295673E+03 -0.88870450126E+03 -0.37910386054E+03  0.97642063756E+03  0.25500000920E-02 0.  1.
       -2    1    3    3    0  502 -0.14100295673E+03  0.88870450126E+03  0.49257700970E+03  0.10258214439E+04  0.25500000920E-02 0. -1.
</event>
<event>
 5   0  0.5118981E-06  0.1999653E+04  0.7818609E-02  0.8606783E-01
       -2   -1    0    0    0  501  0.00000000000E+00  0.00000000000E+00  0.48109297523E+03  0.48109297524E+03  0.25500000920E-02 0.  1.
        2   -1    0    0  501    0  0.00000000000E+00  0.00000000000E+00 -0.20778797486E+04  0.20778797486E+04  0.25500000920E-02 0. -1.
    10030    2    1    2    0    0  0.00000000000E+00  0.00000000000E+00 -0.15967867734E+04  0.25589727239E+04  0.19996533204E+04 0.  0.
        4    1    3    3  502    0 -0.46891463200E+03 -0.84283410783E+03 -0.11355217479E+04  0.14898528513E+04  0.12699999809E+01 0. -1.
       -4    1    3    3    0  502  0.46891463200E+03  0.84283410783E+03 -0.46126502547E+03  0.10691198726E+04  0.12699999809E+01 0.  1.
</event>
<event>
 5   0  0.5129100E-06  0.1999866E+04  0.7818609E-02  0.8606683E-01
       -2   -1    0    0    0  501  0.00000000000E+00  0.00000000000E+00  0.73923253898E+03  0.73923253898E+03  0.25500000920E-02 0.  1.
        2   -1    0    0  501    0  0.00000000000E+00  0.00000000000E+00 -0.13525729505E+04  0.13525729505E+04  0.25500000920E-02 0. -1.
    10030    2    1    2    0    0  0.00000000000E+00  0.00000000000E+00 -0.61334041154E+03  0.20918054895E+04  0.19998659319E+04 0.  0.
        2    1    3    3  502    0 -0.87157975424E+03  0.10062761112E+03  0.19505753113E+03  0.89879064558E+03  0.25500000920E-02 0.  1.
       -2    1    3    3    0  502  0.87157975424E+03 -0.10062761112E+03 -0.80839794267E+03  0.11930148439E+04  0.25500000920E-02 0. -1.
</event>
<event>
 5   0  0.5251252E-06  0.1999848E+04  0.7818609E-02  0.8606692E-01
        2   -1    0    0  501    0  0.00000000000E+00  0.00000000000E+00  0.22207080464E+04  0.22207080464E+04  0.25500000920E-02 0. -1.
       -2   -1    0    0    0  501  0.00000000000E+00  0.00000000000E+00 -0.45023856122E+03  0.45023856122E+03  0.25500000920E-02 0.  1.
    10030    2    1    2    0    0  0.00000000000E+00  0.00000000000E+00  0.17704694852E+04  0.26709466076E+04  0.19998483900E+04 0.  0.
        5    1    3    3  502    0  0.22938338600E+03 -0.96098725260E+03  0.67956897554E+03  0.11991452456E+04  0.46999998093E+01 0. -1.
       -5    1    3    3    0  502 -0.22938338600E+03  0.96098725260E+03  0.10909005096E+04  0.14718013621E+04  0.46999998093E+01 0.  1.
</event>
<event>
 5   0  0.2386776E-06  0.1998025E+04  0.7818609E-02  0.8607545E-01
        1   -1    0    0  501    0  0.00000000000E+00  0.00000000000E+00  0.74123546903E+03  0.74123546905E+03  0.50400001928E-02 0.  1.
       -1   -1    0    0    0  501  0.00000000000E+00  0.00000000000E+00 -0.13464359639E+04  0.13464359639E+04  0.50400001928E-02 0. -1.
    10030    2    1    2    0    0  0.00000000000E+00  0.00000000000E+00 -0.60520049489E+03  0.20876714330E+04  0.19980251182E+04 0.  0.
        2    1    3    3  502    0 -0.14683179696E+03 -0.83323063682E+03 -0.85765329864E+03  0.12047414874E+04  0.25500000920E-02 0. -1.
       -2    1    3    3    0  502  0.14683179696E+03  0.83323063682E+03  0.25245280375E+03  0.88292994561E+03  0.25500000920E-02 0.  1.
</event>
<event>
 5   0  0.5118981E-06  0.2000683E+04  0.7818609E-02  0.8606301E-01
        2   -1    0    0  501    0  0.00000000000E+00  0.00000000000E+00  0.16126819920E+04  0.16126819920E+04  0.25500000920E-02 0.  1.
       -2   -1    0    0    0  501  0.00000000000E+00  0.00000000000E+00 -0.62050895228E+03  0.62050895229E+03  0.25500000920E-02 0. -1.
    10030    2    1    2    0    0  0.00000000000E+00  0.00000000000E+00  0.99217303975E+03  0.22331909443E+04  0.20006834965E+04 0.  0.
        4    1    3    3  502    0 -0.94802973638E+03  0.31343142273E+03  0.42835189344E+03  0.10865019997E+04  0.12699999809E+01 0. -1.
       -4    1    3    3    0  502  0.94802973638E+03 -0.31343142273E+03  0.56382114631E+03  0.11466889446E+04  0.12699999809E+01 0.  1.
</event>
<event>
 5   0  0.5030137E-06  0.1995479E+04  0.7818609E-02  0.8608737E-01
       -2   -1    0    0    0  501  0.00000000000E+00  0.00000000000E+00  0.70608386958E+03  0.70608386959E+03  0.25500000920E-02 0. -1.
        2   -1    0    0  501    0  0.00000000000E+00  0.00000000000E+00 -0.14098662805E+04  0.14098662805E+04  0.25500000920E-02 0.  1.
    10030    2    1    2    0    0  0.00000000000E+00  0.00000000000E+00 -0.70378241096E+03  0.21159501501E+04  0.19954787285E+04 0.  0.
        3    1    3    3  502    0  0.46395649769E+03 -0.83932718190E+03 -0.64375001413E+03  0.11550497136E+04  0.10100000352E+00 0. -1.
       -3    1    3    3    0  502 -0.46395649769E+03  0.83932718190E+03 -0.60032396825E+02  0.96090043652E+03  0.10100000352E+00 0.  1.
</event>
<event>
 5   0  0.2311520E-06  0.2000705E+04  0.7818609E-02  0.8606291E-01
        1   -1    0    0  501    0  0.00000000000E+00  0.00000000000E+00  0.15011398830E+04  0.15011398830E+04  0.50400001928E-02 0.  1.
       -1   -1    0    0    0  501  0.00000000000E+00  0.00000000000E+00 -0.66663045654E+03  0.66663045656E+03  0.50400001928E-02 0. -1.
    10030    2    1    2    0    0  0.00000000000E+00  0.00000000000E+00  0.83450942642E+03  0.21677703395E+04  0.20007054411E+04 0.  0.
        3    1    3    3  502    0  0.81272342586E+02  0.98426739807E+03  0.58965788426E+03  0.11502538569E+04  0.10100000352E+00 0.  1.
       -3    1    3    3    0  502 -0.81272342586E+02 -0.98426739807E+03  0.24485154216E+03  0.10175164827E+04  0.10100000352E+00 0. -1.
</event>
<event>
 5   0  0.5030137E-06  0.1999679E+04  0.7818609E-02  0.8606771E-01
       -2   -1    0    0    0  501  0.00000000000E+00  0.00000000000E+00  0.47987812409E+03  0.47987812409E+03  0.25500000920E-02 0.  1.
        2   -1    0    0  501    0  0.00000000000E+00  0.00000000000E+00 -0.20831925677E+04  0.20831925677E+04  0.25500000920E-02 0. -1.
    10030    2    1    2    0    0  0.00000000000E+00  0.00000000000E+00 -0.16033144436E+04  0.25630706918E+04  0.19996785157E+04 0.  0.
        3    1    3    3  502    0 -0.87809396691E+03 -0.41599288886E+03 -0.11038314767E+04  0.14705587501E+04  0.10100000352E+00 0. -1.
       -3    1    3    3    0  502  0.87809396691E+03  0.41599288886E+03 -0.49948296692E+03  0.10925119417E+04  0.10100000352E+00 0.  1.
</event>
<event>
 5   0  0.2386776E-06  0.1999981E+04  0.7818609E-02  0.8606629E-01
       -1   -1    0    0    0  501  0.00000000000E+00  0.00000000000E+00  0.96878858602E+03  0.96878858604E+03  0.50400001928E-02 0.  1.
        1   -1    0    0  501    0  0.00000000000E+00  0.00000000000E+00 -0.10321977341E+04  0.10321977341E+04  0.50400001928E-02 0. -1.
    10030    2    1    2    0    0  0.00000000000E+00  0.00000000000E+00 -0.63409148097E+02  0.20009863202E+04  0.19999813833E+04 0.  0.
        2    1    3    3  502    0 -0.35072680750E+03  0.31041688899E+03 -0.91567183392E+03  0.10285051511E+04  0.25500000920E-02 0. -1.
       -2    1    3    3    0  502  0.35072680750E+03 -0.31041688899E+03  0.85226268583E+03  0.97248116903E+03  0.25500000920E-02 0.  1.
</event>
<event>
 5   0  0.2313821E-06  0.2000107E+04  0.7818609E-02  0.8606571E-01
       -1   -1    0    0    0  501  0.00000000000E+00  0.00000000000E+00  0.73013402566E+03  0.73013402568E+03  0.50400001928E-02 0. -1.
        1   -1    0    0  501    0  0.00000000000E+00  0.00000000000E+00 -0.13697576735E+04  0.13697576735E+04  0.50400001928E-02 0.  1.
    10030    2    1    2    0    0  0.00000000000E+00  0.00000000000E+00 -0.63962364784E+03  0.20998916992E+04  0.20001066815E+04 0.  0.
        1    1    3    3  502    0 -0.30543585780E+03  0.44576334695E+03  0.56366325255E+03  0.78084075650E+03  0.50400001928E-02 0. -1.
       -1    1    3    3    0  502  0.30543585780E+03 -0.44576334695E+03 -0.12032869004E+04  0.13190509427E+04  0.50400001928E-02 0.  1.
</event>
<event>
 5   0  0.5118981E-06  0.1999882E+04  0.7818609E-02  0.8606676E-01
       -2   -1    0    0    0  501  0.00000000000E+00  0.00000000000E+00  0.71914539997E+03  0.71914539998E+03  0.25500000920E-02 0.  1.
        2   -1    0    0  501    0  0.00000000000E+00  0.00000000000E+00 -0.13903752932E+04  0.13903752932E+04  0.25500000920E-02 0. -1.
    10030    2    1    2    0    0  0.00000000000E+00  0.00000000000E+00 -0.67122989320E+03  0.21095206931E+04  0.19998819928E+04 0.  0.
        4    1    3    3  502    0  0.72899985707E+03  0.16141800464E+03  0.36596802081E+03  0.83152316203E+03  0.12699999809E+01 0.  1.
       -4    1    3    3    0  502 -0.72899985707E+03 -0.16141800464E+03 -0.10371979140E+04  0.12779975311E+04  0.12699999809E+01 0. -1.
</event>
<event>
 5   0  0.5118981E-06  0.1999832E+04  0.7818609E-02  0.8606699E-01
        2   -1    0    0  501    0  0.00000000000E+00  0.00000000000E+00  0.13229782614E+04  0.13229782614E+04  0.25500000920E-02 0. -1.
       -2   -1    0    0    0  501  0.00000000000E+00  0.00000000000E+00 -0.75574307036E+03  0.75574307036E+03  0.25500000920E-02 0.  1.
    10030    2    1    2    0    0  0.00000000000E+00  0.00000000000E+00  0.56723519107E+03  0.20787213318E+04  0.19998316462E+04 0.  0.
        4    1    3    3  502    0 -0.70683678920E+03 -0.70512476983E+03  0.22658178736E+03  0.10237969070E+04  0.12699999809E+01 0. -1.
       -4    1    3    3    0  502  0.70683678920E+03  0.70512476983E+03  0.34065340371E+03  0.10549244248E+04  0.12699999809E+01 0.  1.
</event>
<event>
 5   0  0.5118981E-06  0.2000255E+04  0.7818609E-02  0.8606502E-01
        2   -1    0    0  501    0  0.00000000000E+00  0.00000000000E+00  0.95376544426E+03  0.95376544426E+03  0.25500000920E-02 0.  1.
       -2   -1    0    0    0  501  0.00000000000E+00  0.00000000000E+00 -0.10487428024E+04  0.10487428024E+04  0.25500000920E-02 0. -1.
    10030    2    1    2    0    0  0.00000000000E+00  0.00000000000E+00 -0.94977358107E+02  0.20025082466E+04  0.20002546286E+04 0.  0.
        4    1    3    3  502    0  0.67945655356E+03  0.56766943209E+03 -0.51313984376E+03  0.10233395841E+04  0.12699999809E+01 0. -1.
       -4    1    3    3    0  502 -0.67945655356E+03 -0.56766943209E+03  0.41816248565E+03  0.97916866250E+03  0.12699999809E+01 0.  1.
</event>
<event>
 5   0  0.2313821E-06  0.1999124E+04  0.7818609E-02  0.8607030E-01
       -1   -1    0    0    0  501  0.00000000000E+00  0.00000000000E+00  0.93289261172E+03  0.93289261173E+03  0.50400001928E-02 0.  1.
        1   -1    0    0  501    0  0.00000000000E+00  0.00000000000E+00 -0.10709960468E+04  0.10709960468E+04  0.50400001928E-02 0. -1.
    10030    2    1    2    0    0  0.00000000000E+00  0.00000000000E+00 -0.13810343510E+03  0.20038886586E+04  0.19991241075E+04 0.  0.
        1    1    3    3  502    0  0.39305656509E+03  0.12717692864E+03  0.84331362868E+03  0.93906619090E+03  0.50400001928E-02 0.  1.
       -1    1    3    3    0  502 -0.39305656509E+03 -0.12717692864E+03 -0.98141706378E+03  0.10648224677E+04  0.50400001928E-02 0. -1.
</event>
<event>
 5   0  0.5030137E-06  0.1999130E+04  0.7818609E-02  0.8607028E-01
        2   -1    0    0  501    0  0.00000000000E+00  0.00000000000E+00  0.10910053655E+04  0.10910053655E+04  0.25500000920E-02 0.  1.
       -2   -1    0    0    0  501  0.00000000000E+00  0.00000000000E+00 -0.91578850713E+03  0.91578850713E+03  0.25500000920E-02 0. -1.
    10030    2    1    2    0    0  0.00000000000E+00  0.00000000000E+00  0.17521685836E+03  0.20067938726E+04  0.19991299857E+04 0.  0.
        3    1    3    3  502    0 -0.15130080727E+03  0.27374770580E+03 -0.86539951448E+03  0.92018806261E+03  0.10100000352E+00 0. -1.
       -3    1    3    3    0  502  0.15130080727E+03 -0.27374770580E+03  0.10406163728E+04  0.10866058100E+04  0.10100000352E+00 0.  1.
</event>
<event>
 5   0  0.4956214E-06  0.2002215E+04  0.7818609E-02  0.8605586E-01
        2   -1    0    0  501    0  0.00000000000E+00  0.00000000000E+00  0.24215573664E+04  0.24215573664E+04  0.25500000920E-02 0. -1.
       -2   -1    0    0    0  501  0.00000000000E+00  0.00000000000E+00 -0.41387246450E+03  0.41387246450E+03  0.25500000920E-02 0.  1.
    10030    2    1    2    0    0  0.00000000000E+00  0.00000000000E+00  0.20076849019E+04  0.28354298309E+04  0.20022146889E+04 0.  0.
        1    1    3    3  502    0  0.38650401264E+02  0.79273052582E+03  0.13976037227E+03  0.80588367757E+03  0.50400001928E-02 0.  1.
       -1    1    3    3    0  502 -0.38650401264E+02 -0.79273052582E+03  0.18679245296E+04  0.20295461533E+04  0.50400001928E-02 0. -1.
</event>
<event>
 5   0  0.2386776E-06  0.2000369E+04  0.7818609E-02  0.8606448E-01
       -1   -1    0    0    0  501  0.00000000000E+00  0.00000000000E+00  0.52762873169E+03  0.52762873171E+03  0.50400001928E-02 0.  1.
        1   -1    0    0  501    0  0.00000000000E+00  0.00000000000E+00 -0.18959720904E+04  0.18959720904E+04  0.50400001928E-02 0. -1.
    10030    2    1    2    0    0  0.00000000000E+00  0.00000000000E+00 -0.13683433587E+04  0.24236008221E+04  0.20003693153E+04 0.  0.
        2    1    3    3  502    0  0.68979571527E+03 -0.22185166364E+03  0.15114262313E+03  0.74018942305E+03  0.25500000920E-02 0.  1.
       -2    1    3    3    0  502 -0.68979571527E+03  0.22185166364E+03 -0.15194859818E+04  0.16834113990E+04  0.25500000920E-02 0. -1.
</event>
<event>
 5   0  0.2313821E-06  0.1993469E+04  0.7818609E-02  0.8609680E-01
        1   -1    0    0  501    0  0.00000000000E+00  0.00000000000E+00  0.87939656504E+03  0.87939656506E+03  0.50400001928E-02 0.  1.
       -1   -1    0    0    0  501  0.00000000000E+00  0.00000000000E+00 -0.11297287853E+04  0.11297287853E+04  0.50400001928E-02 0. -1.
    10030    2    1    2    0    0  0.00000000000E+00  0.00000000000E+00 -0.25033222025E+03  0.20091253504E+04  0.19934689496E+04 0.  0.
        1    1    3    3  502    0 -0.11652111187E+02  0.68100524071E+03 -0.85860103080E+03  0.10959469146E+04  0.50400001928E-02 0. -1.
       -1    1    3    3    0  502  0.11652111187E+02 -0.68100524071E+03  0.60826881056E+03  0.91317843573E+03  0.50400001928E-02 0.  1.
</event>
<event>
 5   0  0.2386776E-06  0.1999260E+04  0.7818609E-02  0.8606967E-01
        1   -1    0    0  501    0  0.00000000000E+00  0.00000000000E+00  0.17972365246E+04  0.17972365246E+04  0.50400001928E-02 0.  1.
       -1   -1    0    0    0  501  0.00000000000E+00  0.00000000000E+00 -0.55599821386E+03  0.55599821388E+03  0.50400001928E-02 0. -1.
    10030    2    1    2    0    0  0.00000000000E+00  0.00000000000E+00  0.12412383108E+04  0.23532347385E+04  0.19992601608E+04 0.  0.
        2    1    3    3  502    0 -0.13492590134E+03  0.30923466381E+03 -0.48695513037E+03  0.59241571143E+03  0.25500000920E-02 0. -1.
       -2    1    3    3    0  502  0.13492590134E+03 -0.30923466381E+03  0.17281934411E+04  0.17608190271E+04  0.25500000920E-02 0.  1.
</event>
<event>
 5   0  0.5030137E-06  0.1999396E+04  0.7818609E-02  0.8606903E-01
        2   -1    0    0  501    0  0.00000000000E+00  0.00000000000E+00  0.23921080813E+04  0.23921080813E+04  0.25500000920E-02 0. -1.
       -2   -1    0    0    0  501  0.00000000000E+00  0.00000000000E+00 -0.41778876088E+03  0.41778876089E+03  0.25500000920E-02 0.  1.
    10030    2    1    2    0    0  0.00000000000E+00  0.00000000000E+00  0.19743193205E+04  0.28098968422E+04  0.19993957799E+04 0.  0.
        3    1    3    3  502    0 -0.86289420944E+03 -0.61692067974E+02  0.16912550852E+04  0.18996673660E+04  0.10100000352E+00 0. -1.
       -3    1    3    3    0  502  0.86289420944E+03  0.61692067974E+02  0.28306423525E+03  0.91022947624E+03  0.10100000352E+00 0.  1.
</event>
<event>
 5   0  0.2386776E-06  0.2013163E+04  0.7818609E-02  0.8600491E-01
       -1   -1    0    0    0  501  0.00000000000E+00  0.00000000000E+00  0.83338250724E+03  0.83338250725E+03  0.50400001928E-02 0. -1.
        1   -1    0    0  501    0  0.00000000000E+00  0.00000000000E+00 -0.12157757483E+04  0.12157757483E+04  0.50400001928E-02 0.  1.
    10030    2    1    2    0    0  0.00000000000E+00  0.00000000000E+00 -0.38239324104E+03  0.20491582555E+04  0.20131629257E+04 0.  0.
        2    1    3    3  502    0 -0.26409914048E+03 -0.94992112010E+03 -0.39757226118E+03  0.10630908678E+04  0.25500000920E-02 0. -1.
       -2    1    3    3    0  502  0.26409914048E+03  0.94992112010E+03  0.15179020138E+02  0.98606738770E+03  0.25500000920E-02 0.  1.
</event>
<event>
 5   0  0.5118981E-06  0.1986219E+04  0.7818609E-02  0.8613091E-01
        2   -1    0    0  501    0  0.00000000000E+00  0.00000000000E+00  0.17246877099E+04  0.17246877099E+04  0.25500000920E-02 0.  1.
       -2   -1    0    0    0  501  0.00000000000E+00  0.00000000000E+00 -0.57185223151E+03  0.57185223151E+03  0.25500000920E-02 0. -1.
    10030    2    1    2    0    0  0.00000000000E+00  0.00000000000E+00  0.11528354784E+04  0.22965399414E+04  0.19862190368E+04 0.  0.
        4    1    3    3  502    0 -0.70979934177E+03 -0.64134152956E+03  0.26804510518E+03  0.99347061075E+03  0.12699999809E+01 0. -1.
       -4    1    3    3    0  502  0.70979934177E+03  0.64134152956E+03  0.88479037321E+03  0.13030693307E+04  0.12699999809E+01 0.  1.
</event>
<event>
 5   0  0.2311520E-06  0.1999626E+04  0.7818609E-02  0.8606796E-01
       -1   -1    0    0    0  501  0.00000000000E+00  0.00000000000E+00  0.97412947218E+03  0.97412947220E+03  0.50400001928E-02 0. -1.
        1   -1    0    0  501    0  0.00000000000E+00  0.00000000000E+00 -0.10261735332E+04  0.10261735332E+04  0.50400001928E-02 0.  1.
    10030    2    1    2    0    0  0.00000000000E+00  0.00000000000E+00 -0.52044060979E+02  0.20003030054E+04  0.19996258473E+04 0.  0.
        3    1    3    3  502    0 -0.18521267174E+03 -0.83764846017E+03  0.48763719845E+03  0.98678707132E+03  0.10100000352E+00 0. -1.
       -3    1    3    3    0  502  0.18521267174E+03  0.83764846017E+03 -0.53968125943E+03  0.10135159341E+04  0.10100000352E+00 0.  1.
</event>
<event>
 5   0  0.2313821E-06  0.2001620E+04  0.7818609E-02  0.8605864E-01
        1   -1    0    0  501    0  0.00000000000E+00  0.00000000000E+00  0.25242749229E+04  0.25242749229E+04  0.50400001928E-02 0.  1.
       -1   -1    0    0    0  501  0.00000000000E+00  0.00000000000E+00 -0.39679538039E+03  0.39679538042E+03  0.50400001928E-02 0. -1.
    10030    2    1    2    0    0  0.00000000000E+00  0.00000000000E+00  0.21274795425E+04  0.29210703033E+04  0.20016199722E+04 0.  0.
        1    1    3    3  502    0  0.27111210476E+03 -0.95522528067E+03  0.12463836158E+04  0.15935586678E+04  0.50400001928E-02 0. -1.
       -1    1    3    3    0  502 -0.27111210476E+03  0.95522528067E+03  0.88109592674E+03  0.13275116355E+04  0.50400001928E-02 0.  1.
</event>
<event>
 5   0  0.5118981E-06  0.1998183E+04  0.7818609E-02  0.8607471E-01
       -2   -1    0    0    0  501  0.00000000000E+00  0.00000000000E+00  0.59363628267E+03  0.59363628268E+03  0.25500000920E-02 0.  1.
        2   -1    0    0  501    0  0.00000000000E+00  0.00000000000E+00 -0.16814735204E+04  0.16814735204E+04  0.25500000920E-02 0. -1.
    10030    2    1    2    0    0  0.00000000000E+00  0.00000000000E+00 -0.10878372377E+04  0.22751098030E+04  0.19981828646E+04 0.  0.
        4    1    3    3  502    0  0.23567866390E+03  0.95657507729E+03 -0.35475589172E+03  0.10471072852E+04  0.12699999809E+01 0. -1.
       -4    1    3    3    0  502 -0.23567866390E+03 -0.95657507729E+03 -0.73308134597E+03  0.12280025178E+04  0.12699999809E+01 0.  1.
</event>
<event>
 5   0  0.5251252E-06  0.1999612E+04  0.7818609E-02  0.8606802E-01
       -2   -1    0    0    0  501  0.00000000000E+00  0.00000000000E+00  0.78995391632E+03  0.78995391632E+03  0.25500000920E-02 0. -1.
        2   -1    0    0  501    0  0.00000000000E+00  0.00000000000E+00 -0.12654057328E+04  0.12654057328E+04  0.25500000920E-02 0.  1.
    10030    2    1    2    0    0  0.00000000000E+00  0.00000000000E+00 -0.47545181652E+03  0.20553596492E+04  0.19996121768E+04 0.  0.
        5    1    3    3  502    0 -0.92023785827E+03  0.16559260312E+03 -0.60161762461E+03  0.11118563227E+04  0.46999998093E+01 0. -1.
       -5    1    3    3    0  502  0.92023785827E+03 -0.16559260312E+03  0.12616580809E+03  0.94350332651E+03  0.46999998093E+01 0.  1.
</event>
<event>
 5   0  0.2386776E-06  0.2000461E+04  0.7818609E-02  0.8606405E-01
       -1   -1    0    0    0  501  0.00000000000E+00  0.00000000000E+00  0.11025266067E+04  0.11025266067E+04  0.50400001928E-02 0. -1.
        1   -1    0    0  501    0  0.00000000000E+00  0.00000000000E+00 -0.90742543786E+03  0.90742543787E+03  0.50400001928E-02 0.  1.
    10030    2    1    2    0    0  0.00000000000E+00  0.00000000000E+00  0.19510116882E+03  0.20099520446E+04  0.20004606358E+04 0.  0.
        2    1    3    3  502    0 -0.76040424085E+02 -0.99271657035E+03  0.12189233928E+01  0.99562534164E+03  0.25500000920E-02 0. -1.
       -2    1    3    3    0  502  0.76040424085E+02  0.99271657035E+03  0.19388224543E+03  0.10143267029E+04  0.25500000920E-02 0.  1.
</event>
<event>
 5   0  0.2356996E-06  0.2000097E+04  0.7818609E-02  0.8606575E-01
       -1   -1    0    0    0  501  0.00000000000E+00  0.00000000000E+00  0.90605438102E+03  0.90605438103E+03  0.50400001928E-02 0. -1.
        1   -1    0    0  501    0  0.00000000000E+00  0.00000000000E+00 -0.11037932697E+04  0.11037932697E+04  0.50400001928E-02 0.  1.
    10030    2    1    2    0    0  0.00000000000E+00  0.00000000000E+00 -0.19773888867E+03  0.20098476507E+04  0.20000967254E+04 0.  0.
        4    1    3    3  502    0  0.92982033087E+03 -0.33436688308E+03  0.55920664963E+02  0.98969479834E+03  0.12699999809E+01 0. -1.
       -4    1    3    3    0  502 -0.92982033087E+03  0.33436688308E+03 -0.25365955363E+03  0.10201528524E+04  0.12699999809E+01 0.  1.
</event>
<event>
 5   0  0.2313821E-06  0.2002687E+04  0.7818609E-02  0.8605365E-01
        1   -1    0    0  501    0  0.00000000000E+00  0.00000000000E+00  0.20913231194E+04  0.20913231194E+04  0.50400001928E-02 0.  1.
       -1   -1    0    0    0  501  0.00000000000E+00  0.00000000000E+00 -0.47945211134E+03  0.47945211137E+03  0.50400001928E-02 0. -1.
    10030    2    1    2    0    0  0.00000000000E+00  0.00000000000E+00  0.16118710081E+04  0.25707752308E+04  0.20026874795E+04 0.  0.
        1    1    3    3  502    0 -0.13416329594E+03 -0.26149409168E+03  0.20347100792E+04  0.20558268547E+04  0.50400001928E-02 0.  1.
       -1    1    3    3    0  502  0.13416329594E+03  0.26149409168E+03 -0.42283907113E+03  0.51494837611E+03  0.50400001928E-02 0. -1.
</event>
<event>
 5   0  0.2379743E-06  0.1998314E+04  0.7818609E-02  0.8607409E-01
       -1   -1    0    0    0  501  0.00000000000E+00  0.00000000000E+00  0.39287696715E+03  0.39287696718E+03  0.50400001928E-02 0. -1.
        1   -1    0    0  501    0  0.00000000000E+00  0.00000000000E+00 -0.25410357478E+04  0.25410357478E+04  0.50400001928E-02 0.  1.
    10030    2    1    2    0    0  0.00000000000E+00  0.00000000000E+00 -0.21481587806E+04  0.29339127150E+04  0.19983137072E+04 0.  0.
        5    1    3    3  502    0  0.82570081076E+03 -0.56140827895E+03 -0.11276482339E+04  0.15061785133E+04  0.46999998093E+01 0.  1.
       -5    1    3    3    0  502 -0.82570081076E+03  0.56140827895E+03 -0.10205105468E+04  0.14277342017E+04  0.46999998093E+01 0. -1.
</event>
<event>
 5   0  0.2311520E-06  0.1999492E+04  0.7818609E-02  0.8606858E-01
       -1   -1    0    0    0  501  0.00000000000E+00  0.00000000000E+00  0.81274203369E+03  0.81274203371E+03  0.50400001928E-02 0.  1.
        1   -1    0    0  501    0  0.00000000000E+00  0.00000000000E+00 -0.12297774173E+04  0.12297774173E+04  0.50400001928E-02 0. -1.
    10030    2    1    2    0    0  0.00000000000E+00  0.00000000000E+00 -0.41703538358E+03  0.20425194510E+04  0.19994917345E+04 0.  0.
        3    1    3    3  502    0 -0.39999428029E+03 -0.51327015127E+03 -0.98383007800E+03  0.11795606407E+04  0.10100000352E+00 0. -1.
       -3    1    3    3    0  502  0.39999428029E+03  0.51327015127E+03  0.56679469443E+03  0.86295881031E+03  0.10100000352E+00 0.  1.
</event>
<event>
 5   0  0.4956214E-06  0.1999644E+04  0.7818609E-02  0.8606787E-01
       -2   -1    0    0    0  501  0.00000000000E+00  0.00000000000E+00  0.48747759637E+03  0.48747759638E+03  0.25500000920E-02 0.  1.
        2   -1    0    0  501    0  0.00000000000E+00  0.00000000000E+00 -0.20506452061E+04  0.20506452061E+04  0.25500000920E-02 0. -1.
    10030    2    1    2    0    0  0.00000000000E+00  0.00000000000E+00 -0.15631676097E+04  0.25381228024E+04  0.19996435643E+04 0.  0.
        1    1    3    3  502    0 -0.75300601017E+03  0.63154042574E+03 -0.54828944861E+03  0.11253811266E+04  0.50400001928E-02 0. -1.
       -1    1    3    3    0  502  0.75300601017E+03 -0.63154042574E+03 -0.10148781611E+04  0.14127416758E+04  0.50400001928E-02 0.  1.
</event>
<event>
 5   0  0.2379743E-06  0.2005820E+04  0.7818609E-02  0.8603904E-01
       -1   -1    0    0    0  501  0.00000000000E+00  0.00000000000E+00  0.75566327518E+03  0.75566327520E+03  0.50400001928E-02 0.  1.
        1   -1    0    0  501    0  0.00000000000E+00  0.00000000000E+00 -0.13310541590E+04  0.13310541590E+04  0.50400001928E-02 0. -1.
    10030    2    1    2    0    0  0.00000000000E+00  0.00000000000E+00 -0.57539088380E+03  0.20867174342E+04  0.20058202763E+04 0.  0.
        5    1    3    3  502    0  0.39735386110E+03 -0.21207744655E+03 -0.12199040281E+04  0.13004056529E+04  0.46999998093E+01 0. -1.
       -5    1    3    3    0  502 -0.39735386110E+03  0.21207744655E+03  0.64451314429E+03  0.78631178131E+03  0.46999998093E+01 0.  1.
</event>
<event>
 5   0  0.2313821E-06  0.2000011E+04  0.7818609E-02  0.8606616E-01
        1   -1    0    0  501    0  0.00000000000E+00  0.00000000000E+00  0.84882075394E+03  0.84882075395E+03  0.50400001928E-02 0. -1.
       -1   -1    0    0    0  501  0.00000000000E+00  0.00000000000E+00 -0.11781179363E+04  0.11781179363E+04  0.50400001928E-02 0.  1.
    10030    2    1    2    0    0  0.00000000000E+00  0.00000000000E+00 -0.32929718234E+03  0.20269386902E+04  0.20000109549E+04 0.  0.
        1    1    3    3  502    0  0.27597351551E+03 -0.42387524959E+02 -0.11378128502E+04  0.11715699576E+04  0.50400001928E-02 0.  1.
       -1    1    3    3    0  502 -0.27597351551E+03  0.42387524959E+02  0.80851566785E+03  0.85536873261E+03  0.50400001928E-02 0. -1.
</event>
<event>
 5   0  0.2311520E-06  0.1998986E+04  0.7818609E-02  0.8607095E-01
       -1   -1    0    0    0  501  0.00000000000E+00  0.00000000000E+00  0.14608905540E+04  0.14608905540E+04  0.50400001928E-02 0.  1.
        1   -1    0    0  501    0  0.00000000000E+00  0.00000000000E+00 -0.68381998854E+03  0.68381998855E+03  0.50400001928E-02 0. -1.
    10030    2    1    2    0    0  0.00000000000E+00  0.00000000000E+00  0.77707056546E+03  0.21447105426E+04  0.19989859048E+04 0.  0.
        3    1    3    3  502    0  0.58455578449E+03  0.80362819525E+03  0.50340271965E+03  0.11139739897E+04  0.10100000352E+00 0. -1.
       -3    1    3    3    0  502 -0.58455578449E+03 -0.80362819525E+03  0.27366784581E+03  0.10307365529E+04  0.10100000352E+00 0.  1.
</event>
<event>
 5   0  0.2356996E-06  0.2000175E+04  0.7818609E-02  0.8606539E-01
        1   -1    0    0  501    0  0.00000000000E+00  0.00000000000E+00  0.12489191407E+04  0.12489191407E+04  0.50400001928E-02 0.  1.
       -1   -1    0    0    0  501  0.00000000000E+00  0.00000000000E+00 -0.80083212996E+03  0.80083212998E+03  0.50400001928E-02 0. -1.
    10030    2    1    2    0    0  0.00000000000E+00  0.00000000000E+00  0.44808701072E+03  0.20497512707E+04  0.20001745680E+04 0.  0.
        4    1    3    3  502    0 -0.95010837402E+03 -0.20444573792E+02 -0.95205041658E+02  0.95508613007E+03  0.12699999809E+01 0. -1.
       -4    1    3    3    0  502  0.95010837402E+03  0.20444573792E+02  0.54329205238E+03  0.10946651406E+04  0.12699999809E+01 0.  1.
</event>
<event>
 5   0  0.2311520E-06  0.1999924E+04  0.7818609E-02  0.8606656E-01
       -1   -1    0    0    0  501  0.00000000000E+00  0.00000000000E+00  0.47694675024E+03  0.47694675027E+03  0.50400001928E-02 0. -1.
        1   -1    0    0  501    0  0.00000000000E+00  0.00000000000E+00 -0.20965113399E+04  0.20965113399E+04  0.50400001928E-02 0.  1.
    10030    2    1    2    0    0  0.00000000000E+00  0.00000000000E+00 -0.16195645896E+04  0.25734580901E+04  0.19999242690E+04 0.  0.
        3    1    3    3  502    0 -0.32466005946E+03  0.27383776037E+03  0.35511267231E+03  0.55362107389E+03  0.10100000352E+00 0. -1.
       -3    1    3    3    0  502  0.32466005946E+03 -0.27383776037E+03 -0.19746772619E+04  0.20198370162E+04  0.10100000352E+00 0.  1.
</event>
<event>
 5   0  0.4956214E-06  0.1999857E+04  0.7818609E-02  0.8606688E-01
       -2   -1    0    0    0  501  0.00000000000E+00  0.00000000000E+00  0.63886994558E+03  0.63886994558E+03  0.25500000920E-02 0. -1.
        2   -1    0    0  501    0  0.00000000000E+00  0.00000000000E+00 -0.15650392296E+04  0.15650392296E+04  0.25500000920E-02 0.  1.
    10030    2    1    2    0    0  0.00000000000E+00  0.00000000000E+00 -0.92616928401E+03  0.22039091752E+04  0.19998565223E+04 0.  0.
        1    1    3    3  502    0  0.10134558208E+02 -0.13898756924E+03  0.62811581583E+03  0.64338925371E+03  0.50400001928E-02 0. -1.
       -1    1    3    3    0  502 -0.10134558208E+02  0.13898756924E+03 -0.15542850998E+04  0.15605199215E+04  0.50400001928E-02 0.  1.
</event>
<event>
 5   0  0.5251252E-06  0.1999953E+04  0.7818609E-02  0.8606643E-01
       -2   -1    0    0    0  501  0.00000000000E+00  0.00000000000E+00  0.10166050455E+04  0.10166050455E+04  0.25500000920E-02 0. -1.
        2   -1    0    0  501    0  0.00000000000E+00  0.00000000000E+00 -0.98361983814E+03  0.98361983814E+03  0.25500000920E-02 0.  1.
    10030    2    1    2    0    0  0.00000000000E+00  0.00000000000E+00  0.32985207312E+02  0.20002248836E+04  0.19999528897E+04 0.  0.
        5    1    3    3  502    0 -0.80769865319E+03 -0.68126422771E+01  0.60607025105E+03  0.10098350190E+04  0.46999998093E+01 0. -1.
       -5    1    3    3    0  502  0.80769865319E+03  0.68126422771E+01 -0.57308504374E+03  0.99038986456E+03  0.46999998093E+01 0.  1.
</event>
<event>
 5   0  0.2311520E-06  0.2000438E+04  0.7818609E-02  0.8606416E-01
       -1   -1    0    0    0  501  0.00000000000E+00  0.00000000000E+00  0.64885092525E+03  0.64885092527E+03  0.50400001928E-02 0.  1.
        1   -1    0    0  501    0  0.00000000000E+00  0.00000000000E+00 -0.15418607373E+04  0.15418607373E+04  0.50400001928E-02 0. -1.
    10030    2    1    2    0    0  0.00000000000E+00  0.00000000000E+00 -0.89300981205E+03  0.21907116626E+04  0.20004377181E+04 0.  0.
        3    1    3    3  502    0  0.14795994774E+03 -0.63373186039E+03  0.38530018373E+03  0.75628331913E+03  0.10100000352E+00 0.  1.
       -3    1    3    3    0  502 -0.14795994774E+03  0.63373186039E+03 -0.12783099958E+04  0.14344283435E+04  0.10100000352E+00 0. -1.
</event>
<event>
 5   0  0.2386776E-06  0.2000321E+04  0.7818609E-02  0.8606471E-01
       -1   -1    0    0    0  501  0.00000000000E+00  0.00000000000E+00  0.52350005588E+03  0.52350005591E+03  0.50400001928E-02 0.  1.
        1   -1    0    0  501    0  0.00000000000E+00  0.00000000000E+00 -0.19108322436E+04  0.19108322436E+04  0.50400001928E-02 0. -1.
    10030    2    1    2    0    0  0.00000000000E+00  0.00000000000E+00 -0.13873321877E+04  0.24343322995E+04  0.20003207606E+04 0.  0.
        2    1    3    3  502    0  0.63086059886E+02 -0.82890906499E+03 -0.13704274670E+04  0.16028541828E+04  0.25500000920E-02 0.  1.
       -2    1    3    3    0  502 -0.63086059886E+02  0.82890906499E+03 -0.16904720697E+02  0.83147811670E+03  0.25500000920E-02 0. -1.
</event>
<event>
 5   0  0.2356996E-06  0.2002871E+04  0.7818609E-02  0.8605280E-01
        1   -1    0    0  501    0  0.00000000000E+00  0.00000000000E+00  0.12488971179E+04  0.12488971179E+04  0.50400001928E-02 0.  1.
       -1   -1    0    0    0  501  0.00000000000E+00  0.00000000000E+00 -0.80300700827E+03  0.80300700829E+03  0.50400001928E-02 0. -1.
    10030    2    1    2    0    0  0.00000000000E+00  0.00000000000E+00  0.44589010966E+03  0.20519041262E+04  0.20028710776E+04 0.  0.
        4    1    3    3  502    0  0.59106583157E+03  0.58458995908E+03 -0.34908565153E+03  0.90164662841E+03  0.12699999809E+01 0. -1.
       -4    1    3    3    0  502 -0.59106583157E+03 -0.58458995908E+03  0.79497576119E+03  0.11502574978E+04  0.12699999809E+01 0.  1.
</event>
<event>
 5   0  0.2386776E-06  0.2001851E+04  0.7818609E-02  0.8605756E-01
        1   -1    0    0  501    0  0.00000000000E+00  0.00000000000E+00  0.10714000719E+04  0.10714000719E+04  0.50400001928E-02 0. -1.
       -1   -1    0    0    0  501  0.00000000000E+00  0.00000000000E+00 -0.93508638143E+03  0.93508638144E+03  0.50400001928E-02 0.  1.
    10030    2    1    2    0    0  0.00000000000E+00  0.00000000000E+00  0.13631369046E+03  0.20064864533E+04  0.20018507600E+04 0.  0.
        2    1    3    3  502    0 -0.15452881955E+03 -0.45247218950E+03  0.94953458514E+03  0.10631209558E+04  0.25500000920E-02 0. -1.
       -2    1    3    3    0  502  0.15452881955E+03  0.45247218950E+03 -0.81322089468E+03  0.94336549751E+03  0.25500000920E-02 0.  1.
</event>
<event>
 5   0  0.2313821E-06  0.2004364E+04  0.7818609E-02  0.8604583E-01
       -1   -1    0    0    0  501  0.00000000000E+00  0.00000000000E+00  0.89250543306E+03  0.89250543307E+03  0.50400001928E-02 0.  1.
        1   -1    0    0  501    0  0.00000000000E+00  0.00000000000E+00 -0.11253367731E+04  0.11253367732E+04  0.50400001928E-02 0. -1.
    10030    2    1    2    0    0  0.00000000000E+00  0.00000000000E+00 -0.23283134009E+03  0.20178422062E+04  0.20043644220E+04 0.  0.
        1    1    3    3  502    0  0.10008815461E+03 -0.89215739159E+03  0.33200819797E+03  0.95717913350E+03  0.50400001928E-02 0.  1.
       -1    1    3    3    0  502 -0.10008815461E+03  0.89215739159E+03 -0.56483953806E+03  0.10606630727E+04  0.50400001928E-02 0. -1.
</event>
<event>
 5   0  0.2379743E-06  0.1999667E+04  0.7818609E-02  0.8606776E-01
        1   -1    0    0  501    0  0.00000000000E+00  0.00000000000E+00  0.23306604634E+04  0.23306604634E+04  0.50400001928E-02 0.  1.
       -1   -1    0    0    0  501  0.00000000000E+00  0.00000000000E+00 -0.42892015152E+03  0.42892015155E+03  0.50400001928E-02 0. -1.
    10030    2    1    2    0    0  0.00000000000E+00  0.00000000000E+00  0.19017403119E+04  0.27595806150E+04  0.19996672115E+04 0.  0.
        5    1    3    3  502    0 -0.36907244771E+03 -0.25849812687E+03 -0.28083872344E+03  0.53096914396E+03  0.46999998093E+01 0. -1.
       -5    1    3    3    0  502  0.36907244771E+03  0.25849812687E+03  0.21825790353E+04  0.22286114710E+04  0.46999998093E+01 0.  1.
</event>
<event>
 5   0  0.5251252E-06  0.1999628E+04  0.7818609E-02  0.8606795E-01
       -2   -1    0    0    0  501  0.00000000000E+00  0.00000000000E+00  0.65475014954E+03  0.65475014955E+03  0.25500000920E-02 0. -1.
        2   -1    0    0  501    0  0.00000000000E+00  0.00000000000E+00 -0.15267314576E+04  0.15267314576E+04  0.25500000920E-02 0.  1.
    10030    2    1    2    0    0  0.00000000000E+00  0.00000000000E+00 -0.87198130808E+03  0.21814816072E+04  0.19996276155E+04 0.  0.
        5    1    3    3  502    0 -0.63745428433E+03  0.66427364747E+03 -0.86131626398E+03  0.12607518550E+04  0.46999998093E+01 0.  1.
       -5    1    3    3    0  502  0.63745428433E+03 -0.66427364747E+03 -0.10665044101E+02  0.92072975215E+03  0.46999998093E+01 0. -1.
</event>
<event>
 5   0  0.5118981E-06  0.2000600E+04  0.7818609E-02  0.8606340E-01
        2   -1    0    0  501    0  0.00000000000E+00  0.00000000000E+00  0.97961895809E+03  0.97961895809E+03  0.25500000920E-02 0. -1.
       -2   -1    0    0    0  501  0.00000000000E+00  0.00000000000E+00 -0.10214176154E+04  0.10214176154E+04  0.25500000920E-02 0.  1.
    10030    2    1    2    0    0  0.00000000000E+00  0.00000000000E+00 -0.41798657350E+02  0.20010365735E+04  0.20005999702E+04 0.  0.
        4    1    3    3  502    0 -0.95537353878E+03  0.29632697869E+03 -0.27983981809E+02  0.10006662746E+04  0.12699999809E+01 0. -1.
       -4    1    3    3    0  502  0.95537353878E+03 -0.29632697869E+03 -0.13814675541E+02  0.10003702990E+04  0.12699999809E+01 0.  1.
</event>
<event>
 5   0  0.2379743E-06  0.1999618E+04  0.7818609E-02  0.8606799E-01
       -1   -1    0    0    0  501  0.00000000000E+00  0.00000000000E+00  0.55087217551E+03  0.55087217553E+03  0.50400001928E-02 0. -1.
        1   -1    0    0  501    0  0.00000000000E+00  0.00000000000E+00 -0.18146094265E+04  0.18146094265E+04  0.50400001928E-02 0.  1.
    10030    2    1    2    0    0  0.00000000000E+00  0.00000000000E+00 -0.12637372509E+04  0.23654816020E+04  0.19996178060E+04 0.  0.
        5    1    3    3  502    0 -0.14421243766E+03 -0.76252382416E+02 -0.17987466226E+04  0.18061348663E+04  0.46999998093E+01 0.  1.
       -5    1    3    3    0  502  0.14421243766E+03  0.76252382416E+02  0.53500937164E+03  0.55934673570E+03  0.46999998093E+01 0. -1.
</event>
<event>
 5   0  0.1777750E-06  0.1999525E+04  0.7818609E-02  0.8606843E-01
       -3   -1    0    0    0  501  0.00000000000E+00  0.00000000000E+00  0.73476462656E+03  0.73476463350E+03  0.10100000352E+00 0.  1.
        3   -1    0    0  501    0  0.00000000000E+00  0.00000000000E+00 -0.13603338031E+04  0.13603338068E+04  0.10100000352E+00 0. -1.
    10030    2    1    2    0    0  0.00000000000E+00  0.00000000000E+00 -0.62556917653E+03  0.20950984403E+04  0.19995251136E+04 0.  0.
        1    1    3    3  502    0 -0.51441044595E+03  0.55730531259E+03  0.36974773297E+03  0.84375393593E+03  0.50400001928E-02 0.  1.
       -1    1    3    3    0  502  0.51441044595E+03 -0.55730531259E+03 -0.99531690949E+03  0.12513445044E+04  0.50400001928E-02 0. -1.
</event>
<event>
 5   0  0.5030137E-06  0.1999953E+04  0.7818609E-02  0.8606643E-01
       -2   -1    0    0    0  501  0.00000000000E+00  0.00000000000E+00  0.58259368876E+03  0.58259368877E+03  0.25500000920E-02 0. -1.
        2   -1    0    0  501    0  0.00000000000E+00  0.00000000000E+00 -0.17163813357E+04  0.17163813357E+04  0.25500000920E-02 0.  1.
    10030    2    1    2    0    0  0.00000000000E+00  0.00000000000E+00 -0.11337876470E+04  0.22989750245E+04  0.19999529332E+04 0.  0.
        3    1    3    3  502    0  0.83801055962E+03 -0.54007595978E+03 -0.47778469447E+03  0.11055414804E+04  0.10100000352E+00 0. -1.
       -3    1    3    3    0  502 -0.83801055962E+03  0.54007595978E+03 -0.65600295251E+03  0.11934335441E+04  0.10100000352E+00 0.  1.
</event>
<event>
 5   0  0.5118981E-06  0.2000244E+04  0.7818609E-02  0.8606507E-01
       -2   -1    0    0    0  501  0.00000000000E+00  0.00000000000E+00  0.75319189952E+03  0.75319189952E+03  0.25500000920E-02 0.  1.
        2   -1    0    0  501    0  0.00000000000E+00  0.00000000000E+00 -0.13280063952E+04  0.13280063952E+04  0.25500000920E-02 0. -1.
    10030    2    1    2    0    0  0.00000000000E+00  0.00000000000E+00 -0.57481449569E+03  0.20811982947E+04  0.20002436445E+04 0.  0.
        4    1    3    3  502    0  0.35407247808E+03 -0.82137752947E+03 -0.75296915351E+03  0.11691845554E+04  0.12699999809E+01 0. -1.
       -4    1    3    3    0  502 -0.35407247808E+03  0.82137752947E+03  0.17815465782E+03  0.91201373929E+03  0.12699999809E+01 0.  1.
</event>
<event>
 5   0  0.5118981E-06  0.2001208E+04  0.7818609E-02  0.8606056E-01
       -2   -1    0    0    0  501  0.00000000000E+00  0.00000000000E+00  0.13255642594E+04  0.13255642594E+04  0.25500000920E-02 0. -1.
        2   -1    0    0  501    0  0.00000000000E+00  0.00000000000E+00 -0.75530736859E+03  0.75530736860E+03  0.25500000920E-02 0.  1.
    10030    2    1    2    0    0  0.00000000000E+00  0.00000000000E+00  0.57025689085E+03  0.20808716280E+04  0.20012080878E+04 0.  0.
        4    1    3    3  502    0  0.61214182310E+03  0.12250380564E+03 -0.52797330189E+03  0.81760761640E+03  0.12699999809E+01 0.  1.
       -4    1    3    3    0  502 -0.61214182310E+03 -0.12250380564E+03  0.10982301927E+04  0.12632640116E+04  0.12699999809E+01 0. -1.
</event>
<event>
 5   0  0.2313821E-06  0.1999173E+04  0.7818609E-02  0.8607007E-01
       -1   -1    0    0    0  501  0.00000000000E+00  0.00000000000E+00  0.53678494943E+03  0.53678494945E+03  0.50400001928E-02 0. -1.
        1   -1    0    0  501    0  0.00000000000E+00  0.00000000000E+00 -0.18614030249E+04  0.18614030249E+04  0.50400001928E-02 0.  1.
    10030    2    1    2    0    0  0.00000000000E+00  0.00000000000E+00 -0.13246180755E+04  0.23981879743E+04  0.19991729576E+04 0.  0.
        1    1    3    3  502    0 -0.93012258305E+03  0.42882299959E+01 -0.22314320215E+03  0.95652459305E+03  0.50400001928E-02 0. -1.
       -1    1    3    3    0  502  0.93012258305E+03 -0.42882299959E+01 -0.11014748733E+04  0.14416633813E+04  0.50400001928E-02 0.  1.
</event>
<event>
 5   0  0.2311520E-06  0.1999004E+04  0.7818609E-02  0.8607086E-01
        1   -1    0    0  501    0  0.00000000000E+00  0.00000000000E+00  0.11718318062E+04  0.11718318062E+04  0.50400001928E-02 0. -1.
       -1   -1    0    0    0  501  0.00000000000E+00  0.00000000000E+00 -0.85251533770E+03  0.85251533772E+03  0.50400001928E-02 0.  1.
    10030    2    1    2    0    0  0.00000000000E+00  0.00000000000E+00  0.31931646846E+03  0.20243471439E+04  0.19990043402E+04 0.  0.
        3    1    3    3  502    0  0.21879712058E+03  0.91647969335E+02  0.11429119991E+04  0.11672700537E+04  0.10100000352E+00 0. -1.
       -3    1    3    3    0  502 -0.21879712058E+03 -0.91647969335E+02 -0.82359553066E+03  0.85707709022E+03  0.10100000352E+00 0.  1.
</event>
<event>
 5   0  0.2311520E-06  0.1999391E+04  0.7818609E-02  0.8606906E-01
        1   -1    0    0  501    0  0.00000000000E+00  0.00000000000E+00  0.70485252799E+03  0.70485252801E+03  0.50400001928E-02 0. -1.
       -1   -1    0    0    0  501  0.00000000000E+00  0.00000000000E+00 -0.14178721080E+04  0.14178721080E+04  0.50400001928E-02 0.  1.
    10030    2    1    2    0    0  0.00000000000E+00  0.00000000000E+00 -0.71301957999E+03  0.21227246360E+04  0.19993906469E+04 0.  0.
        3    1    3    3  502    0  0.52035237247E+03  0.72971331361E+03 -0.82670910045E+03  0.12193014634E+04  0.10100000352E+00 0.  1.
       -3    1    3    3    0  502 -0.52035237247E+03 -0.72971331361E+03  0.11368952046E+03  0.90342317264E+03  0.10100000352E+00 0. -1.
</event>
<event>
 5   0  0.4956214E-06  0.2000142E+04  0.7818609E-02  0.8606554E-01
        2   -1    0    0  501    0  0.00000000000E+00  0.00000000000E+00  0.18697223324E+04  0.18697223324E+04  0.25500000920E-02 0. -1.
       -2   -1    0    0    0  501  0.00000000000E+00  0.00000000000E+00 -0.53491479415E+03  0.53491479416E+03  0.25500000920E-02 0.  1.
    10030    2    1    2    0    0  0.00000000000E+00  0.00000000000E+00  0.13348075382E+04  0.24046371265E+04  0.20001421315E+04 0.  0.
        1    1    3    3  502    0  0.42311239075E+03  0.89832905749E+03  0.81027715460E+03  0.12816271915E+04  0.50400001928E-02 0. -1.
       -1    1    3    3    0  502 -0.42311239075E+03 -0.89832905749E+03  0.52453038361E+03  0.11230099350E+04  0.50400001928E-02 0.  1.
</event>
<event>
 5   0  0.2356996E-06  0.2002063E+04  0.7818609E-02  0.8605657E-01
        1   -1    0    0  501    0  0.00000000000E+00  0.00000000000E+00  0.56800683042E+03  0.56800683044E+03  0.50400001928E-02 0.  1.
       -1   -1    0    0    0  501  0.00000000000E+00  0.00000000000E+00 -0.17641756863E+04  0.17641756863E+04  0.50400001928E-02 0. -1.
    10030    2    1    2    0    0  0.00000000000E+00  0.00000000000E+00 -0.11961688558E+04  0.23321825167E+04  0.20020627761E+04 0.  0.
        4    1    3    3  502    0 -0.71543530164E+03 -0.19439490436E+03  0.18545025833E+03  0.76421885667E+03  0.12699999809E+01 0.  1.
       -4    1    3    3    0  502  0.71543530164E+03  0.19439490436E+03 -0.13816191142E+04  0.15679636600E+04  0.12699999809E+01 0. -1.
</event>
<event>
 5   0  0.5030137E-06  0.1999379E+04  0.7818609E-02  0.8606911E-01
        2   -1    0    0  501    0  0.00000000000E+00  0.00000000000E+00  0.22861570063E+04  0.22861570063E+04  0.25500000920E-02 0.  1.
       -2   -1    0    0    0  501  0.00000000000E+00  0.00000000000E+00 -0.43714359681E+03  0.43714359682E+03  0.25500000920E-02 0. -1.
    10030    2    1    2    0    0  0.00000000000E+00  0.00000000000E+00  0.18490134095E+04  0.27233006031E+04  0.19993788001E+04 0.  0.
        3    1    3    3  502    0 -0.93196416281E+03 -0.35630045681E+03  0.10092586497E+04  0.14191935205E+04  0.10100000352E+00 0.  1.
       -3    1    3    3    0  502  0.93196416281E+03  0.35630045681E+03  0.83975475979E+03  0.13041070827E+04  0.10100000352E+00 0. -1.
</event>
<event>
 5   0  0.2379743E-06  0.2001105E+04  0.7818609E-02  0.8606104E-01
       -1   -1    0    0    0  501  0.00000000000E+00  0.00000000000E+00  0.11648587297E+04  0.11648587297E+04  0.50400001928E-02 0. -1.
        1   -1    0    0  501    0  0.00000000000E+00  0.00000000000E+00 -0.85942248365E+03  0.85942248366E+03  0.50400001928E-02 0.  1.
    10030    2    1    2    0    0  0.00000000000E+00  0.00000000000E+00  0.30543624605E+03  0.20242812134E+04  0.20011054771E+04 0.  0.
        5    1    3    3  502    0  0.99960421143E+03  0.41042216057E+02  0.16668562695E+03  0.10142481113E+04  0.46999998093E+01 0. -1.
       -5    1    3    3    0  502 -0.99960421143E+03 -0.41042216057E+02  0.13875061910E+03  0.10100331021E+04  0.46999998093E+01 0.  1.
</event>
<event>
 5   0  0.5030137E-06  0.2000439E+04  0.7818609E-02  0.8606416E-01
       -2   -1    0    0    0  501  0.00000000000E+00  0.00000000000E+00  0.11126198593E+04  0.11126198593E+04  0.25500000920E-02 0. -1.
        2   -1    0    0  501    0  0.00000000000E+00  0.00000000000E+00 -0.89917403975E+03  0.89917403975E+03  0.25500000920E-02 0.  1.
    10030    2    1    2    0    0  0.00000000000E+00  0.00000000000E+00  0.21344581958E+03  0.20117938991E+04  0.20004388455E+04 0.  0.
        3    1    3    3  502    0  0.94974118752E+03  0.31355579233E+03  0.11742876915E+03  0.10070328119E+04  0.10100000352E+00 0.  1.
       -3    1    3    3    0  502 -0.94974118752E+03 -0.31355579233E+03  0.96017050426E+02  0.10047610872E+04  0.10100000352E+00 0. -1.
</event>
<event>
 5   0  0.4956214E-06  0.1999537E+04  0.7818609E-02  0.8606837E-01
       -2   -1    0    0    0  501  0.00000000000E+00  0.00000000000E+00  0.11007438448E+04  0.11007438448E+04  0.25500000920E-02 0. -1.
        2   -1    0    0  501    0  0.00000000000E+00  0.00000000000E+00 -0.90805570441E+03  0.90805570442E+03  0.25500000920E-02 0.  1.
    10030    2    1    2    0    0  0.00000000000E+00  0.00000000000E+00  0.19268814043E+03  0.20087995493E+04  0.19995366737E+04 0.  0.
        1    1    3    3  502    0 -0.91397896258E+03 -0.30942190206E+03  0.35916113845E+03  0.10296097226E+04  0.50400001928E-02 0. -1.
       -1    1    3    3    0  502  0.91397896258E+03  0.30942190206E+03 -0.16647299802E+03  0.97918982664E+03  0.50400001928E-02 0.  1.
</event>
<event>
 5   0  0.2379743E-06  0.1999063E+04  0.7818609E-02  0.8607059E-01
       -1   -1    0    0    0  501  0.00000000000E+00  0.00000000000E+00  0.72297562108E+03  0.72297562110E+03  0.50400001928E-02 0. -1.
        1   -1    0    0  501    0  0.00000000000E+00  0.00000000000E+00 -0.13818773320E+04  0.13818773320E+04  0.50400001928E-02 0.  1.
    10030    2    1    2    0    0  0.00000000000E+00  0.00000000000E+00 -0.65890171090E+03  0.21048529531E+04  0.19990634031E+04 0.  0.
        5    1    3    3  502    0  0.46568533803E+02  0.16431699436E+03  0.70748666420E+03  0.72782427343E+03  0.46999998093E+01 0. -1.
       -5    1    3    3    0  502 -0.46568533803E+02 -0.16431699436E+03 -0.13663883751E+04  0.13770286797E+04  0.46999998093E+01 0.  1.
</event>
<event>
 5   0  0.2386776E-06  0.1999692E+04  0.7818609E-02  0.8606765E-01
        1   -1    0    0  501    0  0.00000000000E+00  0.00000000000E+00  0.10601630118E+04  0.10601630118E+04  0.50400001928E-02 0.  1.
       -1   -1    0    0    0  501  0.00000000000E+00  0.00000000000E+00 -0.94296062119E+03  0.94296062120E+03  0.50400001928E-02 0. -1.
    10030    2    1    2    0    0  0.00000000000E+00  0.00000000000E+00  0.11720239061E+03  0.20031236330E+04  0.19996919485E+04 0.  0.
        2    1    3    3  502    0 -0.65135876879E+02  0.95255732569E+03  0.35589972019E+03  0.10189566978E+04  0.25500000920E-02 0.  1.
       -2    1    3    3    0  502  0.65135876879E+02 -0.95255732569E+03 -0.23869732958E+03  0.98416693520E+03  0.25500000920E-02 0. -1.
</event>
<event>
 5   0  0.5129100E-06  0.2000467E+04  0.7818609E-02  0.8606402E-01
       -2   -1    0    0    0  501  0.00000000000E+00  0.00000000000E+00  0.57947321085E+03  0.57947321086E+03  0.25500000920E-02 0.  1.
        2   -1    0    0  501    0  0.00000000000E+00  0.00000000000E+00 -0.17265114215E+04  0.17265114215E+04  0.25500000920E-02 0. -1.
    10030    2    1    2    0    0  0.00000000000E+00  0.00000000000E+00 -0.11470382107E+04  0.23059846324E+04  0.20004670625E+04 0.  0.
        2    1    3    3  502    0 -0.31185357199E+03 -0.32306478889E+03  0.45676235781E+03  0.64051179513E+03  0.25500000920E-02 0.  1.
       -2    1    3    3    0  502  0.31185357199E+03  0.32306478889E+03 -0.16038005685E+04  0.16654728373E+04  0.25500000920E-02 0. -1.
</event>
<event>
 5   0  0.5129100E-06  0.2001420E+04  0.7818609E-02  0.8605957E-01
        2   -1    0    0  501    0  0.00000000000E+00  0.00000000000E+00  0.10274181649E+04  0.10274181649E+04  0.25500000920E-02 0. -1.
       -2   -1    0    0    0  501  0.00000000000E+00  0.00000000000E+00 -0.97469629304E+03  0.97469629304E+03  0.25500000920E-02 0.  1.
    10030    2    1    2    0    0  0.00000000000E+00  0.00000000000E+00  0.52721871845E+02  0.20021144579E+04  0.20014201725E+04 0.  0.
        2    1    3    3  502    0  0.45637781629E+03 -0.54144446483E+03  0.73369734684E+03  0.10196835864E+04  0.25500000920E-02 0. -1.
       -2    1    3    3    0  502 -0.45637781629E+03  0.54144446483E+03 -0.68097547500E+03  0.98243087149E+03  0.25500000920E-02 0.  1.
</event>
<event>
 5   0  0.2311520E-06  0.1999691E+04  0.7818609E-02  0.8606765E-01
        1   -1    0    0  501    0  0.00000000000E+00  0.00000000000E+00  0.16339648799E+04  0.16339648799E+04  0.50400001928E-02 0.  1.
       -1   -1    0    0    0  501  0.00000000000E+00  0.00000000000E+00 -0.61181917082E+03  0.61181917084E+03  0.50400001928E-02 0. -1.
    10030    2    1    2    0    0  0.00000000000E+00  0.00000000000E+00  0.10221457091E+04  0.22457840507E+04  0.19996910141E+04 0.  0.
        3    1    3    3  502    0  0.95077832148E+03  0.16471725797E+03  0.21696723710E+03  0.98903285277E+03  0.10100000352E+00 0. -1.
       -3    1    3    3    0  502 -0.95077832148E+03 -0.16471725797E+03  0.80517847199E+03  0.12567511980E+04  0.10100000352E+00 0.  1.
</event>
<event>
 5   0  0.2386776E-06  0.1999229E+04  0.7818609E-02  0.8606981E-01
       -1   -1    0    0    0  501  0.00000000000E+00  0.00000000000E+00  0.78188301789E+03  0.78188301791E+03  0.50400001928E-02 0. -1.
        1   -1    0    0  501    0  0.00000000000E+00  0.00000000000E+00 -0.12779782281E+04  0.12779782281E+04  0.50400001928E-02 0.  1.
    10030    2    1    2    0    0  0.00000000000E+00  0.00000000000E+00 -0.49609521021E+03  0.20598612460E+04  0.19992293253E+04 0.  0.
        2    1    3    3  502    0 -0.48000423315E+03  0.42504245010E+03 -0.10382251668E+04  0.12202363071E+04  0.25500000920E-02 0.  1.
       -2    1    3    3    0  502  0.48000423315E+03 -0.42504245010E+03  0.54212995658E+03  0.83962493892E+03  0.25500000920E-02 0. -1.
</event>
<event>
 5   0  0.4956214E-06  0.2000002E+04  0.7818609E-02  0.8606620E-01
        2   -1    0    0  501    0  0.00000000000E+00  0.00000000000E+00  0.10263686417E+04  0.10263686417E+04  0.25500000920E-02 0. -1.
       -2   -1    0    0    0  501  0.00000000000E+00  0.00000000000E+00 -0.97431068439E+03  0.97431068439E+03  0.25500000920E-02 0.  1.
    10030    2    1    2    0    0  0.00000000000E+00  0.00000000000E+00  0.52057957343E+02  0.20006793261E+04  0.20000019338E+04 0.  0.
        1    1    3    3  502    0 -0.45224886289E+03  0.41973946388E+03 -0.76118843495E+03  0.97985615529E+03  0.50400001928E-02 0.  1.
       -1    1    3    3    0  502  0.45224886289E+03 -0.41973946388E+03  0.81324639230E+03  0.10208231708E+04  0.50400001928E-02 0. -1.
</event>
<event>
 5   0  0.2356996E-06  0.2001562E+04  0.7818609E-02  0.8605891E-01
        1   -1    0    0  501    0  0.00000000000E+00  0.00000000000E+00  0.99190734592E+03  0.99190734593E+03  0.50400001928E-02 0. -1.
       -1   -1    0    0    0  501  0.00000000000E+00  0.00000000000E+00 -0.10097335910E+04  0.10097335910E+04  0.50400001928E-02 0.  1.
    10030    2    1    2    0    0  0.00000000000E+00  0.00000000000E+00 -0.17826245046E+02  0.20016409369E+04  0.20015615567E+04 0.  0.
        4    1    3    3  502    0  0.36936988138E+03 -0.26090437194E+03 -0.90172809505E+03  0.10087717140E+04  0.12699999809E+01 0.  1.
       -4    1    3    3    0  502 -0.36936988138E+03  0.26090437194E+03  0.88390185000E+03  0.99286922296E+03  0.12699999809E+01 0. -1.
</event>
<event>
 5   0  0.4956214E-06  0.1999893E+04  0.7818609E-02  0.8606671E-01
        2   -1    0    0  501    0  0.00000000000E+00  0.00000000000E+00  0.21956842569E+04  0.21956842569E+04  0.25500000920E-02 0.  1.
       -2   -1    0    0    0  501  0.00000000000E+00  0.00000000000E+00 -0.45539001667E+03  0.45539001668E+03  0.25500000920E-02 0. -1.
    10030    2    1    2    0    0  0.00000000000E+00  0.00000000000E+00  0.17402942403E+04  0.26510742736E+04  0.19998926875E+04 0.  0.
        1    1    3    3  502    0 -0.57113381326E+03 -0.29033678544E+03  0.18878512208E+04  0.19936076629E+04  0.50400001928E-02 0.  1.
       -1    1    3    3    0  502  0.57113381326E+03  0.29033678544E+03 -0.14755698057E+03  0.65746661069E+03  0.50400001928E-02 0. -1.
</event>
<event>
 5   0  0.2313821E-06  0.1998435E+04  0.7818609E-02  0.8607353E-01
        1   -1    0    0  501    0  0.00000000000E+00  0.00000000000E+00  0.10677606469E+04  0.10677606469E+04  0.50400001928E-02 0. -1.
       -1   -1    0    0    0  501  0.00000000000E+00  0.00000000000E+00 -0.93507390675E+03  0.93507390676E+03  0.50400001928E-02 0.  1.
    10030    2    1    2    0    0  0.00000000000E+00  0.00000000000E+00  0.13268674014E+03  0.20028345537E+04  0.19984345069E+04 0.  0.
        1    1    3    3  502    0  0.36402772120E+03 -0.56796854413E+03 -0.67238923220E+03  0.95247662886E+03  0.50400001928E-02 0.  1.
       -1    1    3    3    0  502 -0.36402772120E+03  0.56796854413E+03  0.80507597234E+03  0.10503579248E+04  0.50400001928E-02 0. -1.
</event>
<event>
 5   0  0.5118981E-06  0.2003632E+04  0.7818609E-02  0.8604924E-01
        2   -1    0    0  501    0  0.00000000000E+00  0.00000000000E+00  0.95582247179E+03  0.95582247179E+03  0.25500000920E-02 0.  1.
       -2   -1    0    0    0  501  0.00000000000E+00  0.00000000000E+00 -0.10500228557E+04  0.10500228557E+04  0.25500000920E-02 0. -1.
    10030    2    1    2    0    0  0.00000000000E+00  0.00000000000E+00 -0.94200383882E+02  0.20058453275E+04  0.20036321432E+04 0.  0.
        4    1    3    3  502    0  0.49208653012E+03  0.27334798381E+03 -0.87672876931E+03  0.10418844567E+04  0.12699999809E+01 0. -1.
       -4    1    3    3    0  502 -0.49208653012E+03 -0.27334798381E+03  0.78252838543E+03  0.96396087072E+03  0.12699999809E+01 0.  1.
</event>
<event>
 5   0  0.1777750E-06  0.1997482E+04  0.7818609E-02  0.8607799E-01
       -3   -1    0    0    0  501  0.00000000000E+00  0.00000000000E+00  0.94278756897E+03  0.94278757438E+03  0.10100000352E+00 0. -1.
        3   -1    0    0  501    0  0.00000000000E+00  0.00000000000E+00 -0.10580150613E+04  0.10580150662E+04  0.10100000352E+00 0.  1.
    10030    2    1    2    0    0  0.00000000000E+00  0.00000000000E+00 -0.11522749237E+03  0.20008026405E+04  0.19974818726E+04 0.  0.
        1    1    3    3  502    0  0.35050558790E+03  0.87978989499E+03 -0.37531454342E+03  0.10186979106E+04  0.50400001928E-02 0.  1.
       -1    1    3    3    0  502 -0.35050558790E+03 -0.87978989499E+03  0.26008705105E+03  0.98210472997E+03  0.50400001928E-02 0. -1.
</event>
<event>
 5   0  0.5030137E-06  0.2000342E+04  0.7818609E-02  0.8606461E-01
       -2   -1    0    0    0  501  0.00000000000E+00  0.00000000000E+00  0.56658522225E+03  0.56658522226E+03  0.25500000920E-02 0.  1.
        2   -1    0    0  501    0  0.00000000000E+00  0.00000000000E+00 -0.17655628076E+04  0.17655628076E+04  0.25500000920E-02 0. -1.
    10030    2    1    2    0    0  0.00000000000E+00  0.00000000000E+00 -0.11989775853E+04  0.23321480298E+04  0.20003417665E+04 0.  0.
        3    1    3    3  502    0  0.36517667525E+03  0.66419260014E+03  0.16131572442E+03  0.77493779581E+03  0.10100000352E+00 0.  1.
       -3    1    3    3    0  502 -0.36517667525E+03 -0.66419260014E+03 -0.13602933097E+04  0.15572102340E+04  0.10100000352E+00 0. -1.
</event>
<event>
 5   0  0.5129100E-06  0.1999034E+04  0.7818609E-02  0.8607072E-01
       -2   -1    0    0    0  501  0.00000000000E+00  0.00000000000E+00  0.64198297323E+03  0.64198297323E+03  0.25500000920E-02 0.  1.
        2   -1    0    0  501    0  0.00000000000E+00  0.00000000000E+00 -0.15561700246E+04  0.15561700246E+04  0.25500000920E-02 0. -1.
    10030    2    1    2    0    0  0.00000000000E+00  0.00000000000E+00 -0.91418705137E+03  0.21981529978E+04  0.19990344262E+04 0.  0.
        2    1    3    3  502    0 -0.29932718707E+03 -0.60176354800E+03  0.35640677640E+03  0.76075089411E+03  0.25500000920E-02 0.  1.
       -2    1    3    3    0  502  0.29932718707E+03  0.60176354800E+03 -0.12705938278E+04  0.14374021037E+04  0.25500000920E-02 0. -1.
</event>
<event>
 5   0  0.4956214E-06  0.2000112E+04  0.7818609E-02  0.8606568E-01
        2   -1    0    0  501    0  0.00000000000E+00  0.00000000000E+00  0.61370917698E+03  0.61370917699E+03  0.25500000920E-02 0.  1.
       -2   -1    0    0    0  501  0.00000000000E+00  0.00000000000E+00 -0.16296194998E+04  0.16296194998E+04  0.25500000920E-02 0. -1.
    10030    2    1    2    0    0  0.00000000000E+00  0.00000000000E+00 -0.10159103228E+04  0.22433286768E+04  0.20001124389E+04 0.  0.
        1    1    3    3  502    0 -0.91358793506E+03 -0.22856777518E+03 -0.88536407520E+03  0.12925771500E+04  0.50400001928E-02 0.  1.
       -1    1    3    3    0  502  0.91358793506E+03  0.22856777518E+03 -0.13054624761E+03  0.95075152681E+03  0.50400001928E-02 0. -1.
</event>
<event>
 5   0  0.2356996E-06  0.2000088E+04  0.7818609E-02  0.8606579E-01
        1   -1    0    0  501    0  0.00000000000E+00  0.00000000000E+00  0.56688300810E+03  0.56688300812E+03  0.50400001928E-02 0.  1.
       -1   -1    0    0    0  501  0.00000000000E+00  0.00000000000E+00 -0.17641880881E+04  0.17641880881E+04  0.50400001928E-02 0. -1.
    10030    2    1    2    0    0  0.00000000000E+00  0.00000000000E+00 -0.11973050800E+04  0.23310710962E+04  0.20000882483E+04 0.  0.
        4    1    3    3  502    0  0.37797787306E+03  0.94783889018E+02 -0.16720598600E+04  0.17168683836E+04  0.12699999809E+01 0. -1.
       -4    1    3    3    0  502 -0.37797787306E+03 -0.94783889018E+02  0.47475478003E+03  0.61420271264E+03  0.12699999809E+01 0.  1.
</event>
<event>
 5   0  0.5129100E-06  0.2000189E+04  0.7818609E-02  0.8606532E-01
        2   -1    0    0  501    0  0.00000000000E+00  0.00000000000E+00  0.69086114306E+03  0.69086114306E+03  0.25500000920E-02 0.  1.
       -2   -1    0    0    0  501  0.00000000000E+00  0.00000000000E+00 -0.14477426207E+04  0.14477426207E+04  0.25500000920E-02 0. -1.
    10030    2    1    2    0    0  0.00000000000E+00  0.00000000000E+00 -0.75688147766E+03  0.21386037638E+04  0.20001891129E+04 0.  0.
        2    1    3    3  502    0  0.18573859351E+03  0.50573982351E+03 -0.12793130051E+04  0.13881330481E+04  0.25500000920E-02 0. -1.
       -2    1    3    3    0  502 -0.18573859351E+03 -0.50573982351E+03  0.52243152745E+03  0.75047071567E+03  0.25500000920E-02 0.  1.
</event>
<event>
 5   0  0.2379743E-06  0.1999572E+04  0.7818609E-02  0.8606821E-01
        1   -1    0    0  501    0  0.00000000000E+00  0.00000000000E+00  0.10379322561E+04  0.10379322561E+04  0.50400001928E-02 0.  1.
       -1   -1    0    0    0  501  0.00000000000E+00  0.00000000000E+00 -0.96304204926E+03  0.96304204928E+03  0.50400001928E-02 0. -1.
    10030    2    1    2    0    0  0.00000000000E+00  0.00000000000E+00  0.74890206856E+02  0.20009743054E+04  0.19995723612E+04 0.  0.
        5    1    3    3  502    0 -0.91208162260E+03  0.30490657627E+03  0.31093034967E+03  0.10107228497E+04  0.46999998093E+01 0.  1.
       -5    1    3    3    0  502  0.91208162260E+03 -0.30490657627E+03 -0.23604014281E+03  0.99025145572E+03  0.46999998093E+01 0. -1.
</event>
<event>
 5   0  0.2356996E-06  0.1999961E+04  0.7818609E-02  0.8606639E-01
        1   -1    0    0  501    0  0.00000000000E+00  0.00000000000E+00  0.13614086192E+04  0.13614086192E+04  0.50400001928E-02 0. -1.
       -1   -1    0    0    0  501  0.00000000000E+00  0.00000000000E+00 -0.73450495116E+03  0.73450495118E+03  0.50400001928E-02 0.  1.
    10030    2    1    2    0    0  0.00000000000E+00  0.00000000000E+00  0.62690366806E+03  0.20959135704E+04  0.19999613710E+04 0.  0.
        4    1    3    3  502    0  0.48603179903E+02 -0.82730269086E+03  0.89991437297E+03  0.12233721850E+04  0.12699999809E+01 0. -1.
       -4    1    3    3    0  502 -0.48603179903E+02  0.82730269086E+03 -0.27301070490E+03  0.87254138543E+03  0.12699999809E+01 0.  1.
</event>
<event>
 5   0  0.2386776E-06  0.2000359E+04  0.7818609E-02  0.8606453E-01
       -1   -1    0    0    0  501  0.00000000000E+00  0.00000000000E+00  0.41686974694E+03  0.41686974698E+03  0.50400001928E-02 0. -1.
        1   -1    0    0  501    0  0.00000000000E+00  0.00000000000E+00 -0.23996923957E+04  0.23996923957E+04  0.50400001928E-02 0.  1.
    10030    2    1    2    0    0  0.00000000000E+00  0.00000000000E+00 -0.19828226487E+04  0.28165621426E+04  0.20003591295E+04 0.  0.
        2    1    3    3  502    0 -0.67473179891E+03  0.37845767956E+03 -0.18840012235E+04  0.20366526032E+04  0.25500000920E-02 0.  1.
       -2    1    3    3    0  502  0.67473179891E+03 -0.37845767956E+03 -0.98821425174E+02  0.77990953947E+03  0.25500000920E-02 0. -1.
</event>
<event>
 5   0  0.2379743E-06  0.1998896E+04  0.7818609E-02  0.8607137E-01
       -1   -1    0    0    0  501  0.00000000000E+00  0.00000000000E+00  0.86231903071E+03  0.86231903073E+03  0.50400001928E-02 0. -1.
        1   -1    0    0  501    0  0.00000000000E+00  0.00000000000E+00 -0.11583838527E+04  0.11583838527E+04  0.50400001928E-02 0.  1.
    10030    2    1    2    0    0  0.00000000000E+00  0.00000000000E+00 -0.29606482202E+03  0.20207028835E+04  0.19988961365E+04 0.  0.
        5    1    3    3  502    0 -0.85431749574E+03  0.11813511901E+03 -0.65857674695E+03  0.10851542340E+04  0.46999998093E+01 0.  1.
       -5    1    3    3    0  502  0.85431749574E+03 -0.11813511901E+03  0.36251192494E+03  0.93554864950E+03  0.46999998093E+01 0. -1.
</event>
<event>
 5   0  0.5030137E-06  0.1999464E+04  0.7818609E-02  0.8606871E-01
       -2   -1    0    0    0  501  0.00000000000E+00  0.00000000000E+00  0.12811338973E+04  0.12811338974E+04  0.25500000920E-02 0. -1.
        2   -1    0    0  501    0  0.00000000000E+00  0.00000000000E+00 -0.78014038451E+03  0.78014038451E+03  0.25500000920E-02 0.  1.
    10030    2    1    2    0    0  0.00000000000E+00  0.00000000000E+00  0.50099351284E+03  0.20612742819E+04  0.19994642195E+04 0.  0.
        3    1    3    3  502    0  0.50582589955E+03  0.41027662893E+03  0.10324141116E+04  0.12206824571E+04  0.10100000352E+00 0. -1.
       -3    1    3    3    0  502 -0.50582589955E+03 -0.41027662893E+03 -0.53142059879E+03  0.84059182480E+03  0.10100000352E+00 0.  1.
</event>
<event>
 5   0  0.5118981E-06  0.2000188E+04  0.7818609E-02  0.8606533E-01
       -2   -1    0    0    0  501  0.00000000000E+00  0.00000000000E+00  0.74955998957E+03  0.74955998958E+03  0.25500000920E-02 0. -1.
        2   -1    0    0  501    0  0.00000000000E+00  0.00000000000E+00 -0.13343674363E+04  0.13343674363E+04  0.25500000920E-02 0.  1.
    10030    2    1    2    0    0  0.00000000000E+00  0.00000000000E+00 -0.58480744669E+03  0.20839274258E+04  0.20001884327E+04 0.  0.
        4    1    3    3  502    0 -0.19966416962E+03  0.58190742449E+03 -0.11138965741E+04  0.12724972385E+04  0.12699999809E+01 0.  1.
       -4    1    3    3    0  502  0.19966416962E+03 -0.58190742449E+03  0.52908912739E+03  0.81143018735E+03  0.12699999809E+01 0. -1.
</event>
<event>
 5   0  0.5251252E-06  0.1999373E+04  0.7818609E-02  0.8606914E-01
       -2   -1    0    0    0  501  0.00000000000E+00  0.00000000000E+00  0.50243313426E+03  0.50243313426E+03  0.25500000920E-02 0.  1.
        2   -1    0    0  501    0  0.00000000000E+00  0.00000000000E+00 -0.19890664969E+04  0.19890664969E+04  0.25500000920E-02 0. -1.
    10030    2    1    2    0    0  0.00000000000E+00  0.00000000000E+00 -0.14866333627E+04  0.24914996312E+04  0.19993728160E+04 0.  0.
        5    1    3    3  502    0  0.28277697594E+03 -0.95182744639E+03 -0.88763524937E+03  0.13318621294E+04  0.46999998093E+01 0. -1.
       -5    1    3    3    0  502 -0.28277697594E+03  0.95182744639E+03 -0.59899811329E+03  0.11596375018E+04  0.46999998093E+01 0.  1.
</event>
<event>
 5   0  0.2386776E-06  0.1998832E+04  0.7818609E-02  0.8607167E-01
       -1   -1    0    0    0  501  0.00000000000E+00  0.00000000000E+00  0.38232351478E+03  0.38232351481E+03  0.50400001928E-02 0. -1.
        1   -1    0    0  501    0  0.00000000000E+00  0.00000000000E+00 -0.26125310095E+04  0.26125310095E+04  0.50400001928E-02 0.  1.
    10030    2    1    2    0    0  0.00000000000E+00  0.00000000000E+00 -0.22302074947E+04  0.29948545243E+04  0.19988316969E+04 0.  0.
        2    1    3    3  502    0 -0.24496645499E+03 -0.82084994198E+03 -0.18864441442E+04  0.20718288300E+04  0.25500000920E-02 0.  1.
       -2    1    3    3    0  502  0.24496645499E+03  0.82084994198E+03 -0.34376335051E+03  0.92302569438E+03  0.25500000920E-02 0. -1.
</event>
<event>
 5   0  0.2386776E-06  0.1999409E+04  0.7818609E-02  0.8606897E-01
       -1   -1    0    0    0  501  0.00000000000E+00  0.00000000000E+00  0.77345652180E+03  0.77345652181E+03  0.50400001928E-02 0. -1.
        1   -1    0    0  501    0  0.00000000000E+00  0.00000000000E+00 -0.12921336009E+04  0.12921336010E+04  0.50400001928E-02 0.  1.
    10030    2    1    2    0    0  0.00000000000E+00  0.00000000000E+00 -0.51867707915E+03  0.20655901228E+04  0.19994090734E+04 0.  0.
        2    1    3    3  502    0  0.71151306280E+03  0.57876936774E+03  0.15155019528E+03  0.92961942819E+03  0.25500000920E-02 0. -1.
       -2    1    3    3    0  502 -0.71151306280E+03 -0.57876936774E+03 -0.67022727442E+03  0.11359706946E+04  0.25500000920E-02 0.  1.
</event>
<event>
 5   0  0.1777750E-06  0.2000278E+04  0.7818609E-02  0.8606490E-01
        3   -1    0    0  501    0  0.00000000000E+00  0.00000000000E+00  0.79006814244E+03  0.79006814889E+03  0.10100000352E+00 0. -1.
       -3   -1    0    0    0  501  0.00000000000E+00  0.00000000000E+00 -0.12660660916E+04  0.12660660957E+04  0.10100000352E+00 0.  1.
    10030    2    1    2    0    0  0.00000000000E+00  0.00000000000E+00 -0.47599794919E+03  0.20561342445E+04  0.20002784766E+04 0.  0.
        5    1    3    3  502    0  0.35219121018E+03  0.10924970805E+03 -0.11936268367E+04  0.12492963070E+04  0.46999998093E+01 0.  1.
       -5    1    3    3    0  502 -0.35219121018E+03 -0.10924970805E+03  0.71762888756E+03  0.80683793757E+03  0.46999998093E+01 0. -1.
</event>
<event>
 5   0  0.1777750E-06  0.1999296E+04  0.7818609E-02  0.8606950E-01
        3   -1    0    0  501    0  0.00000000000E+00  0.00000000000E+00  0.78468093463E+03  0.78468094113E+03  0.10100000352E+00 0. -1.
       -3   -1    0    0    0  501  0.00000000000E+00  0.00000000000E+00 -0.12735065843E+04  0.12735065884E+04  0.10100000352E+00 0.  1.
    10030    2    1    2    0    0  0.00000000000E+00  0.00000000000E+00 -0.48882564972E+03  0.20581875295E+04  0.19992962238E+04 0.  0.
        1    1    3    3  502    0  0.34797334237E+03 -0.87246463835E+03  0.10773992224E+03  0.94545644164E+03  0.50400001928E-02 0. -1.
       -1    1    3    3    0  502 -0.34797334237E+03  0.87246463835E+03 -0.59656557197E+03  0.11127310878E+04  0.50400001928E-02 0.  1.
</event>
<event>
 5   0  0.2356996E-06  0.1999435E+04  0.7818609E-02  0.8606885E-01
       -1   -1    0    0    0  501  0.00000000000E+00  0.00000000000E+00  0.60969053402E+03  0.60969053404E+03  0.50400001928E-02 0. -1.
        1   -1    0    0  501    0  0.00000000000E+00  0.00000000000E+00 -0.16392498297E+04  0.16392498297E+04  0.50400001928E-02 0.  1.
    10030    2    1    2    0    0  0.00000000000E+00  0.00000000000E+00 -0.10295592957E+04  0.22489403637E+04  0.19994350243E+04 0.  0.
        4    1    3    3  502    0 -0.25395982160E+03  0.92069974884E+03 -0.84702050968E+03  0.12765692207E+04  0.12699999809E+01 0.  1.
       -4    1    3    3    0  502  0.25395982160E+03 -0.92069974884E+03 -0.18253878597E+03  0.97237114303E+03  0.12699999809E+01 0. -1.
</event>
<event>
 5   0  0.2311520E-06  0.1996921E+04  0.7818609E-02  0.8608062E-01
       -1   -1    0    0    0  501  0.00000000000E+00  0.00000000000E+00  0.49722146608E+03  0.49722146611E+03  0.50400001928E-02 0.  1.
        1   -1    0    0  501    0  0.00000000000E+00  0.00000000000E+00 -0.20049881115E+04  0.20049881115E+04  0.50400001928E-02 0. -1.
    10030    2    1    2    0    0  0.00000000000E+00  0.00000000000E+00 -0.15077666454E+04  0.25022095776E+04  0.19969207579E+04 0.  0.
        3    1    3    3  502    0  0.91083625500E+03  0.13663579290E+03 -0.27080484508E+03  0.96001421742E+03  0.10100000352E+00 0.  1.
       -3    1    3    3    0  502 -0.91083625500E+03 -0.13663579290E+03 -0.12369618003E+04  0.15421953602E+04  0.10100000352E+00 0. -1.
</event>
<event>
 5   0  0.5118981E-06  0.2000308E+04  0.7818609E-02  0.8606477E-01
        2   -1    0    0  501    0  0.00000000000E+00  0.00000000000E+00  0.13502515288E+04  0.13502515288E+04  0.25500000920E-02 0.  1.
       -2   -1    0    0    0  501  0.00000000000E+00  0.00000000000E+00 -0.74083051370E+03  0.74083051371E+03  0.25500000920E-02 0. -1.
    10030    2    1    2    0    0  0.00000000000E+00  0.00000000000E+00  0.60942101508E+03  0.20910820425E+04  0.20003075101E+04 0.  0.
        4    1    3    3  502    0 -0.64443986016E+03 -0.87952002024E+02  0.10989709085E+04  0.12770187777E+04  0.12699999809E+01 0.  1.
       -4    1    3    3    0  502  0.64443986016E+03  0.87952002024E+02 -0.48954989341E+03  0.81406326478E+03  0.12699999809E+01 0. -1.
</event>
<event>
 5   0  0.5251252E-06  0.1998171E+04  0.7818609E-02  0.8607476E-01
       -2   -1    0    0    0  501  0.00000000000E+00  0.00000000000E+00  0.10306973777E+04  0.10306973777E+04  0.25500000920E-02 0. -1.
        2   -1    0    0  501    0  0.00000000000E+00  0.00000000000E+00 -0.96844336088E+03  0.96844336089E+03  0.25500000920E-02 0.  1.
    10030    2    1    2    0    0  0.00000000000E+00  0.00000000000E+00  0.62254016807E+02  0.19991407386E+04  0.19981711964E+04 0.  0.
        5    1    3    3  502    0 -0.78031844024E+03  0.54034831832E+03  0.34317058288E+03  0.10092875270E+04  0.46999998093E+01 0. -1.
       -5    1    3    3    0  502  0.78031844024E+03 -0.54034831832E+03 -0.28091656608E+03  0.98985321154E+03  0.46999998093E+01 0.  1.
</event>
<event>
 5   0  0.2379743E-06  0.2000398E+04  0.7818609E-02  0.8606435E-01
       -1   -1    0    0    0  501  0.00000000000E+00  0.00000000000E+00  0.96525042080E+03  0.96525042081E+03  0.50400001928E-02 0. -1.
        1   -1    0    0  501    0  0.00000000000E+00  0.00000000000E+00 -0.10364124448E+04  0.10364124449E+04  0.50400001928E-02 0.  1.
    10030    2    1    2    0    0  0.00000000000E+00  0.00000000000E+00 -0.71162024048E+02  0.20016628657E+04  0.20003975090E+04 0.  0.
        5    1    3    3  502    0  0.80206772409E+03  0.11151532443E+03  0.55183986302E+03  0.97994776699E+03  0.46999998093E+01 0. -1.
       -5    1    3    3    0  502 -0.80206772409E+03 -0.11151532443E+03 -0.62300188706E+03  0.10217150987E+04  0.46999998093E+01 0.  1.
</event>
<event>
 5   0  0.4956214E-06  0.1999858E+04  0.7818609E-02  0.8606687E-01
        2   -1    0    0  501    0  0.00000000000E+00  0.00000000000E+00  0.15005654915E+04  0.15005654915E+04  0.25500000920E-02 0. -1.
       -2   -1    0    0    0  501  0.00000000000E+00  0.00000000000E+00 -0.66632052214E+03  0.66632052214E+03  0.25500000920E-02 0.  1.
    10030    2    1    2    0    0  0.00000000000E+00  0.00000000000E+00  0.83424496940E+03  0.21668860137E+04  0.19998575768E+04 0.  0.
        1    1    3    3  502    0 -0.52048635698E+03 -0.24551778707E+03  0.13031429356E+04  0.14245583675E+04  0.50400001928E-02 0. -1.
       -1    1    3    3    0  502  0.52048635698E+03  0.24551778707E+03 -0.46889796624E+03  0.74232764622E+03  0.50400001928E-02 0.  1.
</event>
<event>
 5   0  0.5129100E-06  0.2000353E+04  0.7818609E-02  0.8606455E-01
       -2   -1    0    0    0  501  0.00000000000E+00  0.00000000000E+00  0.64735637108E+03  0.64735637108E+03  0.25500000920E-02 0. -1.
        2   -1    0    0  501    0  0.00000000000E+00  0.00000000000E+00 -0.15452902695E+04  0.15452902695E+04  0.25500000920E-02 0.  1.
    10030    2    1    2    0    0  0.00000000000E+00  0.00000000000E+00 -0.89793389846E+03  0.21926466406E+04  0.20003534699E+04 0.  0.
        2    1    3    3  502    0  0.92620166387E+03 -0.32593555720E+03 -0.24021255250E+03  0.10108341011E+04  0.25500000920E-02 0. -1.
       -2    1    3    3    0  502 -0.92620166387E+03  0.32593555720E+03 -0.65772134596E+03  0.11818125395E+04  0.25500000920E-02 0.  1.
</event>
<event>
 5   0  0.5129100E-06  0.2000193E+04  0.7818609E-02  0.8606531E-01
       -2   -1    0    0    0  501  0.00000000000E+00  0.00000000000E+00  0.13013476981E+04  0.13013476981E+04  0.25500000920E-02 0.  1.
        2   -1    0    0  501    0  0.00000000000E+00  0.00000000000E+00 -0.76858228021E+03  0.76858228021E+03  0.25500000920E-02 0. -1.
    10030    2    1    2    0    0  0.00000000000E+00  0.00000000000E+00  0.53276541785E+03  0.20699299783E+04  0.20001927718E+04 0.  0.
        2    1    3    3  502    0 -0.34473458440E+03 -0.62167242378E+03  0.99438245346E+03  0.12223399691E+04  0.25500000920E-02 0.  1.
       -2    1    3    3    0  502  0.34473458440E+03  0.62167242378E+03 -0.46161703561E+03  0.84759000923E+03  0.25500000920E-02 0. -1.
</event>
<event>
 5   0  0.2356996E-06  0.2000038E+04  0.7818609E-02  0.8606603E-01
        1   -1    0    0  501    0  0.00000000000E+00  0.00000000000E+00  0.72588392430E+03  0.72588392432E+03  0.50400001928E-02 0.  1.
       -1   -1    0    0    0  501  0.00000000000E+00  0.00000000000E+00 -0.13776834357E+04  0.13776834357E+04  0.50400001928E-02 0. -1.
    10030    2    1    2    0    0  0.00000000000E+00  0.00000000000E+00 -0.65179951140E+03  0.21035673600E+04  0.20000382584E+04 0.  0.
        4    1    3    3  502    0  0.41062303525E+03  0.34393420407E+03 -0.12140856753E+04  0.13269919569E+04  0.12699999809E+01 0. -1.
       -4    1    3    3    0  502 -0.41062303525E+03 -0.34393420407E+03  0.56228616387E+03  0.77657540315E+03  0.12699999809E+01 0.  1.
</event>
<event>
 5   0  0.2313821E-06  0.1999908E+04  0.7818609E-02  0.8606664E-01
       -1   -1    0    0    0  501  0.00000000000E+00  0.00000000000E+00  0.64675062226E+03  0.64675062228E+03  0.50400001928E-02 0. -1.
        1   -1    0    0  501    0  0.00000000000E+00  0.00000000000E+00 -0.15460492599E+04  0.15460492599E+04  0.50400001928E-02 0.  1.
    10030    2    1    2    0    0  0.00000000000E+00  0.00000000000E+00 -0.89929863762E+03  0.21927998822E+04  0.19999083188E+04 0.  0.
        1    1    3    3  502    0  0.65875338469E+03 -0.75218949735E+03 -0.43563965773E+03  0.10906543784E+04  0.50400001928E-02 0. -1.
       -1    1    3    3    0  502 -0.65875338469E+03  0.75218949735E+03 -0.46365897989E+03  0.11021455037E+04  0.50400001928E-02 0.  1.
</event>
<event>
 5   0  0.5251252E-06  0.1998753E+04  0.7818609E-02  0.8607204E-01
        2   -1    0    0  501    0  0.00000000000E+00  0.00000000000E+00  0.13211959387E+04  0.13211959387E+04  0.25500000920E-02 0. -1.
       -2   -1    0    0    0  501  0.00000000000E+00  0.00000000000E+00 -0.75594628486E+03  0.75594628486E+03  0.25500000920E-02 0.  1.
    10030    2    1    2    0    0  0.00000000000E+00  0.00000000000E+00  0.56524965381E+03  0.20771422235E+04  0.19987527725E+04 0.  0.
        5    1    3    3  502    0 -0.17000399242E+03 -0.92849599845E+03  0.62371184810E+03  0.11313906204E+04  0.46999998093E+01 0. -1.
       -5    1    3    3    0  502  0.17000399242E+03  0.92849599845E+03 -0.58462194293E+02  0.94575160308E+03  0.46999998093E+01 0.  1.
</event>
<event>
 5   0  0.2379743E-06  0.2000115E+04  0.7818609E-02  0.8606567E-01
        1   -1    0    0  501    0  0.00000000000E+00  0.00000000000E+00  0.12588583536E+04  0.12588583536E+04  0.50400001928E-02 0. -1.
       -1   -1    0    0    0  501  0.00000000000E+00  0.00000000000E+00 -0.79446170592E+03  0.79446170593E+03  0.50400001928E-02 0.  1.
    10030    2    1    2    0    0  0.00000000000E+00  0.00000000000E+00  0.46439664770E+03  0.20533200596E+04  0.20001147519E+04 0.  0.
        5    1    3    3  502    0 -0.52859828165E+03  0.57136601518E+03 -0.41237099689E+03  0.88087864983E+03  0.46999998093E+01 0. -1.
       -5    1    3    3    0  502  0.52859828165E+03 -0.57136601518E+03  0.87676764459E+03  0.11724414097E+04  0.46999998093E+01 0.  1.
</event>
<event>
 5   0  0.5129100E-06  0.2004859E+04  0.7818609E-02  0.8604352E-01
       -2   -1    0    0    0  501  0.00000000000E+00  0.00000000000E+00  0.16266650408E+04  0.16266650408E+04  0.25500000920E-02 0.  1.
        2   -1    0    0  501    0  0.00000000000E+00  0.00000000000E+00 -0.61774571646E+03  0.61774571647E+03  0.25500000920E-02 0. -1.
    10030    2    1    2    0    0  0.00000000000E+00  0.00000000000E+00  0.10089193244E+04  0.22444107573E+04  0.20048594575E+04 0.  0.
        2    1    3    3  502    0  0.99666149893E+03 -0.36628763308E+02  0.39145510994E+03  0.10714069782E+04  0.25500000920E-02 0.  1.
       -2    1    3    3    0  502 -0.99666149893E+03  0.36628763308E+02  0.61746421441E+03  0.11730037791E+04  0.25500000920E-02 0. -1.
</event>
<event>
 5   0  0.5118981E-06  0.1997337E+04  0.7818609E-02  0.8607867E-01
       -2   -1    0    0    0  501  0.00000000000E+00  0.00000000000E+00  0.78118962336E+03  0.78118962336E+03  0.25500000920E-02 0. -1.
        2   -1    0    0  501    0  0.00000000000E+00  0.00000000000E+00 -0.12766920580E+04  0.12766920580E+04  0.25500000920E-02 0.  1.
    10030    2    1    2    0    0  0.00000000000E+00  0.00000000000E+00 -0.49550243460E+03  0.20578816813E+04  0.19973368148E+04 0.  0.
        4    1    3    3  502    0  0.48811585270E+03  0.67594890591E+03  0.31861442274E+03  0.89256975769E+03  0.12699999809E+01 0. -1.
       -4    1    3    3    0  502 -0.48811585270E+03 -0.67594890591E+03 -0.81411685734E+03  0.11653119236E+04  0.12699999809E+01 0.  1.
</event>
<event>
 5   0  0.2356996E-06  0.2000149E+04  0.7818609E-02  0.8606551E-01
        1   -1    0    0  501    0  0.00000000000E+00  0.00000000000E+00  0.15709120648E+04  0.15709120648E+04  0.50400001928E-02 0. -1.
       -1   -1    0    0    0  501  0.00000000000E+00  0.00000000000E+00 -0.63666774518E+03  0.63666774520E+03  0.50400001928E-02 0.  1.
    10030    2    1    2    0    0  0.00000000000E+00  0.00000000000E+00  0.93424431962E+03  0.22075798100E+04  0.20001490366E+04 0.  0.
        4    1    3    3  502    0  0.34049671509E+03 -0.54676508561E+03  0.13114818602E+04  0.14611216084E+04  0.12699999809E+01 0. -1.
       -4    1    3    3    0  502 -0.34049671509E+03  0.54676508561E+03 -0.37723754061E+03  0.74645820163E+03  0.12699999809E+01 0.  1.
</event>
<event>
 5   0  0.5251252E-06  0.2000093E+04  0.7818609E-02  0.8606577E-01
        2   -1    0    0  501    0  0.00000000000E+00  0.00000000000E+00  0.66480201242E+03  0.66480201243E+03  0.25500000920E-02 0. -1.
       -2   -1    0    0    0  501  0.00000000000E+00  0.00000000000E+00 -0.15043476129E+04  0.15043476129E+04  0.25500000920E-02 0.  1.
    10030    2    1    2    0    0  0.00000000000E+00  0.00000000000E+00 -0.83954560048E+03  0.21691496253E+04  0.20000933183E+04 0.  0.
        5    1    3    3  502    0 -0.65951495559E+03 -0.53055472418E+03  0.15780424846E+03  0.86102994305E+03  0.46999998093E+01 0. -1.
       -5    1    3    3    0  502  0.65951495559E+03  0.53055472418E+03 -0.99734984894E+03  0.13081196823E+04  0.46999998093E+01 0.  1.
</event>
<event>
 5   0  0.5030137E-06  0.2000122E+04  0.7818609E-02  0.8606564E-01
        2   -1    0    0  501    0  0.00000000000E+00  0.00000000000E+00  0.13042562805E+04  0.13042562805E+04  0.25500000920E-02 0.  1.
       -2   -1    0    0    0  501  0.00000000000E+00  0.00000000000E+00 -0.76681365345E+03  0.76681365346E+03  0.25500000920E-02 0. -1.
    10030    2    1    2    0    0  0.00000000000E+00  0.00000000000E+00  0.53744262708E+03  0.20710699340E+04  0.20001215198E+04 0.  0.
        3    1    3    3  502    0  0.45173721066E+03  0.53266597803E+03 -0.47243509475E+03  0.84320488649E+03  0.10100000352E+00 0. -1.
       -3    1    3    3    0  502 -0.45173721066E+03 -0.53266597803E+03  0.10098777218E+04  0.12278650475E+04  0.10100000352E+00 0.  1.
</event>
<event>
 5   0  0.5118981E-06  0.2000180E+04  0.7818609E-02  0.8606536E-01
        2   -1    0    0  501    0  0.00000000000E+00  0.00000000000E+00  0.11768832800E+04  0.11768832800E+04  0.25500000920E-02 0.  1.
       -2   -1    0    0    0  501  0.00000000000E+00  0.00000000000E+00 -0.84985498962E+03  0.84985498962E+03  0.25500000920E-02 0. -1.
    10030    2    1    2    0    0  0.00000000000E+00  0.00000000000E+00  0.32702829036E+03  0.20267382696E+04  0.20001801196E+04 0.  0.
        4    1    3    3  502    0 -0.38659841966E+03  0.42313448196E+02 -0.77009358305E+03  0.86272504631E+03  0.12699999809E+01 0. -1.
       -4    1    3    3    0  502  0.38659841966E+03 -0.42313448196E+02  0.10971218734E+04  0.11640132233E+04  0.12699999809E+01 0.  1.
</event>
<event>
 5   0  0.2386776E-06  0.1999688E+04  0.7818609E-02  0.8606767E-01
        1   -1    0    0  501    0  0.00000000000E+00  0.00000000000E+00  0.21569682702E+04  0.21569682702E+04  0.50400001928E-02 0. -1.
       -1   -1    0    0    0  501  0.00000000000E+00  0.00000000000E+00 -0.46346891316E+03  0.46346891318E+03  0.50400001928E-02 0.  1.
    10030    2    1    2    0    0  0.00000000000E+00  0.00000000000E+00  0.16934993570E+04  0.26204371833E+04  0.19996877155E+04 0.  0.
        2    1    3    3  502    0 -0.72416680892E+03  0.31027538029E+03  0.16534845197E+04  0.18315838599E+04  0.25500000920E-02 0. -1.
       -2    1    3    3    0  502  0.72416680892E+03 -0.31027538029E+03  0.40014837279E+02  0.78885332348E+03  0.25500000920E-02 0.  1.
</event>
<event>
 5   0  0.5251252E-06  0.2000077E+04  0.7818609E-02  0.8606585E-01
       -2   -1    0    0    0  501  0.00000000000E+00  0.00000000000E+00  0.12665853853E+04  0.12665853853E+04  0.25500000920E-02 0. -1.
        2   -1    0    0  501    0  0.00000000000E+00  0.00000000000E+00 -0.78958541424E+03  0.78958541424E+03  0.25500000920E-02 0.  1.
    10030    2    1    2    0    0  0.00000000000E+00  0.00000000000E+00  0.47699997108E+03  0.20561707996E+04  0.20000773446E+04 0.  0.
        5    1    3    3  502    0 -0.58069644696E+03  0.80716909089E+03  0.12909664845E+03  0.10027055098E+04  0.46999998093E+01 0.  1.
       -5    1    3    3    0  502  0.58069644696E+03 -0.80716909089E+03  0.34790332263E+03  0.10534652897E+04  0.46999998093E+01 0. -1.
</event>
<event>
 5   0  0.2379743E-06  0.1999354E+04  0.7818609E-02  0.8606923E-01
       -1   -1    0    0    0  501  0.00000000000E+00  0.00000000000E+00  0.10390490294E+04  0.10390490294E+04  0.50400001928E-02 0. -1.
        1   -1    0    0  501    0  0.00000000000E+00  0.00000000000E+00 -0.96179718208E+03  0.96179718209E+03  0.50400001928E-02 0.  1.
    10030    2    1    2    0    0  0.00000000000E+00  0.00000000000E+00  0.77251847308E+02  0.20008462115E+04  0.19993543243E+04 0.  0.
        5    1    3    3  502    0 -0.99221713319E+03 -0.11820807858E+02 -0.82698889631E+02  0.99573880472E+03  0.46999998093E+01 0. -1.
       -5    1    3    3    0  502  0.99221713319E+03  0.11820807858E+02  0.15995073694E+03  0.10051074068E+04  0.46999998093E+01 0.  1.
</event>
<event>
 5   0  0.5118981E-06  0.2000577E+04  0.7818609E-02  0.8606351E-01
       -2   -1    0    0    0  501  0.00000000000E+00  0.00000000000E+00  0.63119279558E+03  0.63119279558E+03  0.25500000920E-02 0.  1.
        2   -1    0    0  501    0  0.00000000000E+00  0.00000000000E+00 -0.15852164206E+04  0.15852164206E+04  0.25500000920E-02 0. -1.
    10030    2    1    2    0    0  0.00000000000E+00  0.00000000000E+00 -0.95402362504E+03  0.22164092162E+04  0.20005771009E+04 0.  0.
        4    1    3    3  502    0 -0.82764879865E+03  0.70333042000E+02  0.14045520746E+03  0.84242420959E+03  0.12699999809E+01 0.  1.
       -4    1    3    3    0  502  0.82764879865E+03 -0.70333042000E+02 -0.10944788325E+04  0.13739850066E+04  0.12699999809E+01 0. -1.
</event>
<event>
 5   0  0.2313821E-06  0.1999288E+04  0.7818609E-02  0.8606954E-01
        1   -1    0    0  501    0  0.00000000000E+00  0.00000000000E+00  0.11455617003E+04  0.11455617004E+04  0.50400001928E-02 0.  1.
       -1   -1    0    0    0  501  0.00000000000E+00  0.00000000000E+00 -0.87231243556E+03  0.87231243558E+03  0.50400001928E-02 0. -1.
    10030    2    1    2    0    0  0.00000000000E+00  0.00000000000E+00  0.27324926477E+03  0.20178741359E+04  0.19992875901E+04 0.  0.
        1    1    3    3  502    0 -0.27895952978E+03 -0.92659503528E+03 -0.11648742883E+03  0.97466204387E+03  0.50400001928E-02 0.  1.
       -1    1    3    3    0  502  0.27895952978E+03  0.92659503528E+03  0.38973669361E+03  0.10432120921E+04  0.50400001928E-02 0. -1.
</event>
<event>
 5   0  0.5251252E-06  0.1999680E+04  0.7818609E-02  0.8606770E-01
       -2   -1    0    0    0  501  0.00000000000E+00  0.00000000000E+00  0.68843355096E+03  0.68843355096E+03  0.25500000920E-02 0. -1.
        2   -1    0    0  501    0  0.00000000000E+00  0.00000000000E+00 -0.14521086452E+04  0.14521086452E+04  0.25500000920E-02 0.  1.
    10030    2    1    2    0    0  0.00000000000E+00  0.00000000000E+00 -0.76367509420E+03  0.21405421961E+04  0.19996802854E+04 0.  0.
        5    1    3    3  502    0  0.61331988313E+03 -0.27004864087E+03 -0.11761104851E+04  0.13536415739E+04  0.46999998093E+01 0.  1.
       -5    1    3    3    0  502 -0.61331988313E+03  0.27004864087E+03  0.41243539093E+03  0.78690062217E+03  0.46999998093E+01 0. -1.
</event>
<event>
 5   0  0.2379743E-06  0.1984634E+04  0.7818609E-02  0.8613839E-01
        1   -1    0    0  501    0  0.00000000000E+00  0.00000000000E+00  0.11080064504E+04  0.11080064504E+04  0.50400001928E-02 0. -1.
       -1   -1    0    0    0  501  0.00000000000E+00  0.00000000000E+00 -0.88870696641E+03  0.88870696642E+03  0.50400001928E-02 0.  1.
    10030    2    1    2    0    0  0.00000000000E+00  0.00000000000E+00  0.21929948398E+03  0.19967134168E+04  0.19846340230E+04 0.  0.
        5    1    3    3  502    0  0.47228090502E+03 -0.82744206569E+03  0.38875730383E+03  0.10290111548E+04  0.46999998093E+01 0.  1.
       -5    1    3    3    0  502 -0.47228090502E+03  0.82744206569E+03 -0.16945781985E+03  0.96770226208E+03  0.46999998093E+01 0. -1.
</event>
<event>
 5   0  0.2379743E-06  0.2000905E+04  0.7818609E-02  0.8606198E-01
       -1   -1    0    0    0  501  0.00000000000E+00  0.00000000000E+00  0.87235292158E+03  0.87235292160E+03  0.50400001928E-02 0.  1.
        1   -1    0    0  501    0  0.00000000000E+00  0.00000000000E+00 -0.11473625411E+04  0.11473625411E+04  0.50400001928E-02 0. -1.
    10030    2    1    2    0    0  0.00000000000E+00  0.00000000000E+00 -0.27500961955E+03  0.20197154627E+04  0.20009048602E+04 0.  0.
        5    1    3    3  502    0  0.37731171787E+03  0.45753993644E+03  0.67578437209E+03  0.89911819770E+03  0.46999998093E+01 0.  1.
       -5    1    3    3    0  502 -0.37731171787E+03 -0.45753993644E+03 -0.95079399164E+03  0.11205972650E+04  0.46999998093E+01 0. -1.
</event>
<event>
 5   0  0.5251252E-06  0.1999572E+04  0.7818609E-02  0.8606821E-01
        2   -1    0    0  501    0  0.00000000000E+00  0.00000000000E+00  0.22535113038E+04  0.22535113038E+04  0.25500000920E-02 0.  1.
       -2   -1    0    0    0  501  0.00000000000E+00  0.00000000000E+00 -0.44356209699E+03  0.44356209699E+03  0.25500000920E-02 0. -1.
    10030    2    1    2    0    0  0.00000000000E+00  0.00000000000E+00  0.18099492068E+04  0.26970734008E+04  0.19995721538E+04 0.  0.
        5    1    3    3  502    0 -0.27348796117E+03 -0.46364769440E+03  0.20413430703E+04  0.21111296668E+04  0.46999998093E+01 0.  1.
       -5    1    3    3    0  502  0.27348796117E+03  0.46364769440E+03 -0.23139386343E+03  0.58594373404E+03  0.46999998093E+01 0. -1.
</event>
<event>
 5   0  0.2313821E-06  0.2000132E+04  0.7818609E-02  0.8606559E-01
       -1   -1    0    0    0  501  0.00000000000E+00  0.00000000000E+00  0.12921031596E+04  0.12921031596E+04  0.50400001928E-02 0. -1.
        1   -1    0    0  501    0  0.00000000000E+00  0.00000000000E+00 -0.77403448995E+03  0.77403448997E+03  0.50400001928E-02 0.  1.
    10030    2    1    2    0    0  0.00000000000E+00  0.00000000000E+00  0.51806866966E+03  0.20661376496E+04  0.20001324058E+04 0.  0.
        1    1    3    3  502    0  0.13476299351E+03  0.56076379285E+03  0.11030123275E+04  0.12446900379E+04  0.50400001928E-02 0. -1.
       -1    1    3    3    0  502 -0.13476299351E+03 -0.56076379285E+03 -0.58494365788E+03  0.82144761166E+03  0.50400001928E-02 0.  1.
</event>
<event>
 5   0  0.2356996E-06  0.1998801E+04  0.7818609E-02  0.8607182E-01
        1   -1    0    0  501    0  0.00000000000E+00  0.00000000000E+00  0.16197634389E+04  0.16197634389E+04  0.50400001928E-02 0. -1.
       -1   -1    0    0    0  501  0.00000000000E+00  0.00000000000E+00 -0.61663392920E+03  0.61663392922E+03  0.50400001928E-02 0.  1.
    10030    2    1    2    0    0  0.00000000000E+00  0.00000000000E+00  0.10031295097E+04  0.22363973681E+04  0.19988007342E+04 0.  0.
        4    1    3    3  502    0  0.89118046381E+03  0.66430940156E+02  0.96120149780E+00  0.89365442185E+03  0.12699999809E+01 0.  1.
       -4    1    3    3    0  502 -0.89118046381E+03 -0.66430940156E+02  0.10021683082E+04  0.13427429463E+04  0.12699999809E+01 0. -1.
</event>
<event>
 5   0  0.2379743E-06  0.1997510E+04  0.7818609E-02  0.8607786E-01
        1   -1    0    0  501    0  0.00000000000E+00  0.00000000000E+00  0.12686378953E+04  0.12686378953E+04  0.50400001928E-02 0.  1.
       -1   -1    0    0    0  501  0.00000000000E+00  0.00000000000E+00 -0.78628545131E+03  0.78628545133E+03  0.50400001928E-02 0. -1.
    10030    2    1    2    0    0  0.00000000000E+00  0.00000000000E+00  0.48235244395E+03  0.20549233466E+04  0.19975099700E+04 0.  0.
        5    1    3    3  502    0 -0.71524224752E+03  0.37381876850E+03  0.84645588247E+03  0.11695390525E+04  0.46999998093E+01 0.  1.
       -5    1    3    3    0  502  0.71524224752E+03 -0.37381876850E+03 -0.36410343852E+03  0.88538429411E+03  0.46999998093E+01 0. -1.
</event>
<event>
 5   0  0.2356996E-06  0.2000735E+04  0.7818609E-02  0.8606277E-01
        1   -1    0    0  501    0  0.00000000000E+00  0.00000000000E+00  0.21235230230E+04  0.21235230230E+04  0.50400001928E-02 0. -1.
       -1   -1    0    0    0  501  0.00000000000E+00  0.00000000000E+00 -0.47126176102E+03  0.47126176105E+03  0.50400001928E-02 0.  1.
    10030    2    1    2    0    0  0.00000000000E+00  0.00000000000E+00  0.16522612620E+04  0.25947847841E+04  0.20007350644E+04 0.  0.
        4    1    3    3  502    0 -0.95002603084E+03  0.22271115049E+03  0.11119935441E+04  0.14794191329E+04  0.12699999809E+01 0. -1.
       -4    1    3    3    0  502  0.95002603084E+03 -0.22271115049E+03  0.54026771783E+03  0.11153656511E+04  0.12699999809E+01 0.  1.
</event>
<event>
 5   0  0.2356996E-06  0.2000245E+04  0.7818609E-02  0.8606506E-01
       -1   -1    0    0    0  501  0.00000000000E+00  0.00000000000E+00  0.75388638791E+03  0.75388638793E+03  0.50400001928E-02 0.  1.
        1   -1    0    0  501    0  0.00000000000E+00  0.00000000000E+00 -0.13267845611E+04  0.13267845611E+04  0.50400001928E-02 0. -1.
    10030    2    1    2    0    0  0.00000000000E+00  0.00000000000E+00 -0.57289817317E+03  0.20806709490E+04  0.20002448053E+04 0.  0.
        4    1    3    3  502    0  0.11440401013E+03  0.73755393456E+03  0.40602734938E+03  0.84966693785E+03  0.12699999809E+01 0.  1.
       -4    1    3    3    0  502 -0.11440401013E+03 -0.73755393456E+03 -0.97892552255E+03  0.12310040112E+04  0.12699999809E+01 0. -1.
</event>
<event>
 5   0  0.2356996E-06  0.2010377E+04  0.7818609E-02  0.8601784E-01
        1   -1    0    0  501    0  0.00000000000E+00  0.00000000000E+00  0.10720636597E+04  0.10720636597E+04  0.50400001928E-02 0.  1.
       -1   -1    0    0    0  501  0.00000000000E+00  0.00000000000E+00 -0.94248502695E+03  0.94248502696E+03  0.50400001928E-02 0. -1.
    10030    2    1    2    0    0  0.00000000000E+00  0.00000000000E+00  0.12957863278E+03  0.20145486867E+04  0.20103770266E+04 0.  0.
        4    1    3    3  502    0 -0.41263043428E+03 -0.18474868271E+03  0.96443084657E+03  0.10651405643E+04  0.12699999809E+01 0.  1.
       -4    1    3    3    0  502  0.41263043428E+03  0.18474868271E+03 -0.83485221379E+03  0.94940812237E+03  0.12699999809E+01 0. -1.
</event>
<event>
 5   0  0.2311520E-06  0.1999128E+04  0.7818609E-02  0.8607028E-01
        1   -1    0    0  501    0  0.00000000000E+00  0.00000000000E+00  0.75084919687E+03  0.75084919689E+03  0.50400001928E-02 0.  1.
       -1   -1    0    0    0  501  0.00000000000E+00  0.00000000000E+00 -0.13306644427E+04  0.13306644428E+04  0.50400001928E-02 0. -1.
    10030    2    1    2    0    0  0.00000000000E+00  0.00000000000E+00 -0.57981524588E+03  0.20815136396E+04  0.19991281381E+04 0.  0.
        3    1    3    3  502    0  0.34476279371E+03 -0.91314239755E+03 -0.65532400960E+02  0.97825606459E+03  0.10100000352E+00 0.  1.
       -3    1    3    3    0  502 -0.34476279371E+03  0.91314239755E+03 -0.51428284492E+03  0.11032575751E+04  0.10100000352E+00 0. -1.
</event>
<event>
 5   0  0.5129100E-06  0.1997274E+04  0.7818609E-02  0.8607896E-01
        2   -1    0    0  501    0  0.00000000000E+00  0.00000000000E+00  0.10549718238E+04  0.10549718238E+04  0.25500000920E-02 0.  1.
       -2   -1    0    0    0  501  0.00000000000E+00  0.00000000000E+00 -0.94530995971E+03  0.94530995972E+03  0.25500000920E-02 0. -1.
    10030    2    1    2    0    0  0.00000000000E+00  0.00000000000E+00  0.10966186406E+03  0.20002817835E+04  0.19972735138E+04 0.  0.
        2    1    3    3  502    0 -0.16016902479E+03 -0.97428983212E+03 -0.94995795386E+02  0.99192690992E+03  0.25500000920E-02 0. -1.
       -2    1    3    3    0  502  0.16016902479E+03  0.97428983212E+03  0.20465765944E+03  0.10083548736E+04  0.25500000920E-02 0.  1.
</event>
<event>
 5   0  0.2313821E-06  0.1996519E+04  0.7818609E-02  0.8608250E-01
       -1   -1    0    0    0  501  0.00000000000E+00  0.00000000000E+00  0.80374064233E+03  0.80374064235E+03  0.50400001928E-02 0. -1.
        1   -1    0    0  501    0  0.00000000000E+00  0.00000000000E+00 -0.12398546261E+04  0.12398546261E+04  0.50400001928E-02 0.  1.
    10030    2    1    2    0    0  0.00000000000E+00  0.00000000000E+00 -0.43611398378E+03  0.20435952685E+04  0.19965185234E+04 0.  0.
        1    1    3    3  502    0 -0.52578546295E+03 -0.84856713891E+03 -0.22034836789E+03  0.10222866259E+04  0.50400001928E-02 0.  1.
       -1    1    3    3    0  502  0.52578546295E+03  0.84856713891E+03 -0.21576561589E+03  0.10213086425E+04  0.50400001928E-02 0. -1.
</event>
<event>
 5   0  0.2313821E-06  0.1999890E+04  0.7818609E-02  0.8606672E-01
        1   -1    0    0  501    0  0.00000000000E+00  0.00000000000E+00  0.10593686769E+04  0.10593686769E+04  0.50400001928E-02 0. -1.
       -1   -1    0    0    0  501  0.00000000000E+00  0.00000000000E+00 -0.94385506869E+03  0.94385506871E+03  0.50400001928E-02 0.  1.
    10030    2    1    2    0    0  0.00000000000E+00  0.00000000000E+00  0.11551360817E+03  0.20032237456E+04  0.19998904923E+04 0.  0.
        1    1    3    3  502    0  0.86941573332E+03 -0.24369673110E+03  0.48814570794E+03  0.10264297571E+04  0.50400001928E-02 0. -1.
       -1    1    3    3    0  502 -0.86941573332E+03  0.24369673110E+03 -0.37263209977E+03  0.97679398846E+03  0.50400001928E-02 0.  1.
</event>
<event>
 5   0  0.1777750E-06  0.2000559E+04  0.7818609E-02  0.8606359E-01
        4   -1    0    0  501    0  0.00000000000E+00  0.00000000000E+00  0.12007214207E+04  0.12007220923E+04  0.12699999809E+01 0. -1.
       -4   -1    0    0    0  501  0.00000000000E+00  0.00000000000E+00 -0.83329721600E+03  0.83329818378E+03  0.12699999809E+01 0.  1.
    10030    2    1    2    0    0  0.00000000000E+00  0.00000000000E+00  0.36742420470E+03  0.20340202761E+04  0.20005594061E+04 0.  0.
        4    1    3    3  502    0 -0.37704039683E+03  0.10376333883E+03 -0.75235587868E+03  0.84791937849E+03  0.12699999809E+01 0.  1.
       -4    1    3    3    0  502  0.37704039683E+03 -0.10376333883E+03  0.11197800834E+04  0.11861008976E+04  0.12699999809E+01 0. -1.
</event>
<event>
 5   0  0.2386776E-06  0.1997136E+04  0.7818609E-02  0.8607961E-01
        1   -1    0    0  501    0  0.00000000000E+00  0.00000000000E+00  0.49548578211E+03  0.49548578214E+03  0.50400001928E-02 0.  1.
       -1   -1    0    0    0  501  0.00000000000E+00  0.00000000000E+00 -0.20124460635E+04  0.20124460635E+04  0.50400001928E-02 0. -1.
    10030    2    1    2    0    0  0.00000000000E+00  0.00000000000E+00 -0.15169602814E+04  0.25079318457E+04  0.19971363617E+04 0.  0.
        2    1    3    3  502    0 -0.96738160970E+02 -0.45817705417E+03  0.34905377797E+03  0.58405738132E+03  0.25500000920E-02 0.  1.
       -2    1    3    3    0  502  0.96738160970E+02  0.45817705417E+03 -0.18660140594E+04  0.19238744644E+04  0.25500000920E-02 0. -1.
</event>
<event>
 5   0  0.2311520E-06  0.1999651E+04  0.7818609E-02  0.8606784E-01
       -1   -1    0    0    0  501  0.00000000000E+00  0.00000000000E+00  0.12491871085E+04  0.12491871085E+04  0.50400001928E-02 0. -1.
        1   -1    0    0  501    0  0.00000000000E+00  0.00000000000E+00 -0.80024101007E+03  0.80024101009E+03  0.50400001928E-02 0.  1.
    10030    2    1    2    0    0  0.00000000000E+00  0.00000000000E+00  0.44894609844E+03  0.20494281186E+04  0.19996507230E+04 0.  0.
        3    1    3    3  502    0 -0.68961986036E+03 -0.62670053965E+03 -0.14693103074E+03  0.94335457608E+03  0.10100000352E+00 0.  1.
       -3    1    3    3    0  502  0.68961986036E+03  0.62670053965E+03  0.59587712917E+03  0.11060735425E+04  0.10100000352E+00 0. -1.
</event>
<event>
 5   0  0.2356996E-06  0.1999476E+04  0.7818609E-02  0.8606866E-01
       -1   -1    0    0    0  501  0.00000000000E+00  0.00000000000E+00  0.39253166029E+03  0.39253166032E+03  0.50400001928E-02 0.  1.
        1   -1    0    0  501    0  0.00000000000E+00  0.00000000000E+00 -0.25462307002E+04  0.25462307002E+04  0.50400001928E-02 0. -1.
    10030    2    1    2    0    0  0.00000000000E+00  0.00000000000E+00 -0.21536990399E+04  0.29387623605E+04  0.19994760957E+04 0.  0.
        4    1    3    3  502    0 -0.37313485780E+03  0.55103180092E+03  0.19687552496E+02  0.66577389582E+03  0.12699999809E+01 0.  1.
       -4    1    3    3    0  502  0.37313485780E+03 -0.55103180092E+03 -0.21733865924E+04  0.22729884647E+04  0.12699999809E+01 0. -1.
</event>
<event>
 5   0  0.2356996E-06  0.2001329E+04  0.7818609E-02  0.8606000E-01
       -1   -1    0    0    0  501  0.00000000000E+00  0.00000000000E+00  0.64177456713E+03  0.64177456715E+03  0.50400001928E-02 0.  1.
        1   -1    0    0  501    0  0.00000000000E+00  0.00000000000E+00 -0.15602509049E+04  0.15602509049E+04  0.50400001928E-02 0. -1.
    10030    2    1    2    0    0  0.00000000000E+00  0.00000000000E+00 -0.91847633777E+03  0.22020254721E+04  0.20013289076E+04 0.  0.
        4    1    3    3  502    0 -0.39926767434E+03  0.61274957468E+03  0.29222360455E+03  0.78757410128E+03  0.12699999809E+01 0.  1.
       -4    1    3    3    0  502  0.39926767434E+03 -0.61274957468E+03 -0.12106999423E+04  0.14144513708E+04  0.12699999809E+01 0. -1.
</event>
<event>
 5   0  0.5118981E-06  0.1996754E+04  0.7818609E-02  0.8608140E-01
       -2   -1    0    0    0  501  0.00000000000E+00  0.00000000000E+00  0.67171544600E+03  0.67171544601E+03  0.25500000920E-02 0. -1.
        2   -1    0    0  501    0  0.00000000000E+00  0.00000000000E+00 -0.14838968776E+04  0.14838968776E+04  0.25500000920E-02 0.  1.
    10030    2    1    2    0    0  0.00000000000E+00  0.00000000000E+00 -0.81218143161E+03  0.21556123236E+04  0.19967538185E+04 0.  0.
        4    1    3    3  502    0  0.32313344632E+03  0.79357025744E+03 -0.95929024801E+03  0.12862380691E+04  0.12699999809E+01 0.  1.
       -4    1    3    3    0  502 -0.32313344632E+03 -0.79357025744E+03  0.14710881640E+03  0.86937425450E+03  0.12699999809E+01 0. -1.
</event>
<event>
 5   0  0.1777750E-06  0.1998222E+04  0.7818609E-02  0.8607452E-01
        3   -1    0    0  501    0  0.00000000000E+00  0.00000000000E+00  0.64543590319E+03  0.64543591109E+03  0.10100000352E+00 0.  1.
       -3   -1    0    0    0  501  0.00000000000E+00  0.00000000000E+00 -0.15465870523E+04  0.15465870556E+04  0.10100000352E+00 0. -1.
    10030    2    1    2    0    0  0.00000000000E+00  0.00000000000E+00 -0.90115114910E+03  0.21920229667E+04  0.19982220329E+04 0.  0.
        3    1    3    3  502    0  0.17139859439E+03 -0.21698705806E+03  0.60262417091E+03  0.66303601945E+03  0.10100000352E+00 0.  1.
       -3    1    3    3    0  502 -0.17139859439E+03  0.21698705806E+03 -0.15037753200E+04  0.15289869472E+04  0.10100000352E+00 0. -1.
</event>
<event>
 5   0  0.2311520E-06  0.2001663E+04  0.7818609E-02  0.8605844E-01
       -1   -1    0    0    0  501  0.00000000000E+00  0.00000000000E+00  0.82065273357E+03  0.82065273358E+03  0.50400001928E-02 0. -1.
        1   -1    0    0  501    0  0.00000000000E+00  0.00000000000E+00 -0.12205690148E+04  0.12205690148E+04  0.50400001928E-02 0.  1.
    10030    2    1    2    0    0  0.00000000000E+00  0.00000000000E+00 -0.39991628127E+03  0.20412217484E+04  0.20016626075E+04 0.  0.
        3    1    3    3  502    0  0.50396885754E+03 -0.47256225219E+03 -0.93839875934E+03  0.11652862023E+04  0.10100000352E+00 0.  1.
       -3    1    3    3    0  502 -0.50396885754E+03  0.47256225219E+03  0.53848247807E+03  0.87593554612E+03  0.10100000352E+00 0. -1.
</event>
<event>
 5   0  0.5129100E-06  0.2000060E+04  0.7818609E-02  0.8606593E-01
        2   -1    0    0  501    0  0.00000000000E+00  0.00000000000E+00  0.11192136284E+04  0.11192136284E+04  0.25500000920E-02 0.  1.
       -2   -1    0    0    0  501  0.00000000000E+00  0.00000000000E+00 -0.89353797529E+03  0.89353797529E+03  0.25500000920E-02 0. -1.
    10030    2    1    2    0    0  0.00000000000E+00  0.00000000000E+00  0.22567565311E+03  0.20127516037E+04  0.20000598785E+04 0.  0.
        2    1    3    3  502    0  0.94641309612E+03  0.16449246133E+03  0.39263877417E+03  0.10377479103E+04  0.25500000920E-02 0.  1.
       -2    1    3    3    0  502 -0.94641309612E+03 -0.16449246133E+03 -0.16696312106E+03  0.97500369339E+03  0.25500000920E-02 0. -1.
</event>
<event>
 5   0  0.5251252E-06  0.1999809E+04  0.7818609E-02  0.8606710E-01
       -2   -1    0    0    0  501  0.00000000000E+00  0.00000000000E+00  0.45716875338E+03  0.45716875338E+03  0.25500000920E-02 0.  1.
        2   -1    0    0  501    0  0.00000000000E+00  0.00000000000E+00 -0.21869592530E+04  0.21869592530E+04  0.25500000920E-02 0. -1.
    10030    2    1    2    0    0  0.00000000000E+00  0.00000000000E+00 -0.17297904997E+04  0.26441280064E+04  0.19998094263E+04 0.  0.
        5    1    3    3  502    0 -0.79409371899E+02  0.99055020181E+03 -0.10114842947E+04  0.14179626649E+04  0.46999998093E+01 0. -1.
       -5    1    3    3    0  502  0.79409371899E+02 -0.99055020181E+03 -0.71830620495E+03  0.12261653415E+04  0.46999998093E+01 0.  1.
</event>
<event>
 5   0  0.5030137E-06  0.2013141E+04  0.7818609E-02  0.8600501E-01
       -2   -1    0    0    0  501  0.00000000000E+00  0.00000000000E+00  0.66111812319E+03  0.66111812319E+03  0.25500000920E-02 0.  1.
        2   -1    0    0  501    0  0.00000000000E+00  0.00000000000E+00 -0.15325309075E+04  0.15325309075E+04  0.25500000920E-02 0. -1.
    10030    2    1    2    0    0  0.00000000000E+00  0.00000000000E+00 -0.87141278432E+03  0.21936490307E+04  0.20131407872E+04 0.  0.
        3    1    3    3  502    0  0.33441852502E+03 -0.90105006367E+03 -0.76161821319E+03  0.12262908627E+04  0.10100000352E+00 0. -1.
       -3    1    3    3    0  502 -0.33441852502E+03  0.90105006367E+03 -0.10979457113E+03  0.96735816799E+03  0.10100000352E+00 0.  1.
</event>
<event>
 5   0  0.2386776E-06  0.2000378E+04  0.7818609E-02  0.8606444E-01
        1   -1    0    0  501    0  0.00000000000E+00  0.00000000000E+00  0.10195738468E+04  0.10195738468E+04  0.50400001928E-02 0. -1.
       -1   -1    0    0    0  501  0.00000000000E+00  0.00000000000E+00 -0.98117315623E+03  0.98117315624E+03  0.50400001928E-02 0.  1.
    10030    2    1    2    0    0  0.00000000000E+00  0.00000000000E+00  0.38400690540E+02  0.20007470030E+04  0.20003784535E+04 0.  0.
        2    1    3    3  502    0  0.52725075960E+03 -0.75027896794E+03  0.41860660670E+03  0.10080393764E+04  0.25500000920E-02 0. -1.
       -2    1    3    3    0  502 -0.52725075960E+03  0.75027896794E+03 -0.38020591616E+03  0.99270762660E+03  0.25500000920E-02 0.  1.
</event>
<event>
 5   0  0.5030137E-06  0.2000071E+04  0.7818609E-02  0.8606587E-01
        2   -1    0    0  501    0  0.00000000000E+00  0.00000000000E+00  0.11359936436E+04  0.11359936437E+04  0.25500000920E-02 0. -1.
       -2   -1    0    0    0  501  0.00000000000E+00  0.00000000000E+00 -0.88034937733E+03  0.88034937733E+03  0.25500000920E-02 0.  1.
    10030    2    1    2    0    0  0.00000000000E+00  0.00000000000E+00  0.25564426632E+03  0.20163430210E+04  0.20000712956E+04 0.  0.
        3    1    3    3  502    0 -0.81898140218E+03  0.34306175388E+03  0.59161860682E+03  0.10669744562E+04  0.10100000352E+00 0. -1.
       -3    1    3    3    0  502  0.81898140218E+03 -0.34306175388E+03 -0.33597434050E+03  0.94936856477E+03  0.10100000352E+00 0.  1.
</event>
<event>
 5   0  0.2379743E-06  0.1999762E+04  0.7818609E-02  0.8606732E-01
        1   -1    0    0  501    0  0.00000000000E+00  0.00000000000E+00  0.10197304717E+04  0.10197304718E+04  0.50400001928E-02 0. -1.
       -1   -1    0    0    0  501  0.00000000000E+00  0.00000000000E+00 -0.98041751535E+03  0.98041751536E+03  0.50400001928E-02 0.  1.
    10030    2    1    2    0    0  0.00000000000E+00  0.00000000000E+00  0.39312956398E+02  0.20001479871E+04  0.19997616012E+04 0.  0.
        5    1    3    3  502    0 -0.60489403024E+03 -0.77922466229E+03  0.18294139290E+03  0.10032833625E+04  0.46999998093E+01 0. -1.
       -5    1    3    3    0  502  0.60489403024E+03  0.77922466229E+03 -0.14362843650E+03  0.99686462467E+03  0.46999998093E+01 0.  1.
</event>
<event>
 5   0  0.2311520E-06  0.2000278E+04  0.7818609E-02  0.8606491E-01
        1   -1    0    0  501    0  0.00000000000E+00  0.00000000000E+00  0.10067484479E+04  0.10067484480E+04  0.50400001928E-02 0.  1.
       -1   -1    0    0    0  501  0.00000000000E+00  0.00000000000E+00 -0.99357264282E+03  0.99357264283E+03  0.50400001928E-02 0. -1.
    10030    2    1    2    0    0  0.00000000000E+00  0.00000000000E+00  0.13175805120E+02  0.20003210908E+04  0.20002776968E+04 0.  0.
        3    1    3    3  502    0 -0.37761981491E+02 -0.86456325763E+03  0.50797898672E+03  0.10034631308E+04  0.10100000352E+00 0.  1.
       -3    1    3    3    0  502  0.37761981491E+02  0.86456325763E+03 -0.49480318160E+03  0.99685796000E+03  0.10100000352E+00 0. -1.
</event>
<event>
 5   0  0.2313821E-06  0.2004276E+04  0.7818609E-02  0.8604624E-01
       -1   -1    0    0    0  501  0.00000000000E+00  0.00000000000E+00  0.63012677260E+03  0.63012677262E+03  0.50400001928E-02 0.  1.
        1   -1    0    0  501    0  0.00000000000E+00  0.00000000000E+00 -0.15937758050E+04  0.15937758050E+04  0.50400001928E-02 0. -1.
    10030    2    1    2    0    0  0.00000000000E+00  0.00000000000E+00 -0.96364903243E+03  0.22239025777E+04  0.20042762328E+04 0.  0.
        1    1    3    3  502    0 -0.80731951995E+02 -0.85843208904E+03 -0.10485331765E+04  0.13575143174E+04  0.50400001928E-02 0. -1.
       -1    1    3    3    0  502  0.80731951995E+02  0.85843208904E+03  0.84884144113E+02  0.86638826026E+03  0.50400001928E-02 0.  1.
</event>
<event>
 5   0  0.5118981E-06  0.1998943E+04  0.7818609E-02  0.8607115E-01
        2   -1    0    0  501    0  0.00000000000E+00  0.00000000000E+00  0.96362008362E+03  0.96362008363E+03  0.25500000920E-02 0.  1.
       -2   -1    0    0    0  501  0.00000000000E+00  0.00000000000E+00 -0.10366564554E+04  0.10366564554E+04  0.25500000920E-02 0. -1.
    10030    2    1    2    0    0  0.00000000000E+00  0.00000000000E+00 -0.73036371809E+02  0.20002765391E+04  0.19989427008E+04 0.  0.
        4    1    3    3  502    0  0.67466343358E+03 -0.18573367559E+03 -0.75062846815E+03  0.10262126763E+04  0.12699999809E+01 0. -1.
       -4    1    3    3    0  502 -0.67466343358E+03  0.18573367559E+03  0.67759209634E+03  0.97406386278E+03  0.12699999809E+01 0.  1.
</event>
<event>
 5   0  0.2356996E-06  0.2000128E+04  0.7818609E-02  0.8606561E-01
        1   -1    0    0  501    0  0.00000000000E+00  0.00000000000E+00  0.97435325255E+03  0.97435325256E+03  0.50400001928E-02 0. -1.
       -1   -1    0    0    0  501  0.00000000000E+00  0.00000000000E+00 -0.10264532612E+04  0.10264532612E+04  0.50400001928E-02 0.  1.
    10030    2    1    2    0    0  0.00000000000E+00  0.00000000000E+00 -0.52100008626E+02  0.20008065138E+04  0.20001280695E+04 0.  0.
        4    1    3    3  502    0  0.69964226516E+03  0.67557401039E+03 -0.25899573156E+03  0.10064690480E+04  0.12699999809E+01 0.  1.
       -4    1    3    3    0  502 -0.69964226516E+03 -0.67557401039E+03  0.20689572294E+03  0.99433746575E+03  0.12699999809E+01 0. -1.
</event>
<event>
 5   0  0.1777750E-06  0.1999867E+04  0.7818609E-02  0.8606683E-01
       -4   -1    0    0    0  501  0.00000000000E+00  0.00000000000E+00  0.57291466324E+03  0.57291607086E+03  0.12699999809E+01 0. -1.
        4   -1    0    0  501    0  0.00000000000E+00  0.00000000000E+00 -0.17452239725E+04  0.17452244346E+04  0.12699999809E+01 0.  1.
    10030    2    1    2    0    0  0.00000000000E+00  0.00000000000E+00 -0.11723093093E+04  0.23181405055E+04  0.19998665672E+04 0.  0.
        5    1    3    3  502    0 -0.35509423979E+03 -0.40856837981E+03 -0.15606830879E+04  0.16519000669E+04  0.46999998093E+01 0.  1.
       -5    1    3    3    0  502  0.35509423979E+03  0.40856837981E+03  0.38837377861E+03  0.66624043860E+03  0.46999998093E+01 0. -1.
</event>
<event>
 5   0  0.2311520E-06  0.1999425E+04  0.7818609E-02  0.8606890E-01
        1   -1    0    0  501    0  0.00000000000E+00  0.00000000000E+00  0.15296285773E+04  0.15296285773E+04  0.50400001928E-02 0. -1.
       -1   -1    0    0    0  501  0.00000000000E+00  0.00000000000E+00 -0.65337731360E+03  0.65337731362E+03  0.50400001928E-02 0.  1.
    10030    2    1    2    0    0  0.00000000000E+00  0.00000000000E+00  0.87625126370E+03  0.21830058909E+04  0.19994245279E+04 0.  0.
        3    1    3    3  502    0  0.72864099362E+03 -0.66902978921E+03  0.59599062042E+03  0.11548694239E+04  0.10100000352E+00 0.  1.
       -3    1    3    3    0  502 -0.72864099362E+03  0.66902978921E+03  0.28026064328E+03  0.10281364670E+04  0.10100000352E+00 0. -1.
</event>
<event>
 5   0  0.5129100E-06  0.1999754E+04  0.7818609E-02  0.8606736E-01
        2   -1    0    0  501    0  0.00000000000E+00  0.00000000000E+00  0.68260452139E+03  0.68260452140E+03  0.25500000920E-02 0.  1.
       -2   -1    0    0    0  501  0.00000000000E+00  0.00000000000E+00 -0.14646162366E+04  0.14646162366E+04  0.25500000920E-02 0. -1.
    10030    2    1    2    0    0  0.00000000000E+00  0.00000000000E+00 -0.78201171525E+03  0.21472207580E+04  0.19997536501E+04 0.  0.
        2    1    3    3  502    0 -0.67538175690E+03  0.58712267457E+03  0.87864233896E+02  0.89920724872E+03  0.25500000920E-02 0.  1.
       -2    1    3    3    0  502  0.67538175690E+03 -0.58712267457E+03 -0.86987594915E+03  0.12480135093E+04  0.25500000920E-02 0. -1.
</event>
<event>
 5   0  0.5118981E-06  0.1997927E+04  0.7818609E-02  0.8607591E-01
       -2   -1    0    0    0  501  0.00000000000E+00  0.00000000000E+00  0.98228789617E+03  0.98228789618E+03  0.25500000920E-02 0.  1.
        2   -1    0    0  501    0  0.00000000000E+00  0.00000000000E+00 -0.10159219295E+04  0.10159219295E+04  0.25500000920E-02 0. -1.
    10030    2    1    2    0    0  0.00000000000E+00  0.00000000000E+00 -0.33634033351E+02  0.19982098257E+04  0.19979267402E+04 0.  0.
        4    1    3    3  502    0 -0.26285823582E+02 -0.12884634274E+03  0.97359289257E+03  0.98243425120E+03  0.12699999809E+01 0.  1.
       -4    1    3    3    0  502  0.26285823582E+02  0.12884634274E+03 -0.10072269259E+04  0.10157755745E+04  0.12699999809E+01 0. -1.
</event>
<event>
 5   0  0.5129100E-06  0.1999304E+04  0.7818609E-02  0.8606946E-01
        2   -1    0    0  501    0  0.00000000000E+00  0.00000000000E+00  0.15767067238E+04  0.15767067238E+04  0.25500000920E-02 0. -1.
       -2   -1    0    0    0  501  0.00000000000E+00  0.00000000000E+00 -0.63379175722E+03  0.63379175723E+03  0.25500000920E-02 0.  1.
    10030    2    1    2    0    0  0.00000000000E+00  0.00000000000E+00  0.94291496658E+03  0.22104984810E+04  0.19993036039E+04 0.  0.
        2    1    3    3  502    0 -0.78054017080E+03  0.14178603473E+03  0.11439498862E+04  0.13921090403E+04  0.25500000920E-02 0. -1.
       -2    1    3    3    0  502  0.78054017080E+03 -0.14178603473E+03 -0.20103491959E+03  0.81838944078E+03  0.25500000920E-02 0.  1.
</event>
<event>
 5   0  0.2356996E-06  0.2001209E+04  0.7818609E-02  0.8606056E-01
        1   -1    0    0  501    0  0.00000000000E+00  0.00000000000E+00  0.12531203492E+04  0.12531203492E+04  0.50400001928E-02 0. -1.
       -1   -1    0    0    0  501  0.00000000000E+00  0.00000000000E+00 -0.79897316264E+03  0.79897316265E+03  0.50400001928E-02 0.  1.
    10030    2    1    2    0    0  0.00000000000E+00  0.00000000000E+00  0.45414718655E+03  0.20520935119E+04  0.20012091631E+04 0.  0.
        4    1    3    3  502    0 -0.72533806321E+03 -0.54205877646E+03  0.66365125806E+03  0.11226654124E+04  0.12699999809E+01 0. -1.
       -4    1    3    3    0  502  0.72533806321E+03  0.54205877646E+03 -0.20950407151E+03  0.92942809940E+03  0.12699999809E+01 0.  1.
</event>
<event>
 5   0  0.5251252E-06  0.1999460E+04  0.7818609E-02  0.8606873E-01
       -2   -1    0    0    0  501  0.00000000000E+00  0.00000000000E+00  0.64699870525E+03  0.64699870525E+03  0.25500000920E-02 0.  1.
        2   -1    0    0  501    0  0.00000000000E+00  0.00000000000E+00 -0.15447643284E+04  0.15447643284E+04  0.25500000920E-02 0. -1.
    10030    2    1    2    0    0  0.00000000000E+00  0.00000000000E+00 -0.89776562320E+03  0.21917630337E+04  0.19994604476E+04 0.  0.
        5    1    3    3  502    0  0.91775181866E+03  0.35763010286E+03 -0.63642441563E+03  0.11727002251E+04  0.46999998093E+01 0.  1.
       -5    1    3    3    0  502 -0.91775181866E+03 -0.35763010286E+03 -0.26134120757E+03  0.10190628086E+04  0.46999998093E+01 0. -1.
</event>
<event>
 5   0  0.2386776E-06  0.1999629E+04  0.7818609E-02  0.8606794E-01
        1   -1    0    0  501    0  0.00000000000E+00  0.00000000000E+00  0.10421259671E+04  0.10421259671E+04  0.50400001928E-02 0. -1.
       -1   -1    0    0    0  501  0.00000000000E+00  0.00000000000E+00 -0.95922105336E+03  0.95922105338E+03  0.50400001928E-02 0.  1.
    10030    2    1    2    0    0  0.00000000000E+00  0.00000000000E+00  0.82904913719E+02  0.20013470205E+04  0.19996291335E+04 0.  0.
        2    1    3    3  502    0  0.91338737970E+03  0.11921039697E+03 -0.34765080392E+03  0.98455508003E+03  0.25500000920E-02 0.  1.
       -2    1    3    3    0  502 -0.91338737970E+03 -0.11921039697E+03  0.43055571764E+03  0.10167919404E+04  0.25500000920E-02 0. -1.
</event>
<event>
 5   0  0.2313821E-06  0.1999680E+04  0.7818609E-02  0.8606770E-01
        1   -1    0    0  501    0  0.00000000000E+00  0.00000000000E+00  0.11620934737E+04  0.11620934737E+04  0.50400001928E-02 0.  1.
       -1   -1    0    0    0  501  0.00000000000E+00  0.00000000000E+00 -0.86024068740E+03  0.86024068742E+03  0.50400001928E-02 0. -1.
    10030    2    1    2    0    0  0.00000000000E+00  0.00000000000E+00  0.30185278632E+03  0.20223341612E+04  0.19996800631E+04 0.  0.
        1    1    3    3  502    0  0.94016259402E+03  0.46614371591E+01 -0.19315238287E+03  0.95981002038E+03  0.50400001928E-02 0. -1.
       -1    1    3    3    0  502 -0.94016259402E+03 -0.46614371591E+01  0.49500516919E+03  0.10625241408E+04  0.50400001928E-02 0.  1.
</event>
<event>
 5   0  0.2379743E-06  0.2000504E+04  0.7818609E-02  0.8606385E-01
       -1   -1    0    0    0  501  0.00000000000E+00  0.00000000000E+00  0.10061373860E+04  0.10061373860E+04  0.50400001928E-02 0. -1.
        1   -1    0    0  501    0  0.00000000000E+00  0.00000000000E+00 -0.99440105995E+03  0.99440105996E+03  0.50400001928E-02 0.  1.
    10030    2    1    2    0    0  0.00000000000E+00  0.00000000000E+00  0.11736326038E+02  0.20005384460E+04  0.20005040196E+04 0.  0.
        5    1    3    3  502    0 -0.50019906473E+03 -0.85806632881E+03  0.12421319309E+03  0.10009635040E+04  0.46999998093E+01 0. -1.
       -5    1    3    3    0  502  0.50019906473E+03  0.85806632881E+03 -0.11247686705E+03  0.99957494197E+03  0.46999998093E+01 0.  1.
</event>
<event>
 5   0  0.2356996E-06  0.1999546E+04  0.7818609E-02  0.8606833E-01
       -1   -1    0    0    0  501  0.00000000000E+00  0.00000000000E+00  0.69581615341E+03  0.69581615343E+03  0.50400001928E-02 0. -1.
        1   -1    0    0  501    0  0.00000000000E+00  0.00000000000E+00 -0.14365081772E+04  0.14365081772E+04  0.50400001928E-02 0.  1.
    10030    2    1    2    0    0  0.00000000000E+00  0.00000000000E+00 -0.74069202382E+03  0.21323243307E+04  0.19995455426E+04 0.  0.
        4    1    3    3  502    0 -0.19537745151E+03 -0.62001516610E+03 -0.11803592466E+04  0.13475313424E+04  0.12699999809E+01 0.  1.
       -4    1    3    3    0  502  0.19537745151E+03  0.62001516610E+03  0.43966722280E+03  0.78479298828E+03  0.12699999809E+01 0. -1.
</event>
<event>
 5   0  0.4956214E-06  0.2002613E+04  0.7818609E-02  0.8605400E-01
        2   -1    0    0  501    0  0.00000000000E+00  0.00000000000E+00  0.13455579299E+04  0.13455579299E+04  0.25500000920E-02 0. -1.
       -2   -1    0    0    0  501  0.00000000000E+00  0.00000000000E+00 -0.74512967492E+03  0.74512967492E+03  0.25500000920E-02 0.  1.
    10030    2    1    2    0    0  0.00000000000E+00  0.00000000000E+00  0.60042825501E+03  0.20906876049E+04  0.20026134354E+04 0.  0.
        1    1    3    3  502    0  0.14003057067E+03 -0.87466939014E+03  0.78760844170E+03  0.11853194338E+04  0.50400001928E-02 0. -1.
       -1    1    3    3    0  502 -0.14003057067E+03  0.87466939014E+03 -0.18718018669E+03  0.90536817102E+03  0.50400001928E-02 0.  1.
</event>
<event>
 5   0  0.2313821E-06  0.2000401E+04  0.7818609E-02  0.8606433E-01
        1   -1    0    0  501    0  0.00000000000E+00  0.00000000000E+00  0.10651331551E+04  0.10651331551E+04  0.50400001928E-02 0.  1.
       -1   -1    0    0    0  501  0.00000000000E+00  0.00000000000E+00 -0.93922619580E+03  0.93922619581E+03  0.50400001928E-02 0. -1.
    10030    2    1    2    0    0  0.00000000000E+00  0.00000000000E+00  0.12590695926E+03  0.20043593509E+04  0.20004009211E+04 0.  0.
        1    1    3    3  502    0  0.82968271329E+02 -0.60056717063E+03  0.86003773789E+03  0.10522497665E+04  0.50400001928E-02 0.  1.
       -1    1    3    3    0  502 -0.82968271329E+02  0.60056717063E+03 -0.73413077863E+03  0.95210958437E+03  0.50400001928E-02 0. -1.
</event>
<event>
 5   0  0.5030137E-06  0.1998974E+04  0.7818609E-02  0.8607101E-01
       -2   -1    0    0    0  501  0.00000000000E+00  0.00000000000E+00  0.80713668981E+03  0.80713668982E+03  0.25500000920E-02 0.  1.
        2   -1    0    0  501    0  0.00000000000E+00  0.00000000000E+00 -0.12376761785E+04  0.12376761785E+04  0.25500000920E-02 0. -1.
    10030    2    1    2    0    0  0.00000000000E+00  0.00000000000E+00 -0.43053948869E+03  0.20448128683E+04  0.19989735904E+04 0.  0.
        3    1    3    3  502    0 -0.55455614075E+03  0.10391215247E+03 -0.10591996835E+04  0.12000975912E+04  0.10100000352E+00 0. -1.
       -3    1    3    3    0  502  0.55455614075E+03 -0.10391215247E+03  0.62866019481E+03  0.84471527713E+03  0.10100000352E+00 0.  1.
</event>
<event>
 5   0  0.4956214E-06  0.1999872E+04  0.7818609E-02  0.8606680E-01
        2   -1    0    0  501    0  0.00000000000E+00  0.00000000000E+00  0.13317814453E+04  0.13317814453E+04  0.25500000920E-02 0.  1.
       -2   -1    0    0    0  501  0.00000000000E+00  0.00000000000E+00 -0.75077802726E+03  0.75077802727E+03  0.25500000920E-02 0. -1.
    10030    2    1    2    0    0  0.00000000000E+00  0.00000000000E+00  0.58100341802E+03  0.20825594725E+04  0.19998722422E+04 0.  0.
        1    1    3    3  502    0 -0.52019956194E+03 -0.68430457449E+03  0.82249809742E+03  0.11896988927E+04  0.50400001928E-02 0.  1.
       -1    1    3    3    0  502  0.52019956194E+03  0.68430457449E+03 -0.24149467941E+03  0.89286057989E+03  0.50400001928E-02 0. -1.
</event>
<event>
 5   0  0.4956214E-06  0.2000573E+04  0.7818609E-02  0.8606353E-01
       -2   -1    0    0    0  501  0.00000000000E+00  0.00000000000E+00  0.12481686072E+04  0.12481686072E+04  0.25500000920E-02 0. -1.
        2   -1    0    0  501    0  0.00000000000E+00  0.00000000000E+00 -0.80163255581E+03  0.80163255581E+03  0.25500000920E-02 0.  1.
    10030    2    1    2    0    0  0.00000000000E+00  0.00000000000E+00  0.44653605135E+03  0.20498011630E+04  0.20005725087E+04 0.  0.
        1    1    3    3  502    0 -0.34917213841E+01  0.28324277839E+03 -0.75967909460E+03  0.81077184856E+03  0.50400001928E-02 0.  1.
       -1    1    3    3    0  502  0.34917213841E+01 -0.28324277839E+03  0.12062151459E+04  0.12390293144E+04  0.50400001928E-02 0. -1.
</event>
<event>
 5   0  0.5251252E-06  0.1999599E+04  0.7818609E-02  0.8606808E-01
        2   -1    0    0  501    0  0.00000000000E+00  0.00000000000E+00  0.19623863805E+04  0.19623863805E+04  0.25500000920E-02 0.  1.
       -2   -1    0    0    0  501  0.00000000000E+00  0.00000000000E+00 -0.50937953300E+03  0.50937953300E+03  0.25500000920E-02 0. -1.
    10030    2    1    2    0    0  0.00000000000E+00  0.00000000000E+00  0.14530068475E+04  0.24717659135E+04  0.19995994180E+04 0.  0.
        5    1    3    3  502    0 -0.30540678262E+03  0.82678582375E+03  0.13098853646E+04  0.15788191345E+04  0.46999998093E+01 0.  1.
       -5    1    3    3    0  502  0.30540678262E+03 -0.82678582375E+03  0.14312148295E+03  0.89294677899E+03  0.46999998093E+01 0. -1.
</event>
<event>
 5   0  0.2379743E-06  0.2000037E+04  0.7818609E-02  0.8606604E-01
       -1   -1    0    0    0  501  0.00000000000E+00  0.00000000000E+00  0.11673025044E+04  0.11673025045E+04  0.50400001928E-02 0. -1.
        1   -1    0    0  501    0  0.00000000000E+00  0.00000000000E+00 -0.85670736825E+03  0.85670736827E+03  0.50400001928E-02 0.  1.
    10030    2    1    2    0    0  0.00000000000E+00  0.00000000000E+00  0.31059513619E+03  0.20240098727E+04  0.20000366562E+04 0.  0.
        5    1    3    3  502    0  0.94009440359E+03  0.10474898454E+01 -0.18972298343E+03  0.95905968810E+03  0.46999998093E+01 0.  1.
       -5    1    3    3    0  502 -0.94009440359E+03 -0.10474898454E+01  0.50031811962E+03  0.10649501846E+04  0.46999998093E+01 0. -1.
</event>
<event>
 5   0  0.5030137E-06  0.1999067E+04  0.7818609E-02  0.8607057E-01
        2   -1    0    0  501    0  0.00000000000E+00  0.00000000000E+00  0.81487515689E+03  0.81487515690E+03  0.25500000920E-02 0. -1.
       -2   -1    0    0    0  501  0.00000000000E+00  0.00000000000E+00 -0.12260373717E+04  0.12260373717E+04  0.25500000920E-02 0.  1.
    10030    2    1    2    0    0  0.00000000000E+00  0.00000000000E+00 -0.41116221484E+03  0.20409125286E+04  0.19990671781E+04 0.  0.
        3    1    3    3  502    0 -0.30351791621E+03 -0.45127741225E+03  0.65059900792E+03  0.84797022800E+03  0.10100000352E+00 0. -1.
       -3    1    3    3    0  502  0.30351791621E+03  0.45127741225E+03 -0.10617612228E+04  0.11929423006E+04  0.10100000352E+00 0.  1.
</event>
<event>
 5   0  0.2356996E-06  0.2010957E+04  0.7818609E-02  0.8601515E-01
       -1   -1    0    0    0  501  0.00000000000E+00  0.00000000000E+00  0.17944469565E+04  0.17944469565E+04  0.50400001928E-02 0. -1.
        1   -1    0    0  501    0  0.00000000000E+00  0.00000000000E+00 -0.56339744913E+03  0.56339744915E+03  0.50400001928E-02 0.  1.
    10030    2    1    2    0    0  0.00000000000E+00  0.00000000000E+00  0.12310495074E+04  0.23578444057E+04  0.20109568249E+04 0.  0.
        4    1    3    3  502    0 -0.13297066968E+03 -0.64402005869E+03 -0.27630080338E+03  0.71329291447E+03  0.12699999809E+01 0.  1.
       -4    1    3    3    0  502  0.13297066968E+03  0.64402005869E+03  0.15073503108E+04  0.16445514912E+04  0.12699999809E+01 0. -1.
</event>
<event>
 5   0  0.2313821E-06  0.2000275E+04  0.7818609E-02  0.8606492E-01
       -1   -1    0    0    0  501  0.00000000000E+00  0.00000000000E+00  0.70841430426E+03  0.70841430427E+03  0.50400001928E-02 0.  1.
        1   -1    0    0  501    0  0.00000000000E+00  0.00000000000E+00 -0.14119920133E+04  0.14119920133E+04  0.50400001928E-02 0. -1.
    10030    2    1    2    0    0  0.00000000000E+00  0.00000000000E+00 -0.70357770900E+03  0.21204063175E+04  0.20002753208E+04 0.  0.
        1    1    3    3  502    0  0.97646951965E+03  0.11729738214E+03 -0.54442765387E+03  0.11241231556E+04  0.50400001928E-02 0.  1.
       -1    1    3    3    0  502 -0.97646951965E+03 -0.11729738214E+03 -0.15915005513E+03  0.99628316193E+03  0.50400001928E-02 0. -1.
</event>
<event>
 5   0  0.2311520E-06  0.1999736E+04  0.7818609E-02  0.8606744E-01
       -1   -1    0    0    0  501  0.00000000000E+00  0.00000000000E+00  0.71736864186E+03  0.71736864188E+03  0.50400001928E-02 0.  1.
        1   -1    0    0  501    0  0.00000000000E+00  0.00000000000E+00 -0.13936148712E+04  0.13936148712E+04  0.50400001928E-02 0. -1.
    10030    2    1    2    0    0  0.00000000000E+00  0.00000000000E+00 -0.67624622932E+03  0.21109835131E+04  0.19997355900E+04 0.  0.
        3    1    3    3  502    0  0.49056026812E+03 -0.81247399923E+03 -0.67022315164E+03  0.11618788488E+04  0.10100000352E+00 0.  1.
       -3    1    3    3    0  502 -0.49056026812E+03  0.81247399923E+03 -0.60230776770E+01  0.94910466427E+03  0.10100000352E+00 0. -1.
</event>
<event>
 5   0  0.2311520E-06  0.1999905E+04  0.7818609E-02  0.8606665E-01
       -1   -1    0    0    0  501  0.00000000000E+00  0.00000000000E+00  0.10723987219E+04  0.10723987219E+04  0.50400001928E-02 0.  1.
        1   -1    0    0  501    0  0.00000000000E+00  0.00000000000E+00 -0.93240004818E+03  0.93240004819E+03  0.50400001928E-02 0. -1.
    10030    2    1    2    0    0  0.00000000000E+00  0.00000000000E+00  0.13999867367E+03  0.20047987701E+04  0.19999046177E+04 0.  0.
        3    1    3    3  502    0 -0.55184358227E+03 -0.13038369564E+03 -0.75565049568E+03  0.94474278468E+03  0.10100000352E+00 0.  1.
       -3    1    3    3    0  502  0.55184358227E+03  0.13038369564E+03  0.89564916935E+03  0.10600559854E+04  0.10100000352E+00 0. -1.
</event>
<event>
 5   0  0.5129100E-06  0.1999567E+04  0.7818609E-02  0.8606823E-01
       -2   -1    0    0    0  501  0.00000000000E+00  0.00000000000E+00  0.71959567502E+03  0.71959567503E+03  0.25500000920E-02 0. -1.
        2   -1    0    0  501    0  0.00000000000E+00  0.00000000000E+00 -0.13890680840E+04  0.13890680840E+04  0.25500000920E-02 0.  1.
    10030    2    1    2    0    0  0.00000000000E+00  0.00000000000E+00 -0.66947240894E+03  0.21086637590E+04  0.19995673387E+04 0.  0.
        2    1    3    3  502    0 -0.24457042781E+03  0.67710319373E+03  0.39686092377E+03  0.82205962189E+03  0.25500000920E-02 0. -1.
       -2    1    3    3    0  502  0.24457042781E+03 -0.67710319373E+03 -0.10663333327E+04  0.12866041371E+04  0.25500000920E-02 0.  1.
</event>
<event>
 5   0  0.2379743E-06  0.2003193E+04  0.7818609E-02  0.8605129E-01
        1   -1    0    0  501    0  0.00000000000E+00  0.00000000000E+00  0.19867889402E+04  0.19867889402E+04  0.50400001928E-02 0. -1.
       -1   -1    0    0    0  501  0.00000000000E+00  0.00000000000E+00 -0.50493307194E+03  0.50493307196E+03  0.50400001928E-02 0.  1.
    10030    2    1    2    0    0  0.00000000000E+00  0.00000000000E+00  0.14818558683E+04  0.24917220122E+04  0.20031928943E+04 0.  0.
        5    1    3    3  502    0 -0.72009128732E+03 -0.33448276090E+03  0.15003676721E+04  0.16975085923E+04  0.46999998093E+01 0. -1.
       -5    1    3    3    0  502  0.72009128732E+03  0.33448276090E+03 -0.18511803855E+02  0.79421341987E+03  0.46999998093E+01 0.  1.
</event>
<event>
 5   0  0.5251252E-06  0.2000184E+04  0.7818609E-02  0.8606535E-01
       -2   -1    0    0    0  501  0.00000000000E+00  0.00000000000E+00  0.11658868490E+04  0.11658868490E+04  0.25500000920E-02 0. -1.
        2   -1    0    0  501    0  0.00000000000E+00  0.00000000000E+00 -0.85787408978E+03  0.85787408979E+03  0.25500000920E-02 0.  1.
    10030    2    1    2    0    0  0.00000000000E+00  0.00000000000E+00  0.30801275923E+03  0.20237609388E+04  0.20001841109E+04 0.  0.
        5    1    3    3  502    0  0.50381575472E+03 -0.27533860593E+03  0.98251155024E+03  0.11379774598E+04  0.46999998093E+01 0. -1.
       -5    1    3    3    0  502 -0.50381575472E+03  0.27533860593E+03 -0.67449879101E+03  0.88578347901E+03  0.46999998093E+01 0.  1.
</event>
<event>
 5   0  0.2386776E-06  0.1999655E+04  0.7818609E-02  0.8606782E-01
       -1   -1    0    0    0  501  0.00000000000E+00  0.00000000000E+00  0.10461743574E+04  0.10461743574E+04  0.50400001928E-02 0. -1.
        1   -1    0    0  501    0  0.00000000000E+00  0.00000000000E+00 -0.95553391711E+03  0.95553391712E+03  0.50400001928E-02 0.  1.
    10030    2    1    2    0    0  0.00000000000E+00  0.00000000000E+00  0.90640440259E+02  0.20017082745E+04  0.19996550520E+04 0.  0.
        2    1    3    3  502    0 -0.58951781261E+03 -0.77296476128E+03  0.27933216917E+03  0.10114505595E+04  0.25500000920E-02 0. -1.
       -2    1    3    3    0  502  0.58951781261E+03  0.77296476128E+03 -0.18869172891E+03  0.99025771501E+03  0.25500000920E-02 0.  1.
</event>
<event>
 5   0  0.2386776E-06  0.2000015E+04  0.7818609E-02  0.8606614E-01
        1   -1    0    0  501    0  0.00000000000E+00  0.00000000000E+00  0.97741500863E+03  0.97741500865E+03  0.50400001928E-02 0.  1.
       -1   -1    0    0    0  501  0.00000000000E+00  0.00000000000E+00 -0.10231223898E+04  0.10231223898E+04  0.50400001928E-02 0. -1.
    10030    2    1    2    0    0  0.00000000000E+00  0.00000000000E+00 -0.45707381148E+02  0.20005373984E+04  0.20000151794E+04 0.  0.
        2    1    3    3  502    0  0.43472942509E+02  0.21603481558E+03 -0.99853354063E+03  0.10225605948E+04  0.25500000920E-02 0. -1.
       -2    1    3    3    0  502 -0.43472942509E+02 -0.21603481558E+03  0.95282615948E+03  0.97797680364E+03  0.25500000920E-02 0.  1.
</event>
<event>
 5   0  0.2313821E-06  0.2000838E+04  0.7818609E-02  0.8606229E-01
       -1   -1    0    0    0  501  0.00000000000E+00  0.00000000000E+00  0.54785642916E+03  0.54785642918E+03  0.50400001928E-02 0. -1.
        1   -1    0    0  501    0  0.00000000000E+00  0.00000000000E+00 -0.18268254079E+04  0.18268254079E+04  0.50400001928E-02 0.  1.
    10030    2    1    2    0    0  0.00000000000E+00  0.00000000000E+00 -0.12789689788E+04  0.23746818371E+04  0.20008378692E+04 0.  0.
        1    1    3    3  502    0 -0.24980420332E+03 -0.36123002031E+03  0.42732150164E+03  0.61277478192E+03  0.50400001928E-02 0. -1.
       -1    1    3    3    0  502  0.24980420332E+03  0.36123002031E+03 -0.17062904804E+04  0.17619070552E+04  0.50400001928E-02 0.  1.
</event>
<event>
 5   0  0.2386776E-06  0.1998473E+04  0.7818609E-02  0.8607335E-01
        1   -1    0    0  501    0  0.00000000000E+00  0.00000000000E+00  0.88784567683E+03  0.88784567685E+03  0.50400001928E-02 0. -1.
       -1   -1    0    0    0  501  0.00000000000E+00  0.00000000000E+00 -0.11246024670E+04  0.11246024670E+04  0.50400001928E-02 0.  1.
    10030    2    1    2    0    0  0.00000000000E+00  0.00000000000E+00 -0.23675679014E+03  0.20124481438E+04  0.19984728554E+04 0.  0.
        2    1    3    3  502    0 -0.34619013177E+03 -0.78962454947E+03 -0.62700346573E+03  0.10660618568E+04  0.25500000920E-02 0.  1.
       -2    1    3    3    0  502  0.34619013177E+03  0.78962454947E+03  0.39024667559E+03  0.94638628703E+03  0.25500000920E-02 0. -1.
</event>
<event>
 5   0  0.4956214E-06  0.2000286E+04  0.7818609E-02  0.8606487E-01
       -2   -1    0    0    0  501  0.00000000000E+00  0.00000000000E+00  0.12844480849E+04  0.12844480849E+04  0.25500000920E-02 0.  1.
        2   -1    0    0  501    0  0.00000000000E+00  0.00000000000E+00 -0.77876687045E+03  0.77876687045E+03  0.25500000920E-02 0. -1.
    10030    2    1    2    0    0  0.00000000000E+00  0.00000000000E+00  0.50568121441E+03  0.20632149553E+04  0.20002855949E+04 0.  0.
        1    1    3    3  502    0 -0.50268756079E+03  0.27238677105E+03  0.10992643278E+04  0.12390606923E+04  0.50400001928E-02 0.  1.
       -1    1    3    3    0  502  0.50268756079E+03 -0.27238677105E+03 -0.59358311335E+03  0.82415426304E+03  0.50400001928E-02 0. -1.
</event>
<event>
 5   0  0.4956214E-06  0.2000016E+04  0.7818609E-02  0.8606613E-01
        2   -1    0    0  501    0  0.00000000000E+00  0.00000000000E+00  0.11829745721E+04  0.11829745721E+04  0.25500000920E-02 0. -1.
       -2   -1    0    0    0  501  0.00000000000E+00  0.00000000000E+00 -0.84534057328E+03  0.84534057329E+03  0.25500000920E-02 0.  1.
    10030    2    1    2    0    0  0.00000000000E+00  0.00000000000E+00  0.33763399877E+03  0.20283151453E+04  0.20000164029E+04 0.  0.
        1    1    3    3  502    0 -0.99021437196E+03 -0.10963724953E+03  0.25647830336E+03  0.10287497018E+04  0.50400001928E-02 0.  1.
       -1    1    3    3    0  502  0.99021437196E+03  0.10963724953E+03  0.81155695408E+02  0.99956544350E+03  0.50400001928E-02 0. -1.
</event>
<event>
 5   0  0.1777750E-06  0.1998495E+04  0.7818609E-02  0.8607325E-01
       -3   -1    0    0    0  501  0.00000000000E+00  0.00000000000E+00  0.65140281772E+03  0.65140282555E+03  0.10100000352E+00 0. -1.
        3   -1    0    0  501    0  0.00000000000E+00  0.00000000000E+00 -0.15328383861E+04  0.15328383894E+04  0.10100000352E+00 0.  1.
    10030    2    1    2    0    0  0.00000000000E+00  0.00000000000E+00 -0.88143556838E+03  0.21842412150E+04  0.19984946895E+04 0.  0.
        5    1    3    3  502    0 -0.37605464079E+03 -0.55581656668E+03  0.36844707760E+03  0.76558767469E+03  0.46999998093E+01 0. -1.
       -5    1    3    3    0  502  0.37605464079E+03  0.55581656668E+03 -0.12498826460E+04  0.14186535403E+04  0.46999998093E+01 0.  1.
</event>
<event>
 5   0  0.2356996E-06  0.1999714E+04  0.7818609E-02  0.8606754E-01
       -1   -1    0    0    0  501  0.00000000000E+00  0.00000000000E+00  0.98771136441E+03  0.98771136442E+03  0.50400001928E-02 0. -1.
        1   -1    0    0  501    0  0.00000000000E+00  0.00000000000E+00 -0.10121520199E+04  0.10121520199E+04  0.50400001928E-02 0.  1.
    10030    2    1    2    0    0  0.00000000000E+00  0.00000000000E+00 -0.24440655484E+02  0.19998633843E+04  0.19997140321E+04 0.  0.
        4    1    3    3  502    0 -0.99877435610E+03  0.19411263872E+02  0.30037154784E+02  0.99941525660E+03  0.12699999809E+01 0.  1.
       -4    1    3    3    0  502  0.99877435610E+03 -0.19411263872E+02 -0.54477810268E+02  0.10004481277E+04  0.12699999809E+01 0. -1.
</event>
<event>
 5   0  0.5251252E-06  0.1999250E+04  0.7818609E-02  0.8606971E-01
       -2   -1    0    0    0  501  0.00000000000E+00  0.00000000000E+00  0.91493880173E+03  0.91493880173E+03  0.25500000920E-02 0.  1.
        2   -1    0    0  501    0  0.00000000000E+00  0.00000000000E+00 -0.10921501473E+04  0.10921501474E+04  0.25500000920E-02 0. -1.
    10030    2    1    2    0    0  0.00000000000E+00  0.00000000000E+00 -0.17721134562E+03  0.20070889491E+04  0.19992504067E+04 0.  0.
        5    1    3    3  502    0  0.87186364153E+03 -0.53731558434E+01 -0.57945349473E+03  0.10468827646E+04  0.46999998093E+01 0. -1.
       -5    1    3    3    0  502 -0.87186364153E+03  0.53731558434E+01  0.40224214911E+03  0.96020618450E+03  0.46999998093E+01 0.  1.
</event>
<event>
 5   0  0.2379743E-06  0.1999941E+04  0.7818609E-02  0.8606648E-01
        1   -1    0    0  501    0  0.00000000000E+00  0.00000000000E+00  0.61668595590E+03  0.61668595592E+03  0.50400001928E-02 0. -1.
       -1   -1    0    0    0  501  0.00000000000E+00  0.00000000000E+00 -0.16214755593E+04  0.16214755593E+04  0.50400001928E-02 0.  1.
    10030    2    1    2    0    0  0.00000000000E+00  0.00000000000E+00 -0.10047896034E+04  0.22381615152E+04  0.19999412044E+04 0.  0.
        5    1    3    3  502    0  0.19712873220E+03  0.14372194049E+03 -0.15876485309E+04  0.16062894138E+04  0.46999998093E+01 0.  1.
       -5    1    3    3    0  502 -0.19712873220E+03 -0.14372194049E+03  0.58285892748E+03  0.63187210144E+03  0.46999998093E+01 0. -1.
</event>
<event>
 5   0  0.2386776E-06  0.2000074E+04  0.7818609E-02  0.8606586E-01
       -1   -1    0    0    0  501  0.00000000000E+00  0.00000000000E+00  0.11245026789E+04  0.11245026789E+04  0.50400001928E-02 0.  1.
        1   -1    0    0  501    0  0.00000000000E+00  0.00000000000E+00 -0.88934792119E+03  0.88934792120E+03  0.50400001928E-02 0. -1.
    10030    2    1    2    0    0  0.00000000000E+00  0.00000000000E+00  0.23515475766E+03  0.20138506001E+04  0.20000741185E+04 0.  0.
        2    1    3    3  502    0  0.16291336918E+03  0.98667763730E+03  0.11680133860E+03  0.10068346828E+04  0.25500000920E-02 0.  1.
       -2    1    3    3    0  502 -0.16291336918E+03 -0.98667763730E+03  0.11835341906E+03  0.10070159173E+04  0.25500000920E-02 0. -1.
</event>
<event>
 5   0  0.5251252E-06  0.1999482E+04  0.7818609E-02  0.8606863E-01
        2   -1    0    0  501    0  0.00000000000E+00  0.00000000000E+00  0.76208500388E+03  0.76208500389E+03  0.25500000920E-02 0. -1.
       -2   -1    0    0    0  501  0.00000000000E+00  0.00000000000E+00 -0.13115103737E+04  0.13115103737E+04  0.25500000920E-02 0.  1.
    10030    2    1    2    0    0  0.00000000000E+00  0.00000000000E+00 -0.54942536986E+03  0.20735953776E+04  0.19994823213E+04 0.  0.
        5    1    3    3  502    0 -0.13163746822E+03 -0.97970497380E+03 -0.42961453959E+03  0.10778408980E+04  0.46999998093E+01 0.  1.
       -5    1    3    3    0  502  0.13163746822E+03  0.97970497380E+03 -0.11981083027E+03  0.99575447966E+03  0.46999998093E+01 0. -1.
</event>
<event>
 5   0  0.4956214E-06  0.1999664E+04  0.7818609E-02  0.8606778E-01
        2   -1    0    0  501    0  0.00000000000E+00  0.00000000000E+00  0.19414758242E+04  0.19414758242E+04  0.25500000920E-02 0.  1.
       -2   -1    0    0    0  501  0.00000000000E+00  0.00000000000E+00 -0.51489892152E+03  0.51489892153E+03  0.25500000920E-02 0. -1.
    10030    2    1    2    0    0  0.00000000000E+00  0.00000000000E+00  0.14265769026E+04  0.24563747457E+04  0.19996637798E+04 0.  0.
        1    1    3    3  502    0  0.64109376302E+03 -0.63314656077E+03  0.12456069929E+04  0.15373394424E+04  0.50400001928E-02 0.  1.
       -1    1    3    3    0  502 -0.64109376302E+03  0.63314656077E+03  0.18096990972E+03  0.91903530326E+03  0.50400001928E-02 0. -1.
</event>
<event>
 5   0  0.2356996E-06  0.2001022E+04  0.7818609E-02  0.8606143E-01
        1   -1    0    0  501    0  0.00000000000E+00  0.00000000000E+00  0.61614087164E+03  0.61614087166E+03  0.50400001928E-02 0.  1.
       -1   -1    0    0    0  501  0.00000000000E+00  0.00000000000E+00 -0.16246652664E+04  0.16246652664E+04  0.50400001928E-02 0. -1.
    10030    2    1    2    0    0  0.00000000000E+00  0.00000000000E+00 -0.10085243948E+04  0.22408061381E+04  0.20010224121E+04 0.  0.
        4    1    3    3  502    0 -0.92391305957E+03 -0.30033748787E+03 -0.23643038413E+03  0.99985943397E+03  0.12699999809E+01 0.  1.
       -4    1    3    3    0  502  0.92391305957E+03  0.30033748787E+03 -0.77209401063E+03  0.12409467041E+04  0.12699999809E+01 0. -1.
</event>
<event>
 5   0  0.1777750E-06  0.1999672E+04  0.7818609E-02  0.8606774E-01
       -3   -1    0    0    0  501  0.00000000000E+00  0.00000000000E+00  0.93562772619E+03  0.93562773164E+03  0.10100000352E+00 0. -1.
        3   -1    0    0  501    0  0.00000000000E+00  0.00000000000E+00 -0.10684503532E+04  0.10684503579E+04  0.10100000352E+00 0.  1.
    10030    2    1    2    0    0  0.00000000000E+00  0.00000000000E+00 -0.13282262696E+03  0.20040780896E+04  0.19996717578E+04 0.  0.
        2    1    3    3  502    0  0.27981303157E+03  0.85155917865E+02 -0.10246169069E+04  0.10655452448E+04  0.25500000920E-02 0.  1.
       -2    1    3    3    0  502 -0.27981303157E+03 -0.85155917865E+02  0.89179427989E+03  0.93853284473E+03  0.25500000920E-02 0. -1.
</event>
<event>
 5   0  0.2311520E-06  0.2000396E+04  0.7818609E-02  0.8606435E-01
       -1   -1    0    0    0  501  0.00000000000E+00  0.00000000000E+00  0.77696507346E+03  0.77696507348E+03  0.50400001928E-02 0.  1.
        1   -1    0    0  501    0  0.00000000000E+00  0.00000000000E+00 -0.12875693891E+04  0.12875693891E+04  0.50400001928E-02 0. -1.
    10030    2    1    2    0    0  0.00000000000E+00  0.00000000000E+00 -0.51060431567E+03  0.20645344626E+04  0.20003964058E+04 0.  0.
        3    1    3    3  502    0 -0.22002720885E+03 -0.54349164872E+03 -0.10915922221E+04  0.12390999695E+04  0.10100000352E+00 0. -1.
       -3    1    3    3    0  502  0.22002720885E+03  0.54349164872E+03  0.58098790641E+03  0.82543449314E+03  0.10100000352E+00 0.  1.
</event>
<event>
 5   0  0.2311520E-06  0.1999962E+04  0.7818609E-02  0.8606638E-01
        1   -1    0    0  501    0  0.00000000000E+00  0.00000000000E+00  0.45832238612E+03  0.45832238615E+03  0.50400001928E-02 0. -1.
       -1   -1    0    0    0  501  0.00000000000E+00  0.00000000000E+00 -0.21817878379E+04  0.21817878379E+04  0.50400001928E-02 0.  1.
    10030    2    1    2    0    0  0.00000000000E+00  0.00000000000E+00 -0.17234654517E+04  0.26401102240E+04  0.19999622075E+04 0.  0.
        3    1    3    3  502    0  0.49179853367E+03 -0.29289663148E+03  0.22065883511E+03  0.61346928706E+03  0.10100000352E+00 0. -1.
       -3    1    3    3    0  502 -0.49179853367E+03  0.29289663148E+03 -0.19441242868E+04  0.20266409370E+04  0.10100000352E+00 0.  1.
</event>
<event>
 5   0  0.2379743E-06  0.2000491E+04  0.7818609E-02  0.8606391E-01
        1   -1    0    0  501    0  0.00000000000E+00  0.00000000000E+00  0.10258972359E+04  0.10258972359E+04  0.50400001928E-02 0. -1.
       -1   -1    0    0    0  501  0.00000000000E+00  0.00000000000E+00 -0.97523475159E+03  0.97523475160E+03  0.50400001928E-02 0.  1.
    10030    2    1    2    0    0  0.00000000000E+00  0.00000000000E+00  0.50662484272E+02  0.20011319875E+04  0.20004905758E+04 0.  0.
        5    1    3    3  502    0  0.67924747233E+03  0.42425346918E+03  0.62477325170E+03  0.10157420149E+04  0.46999998093E+01 0. -1.
       -5    1    3    3    0  502 -0.67924747233E+03 -0.42425346918E+03 -0.57411076743E+03  0.98538997258E+03  0.46999998093E+01 0.  1.
</event>
<event>
 5   0  0.2356996E-06  0.2000280E+04  0.7818609E-02  0.8606490E-01
       -1   -1    0    0    0  501  0.00000000000E+00  0.00000000000E+00  0.56301179095E+03  0.56301179098E+03  0.50400001928E-02 0.  1.
        1   -1    0    0  501    0  0.00000000000E+00  0.00000000000E+00 -0.17766584780E+04  0.17766584780E+04  0.50400001928E-02 0. -1.
    10030    2    1    2    0    0  0.00000000000E+00  0.00000000000E+00 -0.12136466870E+04  0.23396702690E+04  0.20002796521E+04 0.  0.
        4    1    3    3  502    0 -0.61409372812E+03 -0.68302964208E+03 -0.10697495372E+04  0.14099667670E+04  0.12699999809E+01 0. -1.
       -4    1    3    3    0  502  0.61409372812E+03  0.68302964208E+03 -0.14389714981E+03  0.92970350193E+03  0.12699999809E+01 0.  1.
</event>
<event>
 5   0  0.2379743E-06  0.1999831E+04  0.7818609E-02  0.8606700E-01
        1   -1    0    0  501    0  0.00000000000E+00  0.00000000000E+00  0.10324440373E+04  0.10324440373E+04  0.50400001928E-02 0.  1.
       -1   -1    0    0    0  501  0.00000000000E+00  0.00000000000E+00 -0.96841153879E+03  0.96841153880E+03  0.50400001928E-02 0. -1.
    10030    2    1    2    0    0  0.00000000000E+00  0.00000000000E+00  0.64032498474E+02  0.20008555761E+04  0.19998307117E+04 0.  0.
        5    1    3    3  502    0 -0.51250067722E+03 -0.77339882777E+03 -0.34100982053E+03  0.98848999926E+03  0.46999998093E+01 0. -1.
       -5    1    3    3    0  502  0.51250067722E+03  0.77339882777E+03  0.40504231900E+03  0.10123655768E+04  0.46999998093E+01 0.  1.
</event>
<event>
 5   0  0.5118981E-06  0.2001782E+04  0.7818609E-02  0.8605788E-01
       -2   -1    0    0    0  501  0.00000000000E+00  0.00000000000E+00  0.95296218196E+03  0.95296218196E+03  0.25500000920E-02 0.  1.
        2   -1    0    0  501    0  0.00000000000E+00  0.00000000000E+00 -0.10512305039E+04  0.10512305039E+04  0.25500000920E-02 0. -1.
    10030    2    1    2    0    0  0.00000000000E+00  0.00000000000E+00 -0.98268321974E+02  0.20041926859E+04  0.20017821208E+04 0.  0.
        4    1    3    3  502    0 -0.39653709335E+03  0.32496128154E+02 -0.96865377598E+03  0.10471816535E+04  0.12699999809E+01 0. -1.
       -4    1    3    3    0  502  0.39653709335E+03 -0.32496128154E+02  0.87038545400E+03  0.95701103243E+03  0.12699999809E+01 0.  1.
</event>
<event>
 5   0  0.2379743E-06  0.2000825E+04  0.7818609E-02  0.8606235E-01
        1   -1    0    0  501    0  0.00000000000E+00  0.00000000000E+00  0.64827370136E+03  0.64827370138E+03  0.50400001928E-02 0.  1.
       -1   -1    0    0    0  501  0.00000000000E+00  0.00000000000E+00 -0.15438304606E+04  0.15438304607E+04  0.50400001928E-02 0. -1.
    10030    2    1    2    0    0  0.00000000000E+00  0.00000000000E+00 -0.89555675929E+03  0.21921041620E+04  0.20008245171E+04 0.  0.
        5    1    3    3  502    0 -0.13246432575E+03 -0.50953112679E+03  0.48421240326E+03  0.71529889433E+03  0.46999998093E+01 0.  1.
       -5    1    3    3    0  502  0.13246432575E+03  0.50953112679E+03 -0.13797691626E+04  0.14768052677E+04  0.46999998093E+01 0. -1.
</event>
<event>
 5   0  0.5030137E-06  0.2002584E+04  0.7818609E-02  0.8605413E-01
        2   -1    0    0  501    0  0.00000000000E+00  0.00000000000E+00  0.12068174788E+04  0.12068174788E+04  0.25500000920E-02 0. -1.
       -2   -1    0    0    0  501  0.00000000000E+00  0.00000000000E+00 -0.83076860862E+03  0.83076860862E+03  0.25500000920E-02 0.  1.
    10030    2    1    2    0    0  0.00000000000E+00  0.00000000000E+00  0.37604887019E+03  0.20375860874E+04  0.20025844079E+04 0.  0.
        3    1    3    3  502    0  0.86669009224E+03 -0.39811536438E+03 -0.12216213082E+03  0.96154623173E+03  0.10100000352E+00 0.  1.
       -3    1    3    3    0  502 -0.86669009224E+03  0.39811536438E+03  0.49821100101E+03  0.10760398557E+04  0.10100000352E+00 0. -1.
</event>
<event>
 5   0  0.5030137E-06  0.1998716E+04  0.7818609E-02  0.8607221E-01
       -2   -1    0    0    0  501  0.00000000000E+00  0.00000000000E+00  0.44877242383E+03  0.44877242384E+03  0.25500000920E-02 0.  1.
        2   -1    0    0  501    0  0.00000000000E+00  0.00000000000E+00 -0.22254398782E+04  0.22254398782E+04  0.25500000920E-02 0. -1.
    10030    2    1    2    0    0  0.00000000000E+00  0.00000000000E+00 -0.17766674544E+04  0.26742123021E+04  0.19987156359E+04 0.  0.
        3    1    3    3  502    0 -0.27560905993E+02  0.34965557032E+03  0.36371694771E+03  0.50528076319E+03  0.10100000352E+00 0.  1.
       -3    1    3    3    0  502  0.27560905993E+02 -0.34965557032E+03 -0.21403844021E+04  0.21689315389E+04  0.10100000352E+00 0. -1.
</event>
<event>
 5   0  0.2386776E-06  0.1998626E+04  0.7818609E-02  0.8607264E-01
       -1   -1    0    0    0  501  0.00000000000E+00  0.00000000000E+00  0.42171093006E+03  0.42171093009E+03  0.50400001928E-02 0.  1.
        1   -1    0    0  501    0  0.00000000000E+00  0.00000000000E+00 -0.23680344319E+04  0.23680344319E+04  0.50400001928E-02 0. -1.
    10030    2    1    2    0    0  0.00000000000E+00  0.00000000000E+00 -0.19463235019E+04  0.27897453620E+04  0.19986255305E+04 0.  0.
        2    1    3    3  502    0  0.36944615552E+03 -0.92792561287E+03 -0.92708665346E+03  0.13627274371E+04  0.25500000920E-02 0.  1.
       -2    1    3    3    0  502 -0.36944615552E+03  0.92792561287E+03 -0.10192368484E+04  0.14270179249E+04  0.25500000920E-02 0. -1.
</event>
<event>
 5   0  0.5251252E-06  0.2000581E+04  0.7818609E-02  0.8606349E-01
        2   -1    0    0  501    0  0.00000000000E+00  0.00000000000E+00  0.68919070602E+03  0.68919070603E+03  0.25500000920E-02 0. -1.
       -2   -1    0    0    0  501  0.00000000000E+00  0.00000000000E+00 -0.14518204657E+04  0.14518204657E+04  0.25500000920E-02 0.  1.
    10030    2    1    2    0    0  0.00000000000E+00  0.00000000000E+00 -0.76262975971E+03  0.21410111718E+04  0.20005810874E+04 0.  0.
        5    1    3    3  502    0 -0.55419177841E+03 -0.45990548706E+03 -0.11242469776E+04  0.13351385475E+04  0.46999998093E+01 0.  1.
       -5    1    3    3    0  502  0.55419177841E+03  0.45990548706E+03  0.36161721791E+03  0.80587262429E+03  0.46999998093E+01 0. -1.
</event>
<event>
 5   0  0.2379743E-06  0.1999837E+04  0.7818609E-02  0.8606697E-01
        1   -1    0    0  501    0  0.00000000000E+00  0.00000000000E+00  0.15679851737E+04  0.15679851737E+04  0.50400001928E-02 0. -1.
       -1   -1    0    0    0  501  0.00000000000E+00  0.00000000000E+00 -0.63765710193E+03  0.63765710195E+03  0.50400001928E-02 0.  1.
    10030    2    1    2    0    0  0.00000000000E+00  0.00000000000E+00  0.93032807180E+03  0.22056422757E+04  0.19998368751E+04 0.  0.
        5    1    3    3  502    0  0.74930604381E+03 -0.54794597063E+03  0.87504126122E+03  0.12757051512E+04  0.46999998093E+01 0. -1.
       -5    1    3    3    0  502 -0.74930604381E+03  0.54794597063E+03  0.55286810578E+02  0.92993712446E+03  0.46999998093E+01 0.  1.
</event>
<event>
 5   0  0.2386776E-06  0.1999858E+04  0.7818609E-02  0.8606687E-01
        1   -1    0    0  501    0  0.00000000000E+00  0.00000000000E+00  0.15882796247E+04  0.15882796247E+04  0.50400001928E-02 0.  1.
       -1   -1    0    0    0  501  0.00000000000E+00  0.00000000000E+00 -0.62952266533E+03  0.62952266535E+03  0.50400001928E-02 0. -1.
    10030    2    1    2    0    0  0.00000000000E+00  0.00000000000E+00  0.95875695940E+03  0.22178022901E+04  0.19998580177E+04 0.  0.
        2    1    3    3  502    0 -0.36596957682E+03 -0.49737518100E+03 -0.39280596889E+03  0.73185540310E+03  0.25500000920E-02 0. -1.
       -2    1    3    3    0  502  0.36596957682E+03  0.49737518100E+03  0.13515629283E+04  0.14859468870E+04  0.25500000920E-02 0.  1.
</event>
<event>
 5   0  0.5251252E-06  0.1999651E+04  0.7818609E-02  0.8606784E-01
        2   -1    0    0  501    0  0.00000000000E+00  0.00000000000E+00  0.15217345435E+04  0.15217345435E+04  0.25500000920E-02 0. -1.
       -2   -1    0    0    0  501  0.00000000000E+00  0.00000000000E+00 -0.65691564218E+03  0.65691564219E+03  0.25500000920E-02 0.  1.
    10030    2    1    2    0    0  0.00000000000E+00  0.00000000000E+00  0.86481890130E+03  0.21786501857E+04  0.19996511944E+04 0.  0.
        5    1    3    3  502    0 -0.77893587321E+03 -0.57889312812E+03  0.17053845664E+03  0.98537495581E+03  0.46999998093E+01 0. -1.
       -5    1    3    3    0  502  0.77893587321E+03  0.57889312812E+03  0.69428044465E+03  0.11932752299E+04  0.46999998093E+01 0.  1.
</event>
<event>
 5   0  0.4956214E-06  0.1999132E+04  0.7818609E-02  0.8607027E-01
       -2   -1    0    0    0  501  0.00000000000E+00  0.00000000000E+00  0.80891985583E+03  0.80891985583E+03  0.25500000920E-02 0. -1.
        2   -1    0    0  501    0  0.00000000000E+00  0.00000000000E+00 -0.12351435555E+04  0.12351435555E+04  0.25500000920E-02 0.  1.
    10030    2    1    2    0    0  0.00000000000E+00  0.00000000000E+00 -0.42622369969E+03  0.20440634114E+04  0.19991319585E+04 0.  0.
        1    1    3    3  502    0 -0.71662964236E+03 -0.24636717318E+03 -0.87958809739E+03  0.11610038972E+04  0.50400001928E-02 0.  1.
       -1    1    3    3    0  502  0.71662964236E+03  0.24636717318E+03  0.45336439770E+03  0.88305951411E+03  0.50400001928E-02 0. -1.
</event>
<event>
 5   0  0.2386776E-06  0.1999862E+04  0.7818609E-02  0.8606685E-01
        1   -1    0    0  501    0  0.00000000000E+00  0.00000000000E+00  0.11367305939E+04  0.11367305939E+04  0.50400001928E-02 0. -1.
       -1   -1    0    0    0  501  0.00000000000E+00  0.00000000000E+00 -0.87959452891E+03  0.87959452892E+03  0.50400001928E-02 0.  1.
    10030    2    1    2    0    0  0.00000000000E+00  0.00000000000E+00  0.25713606503E+03  0.20163251229E+04  0.19998620065E+04 0.  0.
        2    1    3    3  502    0  0.76095082726E+03  0.50513845058E+03 -0.28178491450E+03  0.95583144634E+03  0.25500000920E-02 0. -1.
       -2    1    3    3    0  502 -0.76095082726E+03 -0.50513845058E+03  0.53892097954E+03  0.10604936765E+04  0.25500000920E-02 0.  1.
</event>
<event>
 5   0  0.4956214E-06  0.1999755E+04  0.7818609E-02  0.8606735E-01
       -2   -1    0    0    0  501  0.00000000000E+00  0.00000000000E+00  0.20111167231E+04  0.20111167231E+04  0.25500000920E-02 0. -1.
        2   -1    0    0  501    0  0.00000000000E+00  0.00000000000E+00 -0.49711422318E+03  0.49711422319E+03  0.25500000920E-02 0.  1.
    10030    2    1    2    0    0  0.00000000000E+00  0.00000000000E+00  0.15140025000E+04  0.25082309463E+04  0.19997547125E+04 0.  0.
        1    1    3    3  502    0  0.25511350686E+03 -0.24328441876E+03  0.19305875419E+04  0.19625082081E+04  0.50400001928E-02 0. -1.
       -1    1    3    3    0  502 -0.25511350686E+03  0.24328441876E+03 -0.41658504198E+03  0.54572273823E+03  0.50400001928E-02 0.  1.
</event>
<event>
 5   0  0.2356996E-06  0.1999699E+04  0.7818609E-02  0.8606762E-01
       -1   -1    0    0    0  501  0.00000000000E+00  0.00000000000E+00  0.11917914306E+04  0.11917914306E+04  0.50400001928E-02 0.  1.
        1   -1    0    0  501    0  0.00000000000E+00  0.00000000000E+00 -0.83882021893E+03  0.83882021895E+03  0.50400001928E-02 0. -1.
    10030    2    1    2    0    0  0.00000000000E+00  0.00000000000E+00  0.35297121165E+03  0.20306116495E+04  0.19996987261E+04 0.  0.
        4    1    3    3  502    0 -0.56746432565E+03  0.79476974433E+03  0.39433034132E+03  0.10531727011E+04  0.12699999809E+01 0. -1.
       -4    1    3    3    0  502  0.56746432565E+03 -0.79476974433E+03 -0.41359129670E+02  0.97743894842E+03  0.12699999809E+01 0.  1.
</event>
<event>
 5   0  0.5030137E-06  0.1998731E+04  0.7818609E-02  0.8607214E-01
        2   -1    0    0  501    0  0.00000000000E+00  0.00000000000E+00  0.75192792046E+03  0.75192792046E+03  0.25500000920E-02 0.  1.
       -2   -1    0    0    0  501  0.00000000000E+00  0.00000000000E+00 -0.13282272090E+04  0.13282272090E+04  0.25500000920E-02 0. -1.
    10030    2    1    2    0    0  0.00000000000E+00  0.00000000000E+00 -0.57629928853E+03  0.20801551295E+04  0.19987307204E+04 0.  0.
        3    1    3    3  502    0 -0.31666494238E+03 -0.63430224222E+03 -0.10211980543E+04  0.12431659167E+04  0.10100000352E+00 0. -1.
       -3    1    3    3    0  502  0.31666494238E+03  0.63430224222E+03  0.44489876577E+03  0.83698921272E+03  0.10100000352E+00 0.  1.
</event>
<event>
 5   0  0.2356996E-06  0.1999917E+04  0.7818609E-02  0.8606659E-01
        1   -1    0    0  501    0  0.00000000000E+00  0.00000000000E+00  0.17125513797E+04  0.17125513797E+04  0.50400001928E-02 0. -1.
       -1   -1    0    0    0  501  0.00000000000E+00  0.00000000000E+00 -0.58387573786E+03  0.58387573788E+03  0.50400001928E-02 0.  1.
    10030    2    1    2    0    0  0.00000000000E+00  0.00000000000E+00  0.11286756418E+04  0.22964271176E+04  0.19999171988E+04 0.  0.
        4    1    3    3  502    0 -0.67852398379E+03  0.51603110137E+03  0.11645530121E+04  0.14432145458E+04  0.12699999809E+01 0. -1.
       -4    1    3    3    0  502  0.67852398379E+03 -0.51603110137E+03 -0.35877370254E+02  0.85321257185E+03  0.12699999809E+01 0.  1.
</event>
<event>
 5   0  0.5030137E-06  0.1998576E+04  0.7818609E-02  0.8607287E-01
       -2   -1    0    0    0  501  0.00000000000E+00  0.00000000000E+00  0.94260165088E+03  0.94260165088E+03  0.25500000920E-02 0. -1.
        2   -1    0    0  501    0  0.00000000000E+00  0.00000000000E+00 -0.10593829192E+04  0.10593829192E+04  0.25500000920E-02 0.  1.
    10030    2    1    2    0    0  0.00000000000E+00  0.00000000000E+00 -0.11678126832E+03  0.20019845701E+04  0.19985755813E+04 0.  0.
        3    1    3    3  502    0  0.43428217268E+03  0.82012678193E+03 -0.42965354753E+03  0.10226490723E+04  0.10100000352E+00 0.  1.
       -3    1    3    3    0  502 -0.43428217268E+03 -0.82012678193E+03  0.31287227920E+03  0.97933549780E+03  0.10100000352E+00 0. -1.
</event>
<event>
 5   0  0.5118981E-06  0.2000930E+04  0.7818609E-02  0.8606186E-01
        2   -1    0    0  501    0  0.00000000000E+00  0.00000000000E+00  0.13065693164E+04  0.13065693164E+04  0.25500000920E-02 0. -1.
       -2   -1    0    0    0  501  0.00000000000E+00  0.00000000000E+00 -0.76607527407E+03  0.76607527407E+03  0.25500000920E-02 0.  1.
    10030    2    1    2    0    0  0.00000000000E+00  0.00000000000E+00  0.54049404232E+03  0.20726445905E+04  0.20009302308E+04 0.  0.
        4    1    3    3  502    0 -0.92949427410E+03 -0.36295579053E+03  0.34517433371E+03  0.10558614706E+04  0.12699999809E+01 0. -1.
       -4    1    3    3    0  502  0.92949427410E+03  0.36295579053E+03  0.19531970861E+03  0.10167831199E+04  0.12699999809E+01 0.  1.
</event>
<event>
 5   0  0.5129100E-06  0.1999325E+04  0.7818609E-02  0.8606936E-01
       -2   -1    0    0    0  501  0.00000000000E+00  0.00000000000E+00  0.12792677557E+04  0.12792677557E+04  0.25500000920E-02 0. -1.
        2   -1    0    0  501    0  0.00000000000E+00  0.00000000000E+00 -0.78116997177E+03  0.78116997178E+03  0.25500000920E-02 0.  1.
    10030    2    1    2    0    0  0.00000000000E+00  0.00000000000E+00  0.49809778395E+03  0.20604377275E+04  0.19993254429E+04 0.  0.
        2    1    3    3  502    0 -0.39361068679E+03  0.71049771267E+03 -0.35150629936E+03  0.88503844604E+03  0.25500000920E-02 0.  1.
       -2    1    3    3    0  502  0.39361068679E+03 -0.71049771267E+03  0.84960408331E+03  0.11753992815E+04  0.25500000920E-02 0. -1.
</event>
<event>
 5   0  0.5129100E-06  0.1999904E+04  0.7818609E-02  0.8606666E-01
        2   -1    0    0  501    0  0.00000000000E+00  0.00000000000E+00  0.10829960050E+04  0.10829960050E+04  0.25500000920E-02 0.  1.
       -2   -1    0    0    0  501  0.00000000000E+00  0.00000000000E+00 -0.92327568303E+03  0.92327568303E+03  0.25500000920E-02 0. -1.
    10030    2    1    2    0    0  0.00000000000E+00  0.00000000000E+00  0.15972032199E+03  0.20062716881E+04  0.19999038739E+04 0.  0.
        2    1    3    3  502    0 -0.61221279896E+03 -0.25219999217E+03  0.83157545697E+03  0.10629802858E+04  0.25500000920E-02 0.  1.
       -2    1    3    3    0  502  0.61221279896E+03  0.25219999217E+03 -0.67185513498E+03  0.94329140230E+03  0.25500000920E-02 0. -1.
</event>
<event>
 5   0  0.2356996E-06  0.2000134E+04  0.7818609E-02  0.8606558E-01
       -1   -1    0    0    0  501  0.00000000000E+00  0.00000000000E+00  0.12109598580E+04  0.12109598580E+04  0.50400001928E-02 0. -1.
        1   -1    0    0  501    0  0.00000000000E+00  0.00000000000E+00 -0.82590221522E+03  0.82590221524E+03  0.50400001928E-02 0.  1.
    10030    2    1    2    0    0  0.00000000000E+00  0.00000000000E+00  0.38505764275E+03  0.20368620732E+04  0.20001344248E+04 0.  0.
        4    1    3    3  502    0  0.24046236184E+03  0.23191876511E+03 -0.76739574289E+03  0.83696254407E+03  0.12699999809E+01 0.  1.
       -4    1    3    3    0  502 -0.24046236184E+03 -0.23191876511E+03  0.11524533856E+04  0.11998995292E+04  0.12699999809E+01 0. -1.
</event>
<event>
 5   0  0.5129100E-06  0.1999201E+04  0.7818609E-02  0.8606994E-01
        2   -1    0    0  501    0  0.00000000000E+00  0.00000000000E+00  0.20102185604E+04  0.20102185604E+04  0.25500000920E-02 0.  1.
       -2   -1    0    0    0  501  0.00000000000E+00  0.00000000000E+00 -0.49706118265E+03  0.49706118265E+03  0.25500000920E-02 0. -1.
    10030    2    1    2    0    0  0.00000000000E+00  0.00000000000E+00  0.15131573778E+04  0.25072797430E+04  0.19992014556E+04 0.  0.
        2    1    3    3  502    0  0.59620708517E+03 -0.80203639487E+03  0.72920657341E+03  0.12371206464E+04  0.25500000920E-02 0.  1.
       -2    1    3    3    0  502 -0.59620708517E+03  0.80203639487E+03  0.78395080434E+03  0.12701590966E+04  0.25500000920E-02 0. -1.
</event>
<event>
 5   0  0.1777750E-06  0.1999261E+04  0.7818609E-02  0.8606966E-01
        4   -1    0    0  501    0  0.00000000000E+00  0.00000000000E+00  0.10227991191E+04  0.10227999075E+04  0.12699999809E+01 0. -1.
       -4   -1    0    0    0  501  0.00000000000E+00  0.00000000000E+00 -0.97698489323E+03  0.97698571868E+03  0.12699999809E+01 0.  1.
    10030    2    1    2    0    0  0.00000000000E+00  0.00000000000E+00  0.45814225818E+02  0.19997856262E+04  0.19992607653E+04 0.  0.
        4    1    3    3  502    0 -0.79020439250E+03  0.20015401249E+03  0.60165617471E+03  0.10131517044E+04  0.12699999809E+01 0. -1.
       -4    1    3    3    0  502  0.79020439250E+03 -0.20015401249E+03 -0.55584194889E+03  0.98663392182E+03  0.12699999809E+01 0.  1.
</event>
<event>
 5   0  0.5251252E-06  0.1999887E+04  0.7818609E-02  0.8606674E-01
        2   -1    0    0  501    0  0.00000000000E+00  0.00000000000E+00  0.97341369718E+03  0.97341369718E+03  0.25500000920E-02 0. -1.
       -2   -1    0    0    0  501  0.00000000000E+00  0.00000000000E+00 -0.10271963406E+04  0.10271963406E+04  0.25500000920E-02 0.  1.
    10030    2    1    2    0    0  0.00000000000E+00  0.00000000000E+00 -0.53782643387E+02  0.20006100377E+04  0.19998869844E+04 0.  0.
        5    1    3    3  502    0 -0.59298623119E+03 -0.13695239855E+03 -0.82057357592E+03  0.10216416756E+04  0.46999998093E+01 0.  1.
       -5    1    3    3    0  502  0.59298623119E+03  0.13695239855E+03  0.76679093253E+03  0.97896836214E+03  0.46999998093E+01 0. -1.
</event>
<event>
 5   0  0.5030137E-06  0.1997499E+04  0.7818609E-02  0.8607791E-01
        2   -1    0    0  501    0  0.00000000000E+00  0.00000000000E+00  0.12445107876E+04  0.12445107876E+04  0.25500000920E-02 0. -1.
       -2   -1    0    0    0  501  0.00000000000E+00  0.00000000000E+00 -0.80152057656E+03  0.80152057656E+03  0.25500000920E-02 0.  1.
    10030    2    1    2    0    0  0.00000000000E+00  0.00000000000E+00  0.44299021103E+03  0.20460313642E+04  0.19974994408E+04 0.  0.
        3    1    3    3  502    0  0.30569745600E+03 -0.61314663176E+03  0.96585715884E+03  0.11841789511E+04  0.10100000352E+00 0. -1.
       -3    1    3    3    0  502 -0.30569745600E+03  0.61314663176E+03 -0.52286694781E+03  0.86185241309E+03  0.10100000352E+00 0.  1.
</event>
<event>
 5   0  0.2379743E-06  0.1998690E+04  0.7818609E-02  0.8607233E-01
        1   -1    0    0  501    0  0.00000000000E+00  0.00000000000E+00  0.20453022521E+04  0.20453022522E+04  0.50400001928E-02 0. -1.
       -1   -1    0    0    0  501  0.00000000000E+00  0.00000000000E+00 -0.48828498210E+03  0.48828498213E+03  0.50400001928E-02 0.  1.
    10030    2    1    2    0    0  0.00000000000E+00  0.00000000000E+00  0.15570172700E+04  0.25335872343E+04  0.19986899446E+04 0.  0.
        5    1    3    3  502    0 -0.83497834054E+03  0.87486164707E+02  0.91384395630E+02  0.84452108082E+03  0.46999998093E+01 0.  1.
       -5    1    3    3    0  502  0.83497834054E+03 -0.87486164707E+02  0.14656328744E+04  0.16890661535E+04  0.46999998093E+01 0. -1.
</event>
<event>
 5   0  0.2313821E-06  0.1999269E+04  0.7818609E-02  0.8606963E-01
        1   -1    0    0  501    0  0.00000000000E+00  0.00000000000E+00  0.10117879537E+04  0.10117879537E+04  0.50400001928E-02 0.  1.
       -1   -1    0    0    0  501  0.00000000000E+00  0.00000000000E+00 -0.98762668008E+03  0.98762668009E+03  0.50400001928E-02 0. -1.
    10030    2    1    2    0    0  0.00000000000E+00  0.00000000000E+00  0.24161273630E+02  0.19994146338E+04  0.19992686440E+04 0.  0.
        1    1    3    3  502    0  0.92851770020E+03  0.12967826204E+03  0.35895925698E+03  0.10038990584E+04  0.50400001928E-02 0.  1.
       -1    1    3    3    0  502 -0.92851770020E+03 -0.12967826204E+03 -0.33479798335E+03  0.99551557542E+03  0.50400001928E-02 0. -1.
</event>
<event>
 5   0  0.5030137E-06  0.1999598E+04  0.7818609E-02  0.8606809E-01
       -2   -1    0    0    0  501  0.00000000000E+00  0.00000000000E+00  0.11161691939E+04  0.11161691939E+04  0.25500000920E-02 0.  1.
        2   -1    0    0  501    0  0.00000000000E+00  0.00000000000E+00 -0.89556162507E+03  0.89556162507E+03  0.25500000920E-02 0. -1.
    10030    2    1    2    0    0  0.00000000000E+00  0.00000000000E+00  0.22060756886E+03  0.20117308190E+04  0.19995982568E+04 0.  0.
        3    1    3    3  502    0  0.91146973980E+03  0.29668177805E+03  0.39628388728E+03  0.10372261535E+04  0.10100000352E+00 0.  1.
       -3    1    3    3    0  502 -0.91146973980E+03 -0.29668177805E+03 -0.17567631843E+03  0.97450466549E+03  0.10100000352E+00 0. -1.
</event>
<event>
 5   0  0.2386776E-06  0.2000286E+04  0.7818609E-02  0.8606487E-01
       -1   -1    0    0    0  501  0.00000000000E+00  0.00000000000E+00  0.45680083951E+03  0.45680083953E+03  0.50400001928E-02 0. -1.
        1   -1    0    0  501    0  0.00000000000E+00  0.00000000000E+00 -0.21897641338E+04  0.21897641338E+04  0.50400001928E-02 0.  1.
    10030    2    1    2    0    0  0.00000000000E+00  0.00000000000E+00 -0.17329632943E+04  0.26465649733E+04  0.20002860742E+04 0.  0.
        2    1    3    3  502    0  0.32281522761E+03 -0.94385081594E+03 -0.77086986615E+03  0.12606761616E+04  0.25500000920E-02 0. -1.
       -2    1    3    3    0  502 -0.32281522761E+03  0.94385081594E+03 -0.96209342812E+03  0.13858888117E+04  0.25500000920E-02 0.  1.
</event>
<event>
 5   0  0.5118981E-06  0.2000851E+04  0.7818609E-02  0.8606223E-01
       -2   -1    0    0    0  501  0.00000000000E+00  0.00000000000E+00  0.12233675685E+04  0.12233675685E+04  0.25500000920E-02 0. -1.
        2   -1    0    0  501    0  0.00000000000E+00  0.00000000000E+00 -0.81811153082E+03  0.81811153082E+03  0.25500000920E-02 0.  1.
    10030    2    1    2    0    0  0.00000000000E+00  0.00000000000E+00  0.40525603767E+03  0.20414790993E+04  0.20008509332E+04 0.  0.
        4    1    3    3  502    0  0.51941393213E+03 -0.34240133372E+03 -0.59674727141E+03  0.86205476918E+03  0.12699999809E+01 0.  1.
       -4    1    3    3    0  502 -0.51941393213E+03  0.34240133372E+03  0.10020033091E+04  0.11794243301E+04  0.12699999809E+01 0. -1.
</event>
<event>
 5   0  0.2356996E-06  0.2000137E+04  0.7818609E-02  0.8606556E-01
       -1   -1    0    0    0  501  0.00000000000E+00  0.00000000000E+00  0.12283933499E+04  0.12283933499E+04  0.50400001928E-02 0.  1.
        1   -1    0    0  501    0  0.00000000000E+00  0.00000000000E+00 -0.81418327893E+03  0.81418327894E+03  0.50400001928E-02 0. -1.
    10030    2    1    2    0    0  0.00000000000E+00  0.00000000000E+00  0.41421007093E+03  0.20425766288E+04  0.20001373207E+04 0.  0.
        4    1    3    3  502    0 -0.74112030649E+03  0.39062065081E+03  0.76485465559E+03  0.11343932557E+04  0.12699999809E+01 0.  1.
       -4    1    3    3    0  502  0.74112030649E+03 -0.39062065081E+03 -0.35064458465E+03  0.90818337310E+03  0.12699999809E+01 0. -1.
</event>
<event>
 5   0  0.5118981E-06  0.1999507E+04  0.7818609E-02  0.8606851E-01
       -2   -1    0    0    0  501  0.00000000000E+00  0.00000000000E+00  0.44250973068E+03  0.44250973069E+03  0.25500000920E-02 0. -1.
        2   -1    0    0  501    0  0.00000000000E+00  0.00000000000E+00 -0.22587229302E+04  0.22587229302E+04  0.25500000920E-02 0.  1.
    10030    2    1    2    0    0  0.00000000000E+00  0.00000000000E+00 -0.18162131995E+04  0.27012326609E+04  0.19995068147E+04 0.  0.
        4    1    3    3  502    0  0.62769818289E+03 -0.33990949655E+02 -0.19583295951E+04  0.20567490876E+04  0.12699999809E+01 0.  1.
       -4    1    3    3    0  502 -0.62769818289E+03  0.33990949655E+02  0.14211639556E+03  0.64448357329E+03  0.12699999809E+01 0. -1.
</event>
<event>
 5   0  0.4956214E-06  0.2001400E+04  0.7818609E-02  0.8605966E-01
       -2   -1    0    0    0  501  0.00000000000E+00  0.00000000000E+00  0.73818457458E+03  0.73818457458E+03  0.25500000920E-02 0.  1.
        2   -1    0    0  501    0  0.00000000000E+00  0.00000000000E+00 -0.13565718780E+04  0.13565718780E+04  0.25500000920E-02 0. -1.
    10030    2    1    2    0    0  0.00000000000E+00  0.00000000000E+00 -0.61838730345E+03  0.20947564526E+04  0.20013999447E+04 0.  0.
        1    1    3    3  502    0  0.68926001611E+03  0.49523008003E+03 -0.86408190981E+03  0.12111852661E+04  0.50400001928E-02 0. -1.
       -1    1    3    3    0  502 -0.68926001611E+03 -0.49523008003E+03  0.24569460636E+03  0.88357118649E+03  0.50400001928E-02 0.  1.
</event>
<event>
 5   0  0.5129100E-06  0.2000155E+04  0.7818609E-02  0.8606548E-01
       -2   -1    0    0    0  501  0.00000000000E+00  0.00000000000E+00  0.77772016365E+03  0.77772016365E+03  0.25500000920E-02 0.  1.
        2   -1    0    0  501    0  0.00000000000E+00  0.00000000000E+00 -0.12860089027E+04  0.12860089027E+04  0.25500000920E-02 0. -1.
    10030    2    1    2    0    0  0.00000000000E+00  0.00000000000E+00 -0.50828873903E+03  0.20637290663E+04  0.20001550482E+04 0.  0.
        2    1    3    3  502    0  0.76314524936E+03 -0.52799666288E+03  0.13051053631E+03  0.93712547064E+03  0.25500000920E-02 0.  1.
       -2    1    3    3    0  502 -0.76314524936E+03  0.52799666288E+03 -0.63879927534E+03  0.11266035957E+04  0.25500000920E-02 0. -1.
</event>
<event>
 5   0  0.2311520E-06  0.2001076E+04  0.7818609E-02  0.8606118E-01
        1   -1    0    0  501    0  0.00000000000E+00  0.00000000000E+00  0.11898160536E+04  0.11898160537E+04  0.50400001928E-02 0. -1.
       -1   -1    0    0    0  501  0.00000000000E+00  0.00000000000E+00 -0.84137094718E+03  0.84137094719E+03  0.50400001928E-02 0.  1.
    10030    2    1    2    0    0  0.00000000000E+00  0.00000000000E+00  0.34844510647E+03  0.20311870008E+04  0.20010763704E+04 0.  0.
        3    1    3    3  502    0 -0.19011134989E+03  0.31828601685E+03 -0.76907712535E+03  0.85377277353E+03  0.10100000352E+00 0.  1.
       -3    1    3    3    0  502  0.19011134989E+03 -0.31828601685E+03  0.11175222318E+04  0.11774142273E+04  0.10100000352E+00 0. -1.
</event>
<event>
 5   0  0.2313821E-06  0.1999303E+04  0.7818609E-02  0.8606947E-01
        1   -1    0    0  501    0  0.00000000000E+00  0.00000000000E+00  0.73461336606E+03  0.73461336608E+03  0.50400001928E-02 0.  1.
       -1   -1    0    0    0  501  0.00000000000E+00  0.00000000000E+00 -0.13603111944E+04  0.13603111944E+04  0.50400001928E-02 0. -1.
    10030    2    1    2    0    0  0.00000000000E+00  0.00000000000E+00 -0.62569782832E+03  0.20949245605E+04  0.19993026639E+04 0.  0.
        1    1    3    3  502    0 -0.21369005162E+03  0.12427171221E+03 -0.13277801215E+04  0.13505950347E+04  0.50400001928E-02 0. -1.
       -1    1    3    3    0  502  0.21369005162E+03 -0.12427171221E+03  0.70208229316E+03  0.74432952582E+03  0.50400001928E-02 0.  1.
</event>
<event>
 5   0  0.2386776E-06  0.2003607E+04  0.7818609E-02  0.8604936E-01
        1   -1    0    0  501    0  0.00000000000E+00  0.00000000000E+00  0.74797622568E+03  0.74797622569E+03  0.50400001928E-02 0.  1.
       -1   -1    0    0    0  501  0.00000000000E+00  0.00000000000E+00 -0.13417675966E+04  0.13417675966E+04  0.50400001928E-02 0. -1.
    10030    2    1    2    0    0  0.00000000000E+00  0.00000000000E+00 -0.59379137096E+03  0.20897438223E+04  0.20036070101E+04 0.  0.
        2    1    3    3  502    0 -0.68057941248E+03  0.33598472359E+03 -0.97886832247E+03  0.12386513892E+04  0.25500000920E-02 0. -1.
       -2    1    3    3    0  502  0.68057941248E+03 -0.33598472359E+03  0.38507695151E+03  0.85109243315E+03  0.25500000920E-02 0.  1.
</event>
<event>
 5   0  0.5129100E-06  0.2000109E+04  0.7818609E-02  0.8606570E-01
        2   -1    0    0  501    0  0.00000000000E+00  0.00000000000E+00  0.10495116068E+04  0.10495116068E+04  0.25500000920E-02 0.  1.
       -2   -1    0    0    0  501  0.00000000000E+00  0.00000000000E+00 -0.95292840789E+03  0.95292840790E+03  0.25500000920E-02 0. -1.
    10030    2    1    2    0    0  0.00000000000E+00  0.00000000000E+00  0.96583198937E+02  0.20024400147E+04  0.20001094216E+04 0.  0.
        2    1    3    3  502    0 -0.10990848506E+03  0.17471820816E+02 -0.94670964856E+03  0.95322835579E+03  0.25500000920E-02 0. -1.
       -2    1    3    3    0  502  0.10990848506E+03 -0.17471820816E+02  0.10432928475E+04  0.10492116589E+04  0.25500000920E-02 0.  1.
</event>
<event>
 5   0  0.5251252E-06  0.1995844E+04  0.7818609E-02  0.8608566E-01
       -2   -1    0    0    0  501  0.00000000000E+00  0.00000000000E+00  0.47414810286E+03  0.47414810286E+03  0.25500000920E-02 0.  1.
        2   -1    0    0  501    0  0.00000000000E+00  0.00000000000E+00 -0.21002904634E+04  0.21002904634E+04  0.25500000920E-02 0. -1.
    10030    2    1    2    0    0  0.00000000000E+00  0.00000000000E+00 -0.16261423606E+04  0.25744385663E+04  0.19958444215E+04 0.  0.
        5    1    3    3  502    0  0.81428000587E+03  0.12027720552E+03 -0.15408169729E+04  0.17468994156E+04  0.46999998093E+01 0. -1.
       -5    1    3    3    0  502 -0.81428000587E+03 -0.12027720552E+03 -0.85325387607E+02  0.82753915067E+03  0.46999998093E+01 0.  1.
</event>
<event>
 5   0  0.2313821E-06  0.2000154E+04  0.7818609E-02  0.8606549E-01
        1   -1    0    0  501    0  0.00000000000E+00  0.00000000000E+00  0.12172136690E+04  0.12172136691E+04  0.50400001928E-02 0. -1.
       -1   -1    0    0    0  501  0.00000000000E+00  0.00000000000E+00 -0.82167524126E+03  0.82167524127E+03  0.50400001928E-02 0.  1.
    10030    2    1    2    0    0  0.00000000000E+00  0.00000000000E+00  0.39553842779E+03  0.20388889103E+04  0.20001543292E+04 0.  0.
        1    1    3    3  502    0 -0.71952415646E+02  0.91585856395E+02 -0.81473826355E+03  0.82302099446E+03  0.50400001928E-02 0.  1.
       -1    1    3    3    0  502  0.71952415646E+02 -0.91585856395E+02  0.12102766913E+04  0.12158679159E+04  0.50400001928E-02 0. -1.
</event>
<event>
 5   0  0.4956214E-06  0.2000398E+04  0.7818609E-02  0.8606435E-01
        2   -1    0    0  501    0  0.00000000000E+00  0.00000000000E+00  0.18464766144E+04  0.18464766144E+04  0.25500000920E-02 0.  1.
       -2   -1    0    0    0  501  0.00000000000E+00  0.00000000000E+00 -0.54178765370E+03  0.54178765371E+03  0.25500000920E-02 0. -1.
    10030    2    1    2    0    0  0.00000000000E+00  0.00000000000E+00  0.13046889607E+04  0.23882642681E+04  0.20003981929E+04 0.  0.
        1    1    3    3  502    0  0.39251315054E+03 -0.53704786070E+02  0.17488099104E+04  0.17931221041E+04  0.50400001928E-02 0.  1.
       -1    1    3    3    0  502 -0.39251315054E+03  0.53704786070E+02 -0.44412094972E+03  0.59514216402E+03  0.50400001928E-02 0. -1.
</event>
<event>
 5   0  0.2313821E-06  0.1999828E+04  0.7818609E-02  0.8606701E-01
       -1   -1    0    0    0  501  0.00000000000E+00  0.00000000000E+00  0.14987230655E+04  0.14987230656E+04  0.50400001928E-02 0.  1.
        1   -1    0    0  501    0  0.00000000000E+00  0.00000000000E+00 -0.66711992545E+03  0.66711992547E+03  0.50400001928E-02 0. -1.
    10030    2    1    2    0    0  0.00000000000E+00  0.00000000000E+00  0.83160314009E+03  0.21658429910E+04  0.19998280124E+04 0.  0.
        1    1    3    3  502    0  0.13779526215E+03  0.39034008181E+03 -0.56996492792E+03  0.70442383039E+03  0.50400001928E-02 0. -1.
       -1    1    3    3    0  502 -0.13779526215E+03 -0.39034008181E+03  0.14015680680E+04  0.14614191606E+04  0.50400001928E-02 0.  1.
</event>
<event>
 5   0  0.5251252E-06  0.2000683E+04  0.7818609E-02  0.8606301E-01
       -2   -1    0    0    0  501  0.00000000000E+00  0.00000000000E+00  0.92188233226E+03  0.92188233226E+03  0.25500000920E-02 0.  1.
        2   -1    0    0  501    0  0.00000000000E+00  0.00000000000E+00 -0.10854780556E+04  0.10854780556E+04  0.25500000920E-02 0. -1.
    10030    2    1    2    0    0  0.00000000000E+00  0.00000000000E+00 -0.16359572331E+03  0.20073603878E+04  0.20006829249E+04 0.  0.
        5    1    3    3  502    0  0.58056236554E+03  0.37207552025E+03  0.64530566745E+03  0.94442275888E+03  0.46999998093E+01 0.  1.
       -5    1    3    3    0  502 -0.58056236554E+03 -0.37207552025E+03 -0.80890139076E+03  0.10629376289E+04  0.46999998093E+01 0. -1.
</event>
<event>
 5   0  0.4956214E-06  0.1998178E+04  0.7818609E-02  0.8607473E-01
       -2   -1    0    0    0  501  0.00000000000E+00  0.00000000000E+00  0.68763302391E+03  0.68763302391E+03  0.25500000920E-02 0.  1.
        2   -1    0    0  501    0  0.00000000000E+00  0.00000000000E+00 -0.14516155186E+04  0.14516155186E+04  0.25500000920E-02 0. -1.
    10030    2    1    2    0    0  0.00000000000E+00  0.00000000000E+00 -0.76398249466E+03  0.21392485425E+04  0.19981779386E+04 0.  0.
        1    1    3    3  502    0  0.32736953568E+03 -0.86932494363E+03 -0.77576544025E+03  0.12102514982E+04  0.50400001928E-02 0.  1.
       -1    1    3    3    0  502 -0.32736953568E+03  0.86932494363E+03  0.11782945584E+02  0.92899704431E+03  0.50400001928E-02 0. -1.
</event>
<event>
 5   0  0.5251252E-06  0.1990635E+04  0.7818609E-02  0.8611012E-01
        2   -1    0    0  501    0  0.00000000000E+00  0.00000000000E+00  0.13307626885E+04  0.13307626885E+04  0.25500000920E-02 0.  1.
       -2   -1    0    0    0  501  0.00000000000E+00  0.00000000000E+00 -0.74442786433E+03  0.74442786434E+03  0.25500000920E-02 0. -1.
    10030    2    1    2    0    0  0.00000000000E+00  0.00000000000E+00  0.58633482416E+03  0.20751905528E+04  0.19906348999E+04 0.  0.
        5    1    3    3  502    0 -0.48562931755E+03  0.76156135839E+03  0.72904636588E+03  0.11607507184E+04  0.46999998093E+01 0.  1.
       -5    1    3    3    0  502  0.48562931755E+03 -0.76156135839E+03 -0.14271154172E+03  0.91443983444E+03  0.46999998093E+01 0. -1.
</event>
<event>
 5   0  0.5251252E-06  0.2000370E+04  0.7818609E-02  0.8606448E-01
        2   -1    0    0  501    0  0.00000000000E+00  0.00000000000E+00  0.27408443050E+04  0.27408443050E+04  0.25500000920E-02 0. -1.
       -2   -1    0    0    0  501  0.00000000000E+00  0.00000000000E+00 -0.36498617238E+03  0.36498617239E+03  0.25500000920E-02 0.  1.
    10030    2    1    2    0    0  0.00000000000E+00  0.00000000000E+00  0.23758581326E+04  0.31058304773E+04  0.20003702377E+04 0.  0.
        5    1    3    3  502    0 -0.88423024608E+03 -0.46733151931E+03  0.12023530494E+04  0.15639491112E+04  0.46999998093E+01 0. -1.
       -5    1    3    3    0  502  0.88423024608E+03  0.46733151931E+03  0.11735050832E+04  0.15418813661E+04  0.46999998093E+01 0.  1.
</event>
<event>
 5   0  0.2386776E-06  0.2002413E+04  0.7818609E-02  0.8605493E-01
       -1   -1    0    0    0  501  0.00000000000E+00  0.00000000000E+00  0.71959341443E+03  0.71959341445E+03  0.50400001928E-02 0.  1.
        1   -1    0    0  501    0  0.00000000000E+00  0.00000000000E+00 -0.13930286424E+04  0.13930286424E+04  0.50400001928E-02 0. -1.
    10030    2    1    2    0    0  0.00000000000E+00  0.00000000000E+00 -0.67343522796E+03  0.21126220569E+04  0.20024127818E+04 0.  0.
        2    1    3    3  502    0  0.25233459149E+03  0.65191557597E+03  0.41949356383E+03  0.81525549023E+03  0.25500000920E-02 0.  1.
       -2    1    3    3    0  502 -0.25233459149E+03 -0.65191557597E+03 -0.10929287918E+04  0.12973665666E+04  0.25500000920E-02 0. -1.
</event>
<event>
 5   0  0.5030137E-06  0.1999992E+04  0.7818609E-02  0.8606624E-01
       -2   -1    0    0    0  501  0.00000000000E+00  0.00000000000E+00  0.17027855690E+04  0.17027855690E+04  0.25500000920E-02 0.  1.
        2   -1    0    0  501    0  0.00000000000E+00  0.00000000000E+00 -0.58726825377E+03  0.58726825378E+03  0.25500000920E-02 0. -1.
    10030    2    1    2    0    0  0.00000000000E+00  0.00000000000E+00  0.11155173152E+04  0.22900538228E+04  0.19999919077E+04 0.  0.
        3    1    3    3  502    0 -0.36933216783E+03  0.66261878095E+03  0.13038079988E+04  0.15084380024E+04  0.10100000352E+00 0.  1.
       -3    1    3    3    0  502  0.36933216783E+03 -0.66261878095E+03 -0.18829068353E+03  0.78161582044E+03  0.10100000352E+00 0. -1.
</event>
<event>
 5   0  0.2386776E-06  0.1994803E+04  0.7818609E-02  0.8609054E-01
        1   -1    0    0  501    0  0.00000000000E+00  0.00000000000E+00  0.20478830019E+04  0.20478830019E+04  0.50400001928E-02 0. -1.
       -1   -1    0    0    0  501  0.00000000000E+00  0.00000000000E+00 -0.48577458194E+03  0.48577458196E+03  0.50400001928E-02 0.  1.
    10030    2    1    2    0    0  0.00000000000E+00  0.00000000000E+00  0.15621084200E+04  0.25336575839E+04  0.19948027563E+04 0.  0.
        2    1    3    3  502    0  0.90238047163E+03 -0.53426563623E+02  0.13164172772E+04  0.15969030531E+04  0.25500000920E-02 0. -1.
       -2    1    3    3    0  502 -0.90238047163E+03  0.53426563623E+02  0.24569114278E+03  0.93675453078E+03  0.25500000920E-02 0.  1.
</event>
<event>
 5   0  0.5118981E-06  0.2000801E+04  0.7818609E-02  0.8606246E-01
       -2   -1    0    0    0  501  0.00000000000E+00  0.00000000000E+00  0.10881381245E+04  0.10881381245E+04  0.25500000920E-02 0. -1.
        2   -1    0    0  501    0  0.00000000000E+00  0.00000000000E+00 -0.91973734376E+03  0.91973734376E+03  0.25500000920E-02 0.  1.
    10030    2    1    2    0    0  0.00000000000E+00  0.00000000000E+00  0.16840078074E+03  0.20078754683E+04  0.20008011078E+04 0.  0.
        4    1    3    3  502    0 -0.72737103834E+03  0.85861469926E+02  0.76804859550E+03  0.10612921734E+04  0.12699999809E+01 0. -1.
       -4    1    3    3    0  502  0.72737103834E+03 -0.85861469926E+02 -0.59964781475E+03  0.94658329484E+03  0.12699999809E+01 0.  1.
</event>
<event>
 5   0  0.2311520E-06  0.1999149E+04  0.7818609E-02  0.8607019E-01
       -1   -1    0    0    0  501  0.00000000000E+00  0.00000000000E+00  0.84524869644E+03  0.84524869646E+03  0.50400001928E-02 0.  1.
        1   -1    0    0  501    0  0.00000000000E+00  0.00000000000E+00 -0.11820768708E+04  0.11820768708E+04  0.50400001928E-02 0. -1.
    10030    2    1    2    0    0  0.00000000000E+00  0.00000000000E+00 -0.33682817435E+03  0.20273255673E+04  0.19991487530E+04 0.  0.
        3    1    3    3  502    0 -0.47540065565E+03 -0.73474216707E+03 -0.65823017641E+03  0.10950428351E+04  0.10100000352E+00 0. -1.
       -3    1    3    3    0  502  0.47540065565E+03  0.73474216707E+03  0.32140200206E+03  0.93228273212E+03  0.10100000352E+00 0.  1.
</event>
<event>
 5   0  0.5030137E-06  0.1999380E+04  0.7818609E-02  0.8606911E-01
        2   -1    0    0  501    0  0.00000000000E+00  0.00000000000E+00  0.12172857363E+04  0.12172857363E+04  0.25500000920E-02 0. -1.
       -2   -1    0    0    0  501  0.00000000000E+00  0.00000000000E+00 -0.82099046449E+03  0.82099046449E+03  0.25500000920E-02 0.  1.
    10030    2    1    2    0    0  0.00000000000E+00  0.00000000000E+00  0.39629527183E+03  0.20382762008E+04  0.19993798859E+04 0.  0.
        3    1    3    3  502    0 -0.88706968895E+03  0.50508295460E+02 -0.26895404861E+03  0.92832107131E+03  0.10100000352E+00 0.  1.
       -3    1    3    3    0  502  0.88706968895E+03 -0.50508295460E+02  0.66524932044E+03  0.11099551295E+04  0.10100000352E+00 0. -1.
</event>
<event>
 5   0  0.2356996E-06  0.2001210E+04  0.7818609E-02  0.8606055E-01
       -1   -1    0    0    0  501  0.00000000000E+00  0.00000000000E+00  0.76010347531E+03  0.76010347533E+03  0.50400001928E-02 0.  1.
        1   -1    0    0  501    0  0.00000000000E+00  0.00000000000E+00 -0.13172032369E+04  0.13172032369E+04  0.50400001928E-02 0. -1.
    10030    2    1    2    0    0  0.00000000000E+00  0.00000000000E+00 -0.55709976156E+03  0.20773067122E+04  0.20012103918E+04 0.  0.
        4    1    3    3  502    0 -0.35115490632E+03 -0.44672986397E+03 -0.11334767476E+04  0.12679307906E+04  0.12699999809E+01 0. -1.
       -4    1    3    3    0  502  0.35115490632E+03  0.44672986397E+03  0.57637698600E+03  0.80937592161E+03  0.12699999809E+01 0.  1.
</event>
<event>
 5   0  0.4956214E-06  0.1999126E+04  0.7818609E-02  0.8607030E-01
        2   -1    0    0  501    0  0.00000000000E+00  0.00000000000E+00  0.54945318600E+03  0.54945318601E+03  0.25500000920E-02 0.  1.
       -2   -1    0    0    0  501  0.00000000000E+00  0.00000000000E+00 -0.18184005128E+04  0.18184005128E+04  0.25500000920E-02 0. -1.
    10030    2    1    2    0    0  0.00000000000E+00  0.00000000000E+00 -0.12689473268E+04  0.23678536988E+04  0.19991257641E+04 0.  0.
        1    1    3    3  502    0 -0.46832184980E+03 -0.71353008057E+03 -0.12506984488E+04  0.15141654932E+04  0.50400001928E-02 0. -1.
       -1    1    3    3    0  502  0.46832184980E+03  0.71353008057E+03 -0.18248877993E+02  0.85368820564E+03  0.50400001928E-02 0.  1.
</event>
<event>
 5   0  0.2379743E-06  0.2001791E+04  0.7818609E-02  0.8605784E-01
        1   -1    0    0  501    0  0.00000000000E+00  0.00000000000E+00  0.21402571867E+04  0.21402571867E+04  0.50400001928E-02 0.  1.
       -1   -1    0    0    0  501  0.00000000000E+00  0.00000000000E+00 -0.46807096432E+03  0.46807096434E+03  0.50400001928E-02 0. -1.
    10030    2    1    2    0    0  0.00000000000E+00  0.00000000000E+00  0.16721862223E+04  0.26083281510E+04  0.20017914430E+04 0.  0.
        5    1    3    3  502    0  0.75473316656E+03  0.22886951627E+03  0.33118400646E+02  0.78938097687E+03  0.46999998093E+01 0. -1.
       -5    1    3    3    0  502 -0.75473316656E+03 -0.22886951627E+03  0.16390678217E+04  0.18189471741E+04  0.46999998093E+01 0.  1.
</event>
<event>
 5   0  0.2356996E-06  0.2001666E+04  0.7818609E-02  0.8605842E-01
        1   -1    0    0  501    0  0.00000000000E+00  0.00000000000E+00  0.62668811421E+03  0.62668811423E+03  0.50400001928E-02 0. -1.
       -1   -1    0    0    0  501  0.00000000000E+00  0.00000000000E+00 -0.15983502728E+04  0.15983502728E+04  0.50400001928E-02 0.  1.
    10030    2    1    2    0    0  0.00000000000E+00  0.00000000000E+00 -0.97166215857E+03  0.22250383870E+04  0.20016664241E+04 0.  0.
        4    1    3    3  502    0  0.28829351329E+03  0.55300735686E+03  0.38429507986E+03  0.73253983363E+03  0.12699999809E+01 0. -1.
       -4    1    3    3    0  502 -0.28829351329E+03 -0.55300735686E+03 -0.13559572384E+04  0.14924985534E+04  0.12699999809E+01 0.  1.
</event>
<event>
 5   0  0.5030137E-06  0.2000068E+04  0.7818609E-02  0.8606589E-01
        2   -1    0    0  501    0  0.00000000000E+00  0.00000000000E+00  0.94021816786E+03  0.94021816786E+03  0.25500000920E-02 0.  1.
       -2   -1    0    0    0  501  0.00000000000E+00  0.00000000000E+00 -0.10636556477E+04  0.10636556477E+04  0.25500000920E-02 0. -1.
    10030    2    1    2    0    0  0.00000000000E+00  0.00000000000E+00 -0.12343747981E+03  0.20038738155E+04  0.20000683631E+04 0.  0.
        3    1    3    3  502    0  0.69182017351E+03 -0.64172075774E+03 -0.39347966642E+03  0.10223731909E+04  0.10100000352E+00 0. -1.
       -3    1    3    3    0  502 -0.69182017351E+03  0.64172075774E+03  0.27004218661E+03  0.98150062463E+03  0.10100000352E+00 0.  1.
</event>
<event>
 5   0  0.2379743E-06  0.1999696E+04  0.7818609E-02  0.8606763E-01
        1   -1    0    0  501    0  0.00000000000E+00  0.00000000000E+00  0.80025587844E+03  0.80025587846E+03  0.50400001928E-02 0. -1.
       -1   -1    0    0    0  501  0.00000000000E+00  0.00000000000E+00 -0.12492198975E+04  0.12492198975E+04  0.50400001928E-02 0.  1.
    10030    2    1    2    0    0  0.00000000000E+00  0.00000000000E+00 -0.44896401910E+03  0.20494757760E+04  0.19996955433E+04 0.  0.
        5    1    3    3  502    0 -0.75573000517E+02  0.18060580604E+03  0.78040738396E+03  0.80460394637E+03  0.46999998093E+01 0. -1.
       -5    1    3    3    0  502  0.75573000517E+02 -0.18060580604E+03 -0.12293714031E+04  0.12448718296E+04  0.46999998093E+01 0.  1.
</event>
<event>
 5   0  0.2311520E-06  0.2001824E+04  0.7818609E-02  0.8605769E-01
       -1   -1    0    0    0  501  0.00000000000E+00  0.00000000000E+00  0.59075962019E+03  0.59075962021E+03  0.50400001928E-02 0. -1.
        1   -1    0    0  501    0  0.00000000000E+00  0.00000000000E+00 -0.16958240070E+04  0.16958240070E+04  0.50400001928E-02 0.  1.
    10030    2    1    2    0    0  0.00000000000E+00  0.00000000000E+00 -0.11050643868E+04  0.22865836272E+04  0.20018235150E+04 0.  0.
        3    1    3    3  502    0  0.89248809068E+03  0.19289244202E+03 -0.84234830034E+02  0.91697219313E+03  0.10100000352E+00 0. -1.
       -3    1    3    3    0  502 -0.89248809068E+03 -0.19289244202E+03 -0.10208295568E+04  0.13696114341E+04  0.10100000352E+00 0.  1.
</event>
<event>
 5   0  0.2386776E-06  0.1999597E+04  0.7818609E-02  0.8606809E-01
       -1   -1    0    0    0  501  0.00000000000E+00  0.00000000000E+00  0.12160331282E+04  0.12160331282E+04  0.50400001928E-02 0. -1.
        1   -1    0    0  501    0  0.00000000000E+00  0.00000000000E+00 -0.82201448488E+03  0.82201448490E+03  0.50400001928E-02 0.  1.
    10030    2    1    2    0    0  0.00000000000E+00  0.00000000000E+00  0.39401864334E+03  0.20380476131E+04  0.19995968049E+04 0.  0.
        2    1    3    3  502    0 -0.64469744774E+03  0.10008524027E+02 -0.58179248589E+03  0.86845694558E+03  0.25500000920E-02 0.  1.
       -2    1    3    3    0  502  0.64469744774E+03 -0.10008524027E+02  0.97581112924E+03  0.11695906676E+04  0.25500000920E-02 0. -1.
</event>
<event>
 5   0  0.5129100E-06  0.1998448E+04  0.7818609E-02  0.8607347E-01
       -2   -1    0    0    0  501  0.00000000000E+00  0.00000000000E+00  0.83198801981E+03  0.83198801981E+03  0.25500000920E-02 0. -1.
        2   -1    0    0  501    0  0.00000000000E+00  0.00000000000E+00 -0.12000755837E+04  0.12000755837E+04  0.25500000920E-02 0.  1.
    10030    2    1    2    0    0  0.00000000000E+00  0.00000000000E+00 -0.36808756387E+03  0.20320636035E+04  0.19984479062E+04 0.  0.
        2    1    3    3  502    0 -0.69600421606E+03  0.49433057941E+03 -0.71207048422E+03  0.11116784450E+04  0.25500000920E-02 0.  1.
       -2    1    3    3    0  502  0.69600421606E+03 -0.49433057941E+03  0.34398292035E+03  0.92038515852E+03  0.25500000920E-02 0. -1.
</event>
<event>
 5   0  0.2356996E-06  0.1999871E+04  0.7818609E-02  0.8606681E-01
        1   -1    0    0  501    0  0.00000000000E+00  0.00000000000E+00  0.19064229174E+04  0.19064229174E+04  0.50400001928E-02 0. -1.
       -1   -1    0    0    0  501  0.00000000000E+00  0.00000000000E+00 -0.52447467355E+03  0.52447467357E+03  0.50400001928E-02 0.  1.
    10030    2    1    2    0    0  0.00000000000E+00  0.00000000000E+00  0.13819482439E+04  0.24308975910E+04  0.19998705331E+04 0.  0.
        4    1    3    3  502    0 -0.40727554598E+03  0.90028539652E+03  0.50470962069E+03  0.11095587320E+04  0.12699999809E+01 0.  1.
       -4    1    3    3    0  502  0.40727554598E+03 -0.90028539652E+03  0.87723862319E+03  0.13213388591E+04  0.12699999809E+01 0. -1.
</event>
<event>
 5   0  0.2386776E-06  0.2000627E+04  0.7818609E-02  0.8606328E-01
       -1   -1    0    0    0  501  0.00000000000E+00  0.00000000000E+00  0.18937848723E+04  0.18937848723E+04  0.50400001928E-02 0.  1.
        1   -1    0    0  501    0  0.00000000000E+00  0.00000000000E+00 -0.52837423753E+03  0.52837423755E+03  0.50400001928E-02 0. -1.
    10030    2    1    2    0    0  0.00000000000E+00  0.00000000000E+00  0.13654106348E+04  0.24221591099E+04  0.20006270397E+04 0.  0.
        2    1    3    3  502    0 -0.30312279546E+03 -0.88269730605E+03  0.11185391055E+04  0.14567661768E+04  0.25500000920E-02 0.  1.
       -2    1    3    3    0  502  0.30312279546E+03  0.88269730605E+03  0.24687152923E+03  0.96539293305E+03  0.25500000920E-02 0. -1.
</event>
<event>
 5   0  0.2311520E-06  0.1999490E+04  0.7818609E-02  0.8606859E-01
       -1   -1    0    0    0  501  0.00000000000E+00  0.00000000000E+00  0.47066962703E+03  0.47066962705E+03  0.50400001928E-02 0. -1.
        1   -1    0    0  501    0  0.00000000000E+00  0.00000000000E+00 -0.21235492279E+04  0.21235492279E+04  0.50400001928E-02 0.  1.
    10030    2    1    2    0    0  0.00000000000E+00  0.00000000000E+00 -0.16528796009E+04  0.25942188549E+04  0.19994900581E+04 0.  0.
        3    1    3    3  502    0 -0.43553442778E+03 -0.89977267982E+03 -0.84519666611E+03  0.13090601696E+04  0.10100000352E+00 0. -1.
       -3    1    3    3    0  502  0.43553442778E+03  0.89977267982E+03 -0.80768293476E+03  0.12851586853E+04  0.10100000352E+00 0.  1.
</event>
<event>
 5   0  0.4956214E-06  0.1998892E+04  0.7818609E-02  0.8607139E-01
       -2   -1    0    0    0  501  0.00000000000E+00  0.00000000000E+00  0.52662104028E+03  0.52662104029E+03  0.25500000920E-02 0.  1.
        2   -1    0    0  501    0  0.00000000000E+00  0.00000000000E+00 -0.18967957596E+04  0.18967957596E+04  0.25500000920E-02 0. -1.
    10030    2    1    2    0    0  0.00000000000E+00  0.00000000000E+00 -0.13701747193E+04  0.24234167999E+04  0.19988922493E+04 0.  0.
        1    1    3    3  502    0 -0.16102223053E+03 -0.75958548143E+03 -0.14480147273E+04  0.16430596193E+04  0.50400001928E-02 0. -1.
       -1    1    3    3    0  502  0.16102223053E+03  0.75958548143E+03  0.77840007969E+02  0.78035718052E+03  0.50400001928E-02 0.  1.
</event>
<event>
 5   0  0.5118981E-06  0.1999665E+04  0.7818609E-02  0.8606777E-01
       -2   -1    0    0    0  501  0.00000000000E+00  0.00000000000E+00  0.11259343254E+04  0.11259343254E+04  0.25500000920E-02 0. -1.
        2   -1    0    0  501    0  0.00000000000E+00  0.00000000000E+00 -0.88785408483E+03  0.88785408483E+03  0.25500000920E-02 0.  1.
    10030    2    1    2    0    0  0.00000000000E+00  0.00000000000E+00  0.23808024057E+03  0.20137884102E+04  0.19996653621E+04 0.  0.
        4    1    3    3  502    0  0.34830244952E+03 -0.47946942728E+03 -0.69191631201E+03  0.91101883831E+03  0.12699999809E+01 0.  1.
       -4    1    3    3    0  502 -0.34830244952E+03  0.47946942728E+03  0.92999655258E+03  0.11027695719E+04  0.12699999809E+01 0. -1.
</event>
<event>
 5   0  0.2313821E-06  0.1999758E+04  0.7818609E-02  0.8606734E-01
        1   -1    0    0  501    0  0.00000000000E+00  0.00000000000E+00  0.28354125841E+04  0.28354125841E+04  0.50400001928E-02 0. -1.
       -1   -1    0    0    0  501  0.00000000000E+00  0.00000000000E+00 -0.35259701124E+03  0.35259701128E+03  0.50400001928E-02 0.  1.
    10030    2    1    2    0    0  0.00000000000E+00  0.00000000000E+00  0.24828155728E+04  0.31880095953E+04  0.19997579882E+04 0.  0.
        1    1    3    3  502    0  0.64087798069E+03 -0.24967581897E+03  0.84438198761E+02  0.69295916917E+03  0.50400001928E-02 0.  1.
       -1    1    3    3    0  502 -0.64087798069E+03  0.24967581897E+03  0.23983773741E+04  0.24950504262E+04  0.50400001928E-02 0. -1.
</event>
<event>
 5   0  0.4956214E-06  0.2004597E+04  0.7818609E-02  0.8604474E-01
       -2   -1    0    0    0  501  0.00000000000E+00  0.00000000000E+00  0.38329020949E+03  0.38329020950E+03  0.25500000920E-02 0.  1.
        2   -1    0    0  501    0  0.00000000000E+00  0.00000000000E+00 -0.26209964914E+04  0.26209964914E+04  0.25500000920E-02 0. -1.
    10030    2    1    2    0    0  0.00000000000E+00  0.00000000000E+00 -0.22377062819E+04  0.30042867009E+04  0.20045970111E+04 0.  0.
        1    1    3    3  502    0  0.65905215631E+03 -0.60889568902E+02  0.92050572851E+01  0.66192296942E+03  0.50400001928E-02 0.  1.
       -1    1    3    3    0  502 -0.65905215631E+03  0.60889568902E+02 -0.22469113392E+04  0.23423637315E+04  0.50400001928E-02 0. -1.
</event>
<event>
 5   0  0.5118981E-06  0.1999984E+04  0.7818609E-02  0.8606628E-01
        2   -1    0    0  501    0  0.00000000000E+00  0.00000000000E+00  0.18181864929E+04  0.18181864929E+04  0.25500000920E-02 0.  1.
       -2   -1    0    0    0  501  0.00000000000E+00  0.00000000000E+00 -0.54998965221E+03  0.54998965222E+03  0.25500000920E-02 0. -1.
    10030    2    1    2    0    0  0.00000000000E+00  0.00000000000E+00  0.12681968407E+04  0.23681761452E+04  0.19999837569E+04 0.  0.
        4    1    3    3  502    0 -0.50814396744E+03 -0.47902694279E+03 -0.21342527272E+03  0.73022535118E+03  0.12699999809E+01 0. -1.
       -4    1    3    3    0  502  0.50814396744E+03  0.47902694279E+03  0.14816221135E+04  0.16379507940E+04  0.12699999809E+01 0.  1.
</event>
<event>
 5   0  0.5251252E-06  0.2000205E+04  0.7818609E-02  0.8606525E-01
        2   -1    0    0  501    0  0.00000000000E+00  0.00000000000E+00  0.13172098874E+04  0.13172098874E+04  0.25500000920E-02 0.  1.
       -2   -1    0    0    0  501  0.00000000000E+00  0.00000000000E+00 -0.75933609124E+03  0.75933609124E+03  0.25500000920E-02 0. -1.
    10030    2    1    2    0    0  0.00000000000E+00  0.00000000000E+00  0.55787379613E+03  0.20765459786E+04  0.20002049967E+04 0.  0.
        5    1    3    3  502    0  0.30409536390E+03 -0.84592160336E+03 -0.17611363330E+03  0.91602153425E+03  0.46999998093E+01 0.  1.
       -5    1    3    3    0  502 -0.30409536390E+03  0.84592160336E+03  0.73398742943E+03  0.11605244444E+04  0.46999998093E+01 0. -1.
</event>
<event>
 5   0  0.4956214E-06  0.2000907E+04  0.7818609E-02  0.8606197E-01
        2   -1    0    0  501    0  0.00000000000E+00  0.00000000000E+00  0.76308873985E+03  0.76308873985E+03  0.25500000920E-02 0. -1.
       -2   -1    0    0    0  501  0.00000000000E+00  0.00000000000E+00 -0.13116522268E+04  0.13116522268E+04  0.25500000920E-02 0.  1.
    10030    2    1    2    0    0  0.00000000000E+00  0.00000000000E+00 -0.54856348699E+03  0.20747409667E+04  0.20009068393E+04 0.  0.
        1    1    3    3  502    0 -0.25868742376E+03 -0.10338578640E+03  0.72205983180E+03  0.77393682220E+03  0.50400001928E-02 0. -1.
       -1    1    3    3    0  502  0.25868742376E+03  0.10338578640E+03 -0.12706233188E+04  0.13008041445E+04  0.50400001928E-02 0.  1.
</event>
<event>
 5   0  0.5251252E-06  0.1999870E+04  0.7818609E-02  0.8606681E-01
        2   -1    0    0  501    0  0.00000000000E+00  0.00000000000E+00  0.97061086578E+03  0.97061086578E+03  0.25500000920E-02 0.  1.
       -2   -1    0    0    0  501  0.00000000000E+00  0.00000000000E+00 -0.10301451437E+04  0.10301451437E+04  0.25500000920E-02 0. -1.
    10030    2    1    2    0    0  0.00000000000E+00  0.00000000000E+00 -0.59534277873E+02  0.20007560094E+04  0.19998700655E+04 0.  0.
        5    1    3    3  502    0  0.66034410815E+03 -0.73923450409E+03 -0.16145366372E+03  0.10042964546E+04  0.46999998093E+01 0. -1.
       -5    1    3    3    0  502 -0.66034410815E+03  0.73923450409E+03  0.10191938584E+03  0.99645955483E+03  0.46999998093E+01 0.  1.
</event>
<event>
 5   0  0.4956214E-06  0.1998334E+04  0.7818609E-02  0.8607400E-01
        2   -1    0    0  501    0  0.00000000000E+00  0.00000000000E+00  0.10167096115E+04  0.10167096115E+04  0.25500000920E-02 0. -1.
       -2   -1    0    0    0  501  0.00000000000E+00  0.00000000000E+00 -0.98192685262E+03  0.98192685262E+03  0.25500000920E-02 0.  1.
    10030    2    1    2    0    0  0.00000000000E+00  0.00000000000E+00  0.34782758865E+02  0.19986364641E+04  0.19983337748E+04 0.  0.
        1    1    3    3  502    0  0.11941637422E+03  0.95301619000E+03  0.29281344665E+03  0.10041114696E+04  0.50400001928E-02 0. -1.
       -1    1    3    3    0  502 -0.11941637422E+03 -0.95301619000E+03 -0.25803068779E+03  0.99452499451E+03  0.50400001928E-02 0.  1.
</event>
<event>
 5   0  0.2356996E-06  0.1996199E+04  0.7818609E-02  0.8608400E-01
        1   -1    0    0  501    0  0.00000000000E+00  0.00000000000E+00  0.50085768879E+03  0.50085768882E+03  0.50400001928E-02 0. -1.
       -1   -1    0    0    0  501  0.00000000000E+00  0.00000000000E+00 -0.19889938937E+04  0.19889938937E+04  0.50400001928E-02 0.  1.
    10030    2    1    2    0    0  0.00000000000E+00  0.00000000000E+00 -0.14881362049E+04  0.24898515825E+04  0.19961992733E+04 0.  0.
        4    1    3    3  502    0  0.54917199262E+03 -0.79664742970E+03 -0.10495010136E+04  0.14274771435E+04  0.12699999809E+01 0.  1.
       -4    1    3    3    0  502 -0.54917199262E+03  0.79664742970E+03 -0.43863519129E+03  0.10623744390E+04  0.12699999809E+01 0. -1.
</event>
<event>
 5   0  0.2311520E-06  0.1999458E+04  0.7818609E-02  0.8606874E-01
        1   -1    0    0  501    0  0.00000000000E+00  0.00000000000E+00  0.55824605961E+03  0.55824605964E+03  0.50400001928E-02 0. -1.
       -1   -1    0    0    0  501  0.00000000000E+00  0.00000000000E+00 -0.17903532561E+04  0.17903532561E+04  0.50400001928E-02 0.  1.
    10030    2    1    2    0    0  0.00000000000E+00  0.00000000000E+00 -0.12321071965E+04  0.23485993158E+04  0.19994575770E+04 0.  0.
        3    1    3    3  502    0 -0.85502617374E+02 -0.27549228068E+03 -0.17404098888E+04  0.17641522853E+04  0.10100000352E+00 0.  1.
       -3    1    3    3    0  502  0.85502617374E+02  0.27549228068E+03  0.50830269230E+03  0.58444703052E+03  0.10100000352E+00 0. -1.
</event>
<event>
 5   0  0.4956214E-06  0.1990998E+04  0.7818609E-02  0.8610841E-01
        2   -1    0    0  501    0  0.00000000000E+00  0.00000000000E+00  0.64314311043E+03  0.64314311043E+03  0.25500000920E-02 0. -1.
       -2   -1    0    0    0  501  0.00000000000E+00  0.00000000000E+00 -0.15408989349E+04  0.15408989349E+04  0.25500000920E-02 0.  1.
    10030    2    1    2    0    0  0.00000000000E+00  0.00000000000E+00 -0.89775582443E+03  0.21840420453E+04  0.19909982761E+04 0.  0.
        1    1    3    3  502    0 -0.83969448451E+03 -0.24180080541E+03  0.74296530414E+02  0.87696888843E+03  0.50400001928E-02 0.  1.
       -1    1    3    3    0  502  0.83969448451E+03  0.24180080541E+03 -0.97205235484E+03  0.13070731569E+04  0.50400001928E-02 0. -1.
</event>
<event>
 5   0  0.2386776E-06  0.1999833E+04  0.7818609E-02  0.8606699E-01
        1   -1    0    0  501    0  0.00000000000E+00  0.00000000000E+00  0.70589233240E+03  0.70589233242E+03  0.50400001928E-02 0. -1.
       -1   -1    0    0    0  501  0.00000000000E+00  0.00000000000E+00 -0.14164107229E+04  0.14164107229E+04  0.50400001928E-02 0.  1.
    10030    2    1    2    0    0  0.00000000000E+00  0.00000000000E+00 -0.71051839047E+03  0.21223030553E+04  0.19998334619E+04 0.  0.
        2    1    3    3  502    0 -0.12034416918E+03  0.88314114540E+03  0.12572074908E+03  0.90012594036E+03  0.25500000920E-02 0. -1.
       -2    1    3    3    0  502  0.12034416918E+03 -0.88314114540E+03 -0.83623913955E+03  0.12221771149E+04  0.25500000920E-02 0.  1.
</event>
<event>
 5   0  0.5129100E-06  0.2000387E+04  0.7818609E-02  0.8606440E-01
        2   -1    0    0  501    0  0.00000000000E+00  0.00000000000E+00  0.10848265499E+04  0.10848265499E+04  0.25500000920E-02 0.  1.
       -2   -1    0    0    0  501  0.00000000000E+00  0.00000000000E+00 -0.92216293664E+03  0.92216293664E+03  0.25500000920E-02 0. -1.
    10030    2    1    2    0    0  0.00000000000E+00  0.00000000000E+00  0.16266361323E+03  0.20069894865E+04  0.20003867996E+04 0.  0.
        2    1    3    3  502    0  0.96979389645E+03 -0.15638156426E+03 -0.10752190722E+03  0.98818842119E+03  0.25500000920E-02 0. -1.
       -2    1    3    3    0  502 -0.96979389645E+03  0.15638156426E+03  0.27018552045E+03  0.10188010653E+04  0.25500000920E-02 0.  1.
</event>
<event>
 5   0  0.2356996E-06  0.2000718E+04  0.7818609E-02  0.8606285E-01
        1   -1    0    0  501    0  0.00000000000E+00  0.00000000000E+00  0.94281883053E+03  0.94281883055E+03  0.50400001928E-02 0.  1.
       -1   -1    0    0    0  501  0.00000000000E+00  0.00000000000E+00 -0.10614112901E+04  0.10614112902E+04  0.50400001928E-02 0. -1.
    10030    2    1    2    0    0  0.00000000000E+00  0.00000000000E+00 -0.11859245961E+03  0.20042301207E+04  0.20007184223E+04 0.  0.
        4    1    3    3  502    0 -0.82975185749E+03 -0.58231903635E+02 -0.61600346542E+03  0.10350560284E+04  0.12699999809E+01 0.  1.
       -4    1    3    3    0  502  0.82975185749E+03  0.58231903635E+02  0.49741100580E+03  0.96917409231E+03  0.12699999809E+01 0. -1.
</event>
<event>
 5   0  0.5251252E-06  0.1998646E+04  0.7818609E-02  0.8607254E-01
       -2   -1    0    0    0  501  0.00000000000E+00  0.00000000000E+00  0.13126706753E+04  0.13126706753E+04  0.25500000920E-02 0.  1.
        2   -1    0    0  501    0  0.00000000000E+00  0.00000000000E+00 -0.76077484517E+03  0.76077484518E+03  0.25500000920E-02 0. -1.
    10030    2    1    2    0    0  0.00000000000E+00  0.00000000000E+00  0.55189583016E+03  0.20734455205E+04  0.19986463717E+04 0.  0.
        5    1    3    3  502    0 -0.79968884439E+03 -0.46937094037E+03 -0.11057245294E+03  0.93384135958E+03  0.46999998093E+01 0. -1.
       -5    1    3    3    0  502  0.79968884439E+03  0.46937094037E+03  0.66246828310E+03  0.11396041609E+04  0.46999998093E+01 0.  1.
</event>
<event>
 5   0  0.2313821E-06  0.1994273E+04  0.7818609E-02  0.8609303E-01
       -1   -1    0    0    0  501  0.00000000000E+00  0.00000000000E+00  0.80908819030E+03  0.80908819031E+03  0.50400001928E-02 0.  1.
        1   -1    0    0  501    0  0.00000000000E+00  0.00000000000E+00 -0.12288909526E+04  0.12288909526E+04  0.50400001928E-02 0. -1.
    10030    2    1    2    0    0  0.00000000000E+00  0.00000000000E+00 -0.41980276226E+03  0.20379791429E+04  0.19942729571E+04 0.  0.
        1    1    3    3  502    0  0.48004571823E+03 -0.31201792925E+03  0.62437389301E+03  0.84713743753E+03  0.50400001928E-02 0.  1.
       -1    1    3    3    0  502 -0.48004571823E+03  0.31201792925E+03 -0.10441766553E+04  0.11908417054E+04  0.50400001928E-02 0. -1.
</event>
<event>
 5   0  0.4956214E-06  0.2000493E+04  0.7818609E-02  0.8606390E-01
       -2   -1    0    0    0  501  0.00000000000E+00  0.00000000000E+00  0.94853934044E+03  0.94853934045E+03  0.25500000920E-02 0.  1.
        2   -1    0    0  501    0  0.00000000000E+00  0.00000000000E+00 -0.10547721691E+04  0.10547721691E+04  0.25500000920E-02 0. -1.
    10030    2    1    2    0    0  0.00000000000E+00  0.00000000000E+00 -0.10623282863E+03  0.20033115095E+04  0.20004928369E+04 0.  0.
        1    1    3    3  502    0 -0.94466230874E+03  0.11421020177E+03  0.25563934891E+03  0.98528286521E+03  0.50400001928E-02 0. -1.
       -1    1    3    3    0  502  0.94466230874E+03 -0.11421020177E+03 -0.36187217754E+03  0.10180286443E+04  0.50400001928E-02 0.  1.
</event>
<event>
 5   0  0.2386776E-06  0.1998674E+04  0.7818609E-02  0.8607241E-01
       -1   -1    0    0    0  501  0.00000000000E+00  0.00000000000E+00  0.38715875339E+03  0.38715875343E+03  0.50400001928E-02 0.  1.
        1   -1    0    0  501    0  0.00000000000E+00  0.00000000000E+00 -0.25794965993E+04  0.25794965993E+04  0.50400001928E-02 0. -1.
    10030    2    1    2    0    0  0.00000000000E+00  0.00000000000E+00 -0.21923378459E+04  0.29666553527E+04  0.19986742484E+04 0.  0.
        2    1    3    3  502    0  0.91230536870E+02 -0.38135981565E+03  0.26820038272E+03  0.47506816895E+03  0.25500000920E-02 0.  1.
       -2    1    3    3    0  502 -0.91230536870E+02  0.38135981565E+03 -0.24605382286E+04  0.24915871838E+04  0.25500000920E-02 0. -1.
</event>
<event>
 5   0  0.2386776E-06  0.1999817E+04  0.7818609E-02  0.8606706E-01
        1   -1    0    0  501    0  0.00000000000E+00  0.00000000000E+00  0.90756417310E+03  0.90756417312E+03  0.50400001928E-02 0. -1.
       -1   -1    0    0    0  501  0.00000000000E+00  0.00000000000E+00 -0.11016491941E+04  0.11016491941E+04  0.50400001928E-02 0.  1.
    10030    2    1    2    0    0  0.00000000000E+00  0.00000000000E+00 -0.19408502099E+03  0.20092133672E+04  0.19998173316E+04 0.  0.
        2    1    3    3  502    0 -0.69078233098E+03  0.32676487387E+03  0.55086089134E+03  0.94202082419E+03  0.25500000920E-02 0. -1.
       -2    1    3    3    0  502  0.69078233098E+03 -0.32676487387E+03 -0.74494591233E+03  0.10671925430E+04  0.25500000920E-02 0.  1.
</event>
<event>
 5   0  0.2379743E-06  0.2000588E+04  0.7818609E-02  0.8606346E-01
       -1   -1    0    0    0  501  0.00000000000E+00  0.00000000000E+00  0.11381511995E+04  0.11381511995E+04  0.50400001928E-02 0. -1.
        1   -1    0    0  501    0  0.00000000000E+00  0.00000000000E+00 -0.87913444669E+03  0.87913444670E+03  0.50400001928E-02 0.  1.
    10030    2    1    2    0    0  0.00000000000E+00  0.00000000000E+00  0.25901675279E+03  0.20172856462E+04  0.20005878386E+04 0.  0.
        5    1    3    3  502    0  0.41447838983E+03  0.52000905521E+03 -0.62396603975E+03  0.91189772557E+03  0.46999998093E+01 0.  1.
       -5    1    3    3    0  502 -0.41447838983E+03 -0.52000905521E+03  0.88298279254E+03  0.11053879206E+04  0.46999998093E+01 0. -1.
</event>
<event>
 5   0  0.2379743E-06  0.1999551E+04  0.7818609E-02  0.8606831E-01
        1   -1    0    0  501    0  0.00000000000E+00  0.00000000000E+00  0.15216278659E+04  0.15216278659E+04  0.50400001928E-02 0.  1.
       -1   -1    0    0    0  501  0.00000000000E+00  0.00000000000E+00 -0.65689567285E+03  0.65689567287E+03  0.50400001928E-02 0. -1.
    10030    2    1    2    0    0  0.00000000000E+00  0.00000000000E+00  0.86473219307E+03  0.21785235388E+04  0.19995507104E+04 0.  0.
        5    1    3    3  502    0  0.88871321132E+03 -0.28843377769E+03  0.44827149352E+02  0.93543400591E+03  0.46999998093E+01 0. -1.
       -5    1    3    3    0  502 -0.88871321132E+03  0.28843377769E+03  0.81990504372E+03  0.12430895329E+04  0.46999998093E+01 0.  1.
</event>
<event>
 5   0  0.2356996E-06  0.2000489E+04  0.7818609E-02  0.8606392E-01
       -1   -1    0    0    0  501  0.00000000000E+00  0.00000000000E+00  0.60260248159E+03  0.60260248161E+03  0.50400001928E-02 0.  1.
        1   -1    0    0  501    0  0.00000000000E+00  0.00000000000E+00 -0.16602811528E+04  0.16602811528E+04  0.50400001928E-02 0. -1.
    10030    2    1    2    0    0  0.00000000000E+00  0.00000000000E+00 -0.10576786712E+04  0.22628836344E+04  0.20004894829E+04 0.  0.
        4    1    3    3  502    0  0.22281676512E+03 -0.94064349881E+03 -0.81950785792E+03  0.12673011658E+04  0.12699999809E+01 0.  1.
       -4    1    3    3    0  502 -0.22281676512E+03  0.94064349881E+03 -0.23817081330E+03  0.99558246865E+03  0.12699999809E+01 0. -1.
</event>
<event>
 5   0  0.5118981E-06  0.1999474E+04  0.7818609E-02  0.8606866E-01
        2   -1    0    0  501    0  0.00000000000E+00  0.00000000000E+00  0.14272741665E+04  0.14272741665E+04  0.25500000920E-02 0.  1.
       -2   -1    0    0    0  501  0.00000000000E+00  0.00000000000E+00 -0.70026798939E+03  0.70026798939E+03  0.25500000920E-02 0. -1.
    10030    2    1    2    0    0  0.00000000000E+00  0.00000000000E+00  0.72700617710E+03  0.21275421559E+04  0.19994743418E+04 0.  0.
        4    1    3    3  502    0 -0.90525013295E+03 -0.22910863549E+03  0.74345149868E+03  0.11936039183E+04  0.12699999809E+01 0.  1.
       -4    1    3    3    0  502  0.90525013295E+03  0.22910863549E+03 -0.16445321576E+02  0.93393823755E+03  0.12699999809E+01 0. -1.
</event>
<event>
 5   0  0.4956214E-06  0.2000146E+04  0.7818609E-02  0.8606552E-01
       -2   -1    0    0    0  501  0.00000000000E+00  0.00000000000E+00  0.61633501417E+03  0.61633501417E+03  0.25500000920E-02 0. -1.
        2   -1    0    0  501    0  0.00000000000E+00  0.00000000000E+00 -0.16227313455E+04  0.16227313455E+04  0.25500000920E-02 0.  1.
    10030    2    1    2    0    0  0.00000000000E+00  0.00000000000E+00 -0.10063963313E+04  0.22390663597E+04  0.20001461415E+04 0.  0.
        1    1    3    3  502    0  0.37010270028E+03  0.11320076724E+03  0.52910095196E+03  0.65554423180E+03  0.50400001928E-02 0. -1.
       -1    1    3    3    0  502 -0.37010270028E+03 -0.11320076724E+03 -0.15354972833E+04  0.15835221279E+04  0.50400001928E-02 0.  1.
</event>
<event>
 5   0  0.5251252E-06  0.1998990E+04  0.7818609E-02  0.8607093E-01
        2   -1    0    0  501    0  0.00000000000E+00  0.00000000000E+00  0.12229731853E+04  0.12229731853E+04  0.25500000920E-02 0.  1.
       -2   -1    0    0    0  501  0.00000000000E+00  0.00000000000E+00 -0.81685342796E+03  0.81685342796E+03  0.25500000920E-02 0. -1.
    10030    2    1    2    0    0  0.00000000000E+00  0.00000000000E+00  0.40611975734E+03  0.20398266133E+04  0.19989895835E+04 0.  0.
        5    1    3    3  502    0 -0.21357818949E+03  0.97639719229E+03  0.20225085193E+03  0.10197522333E+04  0.46999998093E+01 0.  1.
       -5    1    3    3    0  502  0.21357818949E+03 -0.97639719229E+03  0.20386890541E+03  0.10200743800E+04  0.46999998093E+01 0. -1.
</event>
<event>
 5   0  0.5129100E-06  0.1999771E+04  0.7818609E-02  0.8606728E-01
        2   -1    0    0  501    0  0.00000000000E+00  0.00000000000E+00  0.11376778231E+04  0.11376778231E+04  0.25500000920E-02 0.  1.
       -2   -1    0    0    0  501  0.00000000000E+00  0.00000000000E+00 -0.87878190541E+03  0.87878190541E+03  0.25500000920E-02 0. -1.
    10030    2    1    2    0    0  0.00000000000E+00  0.00000000000E+00  0.25889591765E+03  0.20164597285E+04  0.19997706719E+04 0.  0.
        2    1    3    3  502    0  0.93773274389E+03 -0.34702199244E+03  0.13139353798E+03  0.10084796597E+04  0.25500000920E-02 0. -1.
       -2    1    3    3    0  502 -0.93773274389E+03  0.34702199244E+03  0.12750237967E+03  0.10079800688E+04  0.25500000920E-02 0.  1.
</event>
<event>
 5   0  0.2386776E-06  0.2000117E+04  0.7818609E-02  0.8606566E-01
       -1   -1    0    0    0  501  0.00000000000E+00  0.00000000000E+00  0.10299220312E+04  0.10299220312E+04  0.50400001928E-02 0. -1.
        1   -1    0    0  501    0  0.00000000000E+00  0.00000000000E+00 -0.97106072096E+03  0.97106072097E+03  0.50400001928E-02 0.  1.
    10030    2    1    2    0    0  0.00000000000E+00  0.00000000000E+00  0.58861310239E+02  0.20009827522E+04  0.20001168268E+04 0.  0.
        2    1    3    3  502    0  0.72740852173E+03 -0.59000110727E+03 -0.32128119034E+03  0.99017476606E+03  0.25500000920E-02 0. -1.
       -2    1    3    3    0  502 -0.72740852173E+03  0.59000110727E+03  0.38014250058E+03  0.10108079861E+04  0.25500000920E-02 0.  1.
</event>
<event>
 5   0  0.2313821E-06  0.1999933E+04  0.7818609E-02  0.8606652E-01
       -1   -1    0    0    0  501  0.00000000000E+00  0.00000000000E+00  0.89981291901E+03  0.89981291902E+03  0.50400001928E-02 0.  1.
        1   -1    0    0  501    0  0.00000000000E+00  0.00000000000E+00 -0.11112678082E+04  0.11112678082E+04  0.50400001928E-02 0. -1.
    10030    2    1    2    0    0  0.00000000000E+00  0.00000000000E+00 -0.21145488923E+03  0.20110807273E+04  0.19999331292E+04 0.  0.
        1    1    3    3  502    0 -0.48152728432E+03  0.80036778780E+03 -0.46475539400E+03  0.10432903228E+04  0.50400001928E-02 0. -1.
       -1    1    3    3    0  502  0.48152728432E+03 -0.80036778780E+03  0.25330050477E+03  0.96779040450E+03  0.50400001928E-02 0.  1.
</event>
<event>
 5   0  0.5251252E-06  0.2000476E+04  0.7818609E-02  0.8606398E-01
        2   -1    0    0  501    0  0.00000000000E+00  0.00000000000E+00  0.20192581872E+04  0.20192581872E+04  0.25500000920E-02 0. -1.
       -2   -1    0    0    0  501  0.00000000000E+00  0.00000000000E+00 -0.49546708903E+03  0.49546708903E+03  0.25500000920E-02 0.  1.
    10030    2    1    2    0    0  0.00000000000E+00  0.00000000000E+00  0.15237910982E+04  0.25147252762E+04  0.20004759194E+04 0.  0.
        5    1    3    3  502    0 -0.72754733700E+03  0.66948960673E+03  0.57161572273E+03  0.11420630830E+04  0.46999998093E+01 0. -1.
       -5    1    3    3    0  502  0.72754733700E+03 -0.66948960673E+03  0.95217537546E+03  0.13726621932E+04  0.46999998093E+01 0.  1.
</event>
<event>
 5   0  0.4956214E-06  0.2000130E+04  0.7818609E-02  0.8606560E-01
        2   -1    0    0  501    0  0.00000000000E+00  0.00000000000E+00  0.11010008630E+04  0.11010008630E+04  0.25500000920E-02 0. -1.
       -2   -1    0    0    0  501  0.00000000000E+00  0.00000000000E+00 -0.90838252148E+03  0.90838252148E+03  0.25500000920E-02 0.  1.
    10030    2    1    2    0    0  0.00000000000E+00  0.00000000000E+00  0.19261834156E+03  0.20093833845E+04  0.20001299359E+04 0.  0.
        1    1    3    3  502    0  0.48128860399E+03  0.52329243965E+03  0.80288104161E+03  0.10724232675E+04  0.50400001928E-02 0. -1.
       -1    1    3    3    0  502 -0.48128860399E+03 -0.52329243965E+03 -0.61026270006E+03  0.93696011699E+03  0.50400001928E-02 0.  1.
</event>
<event>
 5   0  0.2379743E-06  0.2000808E+04  0.7818609E-02  0.8606243E-01
       -1   -1    0    0    0  501  0.00000000000E+00  0.00000000000E+00  0.43064765040E+03  0.43064765043E+03  0.50400001928E-02 0.  1.
        1   -1    0    0  501    0  0.00000000000E+00  0.00000000000E+00 -0.23239596827E+04  0.23239596828E+04  0.50400001928E-02 0. -1.
    10030    2    1    2    0    0  0.00000000000E+00  0.00000000000E+00 -0.18933120324E+04  0.27546073332E+04  0.20008076140E+04 0.  0.
        5    1    3    3  502    0 -0.89840009865E+03  0.83441189546E+01 -0.34089745895E+03  0.96095032603E+03  0.46999998093E+01 0.  1.
       -5    1    3    3    0  502  0.89840009865E+03 -0.83441189546E+01 -0.15524145734E+04  0.17936570071E+04  0.46999998093E+01 0. -1.
</event>
<event>
 5   0  0.2311520E-06  0.2003568E+04  0.7818609E-02  0.8604954E-01
       -1   -1    0    0    0  501  0.00000000000E+00  0.00000000000E+00  0.57394583708E+03  0.57394583710E+03  0.50400001928E-02 0. -1.
        1   -1    0    0  501    0  0.00000000000E+00  0.00000000000E+00 -0.17485469563E+04  0.17485469563E+04  0.50400001928E-02 0.  1.
    10030    2    1    2    0    0  0.00000000000E+00  0.00000000000E+00 -0.11746011192E+04  0.23224927934E+04  0.20035680638E+04 0.  0.
        3    1    3    3  502    0  0.48503258760E+03  0.86419506301E+03 -0.75719640629E+03  0.12471712496E+04  0.10100000352E+00 0.  1.
       -3    1    3    3    0  502 -0.48503258760E+03 -0.86419506301E+03 -0.41740471291E+03  0.10753215438E+04  0.10100000352E+00 0. -1.
</event>
<event>
 5   0  0.5251252E-06  0.1998744E+04  0.7818609E-02  0.8607208E-01
        2   -1    0    0  501    0  0.00000000000E+00  0.00000000000E+00  0.17310829309E+04  0.17310829309E+04  0.25500000920E-02 0.  1.
       -2   -1    0    0    0  501  0.00000000000E+00  0.00000000000E+00 -0.57694756301E+03  0.57694756301E+03  0.25500000920E-02 0. -1.
    10030    2    1    2    0    0  0.00000000000E+00  0.00000000000E+00  0.11541353679E+04  0.23080304939E+04  0.19987436838E+04 0.  0.
        5    1    3    3  502    0  0.80933317295E+03  0.23472475195E+03  0.11974182559E+04  0.14642228189E+04  0.46999998093E+01 0.  1.
       -5    1    3    3    0  502 -0.80933317295E+03 -0.23472475195E+03 -0.43282887944E+02  0.84380767501E+03  0.46999998093E+01 0. -1.
</event>
<event>
 5   0  0.2311520E-06  0.1999665E+04  0.7818609E-02  0.8606777E-01
        1   -1    0    0  501    0  0.00000000000E+00  0.00000000000E+00  0.13198887056E+04  0.13198887056E+04  0.50400001928E-02 0. -1.
       -1   -1    0    0    0  501  0.00000000000E+00  0.00000000000E+00 -0.75738580656E+03  0.75738580657E+03  0.50400001928E-02 0.  1.
    10030    2    1    2    0    0  0.00000000000E+00  0.00000000000E+00  0.56250289906E+03  0.20772745122E+04  0.19996649438E+04 0.  0.
        3    1    3    3  502    0  0.77478055270E+03  0.74972064814E+02  0.93310801178E+03  0.12151527835E+04  0.10100000352E+00 0. -1.
       -3    1    3    3    0  502 -0.77478055270E+03 -0.74972064814E+02 -0.37060511272E+03  0.86212172872E+03  0.10100000352E+00 0.  1.
</event>
<event>
 5   0  0.5251252E-06  0.1992543E+04  0.7818609E-02  0.8610115E-01
        2   -1    0    0  501    0  0.00000000000E+00  0.00000000000E+00  0.64459752273E+03  0.64459752273E+03  0.25500000920E-02 0.  1.
       -2   -1    0    0    0  501  0.00000000000E+00  0.00000000000E+00 -0.15398093816E+04  0.15398093816E+04  0.25500000920E-02 0. -1.
    10030    2    1    2    0    0  0.00000000000E+00  0.00000000000E+00 -0.89521185885E+03  0.21844069043E+04  0.19925434127E+04 0.  0.
        5    1    3    3  502    0 -0.79702556394E+03  0.88407201286E+02  0.20047683920E+03  0.82660669963E+03  0.46999998093E+01 0.  1.
       -5    1    3    3    0  502  0.79702556394E+03 -0.88407201286E+02 -0.10956886981E+04  0.13578002047E+04  0.46999998093E+01 0. -1.
</event>
<event>
 5   0  0.2386776E-06  0.2000102E+04  0.7818609E-02  0.8606573E-01
        1   -1    0    0  501    0  0.00000000000E+00  0.00000000000E+00  0.18570346455E+04  0.18570346455E+04  0.50400001928E-02 0.  1.
       -1   -1    0    0    0  501  0.00000000000E+00  0.00000000000E+00 -0.53854764264E+03  0.53854764266E+03  0.50400001928E-02 0. -1.
    10030    2    1    2    0    0  0.00000000000E+00  0.00000000000E+00  0.13184870029E+04  0.23955822882E+04  0.20001016281E+04 0.  0.
        2    1    3    3  502    0  0.14141857212E+03  0.26297168861E+03 -0.48391354349E+03  0.56861730464E+03  0.25500000920E-02 0. -1.
       -2    1    3    3    0  502 -0.14141857212E+03 -0.26297168861E+03  0.18024005464E+04  0.18269649836E+04  0.25500000920E-02 0.  1.
</event>
<event>
 5   0  0.4956214E-06  0.1999411E+04  0.7818609E-02  0.8606896E-01
       -2   -1    0    0    0  501  0.00000000000E+00  0.00000000000E+00  0.50186346642E+03  0.50186346642E+03  0.25500000920E-02 0. -1.
        2   -1    0    0  501    0  0.00000000000E+00  0.00000000000E+00 -0.19913998625E+04  0.19913998625E+04  0.25500000920E-02 0.  1.
    10030    2    1    2    0    0  0.00000000000E+00  0.00000000000E+00 -0.14895363961E+04  0.24932633289E+04  0.19994107512E+04 0.  0.
        1    1    3    3  502    0 -0.23399075511E+03 -0.92882009108E+03 -0.11017507356E+04  0.14599017496E+04  0.50400001928E-02 0.  1.
       -1    1    3    3    0  502  0.23399075511E+03  0.92882009108E+03 -0.38778566045E+03  0.10333615793E+04  0.50400001928E-02 0. -1.
</event>
<event>
 5   0  0.2386776E-06  0.2000857E+04  0.7818609E-02  0.8606220E-01
       -1   -1    0    0    0  501  0.00000000000E+00  0.00000000000E+00  0.46604015034E+03  0.46604015037E+03  0.50400001928E-02 0.  1.
        1   -1    0    0  501    0  0.00000000000E+00  0.00000000000E+00 -0.21475775788E+04  0.21475775788E+04  0.50400001928E-02 0. -1.
    10030    2    1    2    0    0  0.00000000000E+00  0.00000000000E+00 -0.16815374285E+04  0.26136177292E+04  0.20008571940E+04 0.  0.
        2    1    3    3  502    0 -0.12398738026E+03  0.77690713572E+03 -0.33532391493E+02  0.78745284893E+03  0.25500000920E-02 0.  1.
       -2    1    3    3    0  502  0.12398738026E+03 -0.77690713572E+03 -0.16480050370E+04  0.18261648803E+04  0.25500000920E-02 0. -1.
</event>
<event>
 5   0  0.5118981E-06  0.1994331E+04  0.7818609E-02  0.8609276E-01
       -2   -1    0    0    0  501  0.00000000000E+00  0.00000000000E+00  0.53245288153E+03  0.53245288154E+03  0.25500000920E-02 0.  1.
        2   -1    0    0  501    0  0.00000000000E+00  0.00000000000E+00 -0.18674693051E+04  0.18674693051E+04  0.25500000920E-02 0. -1.
    10030    2    1    2    0    0  0.00000000000E+00  0.00000000000E+00 -0.13350164236E+04  0.23999221867E+04  0.19943313794E+04 0.  0.
        4    1    3    3  502    0 -0.20810348427E+03 -0.63901553479E+03  0.21898558693E+03  0.70682686286E+03  0.12699999809E+01 0.  1.
       -4    1    3    3    0  502  0.20810348427E+03  0.63901553479E+03 -0.15540020106E+04  0.16930953238E+04  0.12699999809E+01 0. -1.
</event>
<event>
 5   0  0.2356996E-06  0.1999676E+04  0.7818609E-02  0.8606772E-01
        1   -1    0    0  501    0  0.00000000000E+00  0.00000000000E+00  0.16989597952E+04  0.16989597952E+04  0.50400001928E-02 0.  1.
       -1   -1    0    0    0  501  0.00000000000E+00  0.00000000000E+00 -0.58840486262E+03  0.58840486265E+03  0.50400001928E-02 0. -1.
    10030    2    1    2    0    0  0.00000000000E+00  0.00000000000E+00  0.11105549325E+04  0.22873646578E+04  0.19996761787E+04 0.  0.
        4    1    3    3  502    0  0.92665244941E+03 -0.10664866663E+03  0.96709502504E+03  0.13436268457E+04  0.12699999809E+01 0.  1.
       -4    1    3    3    0  502 -0.92665244941E+03  0.10664866663E+03  0.14345990751E+03  0.94373781214E+03  0.12699999809E+01 0. -1.
</event>
<event>
 5   0  0.2386776E-06  0.2000134E+04  0.7818609E-02  0.8606558E-01
        1   -1    0    0  501    0  0.00000000000E+00  0.00000000000E+00  0.72564728136E+03  0.72564728138E+03  0.50400001928E-02 0. -1.
       -1   -1    0    0    0  501  0.00000000000E+00  0.00000000000E+00 -0.13782641849E+04  0.13782641849E+04  0.50400001928E-02 0.  1.
    10030    2    1    2    0    0  0.00000000000E+00  0.00000000000E+00 -0.65261690352E+03  0.21039114663E+04  0.20001336543E+04 0.  0.
        2    1    3    3  502    0 -0.60152204674E+03  0.79627423697E+02  0.50990035343E+03  0.79257029326E+03  0.25500000920E-02 0. -1.
       -2    1    3    3    0  502  0.60152204674E+03 -0.79627423697E+02 -0.11625172570E+04  0.13113411730E+04  0.25500000920E-02 0.  1.
</event>
<event>
 5   0  0.2379743E-06  0.1999376E+04  0.7818609E-02  0.8606912E-01
        1   -1    0    0  501    0  0.00000000000E+00  0.00000000000E+00  0.64744734235E+03  0.64744734237E+03  0.50400001928E-02 0. -1.
       -1   -1    0    0    0  501  0.00000000000E+00  0.00000000000E+00 -0.15435641547E+04  0.15435641547E+04  0.50400001928E-02 0.  1.
    10030    2    1    2    0    0  0.00000000000E+00  0.00000000000E+00 -0.89611681233E+03  0.21910114971E+04  0.19993764125E+04 0.  0.
        5    1    3    3  502    0 -0.39815355632E+02 -0.85342823670E+02  0.64256348386E+03  0.64944482513E+03  0.46999998093E+01 0. -1.
       -5    1    3    3    0  502  0.39815355632E+02  0.85342823670E+02 -0.15386802962E+04  0.15415666719E+04  0.46999998093E+01 0.  1.
</event>
<event>
 5   0  0.2386776E-06  0.1999296E+04  0.7818609E-02  0.8606950E-01
       -1   -1    0    0    0  501  0.00000000000E+00  0.00000000000E+00  0.16476181317E+04  0.16476181317E+04  0.50400001928E-02 0. -1.
        1   -1    0    0  501    0  0.00000000000E+00  0.00000000000E+00 -0.60650978630E+03  0.60650978632E+03  0.50400001928E-02 0.  1.
    10030    2    1    2    0    0  0.00000000000E+00  0.00000000000E+00  0.10411083454E+04  0.22541279181E+04  0.19992963972E+04 0.  0.
        2    1    3    3  502    0  0.91586394726E+03  0.33914328096E+03  0.76097463399E+03  0.12381063478E+04  0.25500000920E-02 0. -1.
       -2    1    3    3    0  502 -0.91586394726E+03 -0.33914328096E+03  0.28013371144E+03  0.10160215702E+04  0.25500000920E-02 0.  1.
</event>
<event>
 5   0  0.2311520E-06  0.1999297E+04  0.7818609E-02  0.8606949E-01
       -1   -1    0    0    0  501  0.00000000000E+00  0.00000000000E+00  0.17491604300E+04  0.17491604300E+04  0.50400001928E-02 0. -1.
        1   -1    0    0  501    0  0.00000000000E+00  0.00000000000E+00 -0.57130096308E+03  0.57130096310E+03  0.50400001928E-02 0.  1.
    10030    2    1    2    0    0  0.00000000000E+00  0.00000000000E+00  0.11778594669E+04  0.23204613931E+04  0.19992969147E+04 0.  0.
        3    1    3    3  502    0  0.46387048891E+03  0.71734266599E+03 -0.13642652018E+02  0.85436670293E+03  0.10100000352E+00 0.  1.
       -3    1    3    3    0  502 -0.46387048891E+03 -0.71734266599E+03  0.11915021189E+04  0.14660946902E+04  0.10100000352E+00 0. -1.
</event>
<event>
 5   0  0.2379743E-06  0.1999530E+04  0.7818609E-02  0.8606841E-01
        1   -1    0    0  501    0  0.00000000000E+00  0.00000000000E+00  0.10886144243E+04  0.10886144243E+04  0.50400001928E-02 0. -1.
       -1   -1    0    0    0  501  0.00000000000E+00  0.00000000000E+00 -0.91816692392E+03  0.91816692393E+03  0.50400001928E-02 0.  1.
    10030    2    1    2    0    0  0.00000000000E+00  0.00000000000E+00  0.17044750034E+03  0.20067813482E+04  0.19995297020E+04 0.  0.
        5    1    3    3  502    0 -0.74983078593E+03 -0.46849148626E+03 -0.38313473004E+03  0.96361029031E+03  0.46999998093E+01 0.  1.
       -5    1    3    3    0  502  0.74983078593E+03  0.46849148626E+03  0.55358223037E+03  0.10431710579E+04  0.46999998093E+01 0. -1.
</event>
<event>
 5   0  0.2379743E-06  0.1999579E+04  0.7818609E-02  0.8606817E-01
       -1   -1    0    0    0  501  0.00000000000E+00  0.00000000000E+00  0.83262980299E+03  0.83262980301E+03  0.50400001928E-02 0.  1.
        1   -1    0    0  501    0  0.00000000000E+00  0.00000000000E+00 -0.12005087250E+04  0.12005087250E+04  0.50400001928E-02 0. -1.
    10030    2    1    2    0    0  0.00000000000E+00  0.00000000000E+00 -0.36787892202E+03  0.20331385280E+04  0.19995792990E+04 0.  0.
        5    1    3    3  502    0  0.50299204161E+03 -0.77995659028E+03 -0.56196403260E+03  0.10849695574E+04  0.46999998093E+01 0.  1.
       -5    1    3    3    0  502 -0.50299204161E+03  0.77995659028E+03  0.19408511058E+03  0.94816897059E+03  0.46999998093E+01 0. -1.
</event>
<event>
 5   0  0.2379743E-06  0.2000278E+04  0.7818609E-02  0.8606491E-01
       -1   -1    0    0    0  501  0.00000000000E+00  0.00000000000E+00  0.51915446585E+03  0.51915446587E+03  0.50400001928E-02 0.  1.
        1   -1    0    0  501    0  0.00000000000E+00  0.00000000000E+00 -0.19267436796E+04  0.19267436796E+04  0.50400001928E-02 0. -1.
    10030    2    1    2    0    0  0.00000000000E+00  0.00000000000E+00 -0.14075892138E+04  0.24458981455E+04  0.20002775666E+04 0.  0.
        5    1    3    3  502    0 -0.29653268077E+03 -0.33072095258E+03 -0.17994946609E+04  0.18535131788E+04  0.46999998093E+01 0. -1.
       -5    1    3    3    0  502  0.29653268077E+03  0.33072095258E+03  0.39190544717E+03  0.59238496669E+03  0.46999998093E+01 0.  1.
</event>
<event>
 5   0  0.5118981E-06  0.2000122E+04  0.7818609E-02  0.8606564E-01
       -2   -1    0    0    0  501  0.00000000000E+00  0.00000000000E+00  0.45265522104E+03  0.45265522104E+03  0.25500000920E-02 0.  1.
        2   -1    0    0  501    0  0.00000000000E+00  0.00000000000E+00 -0.22094557922E+04  0.22094557922E+04  0.25500000920E-02 0. -1.
    10030    2    1    2    0    0  0.00000000000E+00  0.00000000000E+00 -0.17568005712E+04  0.26621110133E+04  0.20001216963E+04 0.  0.
        4    1    3    3  502    0  0.29142220347E+03 -0.55025002845E+02  0.39277823838E+03  0.49216969539E+03  0.12699999809E+01 0.  1.
       -4    1    3    3    0  502 -0.29142220347E+03  0.55025002845E+02 -0.21495788096E+04  0.21699413179E+04  0.12699999809E+01 0. -1.
</event>
<event>
 5   0  0.2356996E-06  0.2002253E+04  0.7818609E-02  0.8605568E-01
       -1   -1    0    0    0  501  0.00000000000E+00  0.00000000000E+00  0.10728424983E+04  0.10728424983E+04  0.50400001928E-02 0.  1.
        1   -1    0    0  501    0  0.00000000000E+00  0.00000000000E+00 -0.93420490516E+03  0.93420490517E+03  0.50400001928E-02 0. -1.
    10030    2    1    2    0    0  0.00000000000E+00  0.00000000000E+00  0.13863759317E+03  0.20070474035E+04  0.20022534549E+04 0.  0.
        4    1    3    3  502    0 -0.10993970834E+03  0.90168021939E+03  0.49120552279E+03  0.10326656942E+04  0.12699999809E+01 0. -1.
       -4    1    3    3    0  502  0.10993970834E+03 -0.90168021939E+03 -0.35256792962E+03  0.97438170929E+03  0.12699999809E+01 0.  1.
</event>
<event>
 5   0  0.5030137E-06  0.2000083E+04  0.7818609E-02  0.8606582E-01
        2   -1    0    0  501    0  0.00000000000E+00  0.00000000000E+00  0.16913387936E+04  0.16913387936E+04  0.25500000920E-02 0.  1.
       -2   -1    0    0    0  501  0.00000000000E+00  0.00000000000E+00 -0.59129658718E+03  0.59129658719E+03  0.25500000920E-02 0. -1.
    10030    2    1    2    0    0  0.00000000000E+00  0.00000000000E+00  0.11000422064E+04  0.22826353808E+04  0.20000828547E+04 0.  0.
        3    1    3    3  502    0 -0.65540426713E+03 -0.41491774958E+03 -0.17031073112E+03  0.79417708833E+03  0.10100000352E+00 0. -1.
       -3    1    3    3    0  502  0.65540426713E+03  0.41491774958E+03  0.12703529375E+04  0.14884582925E+04  0.10100000352E+00 0.  1.
</event>
<event>
 5   0  0.4956214E-06  0.2000336E+04  0.7818609E-02  0.8606464E-01
        2   -1    0    0  501    0  0.00000000000E+00  0.00000000000E+00  0.11292970925E+04  0.11292970925E+04  0.25500000920E-02 0.  1.
       -2   -1    0    0    0  501  0.00000000000E+00  0.00000000000E+00 -0.88580387102E+03  0.88580387103E+03  0.25500000920E-02 0. -1.
    10030    2    1    2    0    0  0.00000000000E+00  0.00000000000E+00  0.24349322147E+03  0.20151009635E+04  0.20003357079E+04 0.  0.
        1    1    3    3  502    0  0.21337364593E+03 -0.34375638611E+03 -0.79968470496E+03  0.89621001621E+03  0.50400001928E-02 0. -1.
       -1    1    3    3    0  502 -0.21337364593E+03  0.34375638611E+03  0.10431779264E+04  0.11188909473E+04  0.50400001928E-02 0.  1.
</event>
<event>
 5   0  0.2356996E-06  0.2000160E+04  0.7818609E-02  0.8606546E-01
        1   -1    0    0  501    0  0.00000000000E+00  0.00000000000E+00  0.14852842577E+04  0.14852842577E+04  0.50400001928E-02 0.  1.
       -1   -1    0    0    0  501  0.00000000000E+00  0.00000000000E+00 -0.67337930364E+03  0.67337930366E+03  0.50400001928E-02 0. -1.
    10030    2    1    2    0    0  0.00000000000E+00  0.00000000000E+00  0.81190495401E+03  0.21586635613E+04  0.20001596728E+04 0.  0.
        4    1    3    3  502    0 -0.89929028399E+03  0.22667452401E+03  0.20582877993E+01  0.92742126575E+03  0.12699999809E+01 0. -1.
       -4    1    3    3    0  502  0.89929028399E+03 -0.22667452401E+03  0.80984666621E+03  0.12312422956E+04  0.12699999809E+01 0.  1.
</event>
<event>
 5   0  0.4956214E-06  0.2000104E+04  0.7818609E-02  0.8606572E-01
       -2   -1    0    0    0  501  0.00000000000E+00  0.00000000000E+00  0.46458851135E+03  0.46458851135E+03  0.25500000920E-02 0. -1.
        2   -1    0    0  501    0  0.00000000000E+00  0.00000000000E+00 -0.21526653755E+04  0.21526653755E+04  0.25500000920E-02 0.  1.
    10030    2    1    2    0    0  0.00000000000E+00  0.00000000000E+00 -0.16880768642E+04  0.26172538869E+04  0.20001035996E+04 0.  0.
        1    1    3    3  502    0  0.31909858739E+02 -0.33532307931E+03  0.38812396717E+03  0.51390662627E+03  0.50400001928E-02 0. -1.
       -1    1    3    3    0  502 -0.31909858739E+02  0.33532307931E+03 -0.20762008314E+04  0.21033472606E+04  0.50400001928E-02 0.  1.
</event>
<event>
 5   0  0.5030137E-06  0.2000551E+04  0.7818609E-02  0.8606363E-01
        2   -1    0    0  501    0  0.00000000000E+00  0.00000000000E+00  0.10950258835E+04  0.10950258835E+04  0.25500000920E-02 0. -1.
       -2   -1    0    0    0  501  0.00000000000E+00  0.00000000000E+00 -0.91372350514E+03  0.91372350514E+03  0.25500000920E-02 0.  1.
    10030    2    1    2    0    0  0.00000000000E+00  0.00000000000E+00  0.18130237835E+03  0.20087493886E+04  0.20005508126E+04 0.  0.
        3    1    3    3  502    0  0.40234952361E+03  0.80369983734E+02  0.10066432255E+04  0.10870487878E+04  0.10100000352E+00 0. -1.
       -3    1    3    3    0  502 -0.40234952361E+03 -0.80369983734E+02 -0.82534084713E+03  0.92170060083E+03  0.10100000352E+00 0.  1.
</event>
<event>
 5   0  0.2386776E-06  0.1999848E+04  0.7818609E-02  0.8606692E-01
        1   -1    0    0  501    0  0.00000000000E+00  0.00000000000E+00  0.14965777608E+04  0.14965777608E+04  0.50400001928E-02 0.  1.
       -1   -1    0    0    0  501  0.00000000000E+00  0.00000000000E+00 -0.66808942409E+03  0.66808942411E+03  0.50400001928E-02 0. -1.
    10030    2    1    2    0    0  0.00000000000E+00  0.00000000000E+00  0.82848833674E+03  0.21646671849E+04  0.19998477686E+04 0.  0.
        2    1    3    3  502    0  0.41917245064E+03  0.15725948741E+03  0.13820304054E+04  0.14527367729E+04  0.25500000920E-02 0.  1.
       -2    1    3    3    0  502 -0.41917245064E+03 -0.15725948741E+03 -0.55354206871E+03  0.71193041204E+03  0.25500000920E-02 0. -1.
</event>
<event>
 5   0  0.5030137E-06  0.1998325E+04  0.7818609E-02  0.8607404E-01
        2   -1    0    0  501    0  0.00000000000E+00  0.00000000000E+00  0.13805573741E+04  0.13805573741E+04  0.25500000920E-02 0.  1.
       -2   -1    0    0    0  501  0.00000000000E+00  0.00000000000E+00 -0.72313219028E+03  0.72313219028E+03  0.25500000920E-02 0. -1.
    10030    2    1    2    0    0  0.00000000000E+00  0.00000000000E+00  0.65742518384E+03  0.21036895644E+04  0.19983247762E+04 0.  0.
        3    1    3    3  502    0 -0.86589703336E+02  0.42876466113E+03  0.12744036174E+04  0.13473832052E+04  0.10100000352E+00 0.  1.
       -3    1    3    3    0  502  0.86589703336E+02 -0.42876466113E+03 -0.61697843355E+03  0.75630635924E+03  0.10100000352E+00 0. -1.
</event>
<event>
 5   0  0.2313821E-06  0.1997558E+04  0.7818609E-02  0.8607763E-01
       -1   -1    0    0    0  501  0.00000000000E+00  0.00000000000E+00  0.10350951099E+04  0.10350951100E+04  0.50400001928E-02 0. -1.
        1   -1    0    0  501    0  0.00000000000E+00  0.00000000000E+00 -0.96373678221E+03  0.96373678222E+03  0.50400001928E-02 0.  1.
    10030    2    1    2    0    0  0.00000000000E+00  0.00000000000E+00  0.71358327735E+02  0.19988318922E+04  0.19975577394E+04 0.  0.
        1    1    3    3  502    0 -0.42812011262E+03 -0.86993819410E+03  0.27558183017E+03  0.10079804748E+04  0.50400001928E-02 0. -1.
       -1    1    3    3    0  502  0.42812011262E+03  0.86993819410E+03 -0.20422350243E+03  0.99085141740E+03  0.50400001928E-02 0.  1.
</event>
<event>
 5   0  0.2386776E-06  0.1999689E+04  0.7818609E-02  0.8606766E-01
        1   -1    0    0  501    0  0.00000000000E+00  0.00000000000E+00  0.80435446894E+03  0.80435446896E+03  0.50400001928E-02 0.  1.
       -1   -1    0    0    0  501  0.00000000000E+00  0.00000000000E+00 -0.12428458242E+04  0.12428458243E+04  0.50400001928E-02 0. -1.
    10030    2    1    2    0    0  0.00000000000E+00  0.00000000000E+00 -0.43849135530E+03  0.20472002932E+04  0.19996885687E+04 0.  0.
        2    1    3    3  502    0 -0.45266887579E+03 -0.36455277558E+03  0.61364470658E+03  0.84520273497E+03  0.25500000920E-02 0.  1.
       -2    1    3    3    0  502  0.45266887579E+03  0.36455277558E+03 -0.10521360619E+04  0.12019975582E+04  0.25500000920E-02 0. -1.
</event>
<event>
 5   0  0.2313821E-06  0.2000305E+04  0.7818609E-02  0.8606478E-01
       -1   -1    0    0    0  501  0.00000000000E+00  0.00000000000E+00  0.48921671229E+03  0.48921671231E+03  0.50400001928E-02 0.  1.
        1   -1    0    0  501    0  0.00000000000E+00  0.00000000000E+00 -0.20447069098E+04  0.20447069098E+04  0.50400001928E-02 0. -1.
    10030    2    1    2    0    0  0.00000000000E+00  0.00000000000E+00 -0.15554901975E+04  0.25339236221E+04  0.20003047688E+04 0.  0.
        1    1    3    3  502    0  0.41907309862E+03  0.84135655386E+03 -0.34481090014E+03  0.10011981171E+04  0.50400001928E-02 0.  1.
       -1    1    3    3    0  502 -0.41907309862E+03 -0.84135655386E+03 -0.12106792973E+04  0.15327255050E+04  0.50400001928E-02 0. -1.
</event>
<event>
 5   0  0.4956214E-06  0.1998608E+04  0.7818609E-02  0.8607272E-01
       -2   -1    0    0    0  501  0.00000000000E+00  0.00000000000E+00  0.12800237619E+04  0.12800237619E+04  0.25500000920E-02 0.  1.
        2   -1    0    0  501    0  0.00000000000E+00  0.00000000000E+00 -0.78014868779E+03  0.78014868779E+03  0.25500000920E-02 0. -1.
    10030    2    1    2    0    0  0.00000000000E+00  0.00000000000E+00  0.49987507409E+03  0.20601724497E+04  0.19986083740E+04 0.  0.
        1    1    3    3  502    0 -0.91973352553E+03 -0.21129905250E+03  0.58877537087E+03  0.11123009867E+04  0.50400001928E-02 0.  1.
       -1    1    3    3    0  502  0.91973352553E+03  0.21129905250E+03 -0.88900296781E+02  0.94787146300E+03  0.50400001928E-02 0. -1.
</event>
<event>
 5   0  0.2313821E-06  0.1999209E+04  0.7818609E-02  0.8606990E-01
       -1   -1    0    0    0  501  0.00000000000E+00  0.00000000000E+00  0.16797421964E+04  0.16797421964E+04  0.50400001928E-02 0. -1.
        1   -1    0    0  501    0  0.00000000000E+00  0.00000000000E+00 -0.59485882352E+03  0.59485882354E+03  0.50400001928E-02 0.  1.
    10030    2    1    2    0    0  0.00000000000E+00  0.00000000000E+00  0.10848833729E+04  0.22746010199E+04  0.19992093105E+04 0.  0.
        1    1    3    3  502    0 -0.67546941939E+03 -0.34315930992E+03 -0.19944848515E+03  0.78345194286E+03  0.50400001928E-02 0.  1.
       -1    1    3    3    0  502  0.67546941939E+03  0.34315930992E+03  0.12843318580E+04  0.14911490771E+04  0.50400001928E-02 0. -1.
</event>
<event>
 5   0  0.2356996E-06  0.2000454E+04  0.7818609E-02  0.8606408E-01
       -1   -1    0    0    0  501  0.00000000000E+00  0.00000000000E+00  0.85014182172E+03  0.85014182173E+03  0.50400001928E-02 0. -1.
        1   -1    0    0  501    0  0.00000000000E+00  0.00000000000E+00 -0.11768089406E+04  0.11768089406E+04  0.50400001928E-02 0.  1.
    10030    2    1    2    0    0  0.00000000000E+00  0.00000000000E+00 -0.32666711889E+03  0.20269507623E+04  0.20004544450E+04 0.  0.
        4    1    3    3  502    0  0.24814036748E+03  0.13404545473E+03  0.80901813897E+03  0.85676939020E+03  0.12699999809E+01 0. -1.
       -4    1    3    3    0  502 -0.24814036748E+03 -0.13404545473E+03 -0.11356852579E+04  0.11701813721E+04  0.12699999809E+01 0.  1.
</event>
<event>
 5   0  0.5129100E-06  0.2000001E+04  0.7818609E-02  0.8606620E-01
        2   -1    0    0  501    0  0.00000000000E+00  0.00000000000E+00  0.14093857035E+04  0.14093857035E+04  0.25500000920E-02 0.  1.
       -2   -1    0    0    0  501  0.00000000000E+00  0.00000000000E+00 -0.70952957757E+03  0.70952957757E+03  0.25500000920E-02 0. -1.
    10030    2    1    2    0    0  0.00000000000E+00  0.00000000000E+00  0.69985612589E+03  0.21189152810E+04  0.20000008428E+04 0.  0.
        2    1    3    3  502    0  0.36265454231E+03  0.49508105228E+02 -0.63601140478E+03  0.73381188090E+03  0.25500000920E-02 0. -1.
       -2    1    3    3    0  502 -0.36265454231E+03 -0.49508105228E+02  0.13358675307E+04  0.13851034001E+04  0.25500000920E-02 0.  1.
</event>
<event>
 5   0  0.5129100E-06  0.1985674E+04  0.7818609E-02  0.8613348E-01
        2   -1    0    0  501    0  0.00000000000E+00  0.00000000000E+00  0.18026518346E+04  0.18026518346E+04  0.25500000920E-02 0.  1.
       -2   -1    0    0    0  501  0.00000000000E+00  0.00000000000E+00 -0.54681975509E+03  0.54681975509E+03  0.25500000920E-02 0. -1.
    10030    2    1    2    0    0  0.00000000000E+00  0.00000000000E+00  0.12558320795E+04  0.23494715897E+04  0.19856743285E+04 0.  0.
        2    1    3    3  502    0 -0.14473823969E+03  0.69794229813E+03  0.14456620672E+04  0.16118347999E+04  0.25500000920E-02 0.  1.
       -2    1    3    3    0  502  0.14473823969E+03 -0.69794229813E+03 -0.18982998764E+03  0.73763678987E+03  0.25500000920E-02 0. -1.
</event>
<event>
 5   0  0.2386776E-06  0.1999337E+04  0.7818609E-02  0.8606931E-01
       -1   -1    0    0    0  501  0.00000000000E+00  0.00000000000E+00  0.88691676285E+03  0.88691676286E+03  0.50400001928E-02 0. -1.
        1   -1    0    0  501    0  0.00000000000E+00  0.00000000000E+00 -0.11267542315E+04  0.11267542315E+04  0.50400001928E-02 0.  1.
    10030    2    1    2    0    0  0.00000000000E+00  0.00000000000E+00 -0.23983746864E+03  0.20136709944E+04  0.19993371057E+04 0.  0.
        2    1    3    3  502    0 -0.36093493424E+03 -0.83653357903E+03  0.29446108005E+03  0.95748095713E+03  0.25500000920E-02 0.  1.
       -2    1    3    3    0  502  0.36093493424E+03  0.83653357903E+03 -0.53429854870E+03  0.10561900372E+04  0.25500000920E-02 0. -1.
</event>
<event>
 5   0  0.4956214E-06  0.1999296E+04  0.7818609E-02  0.8606950E-01
       -2   -1    0    0    0  501  0.00000000000E+00  0.00000000000E+00  0.47044279405E+03  0.47044279405E+03  0.25500000920E-02 0.  1.
        2   -1    0    0  501    0  0.00000000000E+00  0.00000000000E+00 -0.21241609756E+04  0.21241609756E+04  0.25500000920E-02 0. -1.
    10030    2    1    2    0    0  0.00000000000E+00  0.00000000000E+00 -0.16537181816E+04  0.25946037697E+04  0.19992961005E+04 0.  0.
        1    1    3    3  502    0  0.91815394331E+03 -0.34996873766E+01 -0.13398880651E+04  0.16242902876E+04  0.50400001928E-02 0. -1.
       -1    1    3    3    0  502 -0.91815394331E+03  0.34996873766E+01 -0.31383011646E+03  0.97031348205E+03  0.50400001928E-02 0.  1.
</event>
<event>
 5   0  0.2311520E-06  0.2000024E+04  0.7818609E-02  0.8606609E-01
        1   -1    0    0  501    0  0.00000000000E+00  0.00000000000E+00  0.11481819285E+04  0.11481819285E+04  0.50400001928E-02 0.  1.
       -1   -1    0    0    0  501  0.00000000000E+00  0.00000000000E+00 -0.87096339990E+03  0.87096339992E+03  0.50400001928E-02 0. -1.
    10030    2    1    2    0    0  0.00000000000E+00  0.00000000000E+00  0.27721852862E+03  0.20191453284E+04  0.20000244360E+04 0.  0.
        3    1    3    3  502    0 -0.53490636868E+02  0.88765932052E+03 -0.32317394706E+03  0.94617214491E+03  0.10100000352E+00 0. -1.
       -3    1    3    3    0  502  0.53490636868E+02 -0.88765932052E+03  0.60039247569E+03  0.10729731835E+04  0.10100000352E+00 0.  1.
</event>
<event>
 5   0  0.5118981E-06  0.2008903E+04  0.7818609E-02  0.8602469E-01
        2   -1    0    0  501    0  0.00000000000E+00  0.00000000000E+00  0.11152674647E+04  0.11152674647E+04  0.25500000920E-02 0.  1.
       -2   -1    0    0    0  501  0.00000000000E+00  0.00000000000E+00 -0.90464690182E+03  0.90464690183E+03  0.25500000920E-02 0. -1.
    10030    2    1    2    0    0  0.00000000000E+00  0.00000000000E+00  0.21062056284E+03  0.20199143665E+04  0.20089034388E+04 0.  0.
        4    1    3    3  502    0 -0.54249222949E+03  0.74127346845E+03 -0.30328816286E+03  0.96735179574E+03  0.12699999809E+01 0. -1.
       -4    1    3    3    0  502  0.54249222949E+03 -0.74127346845E+03  0.51390872569E+03  0.10525625707E+04  0.12699999809E+01 0.  1.
</event>
<event>
 5   0  0.1777750E-06  0.1997521E+04  0.7818609E-02  0.8607780E-01
        4   -1    0    0  501    0  0.00000000000E+00  0.00000000000E+00  0.80869543858E+03  0.80869643580E+03  0.12699999809E+01 0. -1.
       -4   -1    0    0    0  501  0.00000000000E+00  0.00000000000E+00 -0.12334941412E+04  0.12334947950E+04  0.12699999809E+01 0.  1.
    10030    2    1    2    0    0  0.00000000000E+00  0.00000000000E+00 -0.42479870262E+03  0.20421912308E+04  0.19975212353E+04 0.  0.
        2    1    3    3  502    0  0.45730103460E+03  0.80122657064E+03  0.17882576874E+03  0.93971639834E+03  0.25500000920E-02 0. -1.
       -2    1    3    3    0  502 -0.45730103460E+03 -0.80122657064E+03 -0.60362447136E+03  0.11024748324E+04  0.25500000920E-02 0.  1.
</event>
<event>
 5   0  0.5030137E-06  0.1999721E+04  0.7818609E-02  0.8606751E-01
       -2   -1    0    0    0  501  0.00000000000E+00  0.00000000000E+00  0.92850995773E+03  0.92850995773E+03  0.25500000920E-02 0. -1.
        2   -1    0    0  501    0  0.00000000000E+00  0.00000000000E+00 -0.10766935755E+04  0.10766935755E+04  0.25500000920E-02 0.  1.
    10030    2    1    2    0    0  0.00000000000E+00  0.00000000000E+00 -0.14818361774E+03  0.20052035332E+04  0.19997206868E+04 0.  0.
        3    1    3    3  502    0  0.81483753881E+03 -0.46918160558E+03 -0.41506693523E+03  0.10277996714E+04  0.10100000352E+00 0. -1.
       -3    1    3    3    0  502 -0.81483753881E+03  0.46918160558E+03  0.26688331749E+03  0.97740386178E+03  0.10100000352E+00 0.  1.
</event>
<event>
 5   0  0.2313821E-06  0.1998669E+04  0.7818609E-02  0.8607243E-01
       -1   -1    0    0    0  501  0.00000000000E+00  0.00000000000E+00  0.70017161429E+03  0.70017161431E+03  0.50400001928E-02 0. -1.
        1   -1    0    0  501    0  0.00000000000E+00  0.00000000000E+00 -0.14263213317E+04  0.14263213317E+04  0.50400001928E-02 0.  1.
    10030    2    1    2    0    0  0.00000000000E+00  0.00000000000E+00 -0.72614971743E+03  0.21264929460E+04  0.19986692666E+04 0.  0.
        1    1    3    3  502    0 -0.46178978675E+03  0.76261042748E+03 -0.84344200525E+03  0.12272810955E+04  0.50400001928E-02 0.  1.
       -1    1    3    3    0  502  0.46178978675E+03 -0.76261042748E+03  0.11729228782E+03  0.89921185048E+03  0.50400001928E-02 0. -1.
</event>
<event>
 5   0  0.2386776E-06  0.2000207E+04  0.7818609E-02  0.8606524E-01
       -1   -1    0    0    0  501  0.00000000000E+00  0.00000000000E+00  0.44316697755E+03  0.44316697758E+03  0.50400001928E-02 0. -1.
        1   -1    0    0  501    0  0.00000000000E+00  0.00000000000E+00 -0.22569537662E+04  0.22569537662E+04  0.50400001928E-02 0.  1.
    10030    2    1    2    0    0  0.00000000000E+00  0.00000000000E+00 -0.18137867886E+04  0.27001207437E+04  0.20002073683E+04 0.  0.
        2    1    3    3  502    0 -0.26611691460E+02 -0.83758953147E+03 -0.17005077690E+03  0.85509161619E+03  0.25500000920E-02 0. -1.
       -2    1    3    3    0  502  0.26611691460E+02  0.83758953147E+03 -0.16437360117E+04  0.18450291276E+04  0.25500000920E-02 0.  1.
</event>
<event>
 5   0  0.2386776E-06  0.1999926E+04  0.7818609E-02  0.8606655E-01
       -1   -1    0    0    0  501  0.00000000000E+00  0.00000000000E+00  0.56558764519E+03  0.56558764521E+03  0.50400001928E-02 0. -1.
        1   -1    0    0  501    0  0.00000000000E+00  0.00000000000E+00 -0.17679415976E+04  0.17679415976E+04  0.50400001928E-02 0.  1.
    10030    2    1    2    0    0  0.00000000000E+00  0.00000000000E+00 -0.12023539524E+04  0.23335292428E+04  0.19999259237E+04 0.  0.
        2    1    3    3  502    0  0.89305312221E+03  0.19142514517E+03 -0.10761959827E+04  0.14115187772E+04  0.25500000920E-02 0.  1.
       -2    1    3    3    0  502 -0.89305312221E+03 -0.19142514517E+03 -0.12615796968E+03  0.92201046557E+03  0.25500000920E-02 0. -1.
</event>
<event>
 5   0  0.5129100E-06  0.2000373E+04  0.7818609E-02  0.8606446E-01
        2   -1    0    0  501    0  0.00000000000E+00  0.00000000000E+00  0.11851401582E+04  0.11851401582E+04  0.25500000920E-02 0.  1.
       -2   -1    0    0    0  501  0.00000000000E+00  0.00000000000E+00 -0.84409708997E+03  0.84409708998E+03  0.25500000920E-02 0. -1.
    10030    2    1    2    0    0  0.00000000000E+00  0.00000000000E+00  0.34104306825E+03  0.20292372482E+04  0.20003733239E+04 0.  0.
        2    1    3    3  502    0  0.61958356680E+03 -0.66076174125E+03  0.60076810354E+03  0.10869278675E+04  0.25500000920E-02 0.  1.
       -2    1    3    3    0  502 -0.61958356680E+03  0.66076174125E+03 -0.25972503529E+03  0.94230938068E+03  0.25500000920E-02 0. -1.
</event>
<event>
 5   0  0.5118981E-06  0.1995623E+04  0.7818609E-02  0.8608670E-01
        2   -1    0    0  501    0  0.00000000000E+00  0.00000000000E+00  0.17711703785E+04  0.17711703785E+04  0.25500000920E-02 0. -1.
       -2   -1    0    0    0  501  0.00000000000E+00  0.00000000000E+00 -0.56212974433E+03  0.56212974434E+03  0.25500000920E-02 0.  1.
    10030    2    1    2    0    0  0.00000000000E+00  0.00000000000E+00  0.12090406341E+04  0.23333001228E+04  0.19956227620E+04 0.  0.
        4    1    3    3  502    0 -0.23964826178E+03  0.80352386124E+03  0.12369143930E+04  0.14943362116E+04  0.12699999809E+01 0. -1.
       -4    1    3    3    0  502  0.23964826178E+03 -0.80352386124E+03 -0.27873758822E+02  0.83896391119E+03  0.12699999809E+01 0.  1.
</event>
<event>
 5   0  0.5251252E-06  0.1999778E+04  0.7818609E-02  0.8606724E-01
        2   -1    0    0  501    0  0.00000000000E+00  0.00000000000E+00  0.13527431624E+04  0.13527431624E+04  0.25500000920E-02 0. -1.
       -2   -1    0    0    0  501  0.00000000000E+00  0.00000000000E+00 -0.73907465931E+03  0.73907465931E+03  0.25500000920E-02 0.  1.
    10030    2    1    2    0    0  0.00000000000E+00  0.00000000000E+00  0.61366850306E+03  0.20918178217E+04  0.19997781796E+04 0.  0.
        5    1    3    3  502    0 -0.37200454298E+02  0.80742970026E+03 -0.30883784571E+03  0.86529156913E+03  0.46999998093E+01 0.  1.
       -5    1    3    3    0  502  0.37200454298E+02 -0.80742970026E+03  0.92250634877E+03  0.12265262525E+04  0.46999998093E+01 0. -1.
</event>
<event>
 5   0  0.2313821E-06  0.1999587E+04  0.7818609E-02  0.8606814E-01
        1   -1    0    0  501    0  0.00000000000E+00  0.00000000000E+00  0.10480243690E+04  0.10480243690E+04  0.50400001928E-02 0.  1.
       -1   -1    0    0    0  501  0.00000000000E+00  0.00000000000E+00 -0.95378192268E+03  0.95378192269E+03  0.50400001928E-02 0. -1.
    10030    2    1    2    0    0  0.00000000000E+00  0.00000000000E+00  0.94242446323E+02  0.20018062917E+04  0.19995866550E+04 0.  0.
        1    1    3    3  502    0 -0.59874120403E+03 -0.55785552309E+03  0.62212181781E+03  0.10279734288E+04  0.50400001928E-02 0.  1.
       -1    1    3    3    0  502  0.59874120403E+03  0.55785552309E+03 -0.52787937148E+03  0.97383286292E+03  0.50400001928E-02 0. -1.
</event>
<event>
 5   0  0.2356996E-06  0.2001246E+04  0.7818609E-02  0.8606039E-01
        1   -1    0    0  501    0  0.00000000000E+00  0.00000000000E+00  0.10423648127E+04  0.10423648127E+04  0.50400001928E-02 0. -1.
       -1   -1    0    0    0  501  0.00000000000E+00  0.00000000000E+00 -0.96055235892E+03  0.96055235893E+03  0.50400001928E-02 0.  1.
    10030    2    1    2    0    0  0.00000000000E+00  0.00000000000E+00  0.81812453774E+02  0.20029171716E+04  0.20012455918E+04 0.  0.
        4    1    3    3  502    0 -0.39454334879E+03 -0.64489882167E+03  0.69695769495E+03  0.10282560896E+04  0.12699999809E+01 0. -1.
       -4    1    3    3    0  502  0.39454334879E+03  0.64489882167E+03 -0.61514524118E+03  0.97466108207E+03  0.12699999809E+01 0.  1.
</event>
<event>
 5   0  0.5129100E-06  0.1999634E+04  0.7818609E-02  0.8606792E-01
        2   -1    0    0  501    0  0.00000000000E+00  0.00000000000E+00  0.10238605236E+04  0.10238605236E+04  0.25500000920E-02 0. -1.
       -2   -1    0    0    0  501  0.00000000000E+00  0.00000000000E+00 -0.97633848788E+03  0.97633848789E+03  0.25500000920E-02 0.  1.
    10030    2    1    2    0    0  0.00000000000E+00  0.00000000000E+00  0.47522035674E+02  0.20001990114E+04  0.19996344020E+04 0.  0.
        2    1    3    3  502    0  0.59258817763E+03  0.66876244309E+03  0.47247488576E+03  0.10107603431E+04  0.25500000920E-02 0. -1.
       -2    1    3    3    0  502 -0.59258817763E+03 -0.66876244309E+03 -0.42495285008E+03  0.98943866832E+03  0.25500000920E-02 0.  1.
</event>
<event>
 5   0  0.4956214E-06  0.1999217E+04  0.7818609E-02  0.8606987E-01
       -2   -1    0    0    0  501  0.00000000000E+00  0.00000000000E+00  0.33270120497E+03  0.33270120498E+03  0.25500000920E-02 0. -1.
        2   -1    0    0  501    0  0.00000000000E+00  0.00000000000E+00 -0.30033469678E+04  0.30033469678E+04  0.25500000920E-02 0.  1.
    10030    2    1    2    0    0  0.00000000000E+00  0.00000000000E+00 -0.26706457628E+04  0.33360481727E+04  0.19992170019E+04 0.  0.
        1    1    3    3  502    0  0.46588535246E+03 -0.69842484965E+03 -0.42996625640E+03  0.94324833099E+03  0.50400001928E-02 0. -1.
       -1    1    3    3    0  502 -0.46588535246E+03  0.69842484965E+03 -0.22406795064E+04  0.23927998418E+04  0.50400001928E-02 0.  1.
</event>
<event>
 5   0  0.4956214E-06  0.2002656E+04  0.7818609E-02  0.8605380E-01
        2   -1    0    0  501    0  0.00000000000E+00  0.00000000000E+00  0.16575511899E+04  0.16575511899E+04  0.25500000920E-02 0. -1.
       -2   -1    0    0    0  501  0.00000000000E+00  0.00000000000E+00 -0.60490324508E+03  0.60490324508E+03  0.25500000920E-02 0.  1.
    10030    2    1    2    0    0  0.00000000000E+00  0.00000000000E+00  0.10526479449E+04  0.22624544350E+04  0.20026563297E+04 0.  0.
        1    1    3    3  502    0  0.81204845388E+03 -0.38955610527E+03  0.10206765008E+04  0.13612336941E+04  0.50400001928E-02 0. -1.
       -1    1    3    3    0  502 -0.81204845388E+03  0.38955610527E+03  0.31971444044E+02  0.90122074092E+03  0.50400001928E-02 0.  1.
</event>
<event>
 5   0  0.2386776E-06  0.2000125E+04  0.7818609E-02  0.8606562E-01
       -1   -1    0    0    0  501  0.00000000000E+00  0.00000000000E+00  0.67206208620E+03  0.67206208622E+03  0.50400001928E-02 0. -1.
        1   -1    0    0  501    0  0.00000000000E+00  0.00000000000E+00 -0.14881438711E+04  0.14881438711E+04  0.50400001928E-02 0.  1.
    10030    2    1    2    0    0  0.00000000000E+00  0.00000000000E+00 -0.81608178494E+03  0.21602059574E+04  0.20001250707E+04 0.  0.
        2    1    3    3  502    0 -0.26246142136E+03  0.87009484392E+03  0.42702862163E+02  0.90982117450E+03  0.25500000920E-02 0. -1.
       -2    1    3    3    0  502  0.26246142136E+03 -0.87009484392E+03 -0.85878464710E+03  0.12503847829E+04  0.25500000920E-02 0.  1.
</event>
<event>
 5   0  0.5251252E-06  0.1998193E+04  0.7818609E-02  0.8607466E-01
       -2   -1    0    0    0  501  0.00000000000E+00  0.00000000000E+00  0.10067836521E+04  0.10067836521E+04  0.25500000920E-02 0.  1.
        2   -1    0    0  501    0  0.00000000000E+00  0.00000000000E+00 -0.99146772812E+03  0.99146772813E+03  0.25500000920E-02 0. -1.
    10030    2    1    2    0    0  0.00000000000E+00  0.00000000000E+00  0.15315924012E+02  0.19982513803E+04  0.19981926837E+04 0.  0.
        5    1    3    3  502    0  0.76288223993E+03  0.55189223264E+03 -0.32641331517E+03  0.99656514628E+03  0.46999998093E+01 0. -1.
       -5    1    3    3    0  502 -0.76288223993E+03 -0.55189223264E+03  0.34172923918E+03  0.10016862340E+04  0.46999998093E+01 0.  1.
</event>
<event>
 5   0  0.2356996E-06  0.1988619E+04  0.7818609E-02  0.8611960E-01
        1   -1    0    0  501    0  0.00000000000E+00  0.00000000000E+00  0.26102123375E+04  0.26102123375E+04  0.50400001928E-02 0. -1.
       -1   -1    0    0    0  501  0.00000000000E+00  0.00000000000E+00 -0.37876297813E+03  0.37876297817E+03  0.50400001928E-02 0.  1.
    10030    2    1    2    0    0  0.00000000000E+00  0.00000000000E+00  0.22314493593E+04  0.29889753156E+04  0.19886194191E+04 0.  0.
        4    1    3    3  502    0 -0.24067347009E+02 -0.72230447318E+03  0.21421452275E+04  0.22607721640E+04  0.12699999809E+01 0. -1.
       -4    1    3    3    0  502  0.24067347009E+02  0.72230447318E+03  0.89304131876E+02  0.72820315162E+03  0.12699999809E+01 0.  1.
</event>
<event>
 5   0  0.2313821E-06  0.1999509E+04  0.7818609E-02  0.8606850E-01
        1   -1    0    0  501    0  0.00000000000E+00  0.00000000000E+00  0.17101964824E+04  0.17101964824E+04  0.50400001928E-02 0.  1.
       -1   -1    0    0    0  501  0.00000000000E+00  0.00000000000E+00 -0.58444095359E+03  0.58444095362E+03  0.50400001928E-02 0. -1.
    10030    2    1    2    0    0  0.00000000000E+00  0.00000000000E+00  0.11257555288E+04  0.22946374360E+04  0.19995088027E+04 0.  0.
        1    1    3    3  502    0  0.58742552185E+03  0.10749206498E+03 -0.35727004154E+03  0.69589163694E+03  0.50400001928E-02 0. -1.
       -1    1    3    3    0  502 -0.58742552185E+03 -0.10749206498E+03  0.14830255703E+04  0.15987457990E+04  0.50400001928E-02 0.  1.
</event>
<event>
 5   0  0.2313821E-06  0.1995307E+04  0.7818609E-02  0.8608818E-01
       -1   -1    0    0    0  501  0.00000000000E+00  0.00000000000E+00  0.90365972915E+03  0.90365972916E+03  0.50400001928E-02 0.  1.
        1   -1    0    0  501    0  0.00000000000E+00  0.00000000000E+00 -0.11014241251E+04  0.11014241251E+04  0.50400001928E-02 0. -1.
    10030    2    1    2    0    0  0.00000000000E+00  0.00000000000E+00 -0.19776439594E+03  0.20050838543E+04  0.19953071208E+04 0.  0.
        1    1    3    3  502    0 -0.46070456135E+03  0.73296940018E+03  0.39934933555E+03  0.95340061164E+03  0.50400001928E-02 0.  1.
       -1    1    3    3    0  502  0.46070456135E+03 -0.73296940018E+03 -0.59711373150E+03  0.10516832426E+04  0.50400001928E-02 0. -1.
</event>
<event>
 5   0  0.2386776E-06  0.2001014E+04  0.7818609E-02  0.8606147E-01
       -1   -1    0    0    0  501  0.00000000000E+00  0.00000000000E+00  0.52117275298E+03  0.52117275300E+03  0.50400001928E-02 0. -1.
        1   -1    0    0  501    0  0.00000000000E+00  0.00000000000E+00 -0.19206951395E+04  0.19206951395E+04  0.50400001928E-02 0.  1.
    10030    2    1    2    0    0  0.00000000000E+00  0.00000000000E+00 -0.13995223865E+04  0.24418678925E+04  0.20010137166E+04 0.  0.
        2    1    3    3  502    0 -0.39548898831E+03 -0.56123962507E+03 -0.15878394132E+04  0.17299235413E+04  0.25500000920E-02 0.  1.
       -2    1    3    3    0  502  0.39548898831E+03  0.56123962507E+03  0.18831702671E+03  0.71194435118E+03  0.25500000920E-02 0. -1.
</event>
<event>
 5   0  0.2311520E-06  0.2002609E+04  0.7818609E-02  0.8605402E-01
       -1   -1    0    0    0  501  0.00000000000E+00  0.00000000000E+00  0.58507910785E+03  0.58507910787E+03  0.50400001928E-02 0. -1.
        1   -1    0    0  501    0  0.00000000000E+00  0.00000000000E+00 -0.17136322075E+04  0.17136322075E+04  0.50400001928E-02 0.  1.
    10030    2    1    2    0    0  0.00000000000E+00  0.00000000000E+00 -0.11285530997E+04  0.22987113154E+04  0.20026087018E+04 0.  0.
        3    1    3    3  502    0 -0.72419089246E+03 -0.65897961320E+03 -0.80479004959E+03  0.12674358419E+04  0.10100000352E+00 0.  1.
       -3    1    3    3    0  502  0.72419089246E+03  0.65897961320E+03 -0.32376305007E+03  0.10312754734E+04  0.10100000352E+00 0. -1.
</event>
<event>
 5   0  0.5030137E-06  0.2002112E+04  0.7818609E-02  0.8605634E-01
       -2   -1    0    0    0  501  0.00000000000E+00  0.00000000000E+00  0.11408358925E+04  0.11408358925E+04  0.25500000920E-02 0.  1.
        2   -1    0    0  501    0  0.00000000000E+00  0.00000000000E+00 -0.87840228375E+03  0.87840228375E+03  0.25500000920E-02 0. -1.
    10030    2    1    2    0    0  0.00000000000E+00  0.00000000000E+00  0.26243360880E+03  0.20192381763E+04  0.20021117385E+04 0.  0.
        3    1    3    3  502    0 -0.61482525446E+03  0.43799630605E+03 -0.53187362343E+03  0.92343945071E+03  0.10100000352E+00 0. -1.
       -3    1    3    3    0  502  0.61482525446E+03 -0.43799630605E+03  0.79430723223E+03  0.10957987256E+04  0.10100000352E+00 0.  1.
</event>
<event>
 5   0  0.2311520E-06  0.2000207E+04  0.7818609E-02  0.8606524E-01
       -1   -1    0    0    0  501  0.00000000000E+00  0.00000000000E+00  0.66986388856E+03  0.66986388858E+03  0.50400001928E-02 0. -1.
        1   -1    0    0  501    0  0.00000000000E+00  0.00000000000E+00 -0.14931492674E+04  0.14931492674E+04  0.50400001928E-02 0.  1.
    10030    2    1    2    0    0  0.00000000000E+00  0.00000000000E+00 -0.82328537881E+03  0.21630131560E+04  0.20002067638E+04 0.  0.
        3    1    3    3  502    0 -0.81801699034E+03 -0.45407544008E+03 -0.79377532489E+03  0.12269537800E+04  0.10100000352E+00 0.  1.
       -3    1    3    3    0  502  0.81801699034E+03  0.45407544008E+03 -0.29510053920E+02  0.93605937592E+03  0.10100000352E+00 0. -1.
</event>
<event>
 5   0  0.5118981E-06  0.1998502E+04  0.7818609E-02  0.8607321E-01
       -2   -1    0    0    0  501  0.00000000000E+00  0.00000000000E+00  0.62544400149E+03  0.62544400150E+03  0.25500000920E-02 0.  1.
        2   -1    0    0  501    0  0.00000000000E+00  0.00000000000E+00 -0.15964703709E+04  0.15964703709E+04  0.25500000920E-02 0. -1.
    10030    2    1    2    0    0  0.00000000000E+00  0.00000000000E+00 -0.97102636939E+03  0.22219143724E+04  0.19985022562E+04 0.  0.
        4    1    3    3  502    0  0.75354385793E+03  0.64002191106E+03 -0.32422773214E+03  0.10404718293E+04  0.12699999809E+01 0. -1.
       -4    1    3    3    0  502 -0.75354385793E+03 -0.64002191106E+03 -0.64679863725E+03  0.11814425430E+04  0.12699999809E+01 0.  1.
</event>
<event>
 5   0  0.5030137E-06  0.1999998E+04  0.7818609E-02  0.8606622E-01
        2   -1    0    0  501    0  0.00000000000E+00  0.00000000000E+00  0.78051277240E+03  0.78051277241E+03  0.25500000920E-02 0. -1.
       -2   -1    0    0    0  501  0.00000000000E+00  0.00000000000E+00 -0.12812060510E+04  0.12812060510E+04  0.25500000920E-02 0.  1.
    10030    2    1    2    0    0  0.00000000000E+00  0.00000000000E+00 -0.50069327863E+03  0.20617188234E+04  0.19999976869E+04 0.  0.
        3    1    3    3  502    0 -0.97186304357E+02  0.30843356842E+03  0.72512273047E+03  0.79396437472E+03  0.10100000352E+00 0. -1.
       -3    1    3    3    0  502  0.97186304357E+02 -0.30843356842E+03 -0.12258160091E+04  0.12677544487E+04  0.10100000352E+00 0.  1.
</event>
<event>
 5   0  0.5129100E-06  0.2010034E+04  0.7818609E-02  0.8601944E-01
       -2   -1    0    0    0  501  0.00000000000E+00  0.00000000000E+00  0.13745242075E+04  0.13745242075E+04  0.25500000920E-02 0. -1.
        2   -1    0    0  501    0  0.00000000000E+00  0.00000000000E+00 -0.73484312004E+03  0.73484312004E+03  0.25500000920E-02 0.  1.
    10030    2    1    2    0    0  0.00000000000E+00  0.00000000000E+00  0.63968108749E+03  0.21093673276E+04  0.20100344845E+04 0.  0.
        2    1    3    3  502    0 -0.22749991682E+03  0.11742169969E+03  0.13397303987E+04  0.13639727302E+04  0.25500000920E-02 0. -1.
       -2    1    3    3    0  502  0.22749991682E+03 -0.11742169969E+03 -0.70004931116E+03  0.74539459736E+03  0.25500000920E-02 0.  1.
</event>
<event>
 5   0  0.2379743E-06  0.2000284E+04  0.7818609E-02  0.8606488E-01
       -1   -1    0    0    0  501  0.00000000000E+00  0.00000000000E+00  0.69241961821E+03  0.69241961823E+03  0.50400001928E-02 0. -1.
        1   -1    0    0  501    0  0.00000000000E+00  0.00000000000E+00 -0.14446216985E+04  0.14446216985E+04  0.50400001928E-02 0.  1.
    10030    2    1    2    0    0  0.00000000000E+00  0.00000000000E+00 -0.75220208032E+03  0.21370413168E+04  0.20002843848E+04 0.  0.
        5    1    3    3  502    0  0.70869332340E+03  0.46332020307E+03  0.19259885571E+03  0.86834799846E+03  0.46999998093E+01 0. -1.
       -5    1    3    3    0  502 -0.70869332340E+03 -0.46332020307E+03 -0.94480093603E+03  0.12686933183E+04  0.46999998093E+01 0.  1.
</event>
<event>
 5   0  0.2313821E-06  0.2002790E+04  0.7818609E-02  0.8605318E-01
        1   -1    0    0  501    0  0.00000000000E+00  0.00000000000E+00  0.93543460751E+03  0.93543460753E+03  0.50400001928E-02 0. -1.
       -1   -1    0    0    0  501  0.00000000000E+00  0.00000000000E+00 -0.10720059815E+04  0.10720059815E+04  0.50400001928E-02 0.  1.
    10030    2    1    2    0    0  0.00000000000E+00  0.00000000000E+00 -0.13657137401E+03  0.20074405891E+04  0.20027895492E+04 0.  0.
        1    1    3    3  502    0 -0.41096674824E+03 -0.41783020457E+03  0.74558256704E+03  0.94835073275E+03  0.50400001928E-02 0. -1.
       -1    1    3    3    0  502  0.41096674824E+03  0.41783020457E+03 -0.88215394106E+03  0.10590898563E+04  0.50400001928E-02 0.  1.
</event>
<event>
 5   0  0.4956214E-06  0.2000111E+04  0.7818609E-02  0.8606569E-01
       -2   -1    0    0    0  501  0.00000000000E+00  0.00000000000E+00  0.76080073440E+03  0.76080073440E+03  0.25500000920E-02 0. -1.
        2   -1    0    0  501    0  0.00000000000E+00  0.00000000000E+00 -0.13145506820E+04  0.13145506820E+04  0.25500000920E-02 0.  1.
    10030    2    1    2    0    0  0.00000000000E+00  0.00000000000E+00 -0.55374994765E+03  0.20753514165E+04  0.20001111212E+04 0.  0.
        1    1    3    3  502    0  0.72122929512E+03 -0.50380940213E+03 -0.77027901467E+03  0.11693268877E+04  0.50400001928E-02 0.  1.
       -1    1    3    3    0  502 -0.72122929512E+03  0.50380940213E+03  0.21652906702E+03  0.90602452876E+03  0.50400001928E-02 0. -1.
</event>
<event>
 5   0  0.5118981E-06  0.1998754E+04  0.7818609E-02  0.8607203E-01
       -2   -1    0    0    0  501  0.00000000000E+00  0.00000000000E+00  0.90451110377E+03  0.90451110377E+03  0.25500000920E-02 0.  1.
        2   -1    0    0  501    0  0.00000000000E+00  0.00000000000E+00 -0.11041929398E+04  0.11041929398E+04  0.25500000920E-02 0. -1.
    10030    2    1    2    0    0  0.00000000000E+00  0.00000000000E+00 -0.19968183602E+03  0.20087040436E+04  0.19987543869E+04 0.  0.
        4    1    3    3  502    0  0.98512752957E+03 -0.12156744882E+03 -0.21660130947E+03  0.10159589727E+04  0.12699999809E+01 0. -1.
       -4    1    3    3    0  502 -0.98512752957E+03  0.12156744882E+03  0.16919473453E+02  0.99274507081E+03  0.12699999809E+01 0.  1.
</event>
<event>
 5   0  0.1777750E-06  0.2000005E+04  0.7818609E-02  0.8606618E-01
       -4   -1    0    0    0  501  0.00000000000E+00  0.00000000000E+00  0.95989155875E+03  0.95989239890E+03  0.12699999809E+01 0. -1.
        4   -1    0    0  501    0  0.00000000000E+00  0.00000000000E+00 -0.10417877895E+04  0.10417885636E+04  0.12699999809E+01 0.  1.
    10030    2    1    2    0    0  0.00000000000E+00  0.00000000000E+00 -0.81896230716E+02  0.20016809625E+04  0.20000049207E+04 0.  0.
        3    1    3    3  502    0  0.61213984950E+03 -0.26687956680E+03  0.70403110241E+03  0.97036060405E+03  0.10100000352E+00 0. -1.
       -3    1    3    3    0  502 -0.61213984950E+03  0.26687956680E+03 -0.78592733313E+03  0.10313203584E+04  0.10100000352E+00 0.  1.
</event>
<event>
 5   0  0.5030137E-06  0.2001030E+04  0.7818609E-02  0.8606139E-01
       -2   -1    0    0    0  501  0.00000000000E+00  0.00000000000E+00  0.12494888597E+04  0.12494888597E+04  0.25500000920E-02 0. -1.
        2   -1    0    0  501    0  0.00000000000E+00  0.00000000000E+00 -0.80115143318E+03  0.80115143318E+03  0.25500000920E-02 0.  1.
    10030    2    1    2    0    0  0.00000000000E+00  0.00000000000E+00  0.44833742652E+03  0.20506402929E+04  0.20010295257E+04 0.  0.
        3    1    3    3  502    0 -0.33256606826E+03  0.90450003329E+03 -0.51401967991E+02  0.96507133026E+03  0.10100000352E+00 0.  1.
       -3    1    3    3    0  502  0.33256606826E+03 -0.90450003329E+03  0.49973939451E+03  0.10855689626E+04  0.10100000352E+00 0. -1.
</event>
<event>
 5   0  0.5118981E-06  0.2000078E+04  0.7818609E-02  0.8606584E-01
       -2   -1    0    0    0  501  0.00000000000E+00  0.00000000000E+00  0.95983591538E+03  0.95983591538E+03  0.25500000920E-02 0.  1.
        2   -1    0    0  501    0  0.00000000000E+00  0.00000000000E+00 -0.10419262617E+04  0.10419262617E+04  0.25500000920E-02 0. -1.
    10030    2    1    2    0    0  0.00000000000E+00  0.00000000000E+00 -0.82090346352E+02  0.20017621771E+04  0.20000782457E+04 0.  0.
        4    1    3    3  502    0  0.37937116196E+03  0.70370080636E+03 -0.64234991601E+03  0.10255400192E+04  0.12699999809E+01 0. -1.
       -4    1    3    3    0  502 -0.37937116196E+03 -0.70370080636E+03  0.56025956965E+03  0.97622215796E+03  0.12699999809E+01 0.  1.
</event>
<event>
 5   0  0.2379743E-06  0.1999733E+04  0.7818609E-02  0.8606745E-01
        1   -1    0    0  501    0  0.00000000000E+00  0.00000000000E+00  0.20636545273E+04  0.20636545273E+04  0.50400001928E-02 0. -1.
       -1   -1    0    0    0  501  0.00000000000E+00  0.00000000000E+00 -0.48444787511E+03  0.48444787514E+03  0.50400001928E-02 0.  1.
    10030    2    1    2    0    0  0.00000000000E+00  0.00000000000E+00  0.15792066522E+04  0.25481024024E+04  0.19997330329E+04 0.  0.
        5    1    3    3  502    0 -0.33654856175E+03 -0.88580700615E+03  0.11961417746E+04  0.15260066256E+04  0.46999998093E+01 0. -1.
       -5    1    3    3    0  502  0.33654856175E+03  0.88580700615E+03  0.38306487761E+03  0.10220957768E+04  0.46999998093E+01 0.  1.
</event>
<event>
 5   0  0.2386776E-06  0.2000863E+04  0.7818609E-02  0.8606217E-01
       -1   -1    0    0    0  501  0.00000000000E+00  0.00000000000E+00  0.55566168667E+03  0.55566168669E+03  0.50400001928E-02 0. -1.
        1   -1    0    0  501    0  0.00000000000E+00  0.00000000000E+00 -0.18012102196E+04  0.18012102196E+04  0.50400001928E-02 0.  1.
    10030    2    1    2    0    0  0.00000000000E+00  0.00000000000E+00 -0.12455485329E+04  0.23568719063E+04  0.20008633224E+04 0.  0.
        2    1    3    3  502    0 -0.50391595196E+03 -0.72896946001E+03 -0.11696368531E+04  0.14674393100E+04  0.25500000920E-02 0.  1.
       -2    1    3    3    0  502  0.50391595196E+03  0.72896946001E+03 -0.75911679829E+02  0.88943259633E+03  0.25500000920E-02 0. -1.
</event>
<event>
 5   0  0.5118981E-06  0.2000240E+04  0.7818609E-02  0.8606508E-01
        2   -1    0    0  501    0  0.00000000000E+00  0.00000000000E+00  0.15093949752E+04  0.15093949752E+04  0.25500000920E-02 0.  1.
       -2   -1    0    0    0  501  0.00000000000E+00  0.00000000000E+00 -0.66267638544E+03  0.66267638544E+03  0.25500000920E-02 0. -1.
    10030    2    1    2    0    0  0.00000000000E+00  0.00000000000E+00  0.84671858978E+03  0.21720713607E+04  0.20002403919E+04 0.  0.
        4    1    3    3  502    0  0.84157106484E+03  0.39614409546E+03  0.24273574398E+02  0.93046376655E+03  0.12699999809E+01 0. -1.
       -4    1    3    3    0  502 -0.84157106484E+03 -0.39614409546E+03  0.82244501538E+03  0.12416075941E+04  0.12699999809E+01 0.  1.
</event>
<event>
 5   0  0.5030137E-06  0.1995671E+04  0.7818609E-02  0.8608647E-01
        2   -1    0    0  501    0  0.00000000000E+00  0.00000000000E+00  0.49850530755E+03  0.49850530756E+03  0.25500000920E-02 0. -1.
       -2   -1    0    0    0  501  0.00000000000E+00  0.00000000000E+00 -0.19973229069E+04  0.19973229069E+04  0.25500000920E-02 0.  1.
    10030    2    1    2    0    0  0.00000000000E+00  0.00000000000E+00 -0.14988175993E+04  0.24958282144E+04  0.19956713858E+04 0.  0.
        3    1    3    3  502    0  0.23779195969E+03 -0.67106956383E+03  0.12495020122E+03  0.72283603851E+03  0.10100000352E+00 0. -1.
       -3    1    3    3    0  502 -0.23779195969E+03  0.67106956383E+03 -0.16237678005E+04  0.17729921759E+04  0.10100000352E+00 0.  1.
</event>
<event>
 5   0  0.1777750E-06  0.1998742E+04  0.7818609E-02  0.8607209E-01
       -3   -1    0    0    0  501  0.00000000000E+00  0.00000000000E+00  0.60970154072E+03  0.60970154909E+03  0.10100000352E+00 0. -1.
        3   -1    0    0  501    0  0.00000000000E+00  0.00000000000E+00 -0.16380836726E+04  0.16380836757E+04  0.10100000352E+00 0.  1.
    10030    2    1    2    0    0  0.00000000000E+00  0.00000000000E+00 -0.10283821319E+04  0.22477852248E+04  0.19987417561E+04 0.  0.
        3    1    3    3  502    0 -0.41498137651E+03  0.43479506891E+03 -0.14121022899E+04  0.15346951431E+04  0.10100000352E+00 0.  1.
       -3    1    3    3    0  502  0.41498137651E+03 -0.43479506891E+03  0.38372015802E+03  0.71309008174E+03  0.10100000352E+00 0. -1.
</event>
<event>
 5   0  0.5129100E-06  0.2000260E+04  0.7818609E-02  0.8606499E-01
       -2   -1    0    0    0  501  0.00000000000E+00  0.00000000000E+00  0.53301972102E+03  0.53301972103E+03  0.25500000920E-02 0. -1.
        2   -1    0    0  501    0  0.00000000000E+00  0.00000000000E+00 -0.18765916016E+04  0.18765916016E+04  0.25500000920E-02 0.  1.
    10030    2    1    2    0    0  0.00000000000E+00  0.00000000000E+00 -0.13435718806E+04  0.24096113227E+04  0.20002603150E+04 0.  0.
        2    1    3    3  502    0 -0.12606681363E+03  0.16934362450E+02 -0.18668077673E+04  0.18711362468E+04  0.25500000920E-02 0.  1.
       -2    1    3    3    0  502  0.12606681363E+03 -0.16934362450E+02  0.52323588671E+03  0.53847507582E+03  0.25500000920E-02 0. -1.
</event>
<event>
 5   0  0.5118981E-06  0.1998388E+04  0.7818609E-02  0.8607375E-01
        2   -1    0    0  501    0  0.00000000000E+00  0.00000000000E+00  0.22960984171E+04  0.22960984171E+04  0.25500000920E-02 0. -1.
       -2   -1    0    0    0  501  0.00000000000E+00  0.00000000000E+00 -0.43481946593E+03  0.43481946593E+03  0.25500000920E-02 0.  1.
    10030    2    1    2    0    0  0.00000000000E+00  0.00000000000E+00  0.18612789511E+04  0.27309178830E+04  0.19983876375E+04 0.  0.
        4    1    3    3  502    0 -0.73844466490E+03 -0.16233627281E+03  0.18233426213E+04  0.19738879188E+04  0.12699999809E+01 0. -1.
       -4    1    3    3    0  502  0.73844466490E+03  0.16233627281E+03  0.37936329814E+02  0.75702996414E+03  0.12699999809E+01 0.  1.
</event>
<event>
 5   0  0.2313821E-06  0.2000336E+04  0.7818609E-02  0.8606463E-01
       -1   -1    0    0    0  501  0.00000000000E+00  0.00000000000E+00  0.81466996715E+03  0.81466996716E+03  0.50400001928E-02 0.  1.
        1   -1    0    0  501    0  0.00000000000E+00  0.00000000000E+00 -0.12279037150E+04  0.12279037150E+04  0.50400001928E-02 0. -1.
    10030    2    1    2    0    0  0.00000000000E+00  0.00000000000E+00 -0.41323374780E+03  0.20425736821E+04  0.20003362509E+04 0.  0.
        1    1    3    3  502    0  0.15858322948E+03  0.91973880855E+03  0.16051366700E+03  0.94701254160E+03  0.50400001928E-02 0.  1.
       -1    1    3    3    0  502 -0.15858322948E+03 -0.91973880855E+03 -0.57374741481E+03  0.10955611405E+04  0.50400001928E-02 0. -1.
</event>
<event>
 5   0  0.5129100E-06  0.2000500E+04  0.7818609E-02  0.8606387E-01
        2   -1    0    0  501    0  0.00000000000E+00  0.00000000000E+00  0.57806936829E+03  0.57806936829E+03  0.25500000920E-02 0.  1.
       -2   -1    0    0    0  501  0.00000000000E+00  0.00000000000E+00 -0.17307605529E+04  0.17307605529E+04  0.25500000920E-02 0. -1.
    10030    2    1    2    0    0  0.00000000000E+00  0.00000000000E+00 -0.11526911846E+04  0.23088299212E+04  0.20004995971E+04 0.  0.
        2    1    3    3  502    0 -0.42919050673E+02  0.56612031354E+03 -0.15267781164E+04  0.16289216283E+04  0.25500000920E-02 0. -1.
       -2    1    3    3    0  502  0.42919050673E+02 -0.56612031354E+03  0.37408693175E+03  0.67990829296E+03  0.25500000920E-02 0.  1.
</event>
<event>
 5   0  0.2379743E-06  0.1999525E+04  0.7818609E-02  0.8606843E-01
       -1   -1    0    0    0  501  0.00000000000E+00  0.00000000000E+00  0.65251941049E+03  0.65251941051E+03  0.50400001928E-02 0.  1.
        1   -1    0    0  501    0  0.00000000000E+00  0.00000000000E+00 -0.15317930303E+04  0.15317930303E+04  0.50400001928E-02 0. -1.
    10030    2    1    2    0    0  0.00000000000E+00  0.00000000000E+00 -0.87927361980E+03  0.21843124408E+04  0.19995246286E+04 0.  0.
        5    1    3    3  502    0 -0.82237462876E+03 -0.35734335380E+03 -0.92266290411E+03  0.12865936527E+04  0.46999998093E+01 0. -1.
       -5    1    3    3    0  502  0.82237462876E+03  0.35734335380E+03  0.43389284315E+02  0.89771878811E+03  0.46999998093E+01 0.  1.
</event>
<event>
 5   0  0.2311520E-06  0.2000770E+04  0.7818609E-02  0.8606261E-01
       -1   -1    0    0    0  501  0.00000000000E+00  0.00000000000E+00  0.11344745017E+04  0.11344745017E+04  0.50400001928E-02 0. -1.
        1   -1    0    0  501    0  0.00000000000E+00  0.00000000000E+00 -0.88214437560E+03  0.88214437561E+03  0.50400001928E-02 0.  1.
    10030    2    1    2    0    0  0.00000000000E+00  0.00000000000E+00  0.25233012614E+03  0.20166188774E+04  0.20007701527E+04 0.  0.
        3    1    3    3  502    0 -0.59707341352E+02  0.35861293829E+03  0.10655358755E+04  0.11258485326E+04  0.10100000352E+00 0. -1.
       -3    1    3    3    0  502  0.59707341352E+02 -0.35861293829E+03 -0.81320574937E+03  0.89077034477E+03  0.10100000352E+00 0.  1.
</event>
<event>
 5   0  0.1777750E-06  0.1999879E+04  0.7818609E-02  0.8606677E-01
       -4   -1    0    0    0  501  0.00000000000E+00  0.00000000000E+00  0.62952407728E+03  0.62952535833E+03  0.12699999809E+01 0.  1.
        4   -1    0    0  501    0  0.00000000000E+00  0.00000000000E+00 -0.15883062336E+04  0.15883067414E+04  0.12699999809E+01 0. -1.
    10030    2    1    2    0    0  0.00000000000E+00  0.00000000000E+00 -0.95878215634E+03  0.22178320997E+04  0.19998789961E+04 0.  0.
        2    1    3    3  502    0 -0.66978461579E+03  0.33055283636E+03  0.25789707361E+03  0.79018194725E+03  0.25500000920E-02 0.  1.
       -2    1    3    3    0  502  0.66978461579E+03 -0.33055283636E+03 -0.12166792299E+04  0.14276501524E+04  0.25500000920E-02 0. -1.
</event>
<event>
 5   0  0.2379743E-06  0.1999437E+04  0.7818609E-02  0.8606884E-01
       -1   -1    0    0    0  501  0.00000000000E+00  0.00000000000E+00  0.90177949154E+03  0.90177949156E+03  0.50400001928E-02 0. -1.
        1   -1    0    0  501    0  0.00000000000E+00  0.00000000000E+00 -0.11082947847E+04  0.11082947848E+04  0.50400001928E-02 0.  1.
    10030    2    1    2    0    0  0.00000000000E+00  0.00000000000E+00 -0.20651529321E+03  0.20100742763E+04  0.19994374284E+04 0.  0.
        5    1    3    3  502    0  0.90177650606E+03 -0.14256670423E+03  0.30620421483E+03  0.96296897313E+03  0.46999998093E+01 0.  1.
       -5    1    3    3    0  502 -0.90177650606E+03  0.14256670423E+03 -0.51271950804E+03  0.10471053032E+04  0.46999998093E+01 0. -1.
</event>
<event>
 5   0  0.5030137E-06  0.1999853E+04  0.7818609E-02  0.8606689E-01
       -2   -1    0    0    0  501  0.00000000000E+00  0.00000000000E+00  0.63344375884E+03  0.63344375884E+03  0.25500000920E-02 0.  1.
        2   -1    0    0  501    0  0.00000000000E+00  0.00000000000E+00 -0.15784404683E+04  0.15784404683E+04  0.25500000920E-02 0. -1.
    10030    2    1    2    0    0  0.00000000000E+00  0.00000000000E+00 -0.94499670943E+03  0.22118842271E+04  0.19998532579E+04 0.  0.
        3    1    3    3  502    0 -0.59487793067E+03 -0.68689398995E+03 -0.10940458795E+02  0.90874793517E+03  0.10100000352E+00 0.  1.
       -3    1    3    3    0  502  0.59487793067E+03  0.68689398995E+03 -0.93405625063E+03  0.13031362919E+04  0.10100000352E+00 0. -1.
</event>
<event>
 5   0  0.2313821E-06  0.1998773E+04  0.7818609E-02  0.8607195E-01
       -1   -1    0    0    0  501  0.00000000000E+00  0.00000000000E+00  0.92689088835E+03  0.92689088836E+03  0.50400001928E-02 0. -1.
        1   -1    0    0  501    0  0.00000000000E+00  0.00000000000E+00 -0.10775523168E+04  0.10775523168E+04  0.50400001928E-02 0.  1.
    10030    2    1    2    0    0  0.00000000000E+00  0.00000000000E+00 -0.15066142848E+03  0.20044432052E+04  0.19987730479E+04 0.  0.
        1    1    3    3  502    0  0.48455744473E+02 -0.21350089725E+03  0.90254720342E+03  0.92872065053E+03  0.50400001928E-02 0. -1.
       -1    1    3    3    0  502 -0.48455744473E+02  0.21350089725E+03 -0.10532086319E+04  0.10757225547E+04  0.50400001928E-02 0.  1.
</event>
<event>
 5   0  0.2379743E-06  0.2001010E+04  0.7818609E-02  0.8606149E-01
        1   -1    0    0  501    0  0.00000000000E+00  0.00000000000E+00  0.14869825053E+04  0.14869825053E+04  0.50400001928E-02 0. -1.
       -1   -1    0    0    0  501  0.00000000000E+00  0.00000000000E+00 -0.67318216264E+03  0.67318216265E+03  0.50400001928E-02 0.  1.
    10030    2    1    2    0    0  0.00000000000E+00  0.00000000000E+00  0.81380034269E+03  0.21601646680E+04  0.20010098438E+04 0.  0.
        5    1    3    3  502    0 -0.17261596155E+03  0.34179213209E+03 -0.59093911146E+03  0.70416564471E+03  0.46999998093E+01 0.  1.
       -5    1    3    3    0  502  0.17261596155E+03 -0.34179213209E+03  0.14047394542E+04  0.14559990233E+04  0.46999998093E+01 0. -1.
</event>
<event>
 5   0  0.5030137E-06  0.2000511E+04  0.7818609E-02  0.8606382E-01
       -2   -1    0    0    0  501  0.00000000000E+00  0.00000000000E+00  0.44312949729E+03  0.44312949729E+03  0.25500000920E-02 0.  1.
        2   -1    0    0  501    0  0.00000000000E+00  0.00000000000E+00 -0.22578295587E+04  0.22578295587E+04  0.25500000920E-02 0. -1.
    10030    2    1    2    0    0  0.00000000000E+00  0.00000000000E+00 -0.18147000614E+04  0.27009590560E+04  0.20005108121E+04 0.  0.
        3    1    3    3  502    0 -0.61016052269E+03  0.79257074465E+03 -0.91656843382E+03  0.13566731194E+04  0.10100000352E+00 0. -1.
       -3    1    3    3    0  502  0.61016052269E+03 -0.79257074465E+03 -0.89813162757E+03  0.13442859366E+04  0.10100000352E+00 0.  1.
</event>
<event>
 5   0  0.5251252E-06  0.1997328E+04  0.7818609E-02  0.8607871E-01
        2   -1    0    0  501    0  0.00000000000E+00  0.00000000000E+00  0.14477990200E+04  0.14477990200E+04  0.25500000920E-02 0. -1.
       -2   -1    0    0    0  501  0.00000000000E+00  0.00000000000E+00 -0.68885903774E+03  0.68885903775E+03  0.25500000920E-02 0.  1.
    10030    2    1    2    0    0  0.00000000000E+00  0.00000000000E+00  0.75893998226E+03  0.21366580578E+04  0.19973276544E+04 0.  0.
        5    1    3    3  502    0  0.53724956676E+03 -0.66122287073E+03 -0.17788807028E+03  0.87035569585E+03  0.46999998093E+01 0.  1.
       -5    1    3    3    0  502 -0.53724956676E+03  0.66122287073E+03  0.93682805255E+03  0.12663023619E+04  0.46999998093E+01 0. -1.
</event>
<event>
 5   0  0.5251252E-06  0.2000079E+04  0.7818609E-02  0.8606584E-01
       -2   -1    0    0    0  501  0.00000000000E+00  0.00000000000E+00  0.12118133740E+04  0.12118133740E+04  0.25500000920E-02 0.  1.
        2   -1    0    0  501    0  0.00000000000E+00  0.00000000000E+00 -0.82527484819E+03  0.82527484819E+03  0.25500000920E-02 0. -1.
    10030    2    1    2    0    0  0.00000000000E+00  0.00000000000E+00  0.38653852584E+03  0.20370882222E+04  0.20000790967E+04 0.  0.
        5    1    3    3  502    0  0.60362473131E+03  0.58080674020E+03  0.74959776258E+03  0.11241077268E+04  0.46999998093E+01 0.  1.
       -5    1    3    3    0  502 -0.60362473131E+03 -0.58080674020E+03 -0.36305923674E+03  0.91298049546E+03  0.46999998093E+01 0. -1.
</event>
<event>
 5   0  0.2356996E-06  0.2000432E+04  0.7818609E-02  0.8606419E-01
        1   -1    0    0  501    0  0.00000000000E+00  0.00000000000E+00  0.13923251580E+04  0.13923251580E+04  0.50400001928E-02 0. -1.
       -1   -1    0    0    0  501  0.00000000000E+00  0.00000000000E+00 -0.71853330958E+03  0.71853330960E+03  0.50400001928E-02 0.  1.
    10030    2    1    2    0    0  0.00000000000E+00  0.00000000000E+00  0.67379184846E+03  0.21108584676E+04  0.20004319572E+04 0.  0.
        4    1    3    3  502    0  0.42006268202E+03 -0.41309676828E+03 -0.51601019593E+03  0.78317924640E+03  0.12699999809E+01 0.  1.
       -4    1    3    3    0  502 -0.42006268202E+03  0.41309676828E+03  0.11898020444E+04  0.13276792212E+04  0.12699999809E+01 0. -1.
</event>
<event>
 5   0  0.1777750E-06  0.2000576E+04  0.7818609E-02  0.8606351E-01
        3   -1    0    0  501    0  0.00000000000E+00  0.00000000000E+00  0.85445499575E+03  0.85445500172E+03  0.10100000352E+00 0.  1.
       -3   -1    0    0    0  501  0.00000000000E+00  0.00000000000E+00 -0.11710110126E+04  0.11710110169E+04  0.10100000352E+00 0. -1.
    10030    2    1    2    0    0  0.00000000000E+00  0.00000000000E+00 -0.31655601682E+03  0.20254660187E+04  0.20005761373E+04 0.  0.
        4    1    3    3  502    0  0.26892167081E+03  0.40083461514E+03 -0.10452987650E+04  0.11513637022E+04  0.12699999809E+01 0. -1.
       -4    1    3    3    0  502 -0.26892167081E+03 -0.40083461514E+03  0.72874274818E+03  0.87410231646E+03  0.12699999809E+01 0.  1.
</event>
<event>
 5   0  0.2356996E-06  0.2000422E+04  0.7818609E-02  0.8606423E-01
        1   -1    0    0  501    0  0.00000000000E+00  0.00000000000E+00  0.80982561732E+03  0.80982561734E+03  0.50400001928E-02 0.  1.
       -1   -1    0    0    0  501  0.00000000000E+00  0.00000000000E+00 -0.12353552873E+04  0.12353552873E+04  0.50400001928E-02 0. -1.
    10030    2    1    2    0    0  0.00000000000E+00  0.00000000000E+00 -0.42552966994E+03  0.20451809046E+04  0.20004223136E+04 0.  0.
        4    1    3    3  502    0  0.64649216504E+03 -0.52001842118E+03 -0.78387746133E+03  0.11414187510E+04  0.12699999809E+01 0. -1.
       -4    1    3    3    0  502 -0.64649216504E+03  0.52001842118E+03  0.35834779139E+03  0.90376215362E+03  0.12699999809E+01 0.  1.
</event>
<event>
 5   0  0.2311520E-06  0.1998693E+04  0.7818609E-02  0.8607232E-01
       -1   -1    0    0    0  501  0.00000000000E+00  0.00000000000E+00  0.92461184335E+03  0.92461184337E+03  0.50400001928E-02 0. -1.
        1   -1    0    0  501    0  0.00000000000E+00  0.00000000000E+00 -0.10801223594E+04  0.10801223594E+04  0.50400001928E-02 0.  1.
    10030    2    1    2    0    0  0.00000000000E+00  0.00000000000E+00 -0.15551051606E+03  0.20047342028E+04  0.19986934991E+04 0.  0.
        3    1    3    3  502    0 -0.90763188666E+03 -0.35767050118E+03  0.13962559073E+03  0.98550451287E+03  0.10100000352E+00 0.  1.
       -3    1    3    3    0  502  0.90763188666E+03  0.35767050118E+03 -0.29513610679E+03  0.10192296899E+04  0.10100000352E+00 0. -1.
</event>
<event>
 5   0  0.2313821E-06  0.1994654E+04  0.7818609E-02  0.8609124E-01
        1   -1    0    0  501    0  0.00000000000E+00  0.00000000000E+00  0.13709932610E+04  0.13709932610E+04  0.50400001928E-02 0.  1.
       -1   -1    0    0    0  501  0.00000000000E+00  0.00000000000E+00 -0.72550375312E+03  0.72550375313E+03  0.50400001928E-02 0. -1.
    10030    2    1    2    0    0  0.00000000000E+00  0.00000000000E+00  0.64548950789E+03  0.20964970142E+04  0.19946536104E+04 0.  0.
        1    1    3    3  502    0 -0.66583037355E+03 -0.52772240930E+03 -0.22626563834E+03  0.87921394821E+03  0.50400001928E-02 0. -1.
       -1    1    3    3    0  502  0.66583037355E+03  0.52772240930E+03  0.87175514623E+03  0.12172830659E+04  0.50400001928E-02 0.  1.
</event>
<event>
 5   0  0.5251252E-06  0.1998817E+04  0.7818609E-02  0.8607174E-01
        2   -1    0    0  501    0  0.00000000000E+00  0.00000000000E+00  0.90011709588E+03  0.90011709588E+03  0.25500000920E-02 0.  1.
       -2   -1    0    0    0  501  0.00000000000E+00  0.00000000000E+00 -0.11096531412E+04  0.11096531412E+04  0.25500000920E-02 0. -1.
    10030    2    1    2    0    0  0.00000000000E+00  0.00000000000E+00 -0.20953604531E+03  0.20097702371E+04  0.19988174133E+04 0.  0.
        5    1    3    3  502    0 -0.56562902911E+03 -0.75085015791E+03 -0.44586655016E+03  0.10404476098E+04  0.46999998093E+01 0. -1.
       -5    1    3    3    0  502  0.56562902911E+03  0.75085015791E+03  0.23633050485E+03  0.96932262727E+03  0.46999998093E+01 0.  1.
</event>
<event>
 5   0  0.5251252E-06  0.1999588E+04  0.7818609E-02  0.8606813E-01
       -2   -1    0    0    0  501  0.00000000000E+00  0.00000000000E+00  0.89152855614E+03  0.89152855614E+03  0.25500000920E-02 0. -1.
        2   -1    0    0  501    0  0.00000000000E+00  0.00000000000E+00 -0.11212068667E+04  0.11212068667E+04  0.25500000920E-02 0.  1.
    10030    2    1    2    0    0  0.00000000000E+00  0.00000000000E+00 -0.22967831058E+03  0.20127354229E+04  0.19995878966E+04 0.  0.
        5    1    3    3  502    0 -0.55184291446E+03  0.62726909175E+03  0.43792433010E+03  0.94329047732E+03  0.46999998093E+01 0. -1.
       -5    1    3    3    0  502  0.55184291446E+03 -0.62726909175E+03 -0.66760264068E+03  0.10694449455E+04  0.46999998093E+01 0.  1.
</event>
<event>
 5   0  0.1777750E-06  0.2000318E+04  0.7818609E-02  0.8606472E-01
        4   -1    0    0  501    0  0.00000000000E+00  0.00000000000E+00  0.93782005881E+03  0.93782091873E+03  0.12699999809E+01 0. -1.
       -4   -1    0    0    0  501  0.00000000000E+00  0.00000000000E+00 -0.10666405423E+04  0.10666412983E+04  0.12699999809E+01 0.  1.
    10030    2    1    2    0    0  0.00000000000E+00  0.00000000000E+00 -0.12882048346E+03  0.20044622171E+04  0.20003184903E+04 0.  0.
        4    1    3    3  502    0  0.16734800468E+03 -0.35060113477E+03  0.85912271309E+03  0.94287854966E+03  0.12699999809E+01 0. -1.
       -4    1    3    3    0  502 -0.16734800468E+03  0.35060113477E+03 -0.98794319654E+03  0.10615836674E+04  0.12699999809E+01 0.  1.
</event>
<event>
 5   0  0.2313821E-06  0.2000475E+04  0.7818609E-02  0.8606399E-01
       -1   -1    0    0    0  501  0.00000000000E+00  0.00000000000E+00  0.56937646929E+03  0.56937646931E+03  0.50400001928E-02 0. -1.
        1   -1    0    0  501    0  0.00000000000E+00  0.00000000000E+00 -0.17571413629E+04  0.17571413629E+04  0.50400001928E-02 0.  1.
    10030    2    1    2    0    0  0.00000000000E+00  0.00000000000E+00 -0.11877648936E+04  0.23265178322E+04  0.20004748889E+04 0.  0.
        1    1    3    3  502    0  0.49087956426E+03  0.12357772780E+01 -0.16074208796E+04  0.16807040662E+04  0.50400001928E-02 0.  1.
       -1    1    3    3    0  502 -0.49087956426E+03 -0.12357772780E+01  0.41965598604E+03  0.64581376603E+03  0.50400001928E-02 0. -1.
</event>
<event>
 5   0  0.4956214E-06  0.1999790E+04  0.7818609E-02  0.8606719E-01
       -2   -1    0    0    0  501  0.00000000000E+00  0.00000000000E+00  0.79344233433E+03  0.79344233434E+03  0.25500000920E-02 0. -1.
        2   -1    0    0  501    0  0.00000000000E+00  0.00000000000E+00 -0.12600667706E+04  0.12600667706E+04  0.25500000920E-02 0.  1.
    10030    2    1    2    0    0  0.00000000000E+00  0.00000000000E+00 -0.46662443629E+03  0.20535091050E+04  0.19997903089E+04 0.  0.
        1    1    3    3  502    0 -0.22309586368E+03 -0.59990398867E+03 -0.10221494554E+04  0.12060041746E+04  0.50400001928E-02 0.  1.
       -1    1    3    3    0  502  0.22309586368E+03  0.59990398867E+03  0.55552501913E+03  0.84750493032E+03  0.50400001928E-02 0. -1.
</event>
<event>
 5   0  0.4956214E-06  0.2001476E+04  0.7818609E-02  0.8605931E-01
       -2   -1    0    0    0  501  0.00000000000E+00  0.00000000000E+00  0.13365595418E+04  0.13365595418E+04  0.25500000920E-02 0.  1.
        2   -1    0    0  501    0  0.00000000000E+00  0.00000000000E+00 -0.74929473278E+03  0.74929473279E+03  0.25500000920E-02 0. -1.
    10030    2    1    2    0    0  0.00000000000E+00  0.00000000000E+00  0.58726480900E+03  0.20858542746E+04  0.20014764797E+04 0.  0.
        1    1    3    3  502    0 -0.62187999685E+03  0.34273925066E+03  0.10285362496E+04  0.12498366858E+04  0.50400001928E-02 0.  1.
       -1    1    3    3    0  502  0.62187999685E+03 -0.34273925066E+03 -0.44127144059E+03  0.83601758877E+03  0.50400001928E-02 0. -1.
</event>
<event>
 5   0  0.2311520E-06  0.1998170E+04  0.7818609E-02  0.8607477E-01
       -1   -1    0    0    0  501  0.00000000000E+00  0.00000000000E+00  0.10472916885E+04  0.10472916885E+04  0.50400001928E-02 0. -1.
        1   -1    0    0  501    0  0.00000000000E+00  0.00000000000E+00 -0.95309763221E+03  0.95309763222E+03  0.50400001928E-02 0.  1.
    10030    2    1    2    0    0  0.00000000000E+00  0.00000000000E+00  0.94194056319E+02  0.20003893208E+04  0.19981703917E+04 0.  0.
        3    1    3    3  502    0 -0.78964625138E+03 -0.46449063097E+03  0.44613528270E+03  0.10189845186E+04  0.10100000352E+00 0. -1.
       -3    1    3    3    0  502  0.78964625138E+03  0.46449063097E+03 -0.35194122638E+03  0.98140480211E+03  0.10100000352E+00 0.  1.
</event>
<event>
 5   0  0.5118981E-06  0.2001216E+04  0.7818609E-02  0.8606053E-01
        2   -1    0    0  501    0  0.00000000000E+00  0.00000000000E+00  0.27618154737E+04  0.27618154737E+04  0.25500000920E-02 0.  1.
       -2   -1    0    0    0  501  0.00000000000E+00  0.00000000000E+00 -0.36252098269E+03  0.36252098270E+03  0.25500000920E-02 0. -1.
    10030    2    1    2    0    0  0.00000000000E+00  0.00000000000E+00  0.23992944910E+04  0.31243364564E+04  0.20012156901E+04 0.  0.
        4    1    3    3  502    0 -0.12802395011E+03  0.18273132505E+03  0.27224832432E+04  0.27316107870E+04  0.12699999809E+01 0.  1.
       -4    1    3    3    0  502  0.12802395011E+03 -0.18273132505E+03 -0.32318875222E+03  0.39272566942E+03  0.12699999809E+01 0. -1.
</event>
<event>
 5   0  0.2386776E-06  0.1995526E+04  0.7818609E-02  0.8608715E-01
       -1   -1    0    0    0  501  0.00000000000E+00  0.00000000000E+00  0.57543166378E+03  0.57543166380E+03  0.50400001928E-02 0.  1.
        1   -1    0    0  501    0  0.00000000000E+00  0.00000000000E+00 -0.17300592663E+04  0.17300592663E+04  0.50400001928E-02 0. -1.
    10030    2    1    2    0    0  0.00000000000E+00  0.00000000000E+00 -0.11546276025E+04  0.23054909301E+04  0.19955258776E+04 0.  0.
        2    1    3    3  502    0 -0.68591244266E+02  0.76954753537E+03  0.15212199983E+03  0.78743207379E+03  0.25500000920E-02 0.  1.
       -2    1    3    3    0  502  0.68591244266E+02 -0.76954753537E+03 -0.13067496023E+04  0.15180588563E+04  0.25500000920E-02 0. -1.
</event>
<event>
 5   0  0.5129100E-06  0.1999750E+04  0.7818609E-02  0.8606738E-01
        2   -1    0    0  501    0  0.00000000000E+00  0.00000000000E+00  0.16457804372E+04  0.16457804372E+04  0.25500000920E-02 0. -1.
       -2   -1    0    0    0  501  0.00000000000E+00  0.00000000000E+00 -0.60746263645E+03  0.60746263646E+03  0.25500000920E-02 0.  1.
    10030    2    1    2    0    0  0.00000000000E+00  0.00000000000E+00  0.10383178008E+04  0.22532430737E+04  0.19997501078E+04 0.  0.
        2    1    3    3  502    0 -0.66971955153E+03 -0.71717874436E+03  0.73554565966E+03  0.12263348020E+04  0.25500000920E-02 0. -1.
       -2    1    3    3    0  502  0.66971955153E+03  0.71717874436E+03  0.30277214111E+03  0.10269082717E+04  0.25500000920E-02 0.  1.
</event>
<event>
 5   0  0.2313821E-06  0.1985285E+04  0.7818609E-02  0.8613532E-01
       -1   -1    0    0    0  501  0.00000000000E+00  0.00000000000E+00  0.44905779133E+03  0.44905779136E+03  0.50400001928E-02 0. -1.
        1   -1    0    0  501    0  0.00000000000E+00  0.00000000000E+00 -0.21942362820E+04  0.21942362820E+04  0.50400001928E-02 0.  1.
    10030    2    1    2    0    0  0.00000000000E+00  0.00000000000E+00 -0.17451784906E+04  0.26432940733E+04  0.19852847639E+04 0.  0.
        1    1    3    3  502    0 -0.85547935993E+03  0.40588328112E+03 -0.12692447827E+04  0.15835303886E+04  0.50400001928E-02 0.  1.
       -1    1    3    3    0  502  0.85547935993E+03 -0.40588328112E+03 -0.47593370797E+03  0.10597636848E+04  0.50400001928E-02 0. -1.
</event>
<event>
 5   0  0.5129100E-06  0.2000183E+04  0.7818609E-02  0.8606535E-01
        2   -1    0    0  501    0  0.00000000000E+00  0.00000000000E+00  0.17514051428E+04  0.17514051428E+04  0.25500000920E-02 0. -1.
       -2   -1    0    0    0  501  0.00000000000E+00  0.00000000000E+00 -0.57107479924E+03  0.57107479924E+03  0.25500000920E-02 0.  1.
    10030    2    1    2    0    0  0.00000000000E+00  0.00000000000E+00  0.11803303436E+04  0.23224799420E+04  0.20001833319E+04 0.  0.
        2    1    3    3  502    0  0.95533169855E+03  0.22358349017E+03  0.36520739640E+03  0.10469119704E+04  0.25500000920E-02 0.  1.
       -2    1    3    3    0  502 -0.95533169855E+03 -0.22358349017E+03  0.81512294717E+03  0.12755679717E+04  0.25500000920E-02 0. -1.
</event>
<event>
 5   0  0.5251252E-06  0.2002036E+04  0.7818609E-02  0.8605670E-01
        2   -1    0    0  501    0  0.00000000000E+00  0.00000000000E+00  0.17017783079E+04  0.17017783079E+04  0.25500000920E-02 0. -1.
       -2   -1    0    0    0  501  0.00000000000E+00  0.00000000000E+00 -0.58881741984E+03  0.58881741985E+03  0.25500000920E-02 0.  1.
    10030    2    1    2    0    0  0.00000000000E+00  0.00000000000E+00  0.11129608880E+04  0.22905957277E+04  0.20020356764E+04 0.  0.
        5    1    3    3  502    0  0.92278626280E+01 -0.66435590435E+03 -0.30013905895E+03  0.72908124773E+03  0.46999998093E+01 0.  1.
       -5    1    3    3    0  502 -0.92278626280E+01  0.66435590435E+03  0.14130999470E+04  0.15615144800E+04  0.46999998093E+01 0. -1.
</event>
<event>
 5   0  0.5251252E-06  0.2002521E+04  0.7818609E-02  0.8605443E-01
       -2   -1    0    0    0  501  0.00000000000E+00  0.00000000000E+00  0.39219145307E+03  0.39219145307E+03  0.25500000920E-02 0. -1.
        2   -1    0    0  501    0  0.00000000000E+00  0.00000000000E+00 -0.25562083067E+04  0.25562083067E+04  0.25500000920E-02 0.  1.
    10030    2    1    2    0    0  0.00000000000E+00  0.00000000000E+00 -0.21640168536E+04  0.29483997598E+04  0.20025214607E+04 0.  0.
        5    1    3    3  502    0 -0.43254453159E+03 -0.25375105395E+03 -0.23579593008E+04  0.24107008366E+04  0.46999998093E+01 0.  1.
       -5    1    3    3    0  502  0.43254453159E+03  0.25375105395E+03  0.19394244718E+03  0.53769892319E+03  0.46999998093E+01 0. -1.
</event>
<event>
 5   0  0.1777750E-06  0.2000673E+04  0.7818609E-02  0.8606306E-01
       -4   -1    0    0    0  501  0.00000000000E+00  0.00000000000E+00  0.63321288322E+03  0.63321415681E+03  0.12699999809E+01 0.  1.
        4   -1    0    0  501    0  0.00000000000E+00  0.00000000000E+00 -0.15803075991E+04  0.15803081094E+04  0.12699999809E+01 0. -1.
    10030    2    1    2    0    0  0.00000000000E+00  0.00000000000E+00 -0.94709471584E+03  0.22135222662E+04  0.20006729923E+04 0.  0.
        5    1    3    3  502    0 -0.51215389429E+03  0.30931729047E+03  0.41340960733E+03  0.72726088238E+03  0.46999998093E+01 0.  1.
       -5    1    3    3    0  502  0.51215389429E+03 -0.30931729047E+03 -0.13605043232E+04  0.14862613838E+04  0.46999998093E+01 0. -1.
</event>
<event>
 5   0  0.2311520E-06  0.1999608E+04  0.7818609E-02  0.8606804E-01
       -1   -1    0    0    0  501  0.00000000000E+00  0.00000000000E+00  0.67251585816E+03  0.67251585818E+03  0.50400001928E-02 0.  1.
        1   -1    0    0  501    0  0.00000000000E+00  0.00000000000E+00 -0.14863704232E+04  0.14863704232E+04  0.50400001928E-02 0. -1.
    10030    2    1    2    0    0  0.00000000000E+00  0.00000000000E+00 -0.81385456505E+03  0.21588862814E+04  0.19996076423E+04 0.  0.
        3    1    3    3  502    0 -0.76995659297E+03  0.30452976378E+03  0.19809976899E+03  0.85136071130E+03  0.10100000352E+00 0.  1.
       -3    1    3    3    0  502  0.76995659297E+03 -0.30452976378E+03 -0.10119543340E+04  0.13075255701E+04  0.10100000352E+00 0. -1.
</event>
<event>
 5   0  0.2311520E-06  0.1998574E+04  0.7818609E-02  0.8607288E-01
       -1   -1    0    0    0  501  0.00000000000E+00  0.00000000000E+00  0.13007743857E+04  0.13007743857E+04  0.50400001928E-02 0. -1.
        1   -1    0    0  501    0  0.00000000000E+00  0.00000000000E+00 -0.76767711250E+03  0.76767711252E+03  0.50400001928E-02 0.  1.
    10030    2    1    2    0    0  0.00000000000E+00  0.00000000000E+00  0.53309727318E+03  0.20684514982E+04  0.19985742162E+04 0.  0.
        3    1    3    3  502    0  0.50190870876E+03 -0.85787774949E+03  0.37364676062E+03  0.10618279036E+04  0.10100000352E+00 0.  1.
       -3    1    3    3    0  502 -0.50190870876E+03  0.85787774949E+03  0.15945051256E+03  0.10066235946E+04  0.10100000352E+00 0. -1.
</event>
<event>
 5   0  0.2311520E-06  0.2005740E+04  0.7818609E-02  0.8603942E-01
       -1   -1    0    0    0  501  0.00000000000E+00  0.00000000000E+00  0.11133521805E+04  0.11133521805E+04  0.50400001928E-02 0.  1.
        1   -1    0    0  501    0  0.00000000000E+00  0.00000000000E+00 -0.90335159850E+03  0.90335159851E+03  0.50400001928E-02 0. -1.
    10030    2    1    2    0    0  0.00000000000E+00  0.00000000000E+00  0.21000058198E+03  0.20167037790E+04  0.20057402344E+04 0.  0.
        3    1    3    3  502    0  0.24637811866E+03 -0.91751391058E+02  0.10780857577E+04  0.11096798666E+04  0.10100000352E+00 0.  1.
       -3    1    3    3    0  502 -0.24637811866E+03  0.91751391058E+02 -0.86808517575E+03  0.90702391240E+03  0.10100000352E+00 0. -1.
</event>
<event>
 5   0  0.4956214E-06  0.2000538E+04  0.7818609E-02  0.8606369E-01
       -2   -1    0    0    0  501  0.00000000000E+00  0.00000000000E+00  0.72054959407E+03  0.72054959407E+03  0.25500000920E-02 0.  1.
        2   -1    0    0  501    0  0.00000000000E+00  0.00000000000E+00 -0.13885764330E+04  0.13885764330E+04  0.25500000920E-02 0. -1.
    10030    2    1    2    0    0  0.00000000000E+00  0.00000000000E+00 -0.66802683893E+03  0.21091260271E+04  0.20005381127E+04 0.  0.
        1    1    3    3  502    0  0.47631869290E+03 -0.37077917069E+03  0.50689019143E+03  0.78822227628E+03  0.50400001928E-02 0.  1.
       -1    1    3    3    0  502 -0.47631869290E+03  0.37077917069E+03 -0.11749170304E+04  0.13209037508E+04  0.50400001928E-02 0. -1.
</event>
<event>
 5   0  0.2379743E-06  0.1995432E+04  0.7818609E-02  0.8608759E-01
        1   -1    0    0  501    0  0.00000000000E+00  0.00000000000E+00  0.30771993502E+04  0.30771993502E+04  0.50400001928E-02 0. -1.
       -1   -1    0    0    0  501  0.00000000000E+00  0.00000000000E+00 -0.32348797095E+03  0.32348797099E+03  0.50400001928E-02 0.  1.
    10030    2    1    2    0    0  0.00000000000E+00  0.00000000000E+00  0.27537113793E+04  0.34006873212E+04  0.19954317569E+04 0.  0.
        5    1    3    3  502    0  0.11756255841E+03 -0.25321894942E+03  0.30092562207E+04  0.30221823048E+04  0.46999998093E+01 0. -1.
       -5    1    3    3    0  502 -0.11756255841E+03  0.25321894942E+03 -0.25554484143E+03  0.37850501643E+03  0.46999998093E+01 0.  1.
</event>
<event>
 5   0  0.4956214E-06  0.1996097E+04  0.7818609E-02  0.8608448E-01
       -2   -1    0    0    0  501  0.00000000000E+00  0.00000000000E+00  0.50999548969E+03  0.50999548970E+03  0.25500000920E-02 0. -1.
        2   -1    0    0  501    0  0.00000000000E+00  0.00000000000E+00 -0.19531555270E+04  0.19531555270E+04  0.25500000920E-02 0.  1.
    10030    2    1    2    0    0  0.00000000000E+00  0.00000000000E+00 -0.14431600373E+04  0.24631510167E+04  0.19960967005E+04 0.  0.
        1    1    3    3  502    0 -0.63471165073E+03  0.52506544791E+03 -0.14169470382E+04  0.16389910046E+04  0.50400001928E-02 0.  1.
       -1    1    3    3    0  502  0.63471165073E+03 -0.52506544791E+03 -0.26212999114E+02  0.82416001208E+03  0.50400001928E-02 0. -1.
</event>
<event>
 5   0  0.5030137E-06  0.2000100E+04  0.7818609E-02  0.8606574E-01
       -2   -1    0    0    0  501  0.00000000000E+00  0.00000000000E+00  0.33806629480E+03  0.33806629481E+03  0.25500000920E-02 0.  1.
        2   -1    0    0  501    0  0.00000000000E+00  0.00000000000E+00 -0.29582944596E+04  0.29582944596E+04  0.25500000920E-02 0. -1.
    10030    2    1    2    0    0  0.00000000000E+00  0.00000000000E+00 -0.26202281648E+04  0.32963607544E+04  0.20000996444E+04 0.  0.
        3    1    3    3  502    0  0.12579296595E+03  0.31031126582E+03 -0.28631637712E+04  0.28826764895E+04  0.10100000352E+00 0. -1.
       -3    1    3    3    0  502 -0.12579296595E+03 -0.31031126582E+03  0.24293560642E+03  0.41368426492E+03  0.10100000352E+00 0.  1.
</event>
<event>
 5   0  0.5129100E-06  0.2003050E+04  0.7818609E-02  0.8605196E-01
       -2   -1    0    0    0  501  0.00000000000E+00  0.00000000000E+00  0.10580941503E+04  0.10580941503E+04  0.25500000920E-02 0. -1.
        2   -1    0    0  501    0  0.00000000000E+00  0.00000000000E+00 -0.94798047675E+03  0.94798047675E+03  0.25500000920E-02 0.  1.
    10030    2    1    2    0    0  0.00000000000E+00  0.00000000000E+00  0.11011367351E+03  0.20060746270E+04  0.20030502710E+04 0.  0.
        2    1    3    3  502    0  0.44472916930E+03 -0.83788787912E+03 -0.26669520474E+03  0.98537630590E+03  0.25500000920E-02 0.  1.
       -2    1    3    3    0  502 -0.44472916930E+03  0.83788787912E+03  0.37680887826E+03  0.10206983211E+04  0.25500000920E-02 0. -1.
</event>
<event>
 5   0  0.2386776E-06  0.1999932E+04  0.7818609E-02  0.8606653E-01
        1   -1    0    0  501    0  0.00000000000E+00  0.00000000000E+00  0.90365819067E+03  0.90365819068E+03  0.50400001928E-02 0. -1.
       -1   -1    0    0    0  501  0.00000000000E+00  0.00000000000E+00 -0.11065376162E+04  0.11065376162E+04  0.50400001928E-02 0.  1.
    10030    2    1    2    0    0  0.00000000000E+00  0.00000000000E+00 -0.20287942550E+03  0.20101958069E+04  0.19999317790E+04 0.  0.
        2    1    3    3  502    0 -0.79971640619E+03 -0.28232457753E+03 -0.63394949071E+03  0.10588415624E+04  0.25500000920E-02 0.  1.
       -2    1    3    3    0  502  0.79971640619E+03  0.28232457753E+03  0.43107006520E+03  0.95135424450E+03  0.25500000920E-02 0. -1.
</event>
<event>
 5   0  0.5251252E-06  0.1998827E+04  0.7818609E-02  0.8607169E-01
        2   -1    0    0  501    0  0.00000000000E+00  0.00000000000E+00  0.97988579368E+03  0.97988579369E+03  0.25500000920E-02 0.  1.
       -2   -1    0    0    0  501  0.00000000000E+00  0.00000000000E+00 -0.10193300908E+04  0.10193300908E+04  0.25500000920E-02 0. -1.
    10030    2    1    2    0    0  0.00000000000E+00  0.00000000000E+00 -0.39444297122E+02  0.19992158845E+04  0.19988267309E+04 0.  0.
        5    1    3    3  502    0  0.94106504459E+03 -0.54383464309E+02  0.31237262246E+03  0.99305575100E+03  0.46999998093E+01 0.  1.
       -5    1    3    3    0  502 -0.94106504459E+03  0.54383464309E+02 -0.35181691958E+03  0.10061601335E+04  0.46999998093E+01 0. -1.
</event>
<event>
 5   0  0.1777750E-06  0.1998818E+04  0.7818609E-02  0.8607174E-01
        3   -1    0    0  501    0  0.00000000000E+00  0.00000000000E+00  0.87044513624E+03  0.87044514210E+03  0.10100000352E+00 0. -1.
       -3   -1    0    0    0  501  0.00000000000E+00  0.00000000000E+00 -0.11474796964E+04  0.11474797009E+04  0.10100000352E+00 0.  1.
    10030    2    1    2    0    0  0.00000000000E+00  0.00000000000E+00 -0.27703456018E+03  0.20179248430E+04  0.19988177817E+04 0.  0.
        5    1    3    3  502    0  0.70277962964E+03  0.69162111357E+03 -0.30303847295E+03  0.10315490190E+04  0.46999998093E+01 0. -1.
       -5    1    3    3    0  502 -0.70277962964E+03 -0.69162111357E+03  0.26003912776E+02  0.98637582393E+03  0.46999998093E+01 0.  1.
</event>
<event>
 5   0  0.5251252E-06  0.1999624E+04  0.7818609E-02  0.8606797E-01
       -2   -1    0    0    0  501  0.00000000000E+00  0.00000000000E+00  0.10905315894E+04  0.10905315894E+04  0.25500000920E-02 0. -1.
        2   -1    0    0  501    0  0.00000000000E+00  0.00000000000E+00 -0.91663913812E+03  0.91663913812E+03  0.25500000920E-02 0.  1.
    10030    2    1    2    0    0  0.00000000000E+00  0.00000000000E+00  0.17389245127E+03  0.20071707275E+04  0.19996239008E+04 0.  0.
        5    1    3    3  502    0 -0.18199656578E+03  0.66322482376E+02 -0.89761263410E+03  0.91828751082E+03  0.46999998093E+01 0.  1.
       -5    1    3    3    0  502  0.18199656578E+03 -0.66322482376E+02  0.10715050854E+04  0.10888832167E+04  0.46999998093E+01 0. -1.
</event>
<event>
 5   0  0.4956214E-06  0.1999259E+04  0.7818609E-02  0.8606967E-01
       -2   -1    0    0    0  501  0.00000000000E+00  0.00000000000E+00  0.90138719238E+03  0.90138719238E+03  0.25500000920E-02 0.  1.
        2   -1    0    0  501    0  0.00000000000E+00  0.00000000000E+00 -0.11085797425E+04  0.11085797425E+04  0.25500000920E-02 0. -1.
    10030    2    1    2    0    0  0.00000000000E+00  0.00000000000E+00 -0.20719255009E+03  0.20099669349E+04  0.19992594445E+04 0.  0.
        1    1    3    3  502    0 -0.29895025997E+03 -0.20257197330E+03 -0.10407112742E+04  0.11015836866E+04  0.50400001928E-02 0. -1.
       -1    1    3    3    0  502  0.29895025997E+03  0.20257197330E+03  0.83351872409E+03  0.90838324827E+03  0.50400001928E-02 0.  1.
</event>
<event>
 5   0  0.5118981E-06  0.2002391E+04  0.7818609E-02  0.8605504E-01
       -2   -1    0    0    0  501  0.00000000000E+00  0.00000000000E+00  0.42428845002E+03  0.42428845002E+03  0.25500000920E-02 0.  1.
        2   -1    0    0  501    0  0.00000000000E+00  0.00000000000E+00 -0.23625250626E+04  0.23625250626E+04  0.25500000920E-02 0. -1.
    10030    2    1    2    0    0  0.00000000000E+00  0.00000000000E+00 -0.19382366126E+04  0.27868135126E+04  0.20023906681E+04 0.  0.
        4    1    3    3  502    0  0.47694109228E+03 -0.17751856480E+03  0.23085555629E+03  0.55882157002E+03  0.12699999809E+01 0.  1.
       -4    1    3    3    0  502 -0.47694109228E+03  0.17751856480E+03 -0.21690921689E+04  0.22279919426E+04  0.12699999809E+01 0. -1.
</event>
<event>
 5   0  0.2386776E-06  0.1997657E+04  0.7818609E-02  0.8607717E-01
        1   -1    0    0  501    0  0.00000000000E+00  0.00000000000E+00  0.82265751764E+03  0.82265751765E+03  0.50400001928E-02 0. -1.
       -1   -1    0    0    0  501  0.00000000000E+00  0.00000000000E+00 -0.12127264292E+04  0.12127264292E+04  0.50400001928E-02 0.  1.
    10030    2    1    2    0    0  0.00000000000E+00  0.00000000000E+00 -0.39006891157E+03  0.20353839469E+04  0.19976571416E+04 0.  0.
        2    1    3    3  502    0 -0.35876394790E+03 -0.64267001652E+03  0.49293753827E+03  0.88584633943E+03  0.25500000920E-02 0. -1.
       -2    1    3    3    0  502  0.35876394790E+03  0.64267001652E+03 -0.88300644983E+03  0.11495376074E+04  0.25500000920E-02 0.  1.
</event>
<event>
 5   0  0.2386776E-06  0.1986966E+04  0.7818609E-02  0.8612739E-01
       -1   -1    0    0    0  501  0.00000000000E+00  0.00000000000E+00  0.55447018097E+03  0.55447018099E+03  0.50400001928E-02 0.  1.
        1   -1    0    0  501    0  0.00000000000E+00  0.00000000000E+00 -0.17800930708E+04  0.17800930708E+04  0.50400001928E-02 0. -1.
    10030    2    1    2    0    0  0.00000000000E+00  0.00000000000E+00 -0.12256228898E+04  0.23345632518E+04  0.19869660562E+04 0.  0.
        2    1    3    3  502    0 -0.45842163842E+02 -0.96302719737E+02 -0.17733468529E+04  0.17765513723E+04  0.25500000920E-02 0. -1.
       -2    1    3    3    0  502  0.45842163842E+02  0.96302719737E+02  0.54772396311E+03  0.55801187943E+03  0.25500000920E-02 0.  1.
</event>
<event>
 5   0  0.5251252E-06  0.2000711E+04  0.7818609E-02  0.8606288E-01
        2   -1    0    0  501    0  0.00000000000E+00  0.00000000000E+00  0.91623960342E+03  0.91623960343E+03  0.25500000920E-02 0. -1.
       -2   -1    0    0    0  501  0.00000000000E+00  0.00000000000E+00 -0.10921941012E+04  0.10921941012E+04  0.25500000920E-02 0.  1.
    10030    2    1    2    0    0  0.00000000000E+00  0.00000000000E+00 -0.17595449779E+03  0.20084337046E+04  0.20007113637E+04 0.  0.
        5    1    3    3  502    0 -0.11130386167E+03  0.67187876454E+03 -0.82352620671E+03  0.10686566928E+04  0.46999998093E+01 0.  1.
       -5    1    3    3    0  502  0.11130386167E+03 -0.67187876454E+03  0.64757170892E+03  0.93977701188E+03  0.46999998093E+01 0. -1.
</event>
<event>
 5   0  0.5030137E-06  0.2000697E+04  0.7818609E-02  0.8606295E-01
        2   -1    0    0  501    0  0.00000000000E+00  0.00000000000E+00  0.91864309346E+03  0.91864309347E+03  0.25500000920E-02 0.  1.
       -2   -1    0    0    0  501  0.00000000000E+00  0.00000000000E+00 -0.10893213167E+04  0.10893213167E+04  0.25500000920E-02 0. -1.
    10030    2    1    2    0    0  0.00000000000E+00  0.00000000000E+00 -0.17067822324E+03  0.20079644102E+04  0.20006973826E+04 0.  0.
        3    1    3    3  502    0 -0.17967878982E+03  0.16163884165E+03 -0.10595791097E+04  0.10867932106E+04  0.10100000352E+00 0. -1.
       -3    1    3    3    0  502  0.17967878982E+03 -0.16163884165E+03  0.88890088651E+03  0.92117119955E+03  0.10100000352E+00 0.  1.
</event>
<event>
 5   0  0.2386776E-06  0.2004346E+04  0.7818609E-02  0.8604591E-01
       -1   -1    0    0    0  501  0.00000000000E+00  0.00000000000E+00  0.59397799058E+03  0.59397799060E+03  0.50400001928E-02 0. -1.
        1   -1    0    0  501    0  0.00000000000E+00  0.00000000000E+00 -0.16908891667E+04  0.16908891667E+04  0.50400001928E-02 0.  1.
    10030    2    1    2    0    0  0.00000000000E+00  0.00000000000E+00 -0.10969111761E+04  0.22848671573E+04  0.20043462271E+04 0.  0.
        2    1    3    3  502    0  0.38221472943E+03  0.31647170273E+03 -0.15410090273E+04  0.16189352242E+04  0.25500000920E-02 0.  1.
       -2    1    3    3    0  502 -0.38221472943E+03 -0.31647170273E+03  0.44409785119E+03  0.66593193306E+03  0.25500000920E-02 0. -1.
</event>
<event>
 5   0  0.5118981E-06  0.2000006E+04  0.7818609E-02  0.8606618E-01
        2   -1    0    0  501    0  0.00000000000E+00  0.00000000000E+00  0.16249330715E+04  0.16249330715E+04  0.25500000920E-02 0.  1.
       -2   -1    0    0    0  501  0.00000000000E+00  0.00000000000E+00 -0.61541349620E+03  0.61541349620E+03  0.25500000920E-02 0. -1.
    10030    2    1    2    0    0  0.00000000000E+00  0.00000000000E+00  0.10095195753E+04  0.22403465677E+04  0.20000057426E+04 0.  0.
        4    1    3    3  502    0  0.34104304669E+03 -0.40690226995E+03  0.14540167228E+04  0.15479166838E+04  0.12699999809E+01 0.  1.
       -4    1    3    3    0  502 -0.34104304669E+03  0.40690226995E+03 -0.44449714753E+03  0.69242988385E+03  0.12699999809E+01 0. -1.
</event>
<event>
 5   0  0.2356996E-06  0.2000056E+04  0.7818609E-02  0.8606594E-01
        1   -1    0    0  501    0  0.00000000000E+00  0.00000000000E+00  0.10386985008E+04  0.10386985008E+04  0.50400001928E-02 0. -1.
       -1   -1    0    0    0  501  0.00000000000E+00  0.00000000000E+00 -0.96279760227E+03  0.96279760228E+03  0.50400001928E-02 0.  1.
    10030    2    1    2    0    0  0.00000000000E+00  0.00000000000E+00  0.75900898506E+02  0.20014961031E+04  0.20000564253E+04 0.  0.
        4    1    3    3  502    0 -0.74523157224E+03 -0.22336979290E+03  0.66672641283E+03  0.10245925449E+04  0.12699999809E+01 0.  1.
       -4    1    3    3    0  502  0.74523157224E+03  0.22336979290E+03 -0.59082551433E+03  0.97690355815E+03  0.12699999809E+01 0. -1.
</event>
<event>
 5   0  0.2311520E-06  0.2000863E+04  0.7818609E-02  0.8606217E-01
       -1   -1    0    0    0  501  0.00000000000E+00  0.00000000000E+00  0.81710957817E+03  0.81710957819E+03  0.50400001928E-02 0. -1.
        1   -1    0    0  501    0  0.00000000000E+00  0.00000000000E+00 -0.12248827884E+04  0.12248827884E+04  0.50400001928E-02 0.  1.
    10030    2    1    2    0    0  0.00000000000E+00  0.00000000000E+00 -0.40777321018E+03  0.20419923666E+04  0.20008632722E+04 0.  0.
        3    1    3    3  502    0  0.50620351651E+03 -0.73789064294E+03  0.25267816700E+03  0.92982303013E+03  0.10100000352E+00 0. -1.
       -3    1    3    3    0  502 -0.50620351651E+03  0.73789064294E+03 -0.66045137717E+03  0.11121693364E+04  0.10100000352E+00 0.  1.
</event>
<event>
 5   0  0.5030137E-06  0.1999695E+04  0.7818609E-02  0.8606763E-01
        2   -1    0    0  501    0  0.00000000000E+00  0.00000000000E+00  0.98280088955E+03  0.98280088955E+03  0.25500000920E-02 0.  1.
       -2   -1    0    0    0  501  0.00000000000E+00  0.00000000000E+00 -0.10171896760E+04  0.10171896760E+04  0.25500000920E-02 0. -1.
    10030    2    1    2    0    0  0.00000000000E+00  0.00000000000E+00 -0.34388786431E+02  0.19999905655E+04  0.19996948951E+04 0.  0.
        3    1    3    3  502    0  0.42420279848E+02  0.10614318383E+03 -0.10106332870E+04  0.10170769423E+04  0.10100000352E+00 0. -1.
       -3    1    3    3    0  502 -0.42420279848E+02 -0.10614318383E+03  0.97624450056E+03  0.98291362321E+03  0.10100000352E+00 0.  1.
</event>
<event>
 5   0  0.2386776E-06  0.2000412E+04  0.7818609E-02  0.8606428E-01
        1   -1    0    0  501    0  0.00000000000E+00  0.00000000000E+00  0.13546665271E+04  0.13546665271E+04  0.50400001928E-02 0. -1.
       -1   -1    0    0    0  501  0.00000000000E+00  0.00000000000E+00 -0.73849342315E+03  0.73849342317E+03  0.50400001928E-02 0.  1.
    10030    2    1    2    0    0  0.00000000000E+00  0.00000000000E+00  0.61617310398E+03  0.20931599503E+04  0.20004122784E+04 0.  0.
        2    1    3    3  502    0 -0.18538022297E+01  0.10073672715E+03  0.13493430911E+04  0.13530994428E+04  0.25500000920E-02 0. -1.
       -2    1    3    3    0  502  0.18538022297E+01 -0.10073672715E+03 -0.73316998708E+03  0.74006050749E+03  0.25500000920E-02 0.  1.
</event>
<event>
 5   0  0.4956214E-06  0.1999494E+04  0.7818609E-02  0.8606857E-01
       -2   -1    0    0    0  501  0.00000000000E+00  0.00000000000E+00  0.49245473269E+03  0.49245473270E+03  0.25500000920E-02 0.  1.
        2   -1    0    0  501    0  0.00000000000E+00  0.00000000000E+00 -0.20296167608E+04  0.20296167608E+04  0.25500000920E-02 0. -1.
    10030    2    1    2    0    0  0.00000000000E+00  0.00000000000E+00 -0.15371620281E+04  0.25220714935E+04  0.19994943155E+04 0.  0.
        1    1    3    3  502    0  0.27679785499E+03 -0.58847469975E+03  0.18919745253E+03  0.67728516951E+03  0.50400001928E-02 0.  1.
       -1    1    3    3    0  502 -0.27679785499E+03  0.58847469975E+03 -0.17263594806E+04  0.18447863240E+04  0.50400001928E-02 0. -1.
</event>
<event>
 5   0  0.5030137E-06  0.2000170E+04  0.7818609E-02  0.8606541E-01
        2   -1    0    0  501    0  0.00000000000E+00  0.00000000000E+00  0.10531892508E+04  0.10531892508E+04  0.25500000920E-02 0.  1.
       -2   -1    0    0    0  501  0.00000000000E+00  0.00000000000E+00 -0.94965801376E+03  0.94965801377E+03  0.25500000920E-02 0. -1.
    10030    2    1    2    0    0  0.00000000000E+00  0.00000000000E+00  0.10353123706E+03  0.20028472646E+04  0.20001696049E+04 0.  0.
        3    1    3    3  502    0  0.59443339437E+03 -0.28256331521E+03  0.80575207197E+03  0.10403987212E+04  0.10100000352E+00 0.  1.
       -3    1    3    3    0  502 -0.59443339437E+03  0.28256331521E+03 -0.70222083491E+03  0.96244854337E+03  0.10100000352E+00 0. -1.
</event>
<event>
 5   0  0.2313821E-06  0.2000124E+04  0.7818609E-02  0.8606563E-01
       -1   -1    0    0    0  501  0.00000000000E+00  0.00000000000E+00  0.10739060011E+04  0.10739060011E+04  0.50400001928E-02 0.  1.
        1   -1    0    0  501    0  0.00000000000E+00  0.00000000000E+00 -0.93129534634E+03  0.93129534636E+03  0.50400001928E-02 0. -1.
    10030    2    1    2    0    0  0.00000000000E+00  0.00000000000E+00  0.14261065478E+03  0.20052013475E+04  0.20001236575E+04 0.  0.
        1    1    3    3  502    0  0.77563030563E+03  0.48251815137E+03 -0.33678767721E+03  0.97357694969E+03  0.50400001928E-02 0. -1.
       -1    1    3    3    0  502 -0.77563030563E+03 -0.48251815137E+03  0.47939833199E+03  0.10316243978E+04  0.50400001928E-02 0.  1.
</event>
<event>
 5   0  0.2313821E-06  0.1999706E+04  0.7818609E-02  0.8606758E-01
        1   -1    0    0  501    0  0.00000000000E+00  0.00000000000E+00  0.99825706526E+03  0.99825706527E+03  0.50400001928E-02 0.  1.
       -1   -1    0    0    0  501  0.00000000000E+00  0.00000000000E+00 -0.10014511557E+04  0.10014511557E+04  0.50400001928E-02 0. -1.
    10030    2    1    2    0    0  0.00000000000E+00  0.00000000000E+00 -0.31940904474E+01  0.19997082210E+04  0.19997056701E+04 0.  0.
        1    1    3    3  502    0 -0.53518356698E+03  0.77771653257E+03  0.32770754472E+03  0.99932811943E+03  0.50400001928E-02 0.  1.
       -1    1    3    3    0  502  0.53518356698E+03 -0.77771653257E+03 -0.33090163517E+03  0.10003801016E+04  0.50400001928E-02 0. -1.
</event>
<event>
 5   0  0.4956214E-06  0.2000011E+04  0.7818609E-02  0.8606616E-01
        2   -1    0    0  501    0  0.00000000000E+00  0.00000000000E+00  0.20383098104E+04  0.20383098104E+04  0.25500000920E-02 0.  1.
       -2   -1    0    0    0  501  0.00000000000E+00  0.00000000000E+00 -0.49060781551E+03  0.49060781552E+03  0.25500000920E-02 0. -1.
    10030    2    1    2    0    0  0.00000000000E+00  0.00000000000E+00  0.15477019949E+04  0.25289176259E+04  0.20000107234E+04 0.  0.
        1    1    3    3  502    0 -0.67872441282E+03 -0.94992838139E+02 -0.14696205508E+03  0.70091961987E+03  0.50400001928E-02 0. -1.
       -1    1    3    3    0  502  0.67872441282E+03  0.94992838139E+02  0.16946640500E+04  0.18279980061E+04  0.50400001928E-02 0.  1.
</event>
<event>
 5   0  0.2386776E-06  0.2000056E+04  0.7818609E-02  0.8606594E-01
       -1   -1    0    0    0  501  0.00000000000E+00  0.00000000000E+00  0.95629272488E+03  0.95629272489E+03  0.50400001928E-02 0. -1.
        1   -1    0    0  501    0  0.00000000000E+00  0.00000000000E+00 -0.10457637156E+04  0.10457637157E+04  0.50400001928E-02 0.  1.
    10030    2    1    2    0    0  0.00000000000E+00  0.00000000000E+00 -0.89470990764E+02  0.20020564405E+04  0.20000562324E+04 0.  0.
        2    1    3    3  502    0  0.23440814204E+03  0.90859134784E+03  0.30140045794E+03  0.98555956212E+03  0.25500000920E-02 0. -1.
       -2    1    3    3    0  502 -0.23440814204E+03 -0.90859134784E+03 -0.39087144870E+03  0.10164968784E+04  0.25500000920E-02 0.  1.
</event>
<event>
 5   0  0.2313821E-06  0.2000695E+04  0.7818609E-02  0.8606296E-01
       -1   -1    0    0    0  501  0.00000000000E+00  0.00000000000E+00  0.86404360517E+03  0.86404360519E+03  0.50400001928E-02 0. -1.
        1   -1    0    0  501    0  0.00000000000E+00  0.00000000000E+00 -0.11581533885E+04  0.11581533885E+04  0.50400001928E-02 0.  1.
    10030    2    1    2    0    0  0.00000000000E+00  0.00000000000E+00 -0.29410978331E+03  0.20221969937E+04  0.20006949084E+04 0.  0.
        1    1    3    3  502    0 -0.40905392991E+03 -0.29861951571E+03  0.72488459522E+03  0.88428299155E+03  0.50400001928E-02 0. -1.
       -1    1    3    3    0  502  0.40905392991E+03  0.29861951571E+03 -0.10189943785E+04  0.11379140021E+04  0.50400001928E-02 0.  1.
</event>
<event>
 5   0  0.5030137E-06  0.1999510E+04  0.7818609E-02  0.8606850E-01
        2   -1    0    0  501    0  0.00000000000E+00  0.00000000000E+00  0.16343113542E+04  0.16343113542E+04  0.25500000920E-02 0. -1.
       -2   -1    0    0    0  501  0.00000000000E+00  0.00000000000E+00 -0.61157865996E+03  0.61157865997E+03  0.25500000920E-02 0.  1.
    10030    2    1    2    0    0  0.00000000000E+00  0.00000000000E+00  0.10227326942E+04  0.22458900141E+04  0.19995098879E+04 0.  0.
        3    1    3    3  502    0 -0.60661263552E+02  0.23721054658E+03 -0.57738195151E+03  0.62715114640E+03  0.10100000352E+00 0.  1.
       -3    1    3    3    0  502  0.60661263552E+02 -0.23721054658E+03  0.16001146457E+04  0.16187388677E+04  0.10100000352E+00 0. -1.
</event>
<event>
 5   0  0.2356996E-06  0.2000004E+04  0.7818609E-02  0.8606619E-01
       -1   -1    0    0    0  501  0.00000000000E+00  0.00000000000E+00  0.97908292038E+03  0.97908292039E+03  0.50400001928E-02 0. -1.
        1   -1    0    0  501    0  0.00000000000E+00  0.00000000000E+00 -0.10213679314E+04  0.10213679314E+04  0.50400001928E-02 0.  1.
    10030    2    1    2    0    0  0.00000000000E+00  0.00000000000E+00 -0.42285011028E+02  0.20004508518E+04  0.20000038971E+04 0.  0.
        4    1    3    3  502    0 -0.17632387187E+03  0.65513203329E+03 -0.75595911504E+03  0.10157577887E+04  0.12699999809E+01 0.  1.
       -4    1    3    3    0  502  0.17632387187E+03 -0.65513203329E+03  0.71367410401E+03  0.98469306308E+03  0.12699999809E+01 0. -1.
</event>
<event>
 5   0  0.2313821E-06  0.1999020E+04  0.7818609E-02  0.8607079E-01
        1   -1    0    0  501    0  0.00000000000E+00  0.00000000000E+00  0.10704223041E+04  0.10704223041E+04  0.50400001928E-02 0.  1.
       -1   -1    0    0    0  501  0.00000000000E+00  0.00000000000E+00 -0.93329532312E+03  0.93329532313E+03  0.50400001928E-02 0. -1.
    10030    2    1    2    0    0  0.00000000000E+00  0.00000000000E+00  0.13712698101E+03  0.20037176273E+04  0.19990198901E+04 0.  0.
        1    1    3    3  502    0  0.26805960593E+03  0.21750259210E+03  0.10087746487E+04  0.10662033679E+04  0.50400001928E-02 0.  1.
       -1    1    3    3    0  502 -0.26805960593E+03 -0.21750259210E+03 -0.87164766768E+03  0.93751425935E+03  0.50400001928E-02 0. -1.
</event>
<event>
 5   0  0.2313821E-06  0.1999498E+04  0.7818609E-02  0.8606856E-01
       -1   -1    0    0    0  501  0.00000000000E+00  0.00000000000E+00  0.99169078519E+03  0.99169078520E+03  0.50400001928E-02 0. -1.
        1   -1    0    0  501    0  0.00000000000E+00  0.00000000000E+00 -0.10078721955E+04  0.10078721955E+04  0.50400001928E-02 0.  1.
    10030    2    1    2    0    0  0.00000000000E+00  0.00000000000E+00 -0.16181410343E+02  0.19995629807E+04  0.19994975059E+04 0.  0.
        1    1    3    3  502    0  0.98102035835E+03 -0.94676889927E+02  0.15964347281E+03  0.99842410599E+03  0.50400001928E-02 0.  1.
       -1    1    3    3    0  502 -0.98102035835E+03  0.94676889927E+02 -0.17582488316E+03  0.10011388748E+04  0.50400001928E-02 0. -1.
</event>
<event>
 5   0  0.5129100E-06  0.2000368E+04  0.7818609E-02  0.8606449E-01
        2   -1    0    0  501    0  0.00000000000E+00  0.00000000000E+00  0.10069181057E+04  0.10069181057E+04  0.25500000920E-02 0.  1.
       -2   -1    0    0    0  501  0.00000000000E+00  0.00000000000E+00 -0.99349475867E+03  0.99349475867E+03  0.25500000920E-02 0. -1.
    10030    2    1    2    0    0  0.00000000000E+00  0.00000000000E+00  0.13423347037E+02  0.20004128644E+04  0.20003678266E+04 0.  0.
        2    1    3    3  502    0 -0.55231884897E+03 -0.67942855413E+03  0.49013603402E+03  0.10034503490E+04  0.25500000920E-02 0.  1.
       -2    1    3    3    0  502  0.55231884897E+03  0.67942855413E+03 -0.47671268698E+03  0.99696251536E+03  0.25500000920E-02 0. -1.
</event>
<event>
 5   0  0.5118981E-06  0.1999527E+04  0.7818609E-02  0.8606842E-01
       -2   -1    0    0    0  501  0.00000000000E+00  0.00000000000E+00  0.47854150535E+03  0.47854150536E+03  0.25500000920E-02 0. -1.
        2   -1    0    0  501    0  0.00000000000E+00  0.00000000000E+00 -0.20886954763E+04  0.20886954763E+04  0.25500000920E-02 0.  1.
    10030    2    1    2    0    0  0.00000000000E+00  0.00000000000E+00 -0.16101539710E+04  0.25672369817E+04  0.19995274216E+04 0.  0.
        4    1    3    3  502    0 -0.36199711260E+03  0.49941130015E+03 -0.18152814531E+04  0.19172120183E+04  0.12699999809E+01 0.  1.
       -4    1    3    3    0  502  0.36199711260E+03 -0.49941130015E+03  0.20512748210E+03  0.65002496341E+03  0.12699999809E+01 0. -1.
</event>
<event>
 5   0  0.5030137E-06  0.2000435E+04  0.7818609E-02  0.8606417E-01
        2   -1    0    0  501    0  0.00000000000E+00  0.00000000000E+00  0.85223853672E+03  0.85223853672E+03  0.25500000920E-02 0.  1.
       -2   -1    0    0    0  501  0.00000000000E+00  0.00000000000E+00 -0.11738912561E+04  0.11738912561E+04  0.25500000920E-02 0. -1.
    10030    2    1    2    0    0  0.00000000000E+00  0.00000000000E+00 -0.32165271940E+03  0.20261297928E+04  0.20004353190E+04 0.  0.
        3    1    3    3  502    0  0.99152326185E+03  0.13137180039E+03 -0.15308439391E+03  0.10118358417E+04  0.10100000352E+00 0. -1.
       -3    1    3    3    0  502 -0.99152326185E+03 -0.13137180039E+03 -0.16856832549E+03  0.10142939511E+04  0.10100000352E+00 0.  1.
</event>
<event>
 5   0  0.2311520E-06  0.1999453E+04  0.7818609E-02  0.8606876E-01
       -1   -1    0    0    0  501  0.00000000000E+00  0.00000000000E+00  0.78498062046E+03  0.78498062047E+03  0.50400001928E-02 0. -1.
        1   -1    0    0  501    0  0.00000000000E+00  0.00000000000E+00 -0.12732204907E+04  0.12732204907E+04  0.50400001928E-02 0.  1.
    10030    2    1    2    0    0  0.00000000000E+00  0.00000000000E+00 -0.48823987026E+03  0.20582011112E+04  0.19994533361E+04 0.  0.
        3    1    3    3  502    0 -0.45569893059E+03  0.62648483948E+02  0.66957876098E+03  0.81235587967E+03  0.10100000352E+00 0. -1.
       -3    1    3    3    0  502  0.45569893059E+03 -0.62648483948E+02 -0.11578186312E+04  0.12458452315E+04  0.10100000352E+00 0.  1.
</event>
<event>
 5   0  0.5251252E-06  0.2000352E+04  0.7818609E-02  0.8606456E-01
        2   -1    0    0  501    0  0.00000000000E+00  0.00000000000E+00  0.11452218734E+04  0.11452218734E+04  0.25500000920E-02 0. -1.
       -2   -1    0    0    0  501  0.00000000000E+00  0.00000000000E+00 -0.87350043760E+03  0.87350043760E+03  0.25500000920E-02 0.  1.
    10030    2    1    2    0    0  0.00000000000E+00  0.00000000000E+00  0.27172143583E+03  0.20187223110E+04  0.20003517766E+04 0.  0.
        5    1    3    3  502    0  0.39270687373E+03  0.70249054266E+03 -0.46340921221E+03  0.92869900353E+03  0.46999998093E+01 0.  1.
       -5    1    3    3    0  502 -0.39270687373E+03 -0.70249054266E+03  0.73513064803E+03  0.10900233075E+04  0.46999998093E+01 0. -1.
</event>
<event>
 5   0  0.5129100E-06  0.2000648E+04  0.7818609E-02  0.8606318E-01
       -2   -1    0    0    0  501  0.00000000000E+00  0.00000000000E+00  0.52791464305E+03  0.52791464305E+03  0.25500000920E-02 0.  1.
        2   -1    0    0  501    0  0.00000000000E+00  0.00000000000E+00 -0.18954741104E+04  0.18954741104E+04  0.25500000920E-02 0. -1.
    10030    2    1    2    0    0  0.00000000000E+00  0.00000000000E+00 -0.13675594673E+04  0.24233887534E+04  0.20006484333E+04 0.  0.
        2    1    3    3  502    0 -0.25317155256E+03 -0.80331793911E+03 -0.13374708693E+04  0.15805833963E+04  0.25500000920E-02 0. -1.
       -2    1    3    3    0  502  0.25317155256E+03  0.80331793911E+03 -0.30088598020E+02  0.84280535716E+03  0.25500000920E-02 0.  1.
</event>
<event>
 5   0  0.2311520E-06  0.1998682E+04  0.7818609E-02  0.8607237E-01
       -1   -1    0    0    0  501  0.00000000000E+00  0.00000000000E+00  0.79928363237E+03  0.79928363238E+03  0.50400001928E-02 0. -1.
        1   -1    0    0  501    0  0.00000000000E+00  0.00000000000E+00 -0.12494720761E+04  0.12494720761E+04  0.50400001928E-02 0.  1.
    10030    2    1    2    0    0  0.00000000000E+00  0.00000000000E+00 -0.45018844370E+03  0.20487557085E+04  0.19986821453E+04 0.  0.
        3    1    3    3  502    0  0.74995201612E+03 -0.13865587654E+03 -0.88705097849E+03  0.11698345726E+04  0.10100000352E+00 0.  1.
       -3    1    3    3    0  502 -0.74995201612E+03  0.13865587654E+03  0.43686253478E+03  0.87892113587E+03  0.10100000352E+00 0. -1.
</event>
<event>
 5   0  0.5251252E-06  0.1998315E+04  0.7818609E-02  0.8607409E-01
        2   -1    0    0  501    0  0.00000000000E+00  0.00000000000E+00  0.12436134894E+04  0.12436134894E+04  0.25500000920E-02 0.  1.
       -2   -1    0    0    0  501  0.00000000000E+00  0.00000000000E+00 -0.80275405779E+03  0.80275405780E+03  0.25500000920E-02 0. -1.
    10030    2    1    2    0    0  0.00000000000E+00  0.00000000000E+00  0.44085943165E+03  0.20463675472E+04  0.19983150652E+04 0.  0.
        5    1    3    3  502    0 -0.95060146210E+03  0.18115824428E+03  0.47507002471E+03  0.10780422383E+04  0.46999998093E+01 0.  1.
       -5    1    3    3    0  502  0.95060146210E+03 -0.18115824428E+03 -0.34210593068E+02  0.96832530892E+03  0.46999998093E+01 0. -1.
</event>
<event>
 5   0  0.1777750E-06  0.1987868E+04  0.7818609E-02  0.8612314E-01
        3   -1    0    0  501    0  0.00000000000E+00  0.00000000000E+00  0.72729866864E+03  0.72729867565E+03  0.10100000352E+00 0. -1.
       -3   -1    0    0    0  501  0.00000000000E+00  0.00000000000E+00 -0.13583211533E+04  0.13583211570E+04  0.10100000352E+00 0.  1.
    10030    2    1    2    0    0  0.00000000000E+00  0.00000000000E+00 -0.63102248463E+03  0.20856198327E+04  0.19878683836E+04 0.  0.
        4    1    3    3  502    0 -0.72646241518E+03 -0.33978980161E+02  0.39530035402E+03  0.82774766357E+03  0.12699999809E+01 0. -1.
       -4    1    3    3    0  502  0.72646241518E+03  0.33978980161E+02 -0.10263228387E+04  0.12578721691E+04  0.12699999809E+01 0.  1.
</event>
<event>
 5   0  0.5251252E-06  0.2000142E+04  0.7818609E-02  0.8606554E-01
        2   -1    0    0  501    0  0.00000000000E+00  0.00000000000E+00  0.24365891702E+04  0.24365891702E+04  0.25500000920E-02 0. -1.
       -2   -1    0    0    0  501  0.00000000000E+00  0.00000000000E+00 -0.41046821452E+03  0.41046821453E+03  0.25500000920E-02 0.  1.
    10030    2    1    2    0    0  0.00000000000E+00  0.00000000000E+00  0.20261209557E+04  0.28470573847E+04  0.20001424011E+04 0.  0.
        5    1    3    3  502    0 -0.77755717950E+02  0.70899319057E+03  0.15235858882E+02  0.71342239756E+03  0.46999998093E+01 0.  1.
       -5    1    3    3    0  502  0.77755717950E+02 -0.70899319057E+03  0.20108850968E+04  0.21336349871E+04  0.46999998093E+01 0. -1.
</event>
<event>
 5   0  0.4956214E-06  0.1999890E+04  0.7818609E-02  0.8606672E-01
        2   -1    0    0  501    0  0.00000000000E+00  0.00000000000E+00  0.14796202132E+04  0.14796202132E+04  0.25500000920E-02 0. -1.
       -2   -1    0    0    0  501  0.00000000000E+00  0.00000000000E+00 -0.67577480249E+03  0.67577480250E+03  0.25500000920E-02 0.  1.
    10030    2    1    2    0    0  0.00000000000E+00  0.00000000000E+00  0.80384541074E+03  0.21553950157E+04  0.19998900543E+04 0.  0.
        1    1    3    3  502    0 -0.76944731873E+03 -0.36513846003E+03 -0.16275887879E+03  0.86710191094E+03  0.50400001928E-02 0.  1.
       -1    1    3    3    0  502  0.76944731873E+03  0.36513846003E+03  0.96660428953E+03  0.12882931048E+04  0.50400001928E-02 0. -1.
</event>
<event>
 5   0  0.5118981E-06  0.2000971E+04  0.7818609E-02  0.8606167E-01
        2   -1    0    0  501    0  0.00000000000E+00  0.00000000000E+00  0.98310417866E+03  0.98310417866E+03  0.25500000920E-02 0. -1.
       -2   -1    0    0    0  501  0.00000000000E+00  0.00000000000E+00 -0.10181738193E+04  0.10181738193E+04  0.25500000920E-02 0.  1.
    10030    2    1    2    0    0  0.00000000000E+00  0.00000000000E+00 -0.35069640636E+02  0.20012779980E+04  0.20009707008E+04 0.  0.
        4    1    3    3  502    0 -0.80920212866E+03 -0.42353215428E+03 -0.42598675549E+03  0.10077965566E+04  0.12699999809E+01 0.  1.
       -4    1    3    3    0  502  0.80920212866E+03  0.42353215428E+03  0.39091711485E+03  0.99348144136E+03  0.12699999809E+01 0. -1.
</event>
<event>
 5   0  0.2311520E-06  0.1999814E+04  0.7818609E-02  0.8606708E-01
        1   -1    0    0  501    0  0.00000000000E+00  0.00000000000E+00  0.16881636247E+04  0.16881636248E+04  0.50400001928E-02 0. -1.
       -1   -1    0    0    0  501  0.00000000000E+00  0.00000000000E+00 -0.59224950603E+03  0.59224950605E+03  0.50400001928E-02 0.  1.
    10030    2    1    2    0    0  0.00000000000E+00  0.00000000000E+00  0.10959141187E+04  0.22804131308E+04  0.19998140642E+04 0.  0.
        3    1    3    3  502    0  0.26966719054E+03 -0.62696918435E+03  0.13812465212E+04  0.15406663215E+04  0.10100000352E+00 0. -1.
       -3    1    3    3    0  502 -0.26966719054E+03  0.62696918435E+03 -0.28533240245E+03  0.73974680930E+03  0.10100000352E+00 0.  1.
</event>
<event>
 5   0  0.2356996E-06  0.1999797E+04  0.7818609E-02  0.8606716E-01
       -1   -1    0    0    0  501  0.00000000000E+00  0.00000000000E+00  0.73042125121E+03  0.73042125123E+03  0.50400001928E-02 0.  1.
        1   -1    0    0  501    0  0.00000000000E+00  0.00000000000E+00 -0.13687951758E+04  0.13687951758E+04  0.50400001928E-02 0. -1.
    10030    2    1    2    0    0  0.00000000000E+00  0.00000000000E+00 -0.63837392460E+03  0.20992164270E+04  0.19997970747E+04 0.  0.
        4    1    3    3  502    0 -0.28786475524E+02 -0.26490142078E+03  0.69246469961E+03  0.74196387851E+03  0.12699999809E+01 0.  1.
       -4    1    3    3    0  502  0.28786475524E+02  0.26490142078E+03 -0.13308386242E+04  0.13572525485E+04  0.12699999809E+01 0. -1.
</event>
<event>
 5   0  0.4956214E-06  0.2000106E+04  0.7818609E-02  0.8606571E-01
       -2   -1    0    0    0  501  0.00000000000E+00  0.00000000000E+00  0.82034284208E+03  0.82034284208E+03  0.25500000920E-02 0.  1.
        2   -1    0    0  501    0  0.00000000000E+00  0.00000000000E+00 -0.12191312334E+04  0.12191312334E+04  0.25500000920E-02 0. -1.
    10030    2    1    2    0    0  0.00000000000E+00  0.00000000000E+00 -0.39878839128E+03  0.20394740754E+04  0.20001055781E+04 0.  0.
        1    1    3    3  502    0 -0.14005178528E+03  0.77481760572E+03 -0.82809216128E+03  0.11426694414E+04  0.50400001928E-02 0. -1.
       -1    1    3    3    0  502  0.14005178528E+03 -0.77481760572E+03  0.42930376999E+03  0.89680463405E+03  0.50400001928E-02 0.  1.
</event>
<event>
 5   0  0.2313821E-06  0.2003920E+04  0.7818609E-02  0.8604790E-01
       -1   -1    0    0    0  501  0.00000000000E+00  0.00000000000E+00  0.40566413232E+03  0.40566413236E+03  0.50400001928E-02 0.  1.
        1   -1    0    0  501    0  0.00000000000E+00  0.00000000000E+00 -0.24747658390E+04  0.24747658390E+04  0.50400001928E-02 0. -1.
    10030    2    1    2    0    0  0.00000000000E+00  0.00000000000E+00 -0.20691017066E+04  0.28804299713E+04  0.20039198954E+04 0.  0.
        1    1    3    3  502    0 -0.91706696401E+03  0.14748132343E+03 -0.15746016405E+04  0.18281501261E+04  0.50400001928E-02 0. -1.
       -1    1    3    3    0  502  0.91706696401E+03 -0.14748132343E+03 -0.49450006614E+03  0.10522798452E+04  0.50400001928E-02 0.  1.
</event>
<event>
 5   0  0.5118981E-06  0.2000579E+04  0.7818609E-02  0.8606350E-01
        2   -1    0    0  501    0  0.00000000000E+00  0.00000000000E+00  0.12548391892E+04  0.12548391892E+04  0.25500000920E-02 0. -1.
       -2   -1    0    0    0  501  0.00000000000E+00  0.00000000000E+00 -0.79737636140E+03  0.79737636140E+03  0.25500000920E-02 0.  1.
    10030    2    1    2    0    0  0.00000000000E+00  0.00000000000E+00  0.45746282781E+03  0.20522155506E+04  0.20005790230E+04 0.  0.
        4    1    3    3  502    0  0.56844513364E+03  0.60736954276E+03 -0.34107842251E+03  0.89909050414E+03  0.12699999809E+01 0.  1.
       -4    1    3    3    0  502 -0.56844513364E+03 -0.60736954276E+03  0.79854125031E+03  0.11531250465E+04  0.12699999809E+01 0. -1.
</event>
<event>
 5   0  0.5251252E-06  0.2002929E+04  0.7818609E-02  0.8605253E-01
        2   -1    0    0  501    0  0.00000000000E+00  0.00000000000E+00  0.10336800720E+04  0.10336800720E+04  0.25500000920E-02 0. -1.
       -2   -1    0    0    0  501  0.00000000000E+00  0.00000000000E+00 -0.97025263480E+03  0.97025263481E+03  0.25500000920E-02 0.  1.
    10030    2    1    2    0    0  0.00000000000E+00  0.00000000000E+00  0.63427437174E+02  0.20039327068E+04  0.20029286691E+04 0.  0.
        5    1    3    3  502    0 -0.44062610819E+03  0.54649351228E+03  0.74628613503E+03  0.10245836284E+04  0.46999998093E+01 0. -1.
       -5    1    3    3    0  502  0.44062610819E+03 -0.54649351228E+03 -0.68285869785E+03  0.97934907843E+03  0.46999998093E+01 0.  1.
</event>
<event>
 5   0  0.1777750E-06  0.2002821E+04  0.7818609E-02  0.8605303E-01
       -4   -1    0    0    0  501  0.00000000000E+00  0.00000000000E+00  0.13137868268E+04  0.13137874406E+04  0.12699999809E+01 0. -1.
        4   -1    0    0  501    0  0.00000000000E+00  0.00000000000E+00 -0.76330562356E+03  0.76330668008E+03  0.12699999809E+01 0.  1.
    10030    2    1    2    0    0  0.00000000000E+00  0.00000000000E+00  0.55048120323E+03  0.20770941207E+04  0.20028206188E+04 0.  0.
        2    1    3    3  502    0  0.26099987147E+03  0.43653856058E+03  0.11698639128E+04  0.12756443165E+04  0.25500000920E-02 0. -1.
       -2    1    3    3    0  502 -0.26099987147E+03 -0.43653856058E+03 -0.61938270955E+03  0.80144980421E+03  0.25500000920E-02 0.  1.
</event>
<event>
 5   0  0.2356996E-06  0.2000197E+04  0.7818609E-02  0.8606528E-01
        1   -1    0    0  501    0  0.00000000000E+00  0.00000000000E+00  0.78428786059E+03  0.78428786061E+03  0.50400001928E-02 0.  1.
       -1   -1    0    0    0  501  0.00000000000E+00  0.00000000000E+00 -0.12752938430E+04  0.12752938430E+04  0.50400001928E-02 0. -1.
    10030    2    1    2    0    0  0.00000000000E+00  0.00000000000E+00 -0.49100598240E+03  0.20595817036E+04  0.20001974700E+04 0.  0.
        4    1    3    3  502    0 -0.80715930252E+02  0.91249561917E+03 -0.65870553564E+03  0.11282986803E+04  0.12699999809E+01 0. -1.
       -4    1    3    3    0  502  0.80715930252E+02 -0.91249561917E+03  0.16769955325E+03  0.93128302329E+03  0.12699999809E+01 0.  1.
</event>
<event>
 5   0  0.2356996E-06  0.1999789E+04  0.7818609E-02  0.8606719E-01
        1   -1    0    0  501    0  0.00000000000E+00  0.00000000000E+00  0.14599306301E+04  0.14599306301E+04  0.50400001928E-02 0. -1.
       -1   -1    0    0    0  501  0.00000000000E+00  0.00000000000E+00 -0.68481981749E+03  0.68481981751E+03  0.50400001928E-02 0.  1.
    10030    2    1    2    0    0  0.00000000000E+00  0.00000000000E+00  0.77511081263E+03  0.21447504476E+04  0.19997894166E+04 0.  0.
        4    1    3    3  502    0 -0.79930058156E+03 -0.59368972354E+03  0.28903286422E+03  0.10367692689E+04  0.12699999809E+01 0.  1.
       -4    1    3    3    0  502  0.79930058156E+03  0.59368972354E+03  0.48607794841E+03  0.11079811787E+04  0.12699999809E+01 0. -1.
</event>
<event>
 5   0  0.2313821E-06  0.1999568E+04  0.7818609E-02  0.8606823E-01
       -1   -1    0    0    0  501  0.00000000000E+00  0.00000000000E+00  0.10456528163E+04  0.10456528163E+04  0.50400001928E-02 0.  1.
        1   -1    0    0  501    0  0.00000000000E+00  0.00000000000E+00 -0.95592710302E+03  0.95592710303E+03  0.50400001928E-02 0. -1.
    10030    2    1    2    0    0  0.00000000000E+00  0.00000000000E+00  0.89725713275E+02  0.20015799193E+04  0.19995678208E+04 0.  0.
        1    1    3    3  502    0 -0.53896532547E+03 -0.78979963517E+03 -0.24749401213E+03  0.98768434828E+03  0.50400001928E-02 0. -1.
       -1    1    3    3    0  502  0.53896532547E+03  0.78979963517E+03  0.33721972541E+03  0.10138955711E+04  0.50400001928E-02 0.  1.
</event>
<event>
 5   0  0.1777750E-06  0.1999026E+04  0.7818609E-02  0.8607076E-01
       -4   -1    0    0    0  501  0.00000000000E+00  0.00000000000E+00  0.97550641518E+03  0.97550724188E+03  0.12699999809E+01 0.  1.
        4   -1    0    0  501    0  0.00000000000E+00  0.00000000000E+00 -0.10241086516E+04  0.10241094391E+04  0.12699999809E+01 0. -1.
    10030    2    1    2    0    0  0.00000000000E+00  0.00000000000E+00 -0.48602236465E+02  0.19996166810E+04  0.19990259362E+04 0.  0.
        2    1    3    3  502    0 -0.25672088976E+03  0.56672326149E+03 -0.80680162055E+03  0.10188276229E+04  0.25500000920E-02 0. -1.
       -2    1    3    3    0  502  0.25672088976E+03 -0.56672326149E+03  0.75819938409E+03  0.98078905805E+03  0.25500000920E-02 0.  1.
</event>
<event>
 5   0  0.4956214E-06  0.1999017E+04  0.7818609E-02  0.8607081E-01
       -2   -1    0    0    0  501  0.00000000000E+00  0.00000000000E+00  0.49431670702E+03  0.49431670703E+03  0.25500000920E-02 0.  1.
        2   -1    0    0  501    0  0.00000000000E+00  0.00000000000E+00 -0.20210057193E+04  0.20210057193E+04  0.25500000920E-02 0. -1.
    10030    2    1    2    0    0  0.00000000000E+00  0.00000000000E+00 -0.15266890123E+04  0.25153224263E+04  0.19990166503E+04 0.  0.
        1    1    3    3  502    0 -0.23275730214E+03 -0.92777313017E+02  0.45415640144E+03  0.51869222908E+03  0.50400001928E-02 0.  1.
       -1    1    3    3    0  502  0.23275730214E+03  0.92777313017E+02 -0.19808454137E+04  0.19966301973E+04  0.50400001928E-02 0. -1.
</event>
<event>
 5   0  0.4956214E-06  0.1998437E+04  0.7818609E-02  0.8607352E-01
       -2   -1    0    0    0  501  0.00000000000E+00  0.00000000000E+00  0.51574270556E+03  0.51574270556E+03  0.25500000920E-02 0.  1.
        2   -1    0    0  501    0  0.00000000000E+00  0.00000000000E+00 -0.19359225291E+04  0.19359225291E+04  0.25500000920E-02 0. -1.
    10030    2    1    2    0    0  0.00000000000E+00  0.00000000000E+00 -0.14201798236E+04  0.24516652347E+04  0.19984373124E+04 0.  0.
        1    1    3    3  502    0 -0.92261716438E+03 -0.35088283974E+03 -0.51965365444E+03  0.11155183189E+04  0.50400001928E-02 0.  1.
       -1    1    3    3    0  502  0.92261716438E+03  0.35088283974E+03 -0.90052616915E+03  0.13361469158E+04  0.50400001928E-02 0. -1.
</event>
<event>
 5   0  0.4956214E-06  0.2005727E+04  0.7818609E-02  0.8603948E-01
        2   -1    0    0  501    0  0.00000000000E+00  0.00000000000E+00  0.14884719787E+04  0.14884719787E+04  0.25500000920E-02 0. -1.
       -2   -1    0    0    0  501  0.00000000000E+00  0.00000000000E+00 -0.67568302918E+03  0.67568302918E+03  0.25500000920E-02 0.  1.
    10030    2    1    2    0    0  0.00000000000E+00  0.00000000000E+00  0.81278894955E+03  0.21641550079E+04  0.20057270557E+04 0.  0.
        1    1    3    3  502    0 -0.10737463151E+03 -0.98603700814E+03  0.56620477878E+03  0.11420972570E+04  0.50400001928E-02 0.  1.
       -1    1    3    3    0  502  0.10737463151E+03  0.98603700814E+03  0.24658417077E+03  0.10220577509E+04  0.50400001928E-02 0. -1.
</event>
<event>
 5   0  0.2386776E-06  0.1999622E+04  0.7818609E-02  0.8606798E-01
        1   -1    0    0  501    0  0.00000000000E+00  0.00000000000E+00  0.14968760195E+04  0.14968760195E+04  0.50400001928E-02 0. -1.
       -1   -1    0    0    0  501  0.00000000000E+00  0.00000000000E+00 -0.66780526669E+03  0.66780526671E+03  0.50400001928E-02 0.  1.
    10030    2    1    2    0    0  0.00000000000E+00  0.00000000000E+00  0.82907075283E+03  0.21646812862E+04  0.19996216537E+04 0.  0.
        2    1    3    3  502    0  0.72982988422E+03 -0.62932059949E+03  0.12623336035E+03  0.97192126128E+03  0.25500000920E-02 0.  1.
       -2    1    3    3    0  502 -0.72982988422E+03  0.62932059949E+03  0.70283739247E+03  0.11927600250E+04  0.25500000920E-02 0. -1.
</event>
<event>
 5   0  0.2379743E-06  0.2000364E+04  0.7818609E-02  0.8606450E-01
        1   -1    0    0  501    0  0.00000000000E+00  0.00000000000E+00  0.94244963967E+03  0.94244963969E+03  0.50400001928E-02 0. -1.
       -1   -1    0    0    0  501  0.00000000000E+00  0.00000000000E+00 -0.10614512656E+04  0.10614512657E+04  0.50400001928E-02 0.  1.
    10030    2    1    2    0    0  0.00000000000E+00  0.00000000000E+00 -0.11900162597E+03  0.20039009053E+04  0.20003643297E+04 0.  0.
        5    1    3    3  502    0 -0.41593343294E+03  0.15279223961E+03 -0.95774441706E+03  0.10552926360E+04  0.46999998093E+01 0.  1.
       -5    1    3    3    0  502  0.41593343294E+03 -0.15279223961E+03  0.83874279109E+03  0.94860826937E+03  0.46999998093E+01 0. -1.
</event>
<event>
 5   0  0.5251252E-06  0.1999225E+04  0.7818609E-02  0.8606983E-01
        2   -1    0    0  501    0  0.00000000000E+00  0.00000000000E+00  0.11165810987E+04  0.11165810987E+04  0.25500000920E-02 0.  1.
       -2   -1    0    0    0  501  0.00000000000E+00  0.00000000000E+00 -0.89489728640E+03  0.89489728640E+03  0.25500000920E-02 0. -1.
    10030    2    1    2    0    0  0.00000000000E+00  0.00000000000E+00  0.22168381228E+03  0.20114783851E+04  0.19992252452E+04 0.  0.
        5    1    3    3  502    0 -0.58027964600E+03 -0.54730652987E+03  0.71697460006E+03  0.10725407089E+04  0.46999998093E+01 0.  1.
       -5    1    3    3    0  502  0.58027964600E+03  0.54730652987E+03 -0.49529078778E+03  0.93893767613E+03  0.46999998093E+01 0. -1.
</event>
<event>
 5   0  0.2356996E-06  0.2000618E+04  0.7818609E-02  0.8606332E-01
        1   -1    0    0  501    0  0.00000000000E+00  0.00000000000E+00  0.13786586675E+04  0.13786586675E+04  0.50400001928E-02 0. -1.
       -1   -1    0    0    0  501  0.00000000000E+00  0.00000000000E+00 -0.72579109026E+03  0.72579109028E+03  0.50400001928E-02 0.  1.
    10030    2    1    2    0    0  0.00000000000E+00  0.00000000000E+00  0.65286757720E+03  0.21044497577E+04  0.20006180819E+04 0.  0.
        4    1    3    3  502    0  0.43822794461E+03 -0.50350658044E+03  0.11101195809E+04  0.12953492598E+04  0.12699999809E+01 0. -1.
       -4    1    3    3    0  502 -0.43822794461E+03  0.50350658044E+03 -0.45725200372E+03  0.80910049796E+03  0.12699999809E+01 0.  1.
</event>
<event>
 5   0  0.5129100E-06  0.2001087E+04  0.7818609E-02  0.8606113E-01
        2   -1    0    0  501    0  0.00000000000E+00  0.00000000000E+00  0.13978656495E+04  0.13978656495E+04  0.25500000920E-02 0.  1.
       -2   -1    0    0    0  501  0.00000000000E+00  0.00000000000E+00 -0.71615433282E+03  0.71615433282E+03  0.25500000920E-02 0. -1.
    10030    2    1    2    0    0  0.00000000000E+00  0.00000000000E+00  0.68171131672E+03  0.21140199824E+04  0.20010872461E+04 0.  0.
        2    1    3    3  502    0 -0.83810514681E+03 -0.36809258504E+03 -0.85890950643E+02  0.91939634743E+03  0.25500000920E-02 0. -1.
       -2    1    3    3    0  502  0.83810514681E+03  0.36809258504E+03  0.76760226737E+03  0.11946236349E+04  0.25500000920E-02 0.  1.
</event>
<event>
 5   0  0.2313821E-06  0.2007396E+04  0.7818609E-02  0.8603171E-01
       -1   -1    0    0    0  501  0.00000000000E+00  0.00000000000E+00  0.98299564108E+03  0.98299564109E+03  0.50400001928E-02 0. -1.
        1   -1    0    0  501    0  0.00000000000E+00  0.00000000000E+00 -0.10248362631E+04  0.10248362631E+04  0.50400001928E-02 0.  1.
    10030    2    1    2    0    0  0.00000000000E+00  0.00000000000E+00 -0.41840621982E+02  0.20078319042E+04  0.20073959046E+04 0.  0.
        1    1    3    3  502    0  0.61934230008E+03 -0.71036529021E+03  0.32441667955E+03  0.99671957551E+03  0.50400001928E-02 0. -1.
       -1    1    3    3    0  502 -0.61934230008E+03  0.71036529021E+03 -0.36625730153E+03  0.10111123287E+04  0.50400001928E-02 0.  1.
</event>
<event>
 5   0  0.5030137E-06  0.1999720E+04  0.7818609E-02  0.8606752E-01
        2   -1    0    0  501    0  0.00000000000E+00  0.00000000000E+00  0.12874150855E+04  0.12874150855E+04  0.25500000920E-02 0.  1.
       -2   -1    0    0    0  501  0.00000000000E+00  0.00000000000E+00 -0.77653263375E+03  0.77653263375E+03  0.25500000920E-02 0. -1.
    10030    2    1    2    0    0  0.00000000000E+00  0.00000000000E+00  0.51088245179E+03  0.20639477193E+04  0.19997198075E+04 0.  0.
        3    1    3    3  502    0 -0.59659830654E+02 -0.73471083089E+03 -0.44180083089E+03  0.85938773833E+03  0.10100000352E+00 0. -1.
       -3    1    3    3    0  502  0.59659830654E+02  0.73471083089E+03  0.95268328268E+03  0.12045599810E+04  0.10100000352E+00 0.  1.
</event>
<event>
 5   0  0.1777750E-06  0.1999948E+04  0.7818609E-02  0.8606645E-01
        4   -1    0    0  501    0  0.00000000000E+00  0.00000000000E+00  0.14190997344E+04  0.14191003027E+04  0.12699999809E+01 0.  1.
       -4   -1    0    0    0  501  0.00000000000E+00  0.00000000000E+00 -0.70463413575E+03  0.70463528024E+03  0.12699999809E+01 0. -1.
    10030    2    1    2    0    0  0.00000000000E+00  0.00000000000E+00  0.71446559869E+03  0.21237355830E+04  0.19999479330E+04 0.  0.
        4    1    3    3  502    0  0.90683350434E+03  0.37915652135E+03  0.16189122850E+03  0.99615112059E+03  0.12699999809E+01 0. -1.
       -4    1    3    3    0  502 -0.90683350434E+03 -0.37915652135E+03  0.55257437019E+03  0.11275844624E+04  0.12699999809E+01 0.  1.
</event>
<event>
 5   0  0.2313821E-06  0.2001262E+04  0.7818609E-02  0.8606031E-01
       -1   -1    0    0    0  501  0.00000000000E+00  0.00000000000E+00  0.70922727272E+03  0.70922727274E+03  0.50400001928E-02 0.  1.
        1   -1    0    0  501    0  0.00000000000E+00  0.00000000000E+00 -0.14117657812E+04  0.14117657812E+04  0.50400001928E-02 0. -1.
    10030    2    1    2    0    0  0.00000000000E+00  0.00000000000E+00 -0.70253850851E+03  0.21209930540E+04  0.20012623964E+04 0.  0.
        1    1    3    3  502    0 -0.13980437116E+03 -0.78139370638E+03  0.29439228448E+03  0.84663345301E+03  0.50400001928E-02 0.  1.
       -1    1    3    3    0  502  0.13980437116E+03  0.78139370638E+03 -0.99693079298E+03  0.12743596010E+04  0.50400001928E-02 0. -1.
</event>
<event>
 5   0  0.2356996E-06  0.2000620E+04  0.7818609E-02  0.8606331E-01
        1   -1    0    0  501    0  0.00000000000E+00  0.00000000000E+00  0.11056476884E+04  0.11056476884E+04  0.50400001928E-02 0.  1.
       -1   -1    0    0    0  501  0.00000000000E+00  0.00000000000E+00 -0.90500806915E+03  0.90500806916E+03  0.50400001928E-02 0. -1.
    10030    2    1    2    0    0  0.00000000000E+00  0.00000000000E+00  0.20063961923E+03  0.20106557575E+04  0.20006199835E+04 0.  0.
        4    1    3    3  502    0 -0.71279036479E+03 -0.53694976755E+03  0.55450859542E+03  0.10506505377E+04  0.12699999809E+01 0.  1.
       -4    1    3    3    0  502  0.71279036479E+03  0.53694976755E+03 -0.35386897618E+03  0.96000521989E+03  0.12699999809E+01 0. -1.
</event>
<event>
 5   0  0.1777750E-06  0.1998629E+04  0.7818609E-02  0.8607262E-01
        3   -1    0    0  501    0  0.00000000000E+00  0.00000000000E+00  0.12021329186E+04  0.12021329228E+04  0.10100000352E+00 0.  1.
       -3   -1    0    0    0  501  0.00000000000E+00  0.00000000000E+00 -0.83071484817E+03  0.83071485431E+03  0.10100000352E+00 0. -1.
    10030    2    1    2    0    0  0.00000000000E+00  0.00000000000E+00  0.37141807039E+03  0.20328477771E+04  0.19986292057E+04 0.  0.
        4    1    3    3  502    0 -0.37593884005E+03 -0.68986521336E+03  0.81384532708E+03  0.11311895745E+04  0.12699999809E+01 0.  1.
       -4    1    3    3    0  502  0.37593884005E+03  0.68986521336E+03 -0.44242725669E+03  0.90165820266E+03  0.12699999809E+01 0. -1.
</event>
<event>
 5   0  0.2379743E-06  0.1998770E+04  0.7818609E-02  0.8607196E-01
        1   -1    0    0  501    0  0.00000000000E+00  0.00000000000E+00  0.12208827351E+04  0.12208827351E+04  0.50400001928E-02 0.  1.
       -1   -1    0    0    0  501  0.00000000000E+00  0.00000000000E+00 -0.81807201029E+03  0.81807201030E+03  0.50400001928E-02 0. -1.
    10030    2    1    2    0    0  0.00000000000E+00  0.00000000000E+00  0.40281072479E+03  0.20389547454E+04  0.19987696150E+04 0.  0.
        5    1    3    3  502    0  0.30997950495E+03  0.78344254467E+03  0.74968532543E+03  0.11277941707E+04  0.46999998093E+01 0.  1.
       -5    1    3    3    0  502 -0.30997950495E+03 -0.78344254467E+03 -0.34687460065E+03  0.91116057469E+03  0.46999998093E+01 0. -1.
</event>
<event>
 5   0  0.1777750E-06  0.2000086E+04  0.7818609E-02  0.8606581E-01
        4   -1    0    0  501    0  0.00000000000E+00  0.00000000000E+00  0.11187264366E+04  0.11187271575E+04  0.12699999809E+01 0.  1.
       -4   -1    0    0    0  501  0.00000000000E+00  0.00000000000E+00 -0.89394876054E+03  0.89394966266E+03  0.12699999809E+01 0. -1.
    10030    2    1    2    0    0  0.00000000000E+00  0.00000000000E+00  0.22477767607E+03  0.20126768201E+04  0.20000857428E+04 0.  0.
        4    1    3    3  502    0 -0.88750224689E+03 -0.11873984717E+03 -0.33575133762E+03  0.95628968579E+03  0.12699999809E+01 0.  1.
       -4    1    3    3    0  502  0.88750224689E+03  0.11873984717E+03  0.56052901370E+03  0.10563871344E+04  0.12699999809E+01 0. -1.
</event>
<event>
 5   0  0.5251252E-06  0.2000156E+04  0.7818609E-02  0.8606548E-01
       -2   -1    0    0    0  501  0.00000000000E+00  0.00000000000E+00  0.75660955837E+03  0.75660955837E+03  0.25500000920E-02 0. -1.
        2   -1    0    0  501    0  0.00000000000E+00  0.00000000000E+00 -0.13218919304E+04  0.13218919305E+04  0.25500000920E-02 0.  1.
    10030    2    1    2    0    0  0.00000000000E+00  0.00000000000E+00 -0.56528237208E+03  0.20785014888E+04  0.20001560636E+04 0.  0.
        5    1    3    3  502    0 -0.56914575983E+03 -0.23394991742E+03  0.53657423807E+03  0.81645175164E+03  0.46999998093E+01 0. -1.
       -5    1    3    3    0  502  0.56914575983E+03  0.23394991742E+03 -0.11018566102E+04  0.12620497372E+04  0.46999998093E+01 0.  1.
</event>
<event>
 5   0  0.5251252E-06  0.1999612E+04  0.7818609E-02  0.8606802E-01
       -2   -1    0    0    0  501  0.00000000000E+00  0.00000000000E+00  0.92770746289E+03  0.92770746289E+03  0.25500000920E-02 0.  1.
        2   -1    0    0  501    0  0.00000000000E+00  0.00000000000E+00 -0.10775074458E+04  0.10775074458E+04  0.25500000920E-02 0. -1.
    10030    2    1    2    0    0  0.00000000000E+00  0.00000000000E+00 -0.14979998295E+03  0.20052149087E+04  0.19996116611E+04 0.  0.
        5    1    3    3  502    0  0.49638151081E+03  0.76785765865E+03  0.33069551676E+03  0.97230736037E+03  0.46999998093E+01 0.  1.
       -5    1    3    3    0  502 -0.49638151081E+03 -0.76785765865E+03 -0.48049549970E+03  0.10329075484E+04  0.46999998093E+01 0. -1.
</event>
<event>
 5   0  0.5251252E-06  0.1998729E+04  0.7818609E-02  0.8607215E-01
        2   -1    0    0  501    0  0.00000000000E+00  0.00000000000E+00  0.45420838547E+03  0.45420838548E+03  0.25500000920E-02 0. -1.
       -2   -1    0    0    0  501  0.00000000000E+00  0.00000000000E+00 -0.21988352378E+04  0.21988352378E+04  0.25500000920E-02 0.  1.
    10030    2    1    2    0    0  0.00000000000E+00  0.00000000000E+00 -0.17446268523E+04  0.26530436233E+04  0.19987289994E+04 0.  0.
        5    1    3    3  502    0 -0.59851300164E+02  0.46377902884E+03  0.30000957225E+03  0.55560867448E+03  0.46999998093E+01 0. -1.
       -5    1    3    3    0  502  0.59851300164E+02 -0.46377902884E+03 -0.20446364246E+04  0.20974349488E+04  0.46999998093E+01 0.  1.
</event>
<event>
 5   0  0.2386776E-06  0.2000558E+04  0.7818609E-02  0.8606360E-01
       -1   -1    0    0    0  501  0.00000000000E+00  0.00000000000E+00  0.58142587239E+03  0.58142587241E+03  0.50400001928E-02 0.  1.
        1   -1    0    0  501    0  0.00000000000E+00  0.00000000000E+00 -0.17208689792E+04  0.17208689792E+04  0.50400001928E-02 0. -1.
    10030    2    1    2    0    0  0.00000000000E+00  0.00000000000E+00 -0.11394431068E+04  0.23022948516E+04  0.20005576698E+04 0.  0.
        2    1    3    3  502    0 -0.87182847600E+03 -0.43202043257E+03 -0.30271193568E+03  0.10190000303E+04  0.25500000920E-02 0. -1.
       -2    1    3    3    0  502  0.87182847600E+03  0.43202043257E+03 -0.83673117113E+03  0.12832948213E+04  0.25500000920E-02 0.  1.
</event>
<event>
 5   0  0.5030137E-06  0.1999808E+04  0.7818609E-02  0.8606710E-01
       -2   -1    0    0    0  501  0.00000000000E+00  0.00000000000E+00  0.43858855573E+03  0.43858855574E+03  0.25500000920E-02 0.  1.
        2   -1    0    0  501    0  0.00000000000E+00  0.00000000000E+00 -0.22796040041E+04  0.22796040041E+04  0.25500000920E-02 0. -1.
    10030    2    1    2    0    0  0.00000000000E+00  0.00000000000E+00 -0.18410154484E+04  0.27181925598E+04  0.19998082186E+04 0.  0.
        3    1    3    3  502    0  0.68646152240E+03  0.64763474417E+03 -0.47145242129E+03  0.10549538281E+04  0.10100000352E+00 0.  1.
       -3    1    3    3    0  502 -0.68646152240E+03 -0.64763474417E+03 -0.13695630271E+04  0.16632387318E+04  0.10100000352E+00 0. -1.
</event>
<event>
 5   0  0.5118981E-06  0.1999055E+04  0.7818609E-02  0.8607063E-01
       -2   -1    0    0    0  501  0.00000000000E+00  0.00000000000E+00  0.83778235082E+03  0.83778235082E+03  0.25500000920E-02 0. -1.
        2   -1    0    0  501    0  0.00000000000E+00  0.00000000000E+00 -0.11924994735E+04  0.11924994736E+04  0.25500000920E-02 0.  1.
    10030    2    1    2    0    0  0.00000000000E+00  0.00000000000E+00 -0.35471712273E+03  0.20302818244E+04  0.19990547890E+04 0.  0.
        4    1    3    3  502    0  0.52842656269E+03  0.75439301297E+03  0.21691948078E+03  0.94625531661E+03  0.12699999809E+01 0. -1.
       -4    1    3    3    0  502 -0.52842656269E+03 -0.75439301297E+03 -0.57163660351E+03  0.10840265078E+04  0.12699999809E+01 0.  1.
</event>
<event>
 5   0  0.5030137E-06  0.2000398E+04  0.7818609E-02  0.8606435E-01
        2   -1    0    0  501    0  0.00000000000E+00  0.00000000000E+00  0.31331000388E+04  0.31331000388E+04  0.25500000920E-02 0. -1.
       -2   -1    0    0    0  501  0.00000000000E+00  0.00000000000E+00 -0.31929968366E+03  0.31929968367E+03  0.25500000920E-02 0.  1.
    10030    2    1    2    0    0  0.00000000000E+00  0.00000000000E+00  0.28138003551E+04  0.34523997224E+04  0.20003978117E+04 0.  0.
        3    1    3    3  502    0  0.38423706726E+03 -0.66325722768E+03  0.25158212059E+04  0.26300008791E+04  0.10100000352E+00 0. -1.
       -3    1    3    3    0  502 -0.38423706726E+03  0.66325722768E+03  0.29797914923E+03  0.82239884333E+03  0.10100000352E+00 0.  1.
</event>
<event>
 5   0  0.2386776E-06  0.1999409E+04  0.7818609E-02  0.8606897E-01
        1   -1    0    0  501    0  0.00000000000E+00  0.00000000000E+00  0.20809965946E+04  0.20809965946E+04  0.50400001928E-02 0. -1.
       -1   -1    0    0    0  501  0.00000000000E+00  0.00000000000E+00 -0.48025521824E+03  0.48025521826E+03  0.50400001928E-02 0.  1.
    10030    2    1    2    0    0  0.00000000000E+00  0.00000000000E+00  0.16007413764E+04  0.25612518129E+04  0.19994093865E+04 0.  0.
        2    1    3    3  502    0  0.25050382028E+03  0.86611191112E+03  0.13535916970E+04  0.16263801797E+04  0.25500000920E-02 0. -1.
       -2    1    3    3    0  502 -0.25050382028E+03 -0.86611191112E+03  0.24714967933E+03  0.93487163320E+03  0.25500000920E-02 0.  1.
</event>
<event>
 5   0  0.5129100E-06  0.2000777E+04  0.7818609E-02  0.8606257E-01
       -2   -1    0    0    0  501  0.00000000000E+00  0.00000000000E+00  0.10135517465E+04  0.10135517465E+04  0.25500000920E-02 0.  1.
        2   -1    0    0  501    0  0.00000000000E+00  0.00000000000E+00 -0.98739629818E+03  0.98739629818E+03  0.25500000920E-02 0. -1.
    10030    2    1    2    0    0  0.00000000000E+00  0.00000000000E+00  0.26155448327E+02  0.20009480447E+04  0.20007770915E+04 0.  0.
        2    1    3    3  502    0  0.44482588025E+03 -0.85540276930E+03  0.27992121302E+03  0.10039620745E+04  0.25500000920E-02 0.  1.
       -2    1    3    3    0  502 -0.44482588025E+03  0.85540276930E+03 -0.25376576469E+03  0.99698597022E+03  0.25500000920E-02 0. -1.
</event>
<event>
 5   0  0.2356996E-06  0.2001363E+04  0.7818609E-02  0.8605984E-01
       -1   -1    0    0    0  501  0.00000000000E+00  0.00000000000E+00  0.62648314040E+03  0.62648314042E+03  0.50400001928E-02 0.  1.
        1   -1    0    0  501    0  0.00000000000E+00  0.00000000000E+00 -0.15983891471E+04  0.15983891471E+04  0.50400001928E-02 0. -1.
    10030    2    1    2    0    0  0.00000000000E+00  0.00000000000E+00 -0.97190600666E+03  0.22248722875E+04  0.20013633878E+04 0.  0.
        4    1    3    3  502    0 -0.91800339270E+03 -0.40391181809E+02 -0.92643660059E+03  0.13048555722E+04  0.12699999809E+01 0. -1.
       -4    1    3    3    0  502  0.91800339270E+03  0.40391181809E+02 -0.45469406071E+02  0.92001671526E+03  0.12699999809E+01 0.  1.
</event>
<event>
 5   0  0.2356996E-06  0.2000550E+04  0.7818609E-02  0.8606363E-01
        1   -1    0    0  501    0  0.00000000000E+00  0.00000000000E+00  0.13153135067E+04  0.13153135067E+04  0.50400001928E-02 0.  1.
       -1   -1    0    0    0  501  0.00000000000E+00  0.00000000000E+00 -0.76069357238E+03  0.76069357240E+03  0.50400001928E-02 0. -1.
    10030    2    1    2    0    0  0.00000000000E+00  0.00000000000E+00  0.55461993432E+03  0.20760070791E+04  0.20005504545E+04 0.  0.
        4    1    3    3  502    0 -0.81945912637E+03 -0.19710963913E+03 -0.28169496455E+03  0.88866142911E+03  0.12699999809E+01 0. -1.
       -4    1    3    3    0  502  0.81945912637E+03  0.19710963913E+03  0.83631489888E+03  0.11873456500E+04  0.12699999809E+01 0.  1.
</event>
<event>
 5   0  0.5118981E-06  0.1993199E+04  0.7818609E-02  0.8609807E-01
        2   -1    0    0  501    0  0.00000000000E+00  0.00000000000E+00  0.11353749871E+04  0.11353749871E+04  0.25500000920E-02 0.  1.
       -2   -1    0    0    0  501  0.00000000000E+00  0.00000000000E+00 -0.87478676684E+03  0.87478676684E+03  0.25500000920E-02 0. -1.
    10030    2    1    2    0    0  0.00000000000E+00  0.00000000000E+00  0.26058822029E+03  0.20101617540E+04  0.19931994523E+04 0.  0.
        4    1    3    3  502    0 -0.78457412794E+03 -0.52459472047E+02 -0.48720801264E+03  0.92503071242E+03  0.12699999809E+01 0. -1.
       -4    1    3    3    0  502  0.78457412794E+03  0.52459472047E+02  0.74779623292E+03  0.10851310415E+04  0.12699999809E+01 0.  1.
</event>
<event>
 5   0  0.2311520E-06  0.1999732E+04  0.7818609E-02  0.8606746E-01
        1   -1    0    0  501    0  0.00000000000E+00  0.00000000000E+00  0.13781624670E+04  0.13781624670E+04  0.50400001928E-02 0.  1.
       -1   -1    0    0    0  501  0.00000000000E+00  0.00000000000E+00 -0.72540924300E+03  0.72540924302E+03  0.50400001928E-02 0. -1.
    10030    2    1    2    0    0  0.00000000000E+00  0.00000000000E+00  0.65275322398E+03  0.21035717100E+04  0.19997317740E+04 0.  0.
        3    1    3    3  502    0  0.81895408185E+03 -0.53530696857E+03  0.10953560053E+03  0.98449855092E+03  0.10100000352E+00 0. -1.
       -3    1    3    3    0  502 -0.81895408185E+03  0.53530696857E+03  0.54321762346E+03  0.11190731591E+04  0.10100000352E+00 0.  1.
</event>
<event>
 5   0  0.2386776E-06  0.2000788E+04  0.7818609E-02  0.8606252E-01
        1   -1    0    0  501    0  0.00000000000E+00  0.00000000000E+00  0.14427818213E+04  0.14427818213E+04  0.50400001928E-02 0. -1.
       -1   -1    0    0    0  501  0.00000000000E+00  0.00000000000E+00 -0.69365167559E+03  0.69365167561E+03  0.50400001928E-02 0.  1.
    10030    2    1    2    0    0  0.00000000000E+00  0.00000000000E+00  0.74913014571E+03  0.21364334969E+04  0.20007878727E+04 0.  0.
        2    1    3    3  502    0  0.29223524265E+03  0.67222882626E+02 -0.64453299277E+03  0.71087490585E+03  0.25500000920E-02 0.  1.
       -2    1    3    3    0  502 -0.29223524265E+03 -0.67222882626E+02  0.13936631385E+04  0.14255585911E+04  0.25500000920E-02 0. -1.
</event>
<event>
 5   0  0.5030137E-06  0.2004579E+04  0.7818609E-02  0.8604483E-01
       -2   -1    0    0    0  501  0.00000000000E+00  0.00000000000E+00  0.59638237476E+03  0.59638237477E+03  0.25500000920E-02 0. -1.
        2   -1    0    0  501    0  0.00000000000E+00  0.00000000000E+00 -0.16844641271E+04  0.16844641271E+04  0.25500000920E-02 0.  1.
    10030    2    1    2    0    0  0.00000000000E+00  0.00000000000E+00 -0.10880817524E+04  0.22808465019E+04  0.20045794734E+04 0.  0.
        3    1    3    3  502    0  0.99042150068E+03 -0.14594624730E+03 -0.48888721197E+03  0.11141121004E+04  0.10100000352E+00 0.  1.
       -3    1    3    3    0  502 -0.99042150068E+03  0.14594624730E+03 -0.59919454039E+03  0.11667344015E+04  0.10100000352E+00 0. -1.
</event>
<event>
 5   0  0.5030137E-06  0.1999658E+04  0.7818609E-02  0.8606780E-01
        2   -1    0    0  501    0  0.00000000000E+00  0.00000000000E+00  0.20298822820E+04  0.20298822820E+04  0.25500000920E-02 0.  1.
       -2   -1    0    0    0  501  0.00000000000E+00  0.00000000000E+00 -0.49247110360E+03  0.49247110361E+03  0.25500000920E-02 0. -1.
    10030    2    1    2    0    0  0.00000000000E+00  0.00000000000E+00  0.15374111784E+04  0.25223533856E+04  0.19996583384E+04 0.  0.
        3    1    3    3  502    0  0.24504017810E+03  0.91610524478E+03  0.36909135336E+03  0.10176059875E+04  0.10100000352E+00 0. -1.
       -3    1    3    3    0  502 -0.24504017810E+03 -0.91610524478E+03  0.11683198250E+04  0.15047473981E+04  0.10100000352E+00 0.  1.
</event>
<event>
 5   0  0.5118981E-06  0.2000581E+04  0.7818609E-02  0.8606349E-01
        2   -1    0    0  501    0  0.00000000000E+00  0.00000000000E+00  0.27418431294E+04  0.27418431294E+04  0.25500000920E-02 0. -1.
       -2   -1    0    0    0  501  0.00000000000E+00  0.00000000000E+00 -0.36493013175E+03  0.36493013176E+03  0.25500000920E-02 0.  1.
    10030    2    1    2    0    0  0.00000000000E+00  0.00000000000E+00  0.23769129976E+04  0.31067732611E+04  0.20005810900E+04 0.  0.
        4    1    3    3  502    0  0.90465391821E+03 -0.37600569315E+03  0.87477673179E+03  0.13133982398E+04  0.12699999809E+01 0.  1.
       -4    1    3    3    0  502 -0.90465391821E+03  0.37600569315E+03  0.15021362658E+04  0.17933750213E+04  0.12699999809E+01 0. -1.
</event>
<event>
 5   0  0.2313821E-06  0.1999736E+04  0.7818609E-02  0.8606744E-01
       -1   -1    0    0    0  501  0.00000000000E+00  0.00000000000E+00  0.10380151135E+04  0.10380151135E+04  0.50400001928E-02 0.  1.
        1   -1    0    0  501    0  0.00000000000E+00  0.00000000000E+00 -0.96312302637E+03  0.96312302639E+03  0.50400001928E-02 0. -1.
    10030    2    1    2    0    0  0.00000000000E+00  0.00000000000E+00  0.74892087131E+02  0.20011381399E+04  0.19997362402E+04 0.  0.
        1    1    3    3  502    0  0.54972784986E+03  0.56944640595E+03 -0.57393752984E+03  0.97768819485E+03  0.50400001928E-02 0. -1.
       -1    1    3    3    0  502 -0.54972784986E+03 -0.56944640595E+03  0.64882961697E+03  0.10234499451E+04  0.50400001928E-02 0.  1.
</event>
<event>
 5   0  0.5118981E-06  0.2002215E+04  0.7818609E-02  0.8605586E-01
       -2   -1    0    0    0  501  0.00000000000E+00  0.00000000000E+00  0.70068990047E+03  0.70068990048E+03  0.25500000920E-02 0. -1.
        2   -1    0    0  501    0  0.00000000000E+00  0.00000000000E+00 -0.14303283765E+04  0.14303283765E+04  0.25500000920E-02 0.  1.
    10030    2    1    2    0    0  0.00000000000E+00  0.00000000000E+00 -0.72963847599E+03  0.21310182769E+04  0.20022154207E+04 0.  0.
        4    1    3    3  502    0  0.11087451396E+03  0.48026385208E+03  0.56259565665E+03  0.74797193212E+03  0.12699999809E+01 0. -1.
       -4    1    3    3    0  502 -0.11087451396E+03 -0.48026385208E+03 -0.12922341326E+04  0.13830463448E+04  0.12699999809E+01 0.  1.
</event>
<event>
 5   0  0.2311520E-06  0.1999686E+04  0.7818609E-02  0.8606768E-01
        1   -1    0    0  501    0  0.00000000000E+00  0.00000000000E+00  0.96843804165E+03  0.96843804167E+03  0.50400001928E-02 0. -1.
       -1   -1    0    0    0  501  0.00000000000E+00  0.00000000000E+00 -0.10322659079E+04  0.10322659079E+04  0.50400001928E-02 0.  1.
    10030    2    1    2    0    0  0.00000000000E+00  0.00000000000E+00 -0.63827866240E+02  0.20007039496E+04  0.19996855496E+04 0.  0.
        3    1    3    3  502    0  0.42433176677E+02  0.26863305999E+03 -0.99454803369E+03  0.10310626057E+04  0.10100000352E+00 0.  1.
       -3    1    3    3    0  502 -0.42433176677E+02 -0.26863305999E+03  0.93072016745E+03  0.96964134385E+03  0.10100000352E+00 0. -1.
</event>
<event>
 5   0  0.5030137E-06  0.1998500E+04  0.7818609E-02  0.8607322E-01
       -2   -1    0    0    0  501  0.00000000000E+00  0.00000000000E+00  0.38881515085E+03  0.38881515085E+03  0.25500000920E-02 0. -1.
        2   -1    0    0  501    0  0.00000000000E+00  0.00000000000E+00 -0.25680594391E+04  0.25680594391E+04  0.25500000920E-02 0.  1.
    10030    2    1    2    0    0  0.00000000000E+00  0.00000000000E+00 -0.21792442883E+04  0.29568745900E+04  0.19984998556E+04 0.  0.
        3    1    3    3  502    0  0.13794665323E+03  0.91526190380E+03 -0.16467001547E+04  0.18890090104E+04  0.10100000352E+00 0.  1.
       -3    1    3    3    0  502 -0.13794665323E+03 -0.91526190380E+03 -0.53254413363E+03  0.10678655796E+04  0.10100000352E+00 0. -1.
</event>
<event>
 5   0  0.5251252E-06  0.2000218E+04  0.7818609E-02  0.8606519E-01
        2   -1    0    0  501    0  0.00000000000E+00  0.00000000000E+00  0.18910317553E+04  0.18910317553E+04  0.25500000920E-02 0.  1.
       -2   -1    0    0    0  501  0.00000000000E+00  0.00000000000E+00 -0.52892720906E+03  0.52892720906E+03  0.25500000920E-02 0. -1.
    10030    2    1    2    0    0  0.00000000000E+00  0.00000000000E+00  0.13621045463E+04  0.24199589644E+04  0.20002181367E+04 0.  0.
        5    1    3    3  502    0  0.97667072282E+03 -0.52389485899E+02  0.93357646318E+03  0.13521159202E+04  0.46999998093E+01 0. -1.
       -5    1    3    3    0  502 -0.97667072282E+03  0.52389485899E+02  0.42852808309E+03  0.10678430442E+04  0.46999998093E+01 0.  1.
</event>
<event>
 5   0  0.2313821E-06  0.2002337E+04  0.7818609E-02  0.8605529E-01
       -1   -1    0    0    0  501  0.00000000000E+00  0.00000000000E+00  0.90787207572E+03  0.90787207573E+03  0.50400001928E-02 0.  1.
        1   -1    0    0  501    0  0.00000000000E+00  0.00000000000E+00 -0.11040528576E+04  0.11040528577E+04  0.50400001928E-02 0. -1.
    10030    2    1    2    0    0  0.00000000000E+00  0.00000000000E+00 -0.19618078193E+03  0.20119249334E+04  0.20023373937E+04 0.  0.
        1    1    3    3  502    0 -0.98026310876E+03 -0.19579980192E+03 -0.15390304792E+03  0.10114047029E+04  0.50400001928E-02 0. -1.
       -1    1    3    3    0  502  0.98026310876E+03  0.19579980192E+03 -0.42277734013E+02  0.10005202305E+04  0.50400001928E-02 0.  1.
</event>
<event>
 5   0  0.2313821E-06  0.1999578E+04  0.7818609E-02  0.8606818E-01
       -1   -1    0    0    0  501  0.00000000000E+00  0.00000000000E+00  0.42556215553E+03  0.42556215556E+03  0.50400001928E-02 0.  1.
        1   -1    0    0  501    0  0.00000000000E+00  0.00000000000E+00 -0.23488411705E+04  0.23488411705E+04  0.50400001928E-02 0. -1.
    10030    2    1    2    0    0  0.00000000000E+00  0.00000000000E+00 -0.19232790150E+04  0.27744033260E+04  0.19995778670E+04 0.  0.
        1    1    3    3  502    0  0.92371625044E+03 -0.34061445385E+03 -0.12031910816E+04  0.15546506670E+04  0.50400001928E-02 0. -1.
       -1    1    3    3    0  502 -0.92371625044E+03  0.34061445385E+03 -0.72008793335E+03  0.12197526591E+04  0.50400001928E-02 0.  1.
</event>
<event>
 5   0  0.4956214E-06  0.2005493E+04  0.7818609E-02  0.8604057E-01
        2   -1    0    0  501    0  0.00000000000E+00  0.00000000000E+00  0.29736950009E+03  0.29736950010E+03  0.25500000920E-02 0. -1.
       -2   -1    0    0    0  501  0.00000000000E+00  0.00000000000E+00 -0.33813186424E+04  0.33813186424E+04  0.25500000920E-02 0.  1.
    10030    2    1    2    0    0  0.00000000000E+00  0.00000000000E+00 -0.30839491423E+04  0.36786881424E+04  0.20054934897E+04 0.  0.
        1    1    3    3  502    0  0.64122235454E+03 -0.73087783177E+03 -0.19918565885E+04  0.22164929917E+04  0.50400001928E-02 0.  1.
       -1    1    3    3    0  502 -0.64122235454E+03  0.73087783177E+03 -0.10920925538E+04  0.14621951508E+04  0.50400001928E-02 0. -1.
</event>
<event>
 5   0  0.2356996E-06  0.2000409E+04  0.7818609E-02  0.8606430E-01
        1   -1    0    0  501    0  0.00000000000E+00  0.00000000000E+00  0.15991978294E+04  0.15991978295E+04  0.50400001928E-02 0. -1.
       -1   -1    0    0    0  501  0.00000000000E+00  0.00000000000E+00 -0.62556897602E+03  0.62556897604E+03  0.50400001928E-02 0.  1.
    10030    2    1    2    0    0  0.00000000000E+00  0.00000000000E+00  0.97362885343E+03  0.22247668055E+04  0.20004085069E+04 0.  0.
        4    1    3    3  502    0  0.59720107749E+03 -0.27899863743E+03  0.13234616842E+04  0.14785269051E+04  0.12699999809E+01 0. -1.
       -4    1    3    3    0  502 -0.59720107749E+03  0.27899863743E+03 -0.34983283073E+03  0.74623990044E+03  0.12699999809E+01 0.  1.
</event>
<event>
 5   0  0.5251252E-06  0.2000259E+04  0.7818609E-02  0.8606500E-01
        2   -1    0    0  501    0  0.00000000000E+00  0.00000000000E+00  0.15848695284E+04  0.15848695284E+04  0.25500000920E-02 0. -1.
       -2   -1    0    0    0  501  0.00000000000E+00  0.00000000000E+00 -0.63113003947E+03  0.63113003947E+03  0.25500000920E-02 0.  1.
    10030    2    1    2    0    0  0.00000000000E+00  0.00000000000E+00  0.95373948894E+03  0.22159995679E+04  0.20002587513E+04 0.  0.
        5    1    3    3  502    0  0.17884731084E+03 -0.91812084467E+03  0.86903282765E+03  0.12767820454E+04  0.46999998093E+01 0. -1.
       -5    1    3    3    0  502 -0.17884731084E+03  0.91812084467E+03  0.84706661296E+02  0.93921752245E+03  0.46999998093E+01 0.  1.
</event>
<event>
 5   0  0.2386776E-06  0.2000517E+04  0.7818609E-02  0.8606379E-01
       -1   -1    0    0    0  501  0.00000000000E+00  0.00000000000E+00  0.10894772812E+04  0.10894772812E+04  0.50400001928E-02 0.  1.
        1   -1    0    0  501    0  0.00000000000E+00  0.00000000000E+00 -0.91834614577E+03  0.91834614578E+03  0.50400001928E-02 0. -1.
    10030    2    1    2    0    0  0.00000000000E+00  0.00000000000E+00  0.17113113539E+03  0.20078234270E+04  0.20005171952E+04 0.  0.
        2    1    3    3  502    0  0.53005311933E+03 -0.15882069984E+02  0.93678374447E+03  0.10764628806E+04  0.25500000920E-02 0.  1.
       -2    1    3    3    0  502 -0.53005311933E+03  0.15882069984E+02 -0.76565260908E+03  0.93136054633E+03  0.25500000920E-02 0. -1.
</event>
<event>
 5   0  0.2379743E-06  0.1989735E+04  0.7818609E-02  0.8611435E-01
        1   -1    0    0  501    0  0.00000000000E+00  0.00000000000E+00  0.16488440956E+04  0.16488440956E+04  0.50400001928E-02 0. -1.
       -1   -1    0    0    0  501  0.00000000000E+00  0.00000000000E+00 -0.60027589012E+03  0.60027589014E+03  0.50400001928E-02 0.  1.
    10030    2    1    2    0    0  0.00000000000E+00  0.00000000000E+00  0.10485682055E+04  0.22491199857E+04  0.19897350147E+04 0.  0.
        5    1    3    3  502    0  0.37964922020E+03 -0.40595286003E+02 -0.51414711938E+03  0.64043021322E+03  0.46999998093E+01 0.  1.
       -5    1    3    3    0  502 -0.37964922020E+03  0.40595286003E+02  0.15627153248E+04  0.16086897725E+04  0.46999998093E+01 0. -1.
</event>
<event>
 5   0  0.2313821E-06  0.2000421E+04  0.7818609E-02  0.8606424E-01
        1   -1    0    0  501    0  0.00000000000E+00  0.00000000000E+00  0.12153423863E+04  0.12153423863E+04  0.50400001928E-02 0. -1.
       -1   -1    0    0    0  501  0.00000000000E+00  0.00000000000E+00 -0.82316004732E+03  0.82316004734E+03  0.50400001928E-02 0.  1.
    10030    2    1    2    0    0  0.00000000000E+00  0.00000000000E+00  0.39218233897E+03  0.20385024336E+04  0.20004212519E+04 0.  0.
        1    1    3    3  502    0  0.98609026864E+03  0.14675329045E+03  0.11386590379E+03  0.10034321054E+04  0.50400001928E-02 0. -1.
       -1    1    3    3    0  502 -0.98609026864E+03 -0.14675329045E+03  0.27831643518E+03  0.10350703282E+04  0.50400001928E-02 0.  1.
</event>
<event>
 5   0  0.5251252E-06  0.2000157E+04  0.7818609E-02  0.8606547E-01
       -2   -1    0    0    0  501  0.00000000000E+00  0.00000000000E+00  0.63243530513E+03  0.63243530514E+03  0.25500000920E-02 0. -1.
        2   -1    0    0  501    0  0.00000000000E+00  0.00000000000E+00 -0.15814373181E+04  0.15814373181E+04  0.25500000920E-02 0.  1.
    10030    2    1    2    0    0  0.00000000000E+00  0.00000000000E+00 -0.94900201297E+03  0.22138726232E+04  0.20001567867E+04 0.  0.
        5    1    3    3  502    0  0.91751639435E+03  0.72033779402E+02 -0.90760248253E+03  0.12925902505E+04  0.46999998093E+01 0. -1.
       -5    1    3    3    0  502 -0.91751639435E+03 -0.72033779402E+02 -0.41399530434E+02  0.92128237278E+03  0.46999998093E+01 0.  1.
</event>
<event>
 5   0  0.2386776E-06  0.2003113E+04  0.7818609E-02  0.8605167E-01
        1   -1    0    0  501    0  0.00000000000E+00  0.00000000000E+00  0.71038741542E+03  0.71038741543E+03  0.50400001928E-02 0. -1.
       -1   -1    0    0    0  501  0.00000000000E+00  0.00000000000E+00 -0.14120679203E+04  0.14120679203E+04  0.50400001928E-02 0.  1.
    10030    2    1    2    0    0  0.00000000000E+00  0.00000000000E+00 -0.70168050489E+03  0.21224553357E+04  0.20031128579E+04 0.  0.
        2    1    3    3  502    0 -0.85416684507E+03 -0.32913879092E+03  0.79799799310E+02  0.91885872194E+03  0.25500000920E-02 0. -1.
       -2    1    3    3    0  502  0.85416684507E+03  0.32913879092E+03 -0.78148030420E+03  0.12035966138E+04  0.25500000920E-02 0.  1.
</event>
<event>
 5   0  0.2311520E-06  0.1999586E+04  0.7818609E-02  0.8606814E-01
       -1   -1    0    0    0  501  0.00000000000E+00  0.00000000000E+00  0.79731517198E+03  0.79731517200E+03  0.50400001928E-02 0. -1.
        1   -1    0    0  501    0  0.00000000000E+00  0.00000000000E+00 -0.12536893558E+04  0.12536893558E+04  0.50400001928E-02 0.  1.
    10030    2    1    2    0    0  0.00000000000E+00  0.00000000000E+00 -0.45637418380E+03  0.20510045278E+04  0.19995855014E+04 0.  0.
        3    1    3    3  502    0  0.72753357582E+03 -0.67267098038E+03 -0.36501215539E+03  0.10559475534E+04  0.10100000352E+00 0.  1.
       -3    1    3    3    0  502 -0.72753357582E+03  0.67267098038E+03 -0.91362028407E+02  0.99505697437E+03  0.10100000352E+00 0. -1.
</event>
<event>
 5   0  0.5030137E-06  0.2013458E+04  0.7818609E-02  0.8600354E-01
        2   -1    0    0  501    0  0.00000000000E+00  0.00000000000E+00  0.16721529232E+04  0.16721529232E+04  0.25500000920E-02 0. -1.
       -2   -1    0    0    0  501  0.00000000000E+00  0.00000000000E+00 -0.60610678169E+03  0.60610678169E+03  0.25500000920E-02 0.  1.
    10030    2    1    2    0    0  0.00000000000E+00  0.00000000000E+00  0.10660461415E+04  0.22782597049E+04  0.20134579477E+04 0.  0.
        3    1    3    3  502    0  0.39807371619E+03 -0.48284702147E+03 -0.35929706833E+03  0.72159429264E+03  0.10100000352E+00 0.  1.
       -3    1    3    3    0  502 -0.39807371619E+03  0.48284702147E+03  0.14253432098E+04  0.15566654122E+04  0.10100000352E+00 0. -1.
</event>
<event>
 5   0  0.1777750E-06  0.2000210E+04  0.7818609E-02  0.8606523E-01
       -4   -1    0    0    0  501  0.00000000000E+00  0.00000000000E+00  0.12431241457E+04  0.12431247944E+04  0.12699999809E+01 0. -1.
        4   -1    0    0  501    0  0.00000000000E+00  0.00000000000E+00 -0.80459242416E+03  0.80459342647E+03  0.12699999809E+01 0.  1.
    10030    2    1    2    0    0  0.00000000000E+00  0.00000000000E+00  0.43853172153E+03  0.20477182209E+04  0.20002099493E+04 0.  0.
        2    1    3    3  502    0 -0.62093319083E+03 -0.21083681992E+02  0.10215942101E+04  0.11956827670E+04  0.25500000920E-02 0. -1.
       -2    1    3    3    0  502  0.62093319083E+03  0.21083681992E+02 -0.58306248857E+03  0.85203545391E+03  0.25500000920E-02 0.  1.
</event>
<event>
 5   0  0.4956214E-06  0.2002483E+04  0.7818609E-02  0.8605461E-01
       -2   -1    0    0    0  501  0.00000000000E+00  0.00000000000E+00  0.62334134445E+03  0.62334134446E+03  0.25500000920E-02 0. -1.
        2   -1    0    0  501    0  0.00000000000E+00  0.00000000000E+00 -0.16082425929E+04  0.16082425929E+04  0.25500000920E-02 0.  1.
    10030    2    1    2    0    0  0.00000000000E+00  0.00000000000E+00 -0.98490124845E+03  0.22315839374E+04  0.20024825593E+04 0.  0.
        1    1    3    3  502    0  0.65161607812E+03  0.16900392861E+03  0.33350459516E+03  0.75125971286E+03  0.50400001928E-02 0. -1.
       -1    1    3    3    0  502 -0.65161607812E+03 -0.16900392861E+03 -0.13184058436E+04  0.14803242245E+04  0.50400001928E-02 0.  1.
</event>
<event>
 5   0  0.2356996E-06  0.2000326E+04  0.7818609E-02  0.8606468E-01
       -1   -1    0    0    0  501  0.00000000000E+00  0.00000000000E+00  0.11263122268E+04  0.11263122268E+04  0.50400001928E-02 0. -1.
        1   -1    0    0  501    0  0.00000000000E+00  0.00000000000E+00 -0.88814290797E+03  0.88814290799E+03  0.50400001928E-02 0.  1.
    10030    2    1    2    0    0  0.00000000000E+00  0.00000000000E+00  0.23816931880E+03  0.20144551348E+04  0.20003261898E+04 0.  0.
        4    1    3    3  502    0 -0.64379841137E+03  0.76087643614E+03  0.35339257560E+02  0.99732633655E+03  0.12699999809E+01 0. -1.
       -4    1    3    3    0  502  0.64379841137E+03 -0.76087643614E+03  0.20283006124E+03  0.10171287982E+04  0.12699999809E+01 0.  1.
</event>
<event>
 5   0  0.2379743E-06  0.1999503E+04  0.7818609E-02  0.8606853E-01
        1   -1    0    0  501    0  0.00000000000E+00  0.00000000000E+00  0.12348065591E+04  0.12348065591E+04  0.50400001928E-02 0. -1.
       -1   -1    0    0    0  501  0.00000000000E+00  0.00000000000E+00 -0.80944061145E+03  0.80944061146E+03  0.50400001928E-02 0.  1.
    10030    2    1    2    0    0  0.00000000000E+00  0.00000000000E+00  0.42536594764E+03  0.20442471706E+04  0.19995025144E+04 0.  0.
        5    1    3    3  502    0  0.20174722151E+03 -0.11945198331E+03  0.12062900544E+04  0.12288728588E+04  0.46999998093E+01 0. -1.
       -5    1    3    3    0  502 -0.20174722151E+03  0.11945198331E+03 -0.78092410679E+03  0.81537431175E+03  0.46999998093E+01 0.  1.
</event>
<event>
 5   0  0.2311520E-06  0.1999688E+04  0.7818609E-02  0.8606767E-01
        1   -1    0    0  501    0  0.00000000000E+00  0.00000000000E+00  0.56676157813E+03  0.56676157815E+03  0.50400001928E-02 0. -1.
       -1   -1    0    0    0  501  0.00000000000E+00  0.00000000000E+00 -0.17638600254E+04  0.17638600254E+04  0.50400001928E-02 0.  1.
    10030    2    1    2    0    0  0.00000000000E+00  0.00000000000E+00 -0.11970984473E+04  0.23306216036E+04  0.19996880673E+04 0.  0.
        3    1    3    3  502    0  0.54796603450E+03 -0.83368087908E+03 -0.52126117285E+03  0.11256126348E+04  0.10100000352E+00 0.  1.
       -3    1    3    3    0  502 -0.54796603450E+03  0.83368087908E+03 -0.67583727446E+03  0.12050089688E+04  0.10100000352E+00 0. -1.
</event>
<event>
 5   0  0.5129100E-06  0.1998052E+04  0.7818609E-02  0.8607532E-01
        2   -1    0    0  501    0  0.00000000000E+00  0.00000000000E+00  0.10833836701E+04  0.10833836701E+04  0.25500000920E-02 0. -1.
       -2   -1    0    0    0  501  0.00000000000E+00  0.00000000000E+00 -0.92123672983E+03  0.92123672983E+03  0.25500000920E-02 0.  1.
    10030    2    1    2    0    0  0.00000000000E+00  0.00000000000E+00  0.16214694024E+03  0.20046203999E+04  0.19980518806E+04 0.  0.
        2    1    3    3  502    0  0.63991031645E+03  0.60997498896E+03 -0.38574975934E+03  0.96455045337E+03  0.25500000920E-02 0.  1.
       -2    1    3    3    0  502 -0.63991031645E+03 -0.60997498896E+03  0.54789669959E+03  0.10400699465E+04  0.25500000920E-02 0. -1.
</event>
<event>
 5   0  0.2311520E-06  0.2000219E+04  0.7818609E-02  0.8606518E-01
        1   -1    0    0  501    0  0.00000000000E+00  0.00000000000E+00  0.19974947397E+04  0.19974947397E+04  0.50400001928E-02 0.  1.
       -1   -1    0    0    0  501  0.00000000000E+00  0.00000000000E+00 -0.50073662050E+03  0.50073662053E+03  0.50400001928E-02 0. -1.
    10030    2    1    2    0    0  0.00000000000E+00  0.00000000000E+00  0.14967581192E+04  0.24982313602E+04  0.20002187535E+04 0.  0.
        3    1    3    3  502    0 -0.54700232807E+03  0.16261387743E+03  0.17741885677E+04  0.18637059596E+04  0.10100000352E+00 0.  1.
       -3    1    3    3    0  502  0.54700232807E+03 -0.16261387743E+03 -0.27743044849E+03  0.63452540060E+03  0.10100000352E+00 0. -1.
</event>
<event>
 5   0  0.2386776E-06  0.1999932E+04  0.7818609E-02  0.8606652E-01
        1   -1    0    0  501    0  0.00000000000E+00  0.00000000000E+00  0.85825111741E+03  0.85825111742E+03  0.50400001928E-02 0.  1.
       -1   -1    0    0    0  501  0.00000000000E+00  0.00000000000E+00 -0.11650813704E+04  0.11650813704E+04  0.50400001928E-02 0. -1.
    10030    2    1    2    0    0  0.00000000000E+00  0.00000000000E+00 -0.30683025297E+03  0.20233324878E+04  0.19999323869E+04 0.  0.
        2    1    3    3  502    0 -0.89624132990E+03 -0.44279311202E+03 -0.17856817545E+03  0.10154806029E+04  0.25500000920E-02 0.  1.
       -2    1    3    3    0  502  0.89624132990E+03  0.44279311202E+03 -0.12826207752E+03  0.10078518850E+04  0.25500000920E-02 0. -1.
</event>
<event>
 5   0  0.2356996E-06  0.1999080E+04  0.7818609E-02  0.8607051E-01
        1   -1    0    0  501    0  0.00000000000E+00  0.00000000000E+00  0.52739614578E+03  0.52739614581E+03  0.50400001928E-02 0. -1.
       -1   -1    0    0    0  501  0.00000000000E+00  0.00000000000E+00 -0.18943635715E+04  0.18943635715E+04  0.50400001928E-02 0.  1.
    10030    2    1    2    0    0  0.00000000000E+00  0.00000000000E+00 -0.13669674258E+04  0.24217597173E+04  0.19990798347E+04 0.  0.
        4    1    3    3  502    0  0.79926000469E+03  0.46248152525E+03 -0.11469636935E+04  0.14724921200E+04  0.12699999809E+01 0. -1.
       -4    1    3    3    0  502 -0.79926000469E+03 -0.46248152525E+03 -0.22000373224E+03  0.94926759736E+03  0.12699999809E+01 0.  1.
</event>
<event>
 5   0  0.5030137E-06  0.2000556E+04  0.7818609E-02  0.8606361E-01
       -2   -1    0    0    0  501  0.00000000000E+00  0.00000000000E+00  0.78756222927E+03  0.78756222927E+03  0.25500000920E-02 0. -1.
        2   -1    0    0  501    0  0.00000000000E+00  0.00000000000E+00 -0.12704464974E+04  0.12704464974E+04  0.25500000920E-02 0.  1.
    10030    2    1    2    0    0  0.00000000000E+00  0.00000000000E+00 -0.48288426812E+03  0.20580087267E+04  0.20005555985E+04 0.  0.
        3    1    3    3  502    0 -0.17215756336E+03  0.13932848269E+03 -0.12449068971E+04  0.12644539712E+04  0.10100000352E+00 0.  1.
       -3    1    3    3    0  502  0.17215756336E+03 -0.13932848269E+03  0.76202262894E+03  0.79355475547E+03  0.10100000352E+00 0. -1.
</event>
<event>
 5   0  0.5030137E-06  0.2000612E+04  0.7818609E-02  0.8606335E-01
       -2   -1    0    0    0  501  0.00000000000E+00  0.00000000000E+00  0.11907383420E+04  0.11907383420E+04  0.25500000920E-02 0. -1.
        2   -1    0    0  501    0  0.00000000000E+00  0.00000000000E+00 -0.84032897310E+03  0.84032897310E+03  0.25500000920E-02 0.  1.
    10030    2    1    2    0    0  0.00000000000E+00  0.00000000000E+00  0.35040936886E+03  0.20310673151E+04  0.20006118345E+04 0.  0.
        3    1    3    3  502    0  0.37363941922E+03  0.65160927568E+03  0.84587526419E+03  0.11312409277E+04  0.10100000352E+00 0. -1.
       -3    1    3    3    0  502 -0.37363941922E+03 -0.65160927568E+03 -0.49546589533E+03  0.89982638736E+03  0.10100000352E+00 0.  1.
</event>
<event>
 5   0  0.2386776E-06  0.2000277E+04  0.7818609E-02  0.8606491E-01
        1   -1    0    0  501    0  0.00000000000E+00  0.00000000000E+00  0.94853965605E+03  0.94853965606E+03  0.50400001928E-02 0.  1.
       -1   -1    0    0    0  501  0.00000000000E+00  0.00000000000E+00 -0.10545444215E+04  0.10545444215E+04  0.50400001928E-02 0. -1.
    10030    2    1    2    0    0  0.00000000000E+00  0.00000000000E+00 -0.10600476549E+03  0.20030840776E+04  0.20002771837E+04 0.  0.
        2    1    3    3  502    0 -0.79263982091E+03  0.28928729733E+03 -0.59070294449E+03  0.10299975702E+04  0.25500000920E-02 0. -1.
       -2    1    3    3    0  502  0.79263982091E+03 -0.28928729733E+03  0.48469817900E+03  0.97308650737E+03  0.25500000920E-02 0.  1.
</event>
<event>
 5   0  0.2379743E-06  0.1999627E+04  0.7818609E-02  0.8606795E-01
        1   -1    0    0  501    0  0.00000000000E+00  0.00000000000E+00  0.65607321790E+03  0.65607321791E+03  0.50400001928E-02 0. -1.
       -1   -1    0    0    0  501  0.00000000000E+00  0.00000000000E+00 -0.15236515345E+04  0.15236515345E+04  0.50400001928E-02 0.  1.
    10030    2    1    2    0    0  0.00000000000E+00  0.00000000000E+00 -0.86757831662E+03  0.21797247524E+04  0.19996269304E+04 0.  0.
        5    1    3    3  502    0  0.63597467588E+03 -0.61279949813E+03 -0.94463105478E+03  0.12931886687E+04  0.46999998093E+01 0.  1.
       -5    1    3    3    0  502 -0.63597467588E+03  0.61279949813E+03  0.77052738165E+02  0.88653608371E+03  0.46999998093E+01 0. -1.
</event>
<event>
 5   0  0.5251252E-06  0.1999583E+04  0.7818609E-02  0.8606815E-01
       -2   -1    0    0    0  501  0.00000000000E+00  0.00000000000E+00  0.34609509799E+03  0.34609509799E+03  0.25500000920E-02 0. -1.
        2   -1    0    0  501    0  0.00000000000E+00  0.00000000000E+00 -0.28881754781E+04  0.28881754781E+04  0.25500000920E-02 0.  1.
    10030    2    1    2    0    0  0.00000000000E+00  0.00000000000E+00 -0.25420803801E+04  0.32342705761E+04  0.19995833317E+04 0.  0.
        5    1    3    3  502    0 -0.26358764016E+03 -0.34180490019E+03  0.18760437780E+03  0.47066604552E+03  0.46999998093E+01 0. -1.
       -5    1    3    3    0  502  0.26358764016E+03  0.34180490019E+03 -0.27296847579E+04  0.27636045306E+04  0.46999998093E+01 0.  1.
</event>
<event>
 5   0  0.4956214E-06  0.1999825E+04  0.7818609E-02  0.8606702E-01
       -2   -1    0    0    0  501  0.00000000000E+00  0.00000000000E+00  0.12457451046E+04  0.12457451046E+04  0.25500000920E-02 0.  1.
        2   -1    0    0  501    0  0.00000000000E+00  0.00000000000E+00 -0.80259236303E+03  0.80259236304E+03  0.25500000920E-02 0. -1.
    10030    2    1    2    0    0  0.00000000000E+00  0.00000000000E+00  0.44315274159E+03  0.20483374677E+04  0.19998254996E+04 0.  0.
        1    1    3    3  502    0 -0.71471716853E+03  0.28817514843E+03  0.87418228899E+03  0.11653584091E+04  0.50400001928E-02 0.  1.
       -1    1    3    3    0  502  0.71471716853E+03 -0.28817514843E+03 -0.43102954740E+03  0.88297905860E+03  0.50400001928E-02 0. -1.
</event>
<event>
 5   0  0.1777750E-06  0.2002452E+04  0.7818609E-02  0.8605475E-01
       -3   -1    0    0    0  501  0.00000000000E+00  0.00000000000E+00  0.63088396995E+03  0.63088397803E+03  0.10100000352E+00 0.  1.
        3   -1    0    0  501    0  0.00000000000E+00  0.00000000000E+00 -0.15889671542E+04  0.15889671575E+04  0.10100000352E+00 0. -1.
    10030    2    1    2    0    0  0.00000000000E+00  0.00000000000E+00 -0.95808318429E+03  0.22198511355E+04  0.20024524153E+04 0.  0.
        4    1    3    3  502    0 -0.48046713641E+03  0.40693362485E+03  0.38393906703E+03  0.73746489022E+03  0.12699999809E+01 0.  1.
       -4    1    3    3    0  502  0.48046713641E+03 -0.40693362485E+03 -0.13420222513E+04  0.14823862453E+04  0.12699999809E+01 0. -1.
</event>
<event>
 5   0  0.2356996E-06  0.2004820E+04  0.7818609E-02  0.8604370E-01
       -1   -1    0    0    0  501  0.00000000000E+00  0.00000000000E+00  0.62456512955E+03  0.62456512957E+03  0.50400001928E-02 0. -1.
        1   -1    0    0  501    0  0.00000000000E+00  0.00000000000E+00 -0.16088411142E+04  0.16088411142E+04  0.50400001928E-02 0.  1.
    10030    2    1    2    0    0  0.00000000000E+00  0.00000000000E+00 -0.98427598465E+03  0.22334062438E+04  0.20048202502E+04 0.  0.
        4    1    3    3  502    0 -0.32430528288E+03 -0.20641306553E+03  0.53918307534E+03  0.66219353045E+03  0.12699999809E+01 0. -1.
       -4    1    3    3    0  502  0.32430528288E+03  0.20641306553E+03 -0.15234590600E+04  0.15712127133E+04  0.12699999809E+01 0.  1.
</event>
<event>
 5   0  0.5118981E-06  0.1999731E+04  0.7818609E-02  0.8606746E-01
        2   -1    0    0  501    0  0.00000000000E+00  0.00000000000E+00  0.18634159216E+04  0.18634159216E+04  0.25500000920E-02 0.  1.
       -2   -1    0    0    0  501  0.00000000000E+00  0.00000000000E+00 -0.53650471745E+03  0.53650471745E+03  0.25500000920E-02 0. -1.
    10030    2    1    2    0    0  0.00000000000E+00  0.00000000000E+00  0.13269112042E+04  0.23999206391E+04  0.19997314145E+04 0.  0.
        4    1    3    3  502    0 -0.57047467757E+03  0.17045714352E+03 -0.30055861266E+03  0.66695883536E+03  0.12699999809E+01 0. -1.
       -4    1    3    3    0  502  0.57047467757E+03 -0.17045714352E+03  0.16274698168E+04  0.17329618037E+04  0.12699999809E+01 0.  1.
</event>
<event>
 5   0  0.5030137E-06  0.2001191E+04  0.7818609E-02  0.8606064E-01
       -2   -1    0    0    0  501  0.00000000000E+00  0.00000000000E+00  0.50478451595E+03  0.50478451596E+03  0.25500000920E-02 0. -1.
        2   -1    0    0  501    0  0.00000000000E+00  0.00000000000E+00 -0.19834039083E+04  0.19834039083E+04  0.25500000920E-02 0.  1.
    10030    2    1    2    0    0  0.00000000000E+00  0.00000000000E+00 -0.14786193923E+04  0.24881884242E+04  0.20011912270E+04 0.  0.
        3    1    3    3  502    0  0.32328933416E+03  0.82084265784E+03 -0.13263160487E+04  0.15929259034E+04  0.10100000352E+00 0.  1.
       -3    1    3    3    0  502 -0.32328933416E+03 -0.82084265784E+03 -0.15230334363E+03  0.89526252083E+03  0.10100000352E+00 0. -1.
</event>
<event>
 5   0  0.5251252E-06  0.2000268E+04  0.7818609E-02  0.8606495E-01
        2   -1    0    0  501    0  0.00000000000E+00  0.00000000000E+00  0.18973422586E+04  0.18973422586E+04  0.25500000920E-02 0. -1.
       -2   -1    0    0    0  501  0.00000000000E+00  0.00000000000E+00 -0.52719447416E+03  0.52719447416E+03  0.25500000920E-02 0.  1.
    10030    2    1    2    0    0  0.00000000000E+00  0.00000000000E+00  0.13701477844E+04  0.24245367328E+04  0.20002683363E+04 0.  0.
        5    1    3    3  502    0 -0.63287912097E+03  0.53750604784E+03  0.93344202466E+01  0.83039626361E+03  0.46999998093E+01 0.  1.
       -5    1    3    3    0  502  0.63287912097E+03 -0.53750604784E+03  0.13608133642E+04  0.15941404692E+04  0.46999998093E+01 0. -1.
</event>
<event>
 5   0  0.5251252E-06  0.1998633E+04  0.7818609E-02  0.8607260E-01
        2   -1    0    0  501    0  0.00000000000E+00  0.00000000000E+00  0.10893438884E+04  0.10893438884E+04  0.25500000920E-02 0.  1.
       -2   -1    0    0    0  501  0.00000000000E+00  0.00000000000E+00 -0.91672936335E+03  0.91672936335E+03  0.25500000920E-02 0. -1.
    10030    2    1    2    0    0  0.00000000000E+00  0.00000000000E+00  0.17261452509E+03  0.20060732518E+04  0.19986330622E+04 0.  0.
        5    1    3    3  502    0 -0.67434502377E+03 -0.20135276930E+03  0.79840393953E+03  0.10643096774E+04  0.46999998093E+01 0.  1.
       -5    1    3    3    0  502  0.67434502377E+03  0.20135276930E+03 -0.62578941444E+03  0.94176357437E+03  0.46999998093E+01 0. -1.
</event>
<event>
 5   0  0.5251252E-06  0.2000672E+04  0.7818609E-02  0.8606307E-01
       -2   -1    0    0    0  501  0.00000000000E+00  0.00000000000E+00  0.51285659081E+03  0.51285659081E+03  0.25500000920E-02 0.  1.
        2   -1    0    0  501    0  0.00000000000E+00  0.00000000000E+00 -0.19511732507E+04  0.19511732507E+04  0.25500000920E-02 0. -1.
    10030    2    1    2    0    0  0.00000000000E+00  0.00000000000E+00 -0.14383166599E+04  0.24640298415E+04  0.20006719486E+04 0.  0.
        5    1    3    3  502    0 -0.43391642768E+03  0.82611956034E+03 -0.27528105011E+03  0.97291250415E+03  0.46999998093E+01 0.  1.
       -5    1    3    3    0  502  0.43391642768E+03 -0.82611956034E+03 -0.11630356098E+04  0.14911173374E+04  0.46999998093E+01 0. -1.
</event>
<event>
 5   0  0.2379743E-06  0.1999774E+04  0.7818609E-02  0.8606726E-01
        1   -1    0    0  501    0  0.00000000000E+00  0.00000000000E+00  0.12383860770E+04  0.12383860770E+04  0.50400001928E-02 0. -1.
       -1   -1    0    0    0  501  0.00000000000E+00  0.00000000000E+00 -0.80731987224E+03  0.80731987226E+03  0.50400001928E-02 0.  1.
    10030    2    1    2    0    0  0.00000000000E+00  0.00000000000E+00  0.43106620471E+03  0.20457059492E+04  0.19997736767E+04 0.  0.
        5    1    3    3  502    0 -0.39906028871E+03  0.87476028231E+03  0.49623865719E+03  0.10820025695E+04  0.46999998093E+01 0.  1.
       -5    1    3    3    0  502  0.39906028871E+03 -0.87476028231E+03 -0.65172452476E+02  0.96370337972E+03  0.46999998093E+01 0. -1.
</event>
<event>
 5   0  0.4956214E-06  0.2000925E+04  0.7818609E-02  0.8606188E-01
        2   -1    0    0  501    0  0.00000000000E+00  0.00000000000E+00  0.15141953413E+04  0.15141953413E+04  0.25500000920E-02 0.  1.
       -2   -1    0    0    0  501  0.00000000000E+00  0.00000000000E+00 -0.66102799042E+03  0.66102799042E+03  0.25500000920E-02 0. -1.
    10030    2    1    2    0    0  0.00000000000E+00  0.00000000000E+00  0.85316735091E+03  0.21752233318E+04  0.20009252895E+04 0.  0.
        1    1    3    3  502    0 -0.32359442217E+03 -0.40900744909E+03 -0.50155831304E+03  0.72357527934E+03  0.50400001928E-02 0. -1.
       -1    1    3    3    0  502  0.32359442217E+03  0.40900744909E+03  0.13547256640E+04  0.14516480524E+04  0.50400001928E-02 0.  1.
</event>
<event>
 5   0  0.2386776E-06  0.2001506E+04  0.7818609E-02  0.8605917E-01
       -1   -1    0    0    0  501  0.00000000000E+00  0.00000000000E+00  0.12918227211E+04  0.12918227211E+04  0.50400001928E-02 0. -1.
        1   -1    0    0  501    0  0.00000000000E+00  0.00000000000E+00 -0.77526619299E+03  0.77526619301E+03  0.50400001928E-02 0.  1.
    10030    2    1    2    0    0  0.00000000000E+00  0.00000000000E+00  0.51655652814E+03  0.20670889142E+04  0.20015059161E+04 0.  0.
        2    1    3    3  502    0 -0.52166694034E+03 -0.54214489417E+03  0.93978621747E+03  0.12038503302E+04  0.25500000920E-02 0. -1.
       -2    1    3    3    0  502  0.52166694034E+03  0.54214489417E+03 -0.42322968933E+03  0.86323858397E+03  0.25500000920E-02 0.  1.
</event>
<event>
 5   0  0.2356996E-06  0.2001470E+04  0.7818609E-02  0.8605934E-01
       -1   -1    0    0    0  501  0.00000000000E+00  0.00000000000E+00  0.10496089549E+04  0.10496089549E+04  0.50400001928E-02 0.  1.
        1   -1    0    0  501    0  0.00000000000E+00  0.00000000000E+00 -0.95413706296E+03  0.95413706297E+03  0.50400001928E-02 0. -1.
    10030    2    1    2    0    0  0.00000000000E+00  0.00000000000E+00  0.95471891961E+02  0.20037460179E+04  0.20014702651E+04 0.  0.
        4    1    3    3  502    0 -0.31300324141E+03 -0.95022680379E+03  0.71578668198E+02  0.10030090361E+04  0.12699999809E+01 0.  1.
       -4    1    3    3    0  502  0.31300324141E+03  0.95022680379E+03  0.23893223764E+02  0.10007369818E+04  0.12699999809E+01 0. -1.
</event>
<event>
 5   0  0.2311520E-06  0.1999190E+04  0.7818609E-02  0.8607000E-01
       -1   -1    0    0    0  501  0.00000000000E+00  0.00000000000E+00  0.85339227990E+03  0.85339227991E+03  0.50400001928E-02 0. -1.
        1   -1    0    0  501    0  0.00000000000E+00  0.00000000000E+00 -0.11708445354E+04  0.11708445354E+04  0.50400001928E-02 0.  1.
    10030    2    1    2    0    0  0.00000000000E+00  0.00000000000E+00 -0.31745225546E+03  0.20242368153E+04  0.19991895232E+04 0.  0.
        3    1    3    3  502    0  0.43462164664E+03  0.31616546498E+03 -0.10120981064E+04  0.11459490234E+04  0.10100000352E+00 0.  1.
       -3    1    3    3    0  502 -0.43462164664E+03 -0.31616546498E+03  0.69464585095E+03  0.87828779191E+03  0.10100000352E+00 0. -1.
</event>
<event>
 5   0  0.4956214E-06  0.1999670E+04  0.7818609E-02  0.8606775E-01
       -2   -1    0    0    0  501  0.00000000000E+00  0.00000000000E+00  0.73382392647E+03  0.73382392647E+03  0.25500000920E-02 0. -1.
        2   -1    0    0  501    0  0.00000000000E+00  0.00000000000E+00 -0.13622755120E+04  0.13622755120E+04  0.25500000920E-02 0.  1.
    10030    2    1    2    0    0  0.00000000000E+00  0.00000000000E+00 -0.62845158553E+03  0.20960994385E+04  0.19996703380E+04 0.  0.
        1    1    3    3  502    0  0.95126294447E+03 -0.68989402559E+02  0.25779426566E+00  0.95376139242E+03  0.50400001928E-02 0. -1.
       -1    1    3    3    0  502 -0.95126294447E+03  0.68989402559E+02 -0.62870937979E+03  0.11423380460E+04  0.50400001928E-02 0.  1.
</event>
<event>
 5   0  0.2356996E-06  0.2000386E+04  0.7818609E-02  0.8606440E-01
       -1   -1    0    0    0  501  0.00000000000E+00  0.00000000000E+00  0.74977583927E+03  0.74977583929E+03  0.50400001928E-02 0. -1.
        1   -1    0    0  501    0  0.00000000000E+00  0.00000000000E+00 -0.13342468022E+04  0.13342468022E+04  0.50400001928E-02 0.  1.
    10030    2    1    2    0    0  0.00000000000E+00  0.00000000000E+00 -0.58447096294E+03  0.20840226415E+04  0.20003859787E+04 0.  0.
        4    1    3    3  502    0 -0.99993812547E+03 -0.21280733902E+02 -0.29998129953E+03  0.10441836608E+04  0.12699999809E+01 0. -1.
       -4    1    3    3    0  502  0.99993812547E+03  0.21280733902E+02 -0.28448966341E+03  0.10398389808E+04  0.12699999809E+01 0.  1.
</event>
<event>
 5   0  0.2356996E-06  0.2003658E+04  0.7818609E-02  0.8604912E-01
        1   -1    0    0  501    0  0.00000000000E+00  0.00000000000E+00  0.18065252387E+04  0.18065252387E+04  0.50400001928E-02 0. -1.
       -1   -1    0    0    0  501  0.00000000000E+00  0.00000000000E+00 -0.55557576248E+03  0.55557576251E+03  0.50400001928E-02 0.  1.
    10030    2    1    2    0    0  0.00000000000E+00  0.00000000000E+00  0.12509494762E+04  0.23621010012E+04  0.20036582912E+04 0.  0.
        4    1    3    3  502    0  0.84659376766E+03 -0.40698745741E+03  0.10360621318E+04  0.13984942445E+04  0.12699999809E+01 0. -1.
       -4    1    3    3    0  502 -0.84659376766E+03  0.40698745741E+03  0.21488734439E+03  0.96360675673E+03  0.12699999809E+01 0.  1.
</event>
<event>
 5   0  0.2379743E-06  0.2000295E+04  0.7818609E-02  0.8606483E-01
        1   -1    0    0  501    0  0.00000000000E+00  0.00000000000E+00  0.95752192229E+03  0.95752192230E+03  0.50400001928E-02 0.  1.
       -1   -1    0    0    0  501  0.00000000000E+00  0.00000000000E+00 -0.10446710792E+04  0.10446710792E+04  0.50400001928E-02 0. -1.
    10030    2    1    2    0    0  0.00000000000E+00  0.00000000000E+00 -0.87149156933E+02  0.20021930015E+04  0.20002954381E+04 0.  0.
        5    1    3    3  502    0 -0.62518309255E+03 -0.34341760899E+03  0.65814954313E+03  0.97055265931E+03  0.46999998093E+01 0.  1.
       -5    1    3    3    0  502  0.62518309255E+03  0.34341760899E+03 -0.74529870006E+03  0.10316403422E+04  0.46999998093E+01 0. -1.
</event>
<event>
 5   0  0.5129100E-06  0.1998982E+04  0.7818609E-02  0.8607097E-01
       -2   -1    0    0    0  501  0.00000000000E+00  0.00000000000E+00  0.10304700458E+04  0.10304700458E+04  0.25500000920E-02 0.  1.
        2   -1    0    0  501    0  0.00000000000E+00  0.00000000000E+00 -0.96944374251E+03  0.96944374251E+03  0.25500000920E-02 0. -1.
    10030    2    1    2    0    0  0.00000000000E+00  0.00000000000E+00  0.61026303325E+02  0.19999137883E+04  0.19989824789E+04 0.  0.
        2    1    3    3  502    0 -0.74074414790E+03 -0.58978958130E+03  0.35070771578E+03  0.10097274606E+04  0.25500000920E-02 0.  1.
       -2    1    3    3    0  502  0.74074414790E+03  0.58978958130E+03 -0.28968141245E+03  0.99018632771E+03  0.25500000920E-02 0. -1.
</event>
<event>
 5   0  0.5118981E-06  0.1999400E+04  0.7818609E-02  0.8606901E-01
        2   -1    0    0  501    0  0.00000000000E+00  0.00000000000E+00  0.13628220920E+04  0.13628220920E+04  0.25500000920E-02 0. -1.
       -2   -1    0    0    0  501  0.00000000000E+00  0.00000000000E+00 -0.73333111354E+03  0.73333111354E+03  0.25500000920E-02 0.  1.
    10030    2    1    2    0    0  0.00000000000E+00  0.00000000000E+00  0.62949097843E+03  0.20961532055E+04  0.19993997522E+04 0.  0.
        4    1    3    3  502    0  0.78663953363E+02  0.50887079010E+03  0.12131016257E+04  0.13178598809E+04  0.12699999809E+01 0. -1.
       -4    1    3    3    0  502 -0.78663953363E+02 -0.50887079010E+03 -0.58361064727E+03  0.77829332458E+03  0.12699999809E+01 0.  1.
</event>
<event>
 5   0  0.5251252E-06  0.1999451E+04  0.7818609E-02  0.8606878E-01
       -2   -1    0    0    0  501  0.00000000000E+00  0.00000000000E+00  0.96447214346E+03  0.96447214346E+03  0.25500000920E-02 0.  1.
        2   -1    0    0  501    0  0.00000000000E+00  0.00000000000E+00 -0.10362669392E+04  0.10362669392E+04  0.25500000920E-02 0. -1.
    10030    2    1    2    0    0  0.00000000000E+00  0.00000000000E+00 -0.71794795731E+02  0.20007390827E+04  0.19994505206E+04 0.  0.
        5    1    3    3  502    0 -0.43807823010E+03 -0.72250686797E+03  0.49876875963E+03  0.98118350758E+03  0.46999998093E+01 0.  1.
       -5    1    3    3    0  502  0.43807823010E+03  0.72250686797E+03 -0.57056355537E+03  0.10195555751E+04  0.46999998093E+01 0. -1.
</event>
<event>
 5   0  0.5030137E-06  0.1999464E+04  0.7818609E-02  0.8606871E-01
       -2   -1    0    0    0  501  0.00000000000E+00  0.00000000000E+00  0.67195370048E+03  0.67195370048E+03  0.25500000920E-02 0. -1.
        2   -1    0    0  501    0  0.00000000000E+00  0.00000000000E+00 -0.14873999898E+04  0.14873999898E+04  0.25500000920E-02 0.  1.
    10030    2    1    2    0    0  0.00000000000E+00  0.00000000000E+00 -0.81544628929E+03  0.21593536902E+04  0.19994638554E+04 0.  0.
        3    1    3    3  502    0  0.10418911921E+03 -0.99395747581E+03 -0.38003973428E+03  0.10692226364E+04  0.10100000352E+00 0.  1.
       -3    1    3    3    0  502 -0.10418911921E+03  0.99395747581E+03 -0.43540655501E+03  0.10901310539E+04  0.10100000352E+00 0. -1.
</event>
<event>
 5   0  0.5251252E-06  0.1999595E+04  0.7818609E-02  0.8606810E-01
        2   -1    0    0  501    0  0.00000000000E+00  0.00000000000E+00  0.75593723436E+03  0.75593723437E+03  0.25500000920E-02 0. -1.
       -2   -1    0    0    0  501  0.00000000000E+00  0.00000000000E+00 -0.13223249177E+04  0.13223249177E+04  0.25500000920E-02 0.  1.
    10030    2    1    2    0    0  0.00000000000E+00  0.00000000000E+00 -0.56638768334E+03  0.20782621521E+04  0.19995946001E+04 0.  0.
        5    1    3    3  502    0  0.68735998237E+03  0.72600946291E+03 -0.28773204669E+03  0.10403678706E+04  0.46999998093E+01 0.  1.
       -5    1    3    3    0  502 -0.68735998237E+03 -0.72600946291E+03 -0.27865563665E+03  0.10378942814E+04  0.46999998093E+01 0. -1.
</event>
<event>
 5   0  0.5129100E-06  0.1999929E+04  0.7818609E-02  0.8606654E-01
        2   -1    0    0  501    0  0.00000000000E+00  0.00000000000E+00  0.30570998963E+04  0.30570998963E+04  0.25500000920E-02 0. -1.
       -2   -1    0    0    0  501  0.00000000000E+00  0.00000000000E+00 -0.32708407419E+03  0.32708407420E+03  0.25500000920E-02 0.  1.
    10030    2    1    2    0    0  0.00000000000E+00  0.00000000000E+00  0.27300158221E+04  0.33841839705E+04  0.19999286880E+04 0.  0.
        2    1    3    3  502    0  0.32088782293E+03  0.93070653300E+03  0.10683014442E+04  0.14527393507E+04  0.25500000920E-02 0.  1.
       -2    1    3    3    0  502 -0.32088782293E+03 -0.93070653300E+03  0.16617143779E+04  0.19314446198E+04  0.25500000920E-02 0. -1.
</event>
<event>
 5   0  0.2313821E-06  0.1999665E+04  0.7818609E-02  0.8606777E-01
        1   -1    0    0  501    0  0.00000000000E+00  0.00000000000E+00  0.10396884957E+04  0.10396884957E+04  0.50400001928E-02 0. -1.
       -1   -1    0    0    0  501  0.00000000000E+00  0.00000000000E+00 -0.96150420797E+03  0.96150420798E+03  0.50400001928E-02 0.  1.
    10030    2    1    2    0    0  0.00000000000E+00  0.00000000000E+00  0.78184287689E+02  0.20011927037E+04  0.19996648355E+04 0.  0.
        1    1    3    3  502    0  0.42115776404E+03 -0.32200775038E+03  0.88744380601E+03  0.10337404715E+04  0.50400001928E-02 0. -1.
       -1    1    3    3    0  502 -0.42115776404E+03  0.32200775038E+03 -0.80925951832E+03  0.96745223217E+03  0.50400001928E-02 0.  1.
</event>
<event>
 5   0  0.2356996E-06  0.1998877E+04  0.7818609E-02  0.8607146E-01
       -1   -1    0    0    0  501  0.00000000000E+00  0.00000000000E+00  0.76396243854E+03  0.76396243855E+03  0.50400001928E-02 0.  1.
        1   -1    0    0  501    0  0.00000000000E+00  0.00000000000E+00 -0.13074955826E+04  0.13074955826E+04  0.50400001928E-02 0. -1.
    10030    2    1    2    0    0  0.00000000000E+00  0.00000000000E+00 -0.54353314405E+03  0.20714580212E+04  0.19988771985E+04 0.  0.
        4    1    3    3  502    0  0.14986466705E+03  0.98392390323E+03 -0.36623717236E+03  0.10605173007E+04  0.12699999809E+01 0.  1.
       -4    1    3    3    0  502 -0.14986466705E+03 -0.98392390323E+03 -0.17729597169E+03  0.10109407204E+04  0.12699999809E+01 0. -1.
</event>
<event>
 5   0  0.4956214E-06  0.2001200E+04  0.7818609E-02  0.8606060E-01
        2   -1    0    0  501    0  0.00000000000E+00  0.00000000000E+00  0.10364593058E+04  0.10364593058E+04  0.25500000920E-02 0. -1.
       -2   -1    0    0    0  501  0.00000000000E+00  0.00000000000E+00 -0.96598174889E+03  0.96598174889E+03  0.25500000920E-02 0.  1.
    10030    2    1    2    0    0  0.00000000000E+00  0.00000000000E+00  0.70477556867E+02  0.20024410546E+04  0.20012004126E+04 0.  0.
        1    1    3    3  502    0  0.51409109938E+03  0.11047462173E+03 -0.81658591763E+03  0.97123985782E+03  0.50400001928E-02 0.  1.
       -1    1    3    3    0  502 -0.51409109938E+03 -0.11047462173E+03  0.88706347450E+03  0.10312011968E+04  0.50400001928E-02 0. -1.
</event>
<event>
 5   0  0.5118981E-06  0.2000226E+04  0.7818609E-02  0.8606515E-01
       -2   -1    0    0    0  501  0.00000000000E+00  0.00000000000E+00  0.77446456997E+03  0.77446456997E+03  0.25500000920E-02 0.  1.
        2   -1    0    0  501    0  0.00000000000E+00  0.00000000000E+00 -0.12915063925E+04  0.12915063925E+04  0.25500000920E-02 0. -1.
    10030    2    1    2    0    0  0.00000000000E+00  0.00000000000E+00 -0.51704182253E+03  0.20659709625E+04  0.20002259301E+04 0.  0.
        4    1    3    3  502    0 -0.45525259444E+02 -0.77786256658E+03  0.38904879248E+03  0.87092094794E+03  0.12699999809E+01 0.  1.
       -4    1    3    3    0  502  0.45525259444E+02  0.77786256658E+03 -0.90609061501E+03  0.11950500145E+04  0.12699999809E+01 0. -1.
</event>
<event>
 5   0  0.2386776E-06  0.2000387E+04  0.7818609E-02  0.8606440E-01
       -1   -1    0    0    0  501  0.00000000000E+00  0.00000000000E+00  0.58863616002E+03  0.58863616004E+03  0.50400001928E-02 0.  1.
        1   -1    0    0  501    0  0.00000000000E+00  0.00000000000E+00 -0.16994992651E+04  0.16994992651E+04  0.50400001928E-02 0. -1.
    10030    2    1    2    0    0  0.00000000000E+00  0.00000000000E+00 -0.11108631051E+04  0.22881354251E+04  0.20003866840E+04 0.  0.
        2    1    3    3  502    0  0.38148246132E+03  0.60370585709E+03 -0.13564485148E+04  0.15329521204E+04  0.25500000920E-02 0. -1.
       -2    1    3    3    0  502 -0.38148246132E+03 -0.60370585709E+03  0.24558540978E+03  0.75518330468E+03  0.25500000920E-02 0.  1.
</event>
<event>
 5   0  0.2386776E-06  0.2000395E+04  0.7818609E-02  0.8606436E-01
        1   -1    0    0  501    0  0.00000000000E+00  0.00000000000E+00  0.79593807280E+03  0.79593807282E+03  0.50400001928E-02 0.  1.
       -1   -1    0    0    0  501  0.00000000000E+00  0.00000000000E+00 -0.12568751093E+04  0.12568751093E+04  0.50400001928E-02 0. -1.
    10030    2    1    2    0    0  0.00000000000E+00  0.00000000000E+00 -0.46093703653E+03  0.20528131822E+04  0.20003947133E+04 0.  0.
        2    1    3    3  502    0  0.70761129830E+03 -0.17993634283E+03 -0.93197782916E+03  0.11839229329E+04  0.25500000920E-02 0. -1.
       -2    1    3    3    0  502 -0.70761129830E+03  0.17993634283E+03  0.47104079263E+03  0.86889024927E+03  0.25500000920E-02 0.  1.
</event>
<event>
 5   0  0.5129100E-06  0.2002372E+04  0.7818609E-02  0.8605513E-01
       -2   -1    0    0    0  501  0.00000000000E+00  0.00000000000E+00  0.81299303004E+03  0.81299303004E+03  0.25500000920E-02 0.  1.
        2   -1    0    0  501    0  0.00000000000E+00  0.00000000000E+00 -0.12329419338E+04  0.12329419338E+04  0.25500000920E-02 0. -1.
    10030    2    1    2    0    0  0.00000000000E+00  0.00000000000E+00 -0.41994890377E+03  0.20459349638E+04  0.20023717923E+04 0.  0.
        2    1    3    3  502    0  0.19002629464E+02  0.73681578486E+03  0.48234678925E+03  0.88086152479E+03  0.25500000920E-02 0.  1.
       -2    1    3    3    0  502 -0.19002629464E+02 -0.73681578486E+03 -0.90229569302E+03  0.11650734391E+04  0.25500000920E-02 0. -1.
</event>
<event>
 5   0  0.5030137E-06  0.1993028E+04  0.7818609E-02  0.8609887E-01
       -2   -1    0    0    0  501  0.00000000000E+00  0.00000000000E+00  0.51019787913E+03  0.51019787914E+03  0.25500000920E-02 0. -1.
        2   -1    0    0  501    0  0.00000000000E+00  0.00000000000E+00 -0.19463817595E+04  0.19463817595E+04  0.25500000920E-02 0.  1.
    10030    2    1    2    0    0  0.00000000000E+00  0.00000000000E+00 -0.14361838803E+04  0.24565796386E+04  0.19930276924E+04 0.  0.
        3    1    3    3  502    0 -0.79252820008E+03  0.27202261010E+03 -0.13829380975E+04  0.16169771303E+04  0.10100000352E+00 0.  1.
       -3    1    3    3    0  502  0.79252820008E+03 -0.27202261010E+03 -0.53245782873E+02  0.83960250829E+03  0.10100000352E+00 0. -1.
</event>
<event>
 5   0  0.5129100E-06  0.1999638E+04  0.7818609E-02  0.8606790E-01
       -2   -1    0    0    0  501  0.00000000000E+00  0.00000000000E+00  0.13699696013E+04  0.13699696013E+04  0.25500000920E-02 0.  1.
        2   -1    0    0  501    0  0.00000000000E+00  0.00000000000E+00 -0.72967905391E+03  0.72967905391E+03  0.25500000920E-02 0. -1.
    10030    2    1    2    0    0  0.00000000000E+00  0.00000000000E+00  0.64029054740E+03  0.20996486552E+04  0.19996380898E+04 0.  0.
        2    1    3    3  502    0 -0.30626215474E+03  0.18069591480E+03  0.13013276833E+04  0.13490371605E+04  0.25500000920E-02 0.  1.
       -2    1    3    3    0  502  0.30626215474E+03 -0.18069591480E+03 -0.66103713587E+03  0.75061149476E+03  0.25500000920E-02 0. -1.
</event>
<event>
 5   0  0.4956214E-06  0.2000006E+04  0.7818609E-02  0.8606618E-01
        2   -1    0    0  501    0  0.00000000000E+00  0.00000000000E+00  0.13536511341E+04  0.13536511341E+04  0.25500000920E-02 0.  1.
       -2   -1    0    0    0  501  0.00000000000E+00  0.00000000000E+00 -0.73874735116E+03  0.73874735116E+03  0.25500000920E-02 0. -1.
    10030    2    1    2    0    0  0.00000000000E+00  0.00000000000E+00  0.61490378290E+03  0.20923984852E+04  0.20000061897E+04 0.  0.
        1    1    3    3  502    0 -0.84069864159E+03 -0.34960694961E+03 -0.12518142044E+03  0.91905909127E+03  0.50400001928E-02 0. -1.
       -1    1    3    3    0  502  0.84069864159E+03  0.34960694961E+03  0.74008520334E+03  0.11733393940E+04  0.50400001928E-02 0.  1.
</event>
<event>
 5   0  0.2379743E-06  0.2002452E+04  0.7818609E-02  0.8605475E-01
       -1   -1    0    0    0  501  0.00000000000E+00  0.00000000000E+00  0.16114636802E+04  0.16114636802E+04  0.50400001928E-02 0. -1.
        1   -1    0    0  501    0  0.00000000000E+00  0.00000000000E+00 -0.62207633520E+03  0.62207633522E+03  0.50400001928E-02 0.  1.
    10030    2    1    2    0    0  0.00000000000E+00  0.00000000000E+00  0.98938734496E+03  0.22335400154E+04  0.20024519175E+04 0.  0.
        5    1    3    3  502    0 -0.68968523314E+03 -0.46327766470E+03  0.11178628247E+04  0.13928141657E+04  0.46999998093E+01 0. -1.
       -5    1    3    3    0  502  0.68968523314E+03  0.46327766470E+03 -0.12847547971E+03  0.84072584968E+03  0.46999998093E+01 0.  1.
</event>
<event>
 5   0  0.5251252E-06  0.1997699E+04  0.7818609E-02  0.8607697E-01
       -2   -1    0    0    0  501  0.00000000000E+00  0.00000000000E+00  0.80168823514E+03  0.80168823514E+03  0.25500000920E-02 0. -1.
        2   -1    0    0  501    0  0.00000000000E+00  0.00000000000E+00 -0.12444997272E+04  0.12444997272E+04  0.25500000920E-02 0.  1.
    10030    2    1    2    0    0  0.00000000000E+00  0.00000000000E+00 -0.44281149204E+03  0.20461879623E+04  0.19976994668E+04 0.  0.
        5    1    3    3  502    0 -0.58115950354E+03 -0.80612270129E+03 -0.11847520010E+03  0.10008189852E+04  0.46999998093E+01 0. -1.
       -5    1    3    3    0  502  0.58115950354E+03  0.80612270129E+03 -0.32433629194E+03  0.10453689771E+04  0.46999998093E+01 0.  1.
</event>
<event>
 5   0  0.5118981E-06  0.2006414E+04  0.7818609E-02  0.8603628E-01
        2   -1    0    0  501    0  0.00000000000E+00  0.00000000000E+00  0.90844693450E+03  0.90844693450E+03  0.25500000920E-02 0. -1.
       -2   -1    0    0    0  501  0.00000000000E+00  0.00000000000E+00 -0.11078512973E+04  0.11078512973E+04  0.25500000920E-02 0.  1.
    10030    2    1    2    0    0  0.00000000000E+00  0.00000000000E+00 -0.19940436278E+03  0.20162982318E+04  0.20064138306E+04 0.  0.
        4    1    3    3  502    0  0.95930906550E+03 -0.22553177860E+03  0.89063648949E+02  0.98948088045E+03  0.12699999809E+01 0. -1.
       -4    1    3    3    0  502 -0.95930906550E+03  0.22553177860E+03 -0.28846801172E+03  0.10268173513E+04  0.12699999809E+01 0.  1.
</event>
<event>
 5   0  0.5129100E-06  0.2001903E+04  0.7818609E-02  0.8605731E-01
        2   -1    0    0  501    0  0.00000000000E+00  0.00000000000E+00  0.20055903470E+04  0.20055903470E+04  0.25500000920E-02 0. -1.
       -2   -1    0    0    0  501  0.00000000000E+00  0.00000000000E+00 -0.49955563716E+03  0.49955563717E+03  0.25500000920E-02 0.  1.
    10030    2    1    2    0    0  0.00000000000E+00  0.00000000000E+00  0.15060347099E+04  0.25051459842E+04  0.20019030583E+04 0.  0.
        2    1    3    3  502    0 -0.61440842692E+03  0.29182133325E+03 -0.16591530418E+03  0.70013234019E+03  0.25500000920E-02 0.  1.
       -2    1    3    3    0  502  0.61440842692E+03 -0.29182133325E+03  0.16719500141E+04  0.18050136440E+04  0.25500000920E-02 0. -1.
</event>
<event>
 5   0  0.2379743E-06  0.2000375E+04  0.7818609E-02  0.8606445E-01
        1   -1    0    0  501    0  0.00000000000E+00  0.00000000000E+00  0.16122961700E+04  0.16122961700E+04  0.50400001928E-02 0. -1.
       -1   -1    0    0    0  501  0.00000000000E+00  0.00000000000E+00 -0.62046612014E+03  0.62046612016E+03  0.50400001928E-02 0.  1.
    10030    2    1    2    0    0  0.00000000000E+00  0.00000000000E+00  0.99183004985E+03  0.22327622902E+04  0.20003751140E+04 0.  0.
        5    1    3    3  502    0 -0.42167792188E+03 -0.39957720888E+03  0.14046727689E+04  0.15200664109E+04  0.46999998093E+01 0. -1.
       -5    1    3    3    0  502  0.42167792188E+03  0.39957720888E+03 -0.41284271908E+03  0.71269587929E+03  0.46999998093E+01 0.  1.
</event>
<event>
 5   0  0.2379743E-06  0.2001573E+04  0.7818609E-02  0.8605886E-01
       -1   -1    0    0    0  501  0.00000000000E+00  0.00000000000E+00  0.79227705626E+03  0.79227705628E+03  0.50400001928E-02 0.  1.
        1   -1    0    0  501    0  0.00000000000E+00  0.00000000000E+00 -0.12641705355E+04  0.12641705355E+04  0.50400001928E-02 0. -1.
    10030    2    1    2    0    0  0.00000000000E+00  0.00000000000E+00 -0.47189347925E+03  0.20564475918E+04  0.20015726922E+04 0.  0.
        5    1    3    3  502    0  0.96693588088E+03 -0.20670106323E+03 -0.39465138089E+03  0.10646417847E+04  0.46999998093E+01 0. -1.
       -5    1    3    3    0  502 -0.96693588088E+03  0.20670106323E+03 -0.77242098357E+02  0.99180580711E+03  0.46999998093E+01 0.  1.
</event>
<event>
 5   0  0.4956214E-06  0.2000495E+04  0.7818609E-02  0.8606389E-01
       -2   -1    0    0    0  501  0.00000000000E+00  0.00000000000E+00  0.70314173112E+03  0.70314173112E+03  0.25500000920E-02 0.  1.
        2   -1    0    0  501    0  0.00000000000E+00  0.00000000000E+00 -0.14228920920E+04  0.14228920920E+04  0.25500000920E-02 0. -1.
    10030    2    1    2    0    0  0.00000000000E+00  0.00000000000E+00 -0.71975036090E+03  0.21260338231E+04  0.20004947476E+04 0.  0.
        1    1    3    3  502    0 -0.88916188887E+03 -0.15697217375E+03  0.97536024818E+02  0.90816430458E+03  0.50400001928E-02 0.  1.
       -1    1    3    3    0  502  0.88916188887E+03  0.15697217375E+03 -0.81728638572E+03  0.12178695186E+04  0.50400001928E-02 0. -1.
</event>
<event>
 5   0  0.5251252E-06  0.1997679E+04  0.7818609E-02  0.8607707E-01
        2   -1    0    0  501    0  0.00000000000E+00  0.00000000000E+00  0.14406060871E+04  0.14406060871E+04  0.25500000920E-02 0.  1.
       -2   -1    0    0    0  501  0.00000000000E+00  0.00000000000E+00 -0.69254174995E+03  0.69254174996E+03  0.25500000920E-02 0. -1.
    10030    2    1    2    0    0  0.00000000000E+00  0.00000000000E+00  0.74806433711E+03  0.21331478370E+04  0.19976785132E+04 0.  0.
        5    1    3    3  502    0 -0.33423150053E+03 -0.39676999725E+03 -0.53738307526E+03  0.74695367074E+03  0.46999998093E+01 0. -1.
       -5    1    3    3    0  502  0.33423150053E+03  0.39676999725E+03  0.12854474124E+04  0.13861941663E+04  0.46999998093E+01 0.  1.
</event>
<event>
 5   0  0.5251252E-06  0.1991805E+04  0.7818609E-02  0.8610461E-01
       -2   -1    0    0    0  501  0.00000000000E+00  0.00000000000E+00  0.94220893150E+03  0.94220893150E+03  0.25500000920E-02 0.  1.
        2   -1    0    0  501    0  0.00000000000E+00  0.00000000000E+00 -0.10526564156E+04  0.10526564156E+04  0.25500000920E-02 0. -1.
    10030    2    1    2    0    0  0.00000000000E+00  0.00000000000E+00 -0.11044748410E+03  0.19948653471E+04  0.19918054891E+04 0.  0.
        5    1    3    3  502    0 -0.56824170422E+03  0.41117670447E+00  0.76389659434E+03  0.95208135174E+03  0.46999998093E+01 0.  1.
       -5    1    3    3    0  502  0.56824170422E+03 -0.41117670447E+00 -0.87434407845E+03  0.10427839954E+04  0.46999998093E+01 0. -1.
</event>
<event>
 5   0  0.2356996E-06  0.2000463E+04  0.7818609E-02  0.8606404E-01
        1   -1    0    0  501    0  0.00000000000E+00  0.00000000000E+00  0.12462716562E+04  0.12462716562E+04  0.50400001928E-02 0. -1.
       -1   -1    0    0    0  501  0.00000000000E+00  0.00000000000E+00 -0.80276452898E+03  0.80276452899E+03  0.50400001928E-02 0.  1.
    10030    2    1    2    0    0  0.00000000000E+00  0.00000000000E+00  0.44350712721E+03  0.20490361852E+04  0.20004626256E+04 0.  0.
        4    1    3    3  502    0 -0.21340750996E+03  0.41566229153E+03 -0.68410899980E+03  0.82844712711E+03  0.12699999809E+01 0.  1.
       -4    1    3    3    0  502  0.21340750996E+03 -0.41566229153E+03  0.11276161270E+04  0.12205890581E+04  0.12699999809E+01 0. -1.
</event>
<event>
 5   0  0.2356996E-06  0.2000291E+04  0.7818609E-02  0.8606485E-01
       -1   -1    0    0    0  501  0.00000000000E+00  0.00000000000E+00  0.44131794122E+03  0.44131794125E+03  0.50400001928E-02 0. -1.
        1   -1    0    0  501    0  0.00000000000E+00  0.00000000000E+00 -0.22665997442E+04  0.22665997442E+04  0.50400001928E-02 0.  1.
    10030    2    1    2    0    0  0.00000000000E+00  0.00000000000E+00 -0.18252818030E+04  0.27079176855E+04  0.20002911116E+04 0.  0.
        4    1    3    3  502    0  0.24136239342E+03  0.63078274116E+03  0.85979220078E+02  0.68083530365E+03  0.12699999809E+01 0. -1.
       -4    1    3    3    0  502 -0.24136239342E+03 -0.63078274116E+03 -0.19112610231E+04  0.20270823818E+04  0.12699999809E+01 0.  1.
</event>
<event>
 5   0  0.2386776E-06  0.2001187E+04  0.7818609E-02  0.8606066E-01
        1   -1    0    0  501    0  0.00000000000E+00  0.00000000000E+00  0.10810840992E+04  0.10810840992E+04  0.50400001928E-02 0.  1.
       -1   -1    0    0    0  501  0.00000000000E+00  0.00000000000E+00 -0.92609530264E+03  0.92609530265E+03  0.50400001928E-02 0. -1.
    10030    2    1    2    0    0  0.00000000000E+00  0.00000000000E+00  0.15498879658E+03  0.20071794019E+04  0.20011865541E+04 0.  0.
        2    1    3    3  502    0 -0.43777915486E+03  0.13387764277E+03 -0.81489643395E+03  0.93468176923E+03  0.25500000920E-02 0. -1.
       -2    1    3    3    0  502  0.43777915486E+03 -0.13387764277E+03  0.96988523052E+03  0.10724976327E+04  0.25500000920E-02 0.  1.
</event>
<event>
 5   0  0.4956214E-06  0.1999953E+04  0.7818609E-02  0.8606643E-01
        2   -1    0    0  501    0  0.00000000000E+00  0.00000000000E+00  0.14409382108E+04  0.14409382108E+04  0.25500000920E-02 0.  1.
       -2   -1    0    0    0  501  0.00000000000E+00  0.00000000000E+00 -0.69395976323E+03  0.69395976323E+03  0.25500000920E-02 0. -1.
    10030    2    1    2    0    0  0.00000000000E+00  0.00000000000E+00  0.74697844758E+03  0.21348979740E+04  0.19999531391E+04 0.  0.
        1    1    3    3  502    0  0.98249830962E+01 -0.97620954750E+03  0.14238288148E+03  0.98658729766E+03  0.50400001928E-02 0. -1.
       -1    1    3    3    0  502 -0.98249830962E+01  0.97620954750E+03  0.60459556611E+03  0.11483106764E+04  0.50400001928E-02 0.  1.
</event>
<event>
 5   0  0.5251252E-06  0.2001811E+04  0.7818609E-02  0.8605774E-01
        2   -1    0    0  501    0  0.00000000000E+00  0.00000000000E+00  0.42234886955E+03  0.42234886956E+03  0.25500000920E-02 0. -1.
       -2   -1    0    0    0  501  0.00000000000E+00  0.00000000000E+00 -0.23720004267E+04  0.23720004267E+04  0.25500000920E-02 0.  1.
    10030    2    1    2    0    0  0.00000000000E+00  0.00000000000E+00 -0.19496515571E+04  0.27943492962E+04  0.20018108790E+04 0.  0.
        5    1    3    3  502    0  0.60417073615E+03 -0.48196311577E+03 -0.18626062243E+04  0.20165898840E+04  0.46999998093E+01 0.  1.
       -5    1    3    3    0  502 -0.60417073615E+03  0.48196311577E+03 -0.87045332815E+02  0.77775941225E+03  0.46999998093E+01 0. -1.
</event>
<event>
 5   0  0.5030137E-06  0.1999061E+04  0.7818609E-02  0.8607060E-01
        2   -1    0    0  501    0  0.00000000000E+00  0.00000000000E+00  0.12295120807E+04  0.12295120807E+04  0.25500000920E-02 0. -1.
       -2   -1    0    0    0  501  0.00000000000E+00  0.00000000000E+00 -0.81256760849E+03  0.81256760849E+03  0.25500000920E-02 0.  1.
    10030    2    1    2    0    0  0.00000000000E+00  0.00000000000E+00  0.41694447218E+03  0.20420796892E+04  0.19990614708E+04 0.  0.
        3    1    3    3  502    0  0.49793998408E+03  0.15655117445E+02  0.10936481723E+04  0.12017718775E+04  0.10100000352E+00 0. -1.
       -3    1    3    3    0  502 -0.49793998408E+03 -0.15655117445E+02 -0.67670370013E+03  0.84030781171E+03  0.10100000352E+00 0.  1.
</event>
<event>
 5   0  0.2313821E-06  0.2004737E+04  0.7818609E-02  0.8604409E-01
        1   -1    0    0  501    0  0.00000000000E+00  0.00000000000E+00  0.20149605449E+04  0.20149605449E+04  0.50400001928E-02 0.  1.
       -1   -1    0    0    0  501  0.00000000000E+00  0.00000000000E+00 -0.49864109041E+03  0.49864109044E+03  0.50400001928E-02 0. -1.
    10030    2    1    2    0    0  0.00000000000E+00  0.00000000000E+00  0.15163194545E+04  0.25136016354E+04  0.20047365147E+04 0.  0.
        1    1    3    3  502    0 -0.24694550384E+03  0.67865889738E+03 -0.11339484794E+03  0.73103924137E+03  0.50400001928E-02 0. -1.
       -1    1    3    3    0  502  0.24694550384E+03 -0.67865889738E+03  0.16297143024E+04  0.17825623940E+04  0.50400001928E-02 0.  1.
</event>
<event>
 5   0  0.4956214E-06  0.2000339E+04  0.7818609E-02  0.8606462E-01
        2   -1    0    0  501    0  0.00000000000E+00  0.00000000000E+00  0.16610628956E+04  0.16610628956E+04  0.25500000920E-02 0.  1.
       -2   -1    0    0    0  501  0.00000000000E+00  0.00000000000E+00 -0.60222814671E+03  0.60222814672E+03  0.25500000920E-02 0. -1.
    10030    2    1    2    0    0  0.00000000000E+00  0.00000000000E+00  0.10588347489E+04  0.22632910423E+04  0.20003388005E+04 0.  0.
        1    1    3    3  502    0 -0.24356452816E+03 -0.30019520529E+03  0.15731171596E+04  0.16199192691E+04  0.50400001928E-02 0.  1.
       -1    1    3    3    0  502  0.24356452816E+03  0.30019520529E+03 -0.51428241066E+03  0.64337177323E+03  0.50400001928E-02 0. -1.
</event>
<event>
 5   0  0.2356996E-06  0.2000909E+04  0.7818609E-02  0.8606196E-01
        1   -1    0    0  501    0  0.00000000000E+00  0.00000000000E+00  0.22254233959E+04  0.22254233959E+04  0.50400001928E-02 0.  1.
       -1   -1    0    0    0  501  0.00000000000E+00  0.00000000000E+00 -0.44976123856E+03  0.44976123859E+03  0.50400001928E-02 0. -1.
    10030    2    1    2    0    0  0.00000000000E+00  0.00000000000E+00  0.17756621574E+04  0.26751846345E+04  0.20009089764E+04 0.  0.
        4    1    3    3  502    0  0.21504206573E+03  0.75320773209E+03  0.55733887221E+02  0.78528520729E+03  0.12699999809E+01 0. -1.
       -4    1    3    3    0  502 -0.21504206573E+03 -0.75320773209E+03  0.17199282701E+04  0.18898994272E+04  0.12699999809E+01 0.  1.
</event>
<event>
 5   0  0.5030137E-06  0.1999664E+04  0.7818609E-02  0.8606778E-01
        2   -1    0    0  501    0  0.00000000000E+00  0.00000000000E+00  0.14337310495E+04  0.14337310495E+04  0.25500000920E-02 0. -1.
       -2   -1    0    0    0  501  0.00000000000E+00  0.00000000000E+00 -0.69724666831E+03  0.69724666832E+03  0.25500000920E-02 0.  1.
    10030    2    1    2    0    0  0.00000000000E+00  0.00000000000E+00  0.73648438122E+03  0.21309777178E+04  0.19996641693E+04 0.  0.
        3    1    3    3  502    0  0.48208831669E+03 -0.87539748852E+03  0.33566900630E+03  0.10542312839E+04  0.10100000352E+00 0.  1.
       -3    1    3    3    0  502 -0.48208831669E+03  0.87539748852E+03  0.40081537492E+03  0.10767464339E+04  0.10100000352E+00 0. -1.
</event>
<event>
 5   0  0.5118981E-06  0.2000085E+04  0.7818609E-02  0.8606581E-01
       -2   -1    0    0    0  501  0.00000000000E+00  0.00000000000E+00  0.14759841691E+04  0.14759841691E+04  0.25500000920E-02 0. -1.
        2   -1    0    0  501    0  0.00000000000E+00  0.00000000000E+00 -0.67757166608E+03  0.67757166608E+03  0.25500000920E-02 0.  1.
    10030    2    1    2    0    0  0.00000000000E+00  0.00000000000E+00  0.79841250307E+03  0.21535558352E+04  0.20000850508E+04 0.  0.
        4    1    3    3  502    0 -0.36939397339E+03  0.90848689984E+03  0.60988034599E+03  0.11548835457E+04  0.12699999809E+01 0.  1.
       -4    1    3    3    0  502  0.36939397339E+03 -0.90848689984E+03  0.18853215708E+03  0.99867228955E+03  0.12699999809E+01 0. -1.
</event>
<event>
 5   0  0.2313821E-06  0.1999952E+04  0.7818609E-02  0.8606643E-01
       -1   -1    0    0    0  501  0.00000000000E+00  0.00000000000E+00  0.52125197581E+03  0.52125197584E+03  0.50400001928E-02 0.  1.
        1   -1    0    0  501    0  0.00000000000E+00  0.00000000000E+00 -0.19183660799E+04  0.19183660799E+04  0.50400001928E-02 0. -1.
    10030    2    1    2    0    0  0.00000000000E+00  0.00000000000E+00 -0.13971141041E+04  0.24396180558E+04  0.19999521090E+04 0.  0.
        1    1    3    3  502    0  0.16945877238E+03 -0.62625680054E+03 -0.16267876298E+04  0.17513856937E+04  0.50400001928E-02 0. -1.
       -1    1    3    3    0  502 -0.16945877238E+03  0.62625680054E+03  0.22967352566E+03  0.68823236205E+03  0.50400001928E-02 0.  1.
</event>
<event>
 5   0  0.4956214E-06  0.2000255E+04  0.7818609E-02  0.8606501E-01
        2   -1    0    0  501    0  0.00000000000E+00  0.00000000000E+00  0.14973380953E+04  0.14973380953E+04  0.25500000920E-02 0. -1.
       -2   -1    0    0    0  501  0.00000000000E+00  0.00000000000E+00 -0.66802225757E+03  0.66802225757E+03  0.25500000920E-02 0.  1.
    10030    2    1    2    0    0  0.00000000000E+00  0.00000000000E+00  0.82931583775E+03  0.21653603529E+04  0.20002551585E+04 0.  0.
        1    1    3    3  502    0  0.13173571120E+02 -0.69410785403E+03  0.11940099582E+04  0.13811658250E+04  0.50400001928E-02 0. -1.
       -1    1    3    3    0  502 -0.13173571120E+02  0.69410785403E+03 -0.36469412043E+03  0.78419452785E+03  0.50400001928E-02 0.  1.
</event>
<event>
 5   0  0.2379743E-06  0.1999378E+04  0.7818609E-02  0.8606912E-01
        1   -1    0    0  501    0  0.00000000000E+00  0.00000000000E+00  0.17701142455E+04  0.17701142455E+04  0.50400001928E-02 0. -1.
       -1   -1    0    0    0  501  0.00000000000E+00  0.00000000000E+00 -0.56458382902E+03  0.56458382905E+03  0.50400001928E-02 0.  1.
    10030    2    1    2    0    0  0.00000000000E+00  0.00000000000E+00  0.12055304165E+04  0.23346980746E+04  0.19993777818E+04 0.  0.
        5    1    3    3  502    0  0.41383678313E+03 -0.90126132905E+03  0.45587961191E+03  0.10915040893E+04  0.46999998093E+01 0.  1.
       -5    1    3    3    0  502 -0.41383678313E+03  0.90126132905E+03  0.74965080459E+03  0.12431939853E+04  0.46999998093E+01 0. -1.
</event>
<event>
 5   0  0.2379743E-06  0.2000336E+04  0.7818609E-02  0.8606464E-01
       -1   -1    0    0    0  501  0.00000000000E+00  0.00000000000E+00  0.89643028183E+03  0.89643028185E+03  0.50400001928E-02 0.  1.
        1   -1    0    0  501    0  0.00000000000E+00  0.00000000000E+00 -0.11159104370E+04  0.11159104371E+04  0.50400001928E-02 0. -1.
    10030    2    1    2    0    0  0.00000000000E+00  0.00000000000E+00 -0.21948015521E+03  0.20123407189E+04  0.20003358794E+04 0.  0.
        5    1    3    3  502    0  0.78593243305E+03 -0.50020349835E+02  0.51050037658E+03  0.93852253527E+03  0.46999998093E+01 0.  1.
       -5    1    3    3    0  502 -0.78593243305E+03  0.50020349835E+02 -0.72998053179E+03  0.10738181836E+04  0.46999998093E+01 0. -1.
</event>
<event>
 5   0  0.2313821E-06  0.2000239E+04  0.7818609E-02  0.8606509E-01
       -1   -1    0    0    0  501  0.00000000000E+00  0.00000000000E+00  0.70800477462E+03  0.70800477464E+03  0.50400001928E-02 0. -1.
        1   -1    0    0  501    0  0.00000000000E+00  0.00000000000E+00 -0.14127575567E+04  0.14127575567E+04  0.50400001928E-02 0.  1.
    10030    2    1    2    0    0  0.00000000000E+00  0.00000000000E+00 -0.70475278207E+03  0.21207623313E+04  0.20002390813E+04 0.  0.
        1    1    3    3  502    0  0.86531623479E+03  0.39007784554E+03 -0.18259648306E+02  0.94935047614E+03  0.50400001928E-02 0. -1.
       -1    1    3    3    0  502 -0.86531623479E+03 -0.39007784554E+03 -0.68649313376E+03  0.11714118552E+04  0.50400001928E-02 0.  1.
</event>
<event>
 5   0  0.2311520E-06  0.1999863E+04  0.7818609E-02  0.8606685E-01
        1   -1    0    0  501    0  0.00000000000E+00  0.00000000000E+00  0.13421539477E+04  0.13421539477E+04  0.50400001928E-02 0. -1.
       -1   -1    0    0    0  501  0.00000000000E+00  0.00000000000E+00 -0.74496867716E+03  0.74496867718E+03  0.50400001928E-02 0.  1.
    10030    2    1    2    0    0  0.00000000000E+00  0.00000000000E+00  0.59718527050E+03  0.20871226248E+04  0.19998626462E+04 0.  0.
        3    1    3    3  502    0 -0.84402410660E+02 -0.97298219335E+03  0.52253527701E+03  0.11076376851E+04  0.10100000352E+00 0. -1.
       -3    1    3    3    0  502  0.84402410660E+02  0.97298219335E+03  0.74649993481E+02  0.97948493976E+03  0.10100000352E+00 0.  1.
</event>
<event>
 5   0  0.2311520E-06  0.1999921E+04  0.7818609E-02  0.8606657E-01
       -1   -1    0    0    0  501  0.00000000000E+00  0.00000000000E+00  0.55761048304E+03  0.55761048306E+03  0.50400001928E-02 0. -1.
        1   -1    0    0  501    0  0.00000000000E+00  0.00000000000E+00 -0.17932255614E+04  0.17932255614E+04  0.50400001928E-02 0.  1.
    10030    2    1    2    0    0  0.00000000000E+00  0.00000000000E+00 -0.12356150784E+04  0.23508360445E+04  0.19999213700E+04 0.  0.
        3    1    3    3  502    0 -0.66452410150E+03  0.66254436856E+03 -0.10239198678E+04  0.13888733663E+04  0.10100000352E+00 0. -1.
       -3    1    3    3    0  502  0.66452410150E+03 -0.66254436856E+03 -0.21169521055E+03  0.96196267815E+03  0.10100000352E+00 0.  1.
</event>
<event>
 5   0  0.2356996E-06  0.1999757E+04  0.7818609E-02  0.8606734E-01
       -1   -1    0    0    0  501  0.00000000000E+00  0.00000000000E+00  0.96866375101E+03  0.96866375102E+03  0.50400001928E-02 0. -1.
        1   -1    0    0  501    0  0.00000000000E+00  0.00000000000E+00 -0.10320990119E+04  0.10320990119E+04  0.50400001928E-02 0.  1.
    10030    2    1    2    0    0  0.00000000000E+00  0.00000000000E+00 -0.63435260882E+02  0.20007627629E+04  0.19997568855E+04 0.  0.
        4    1    3    3  502    0 -0.14077507538E+03 -0.79683011456E+03  0.55594433931E+03  0.98174924224E+03  0.12699999809E+01 0. -1.
       -4    1    3    3    0  502  0.14077507538E+03  0.79683011456E+03 -0.61937960019E+03  0.10190135207E+04  0.12699999809E+01 0.  1.
</event>
<event>
 5   0  0.2311520E-06  0.2000356E+04  0.7818609E-02  0.8606454E-01
       -1   -1    0    0    0  501  0.00000000000E+00  0.00000000000E+00  0.92328840270E+03  0.92328840271E+03  0.50400001928E-02 0. -1.
        1   -1    0    0  501    0  0.00000000000E+00  0.00000000000E+00 -0.10834710345E+04  0.10834710345E+04  0.50400001928E-02 0.  1.
    10030    2    1    2    0    0  0.00000000000E+00  0.00000000000E+00 -0.16018263183E+03  0.20067594372E+04  0.20003562091E+04 0.  0.
        3    1    3    3  502    0 -0.34567779003E+03 -0.43179705025E+03 -0.91607410342E+03  0.10701091534E+04  0.10100000352E+00 0.  1.
       -3    1    3    3    0  502  0.34567779003E+03  0.43179705025E+03  0.75589147159E+03  0.93665028380E+03  0.10100000352E+00 0. -1.
</event>
<event>
 5   0  0.2313821E-06  0.1995254E+04  0.7818609E-02  0.8608843E-01
        1   -1    0    0  501    0  0.00000000000E+00  0.00000000000E+00  0.12885193274E+04  0.12885193274E+04  0.50400001928E-02 0. -1.
       -1   -1    0    0    0  501  0.00000000000E+00  0.00000000000E+00 -0.77240562066E+03  0.77240562068E+03  0.50400001928E-02 0.  1.
    10030    2    1    2    0    0  0.00000000000E+00  0.00000000000E+00  0.51611370675E+03  0.20609249481E+04  0.19952539396E+04 0.  0.
        1    1    3    3  502    0  0.57050203259E+03 -0.19284643343E+03  0.10795948432E+04  0.12361987468E+04  0.50400001928E-02 0. -1.
       -1    1    3    3    0  502 -0.57050203259E+03  0.19284643343E+03 -0.56348113641E+03  0.82472620135E+03  0.50400001928E-02 0.  1.
</event>
<event>
 5   0  0.2379743E-06  0.1999997E+04  0.7818609E-02  0.8606622E-01
       -1   -1    0    0    0  501  0.00000000000E+00  0.00000000000E+00  0.55337574278E+03  0.55337574280E+03  0.50400001928E-02 0.  1.
        1   -1    0    0  501    0  0.00000000000E+00  0.00000000000E+00 -0.18070850504E+04  0.18070850504E+04  0.50400001928E-02 0. -1.
    10030    2    1    2    0    0  0.00000000000E+00  0.00000000000E+00 -0.12537093076E+04  0.23604607932E+04  0.19999970320E+04 0.  0.
        5    1    3    3  502    0  0.41851461850E+03  0.62380758209E+03 -0.14058834712E+04  0.15939952353E+04  0.46999998093E+01 0. -1.
       -5    1    3    3    0  502 -0.41851461850E+03 -0.62380758209E+03  0.15217416364E+03  0.76646555791E+03  0.46999998093E+01 0.  1.
</event>
<event>
 5   0  0.5030137E-06  0.1999099E+04  0.7818609E-02  0.8607042E-01
       -2   -1    0    0    0  501  0.00000000000E+00  0.00000000000E+00  0.12113035371E+04  0.12113035371E+04  0.25500000920E-02 0. -1.
        2   -1    0    0  501    0  0.00000000000E+00  0.00000000000E+00 -0.82481295157E+03  0.82481295157E+03  0.25500000920E-02 0.  1.
    10030    2    1    2    0    0  0.00000000000E+00  0.00000000000E+00  0.38649058556E+03  0.20361164887E+04  0.19990986426E+04 0.  0.
        3    1    3    3  502    0  0.93112916548E+03 -0.33412675163E+03  0.47570165857E+02  0.99040655280E+03  0.10100000352E+00 0. -1.
       -3    1    3    3    0  502 -0.93112916548E+03  0.33412675163E+03  0.33892041970E+03  0.10457099359E+04  0.10100000352E+00 0.  1.
</event>
<event>
 5   0  0.5129100E-06  0.2000152E+04  0.7818609E-02  0.8606550E-01
       -2   -1    0    0    0  501  0.00000000000E+00  0.00000000000E+00  0.61995537503E+03  0.61995537503E+03  0.25500000920E-02 0. -1.
        2   -1    0    0  501    0  0.00000000000E+00  0.00000000000E+00 -0.16132645009E+04  0.16132645009E+04  0.25500000920E-02 0.  1.
    10030    2    1    2    0    0  0.00000000000E+00  0.00000000000E+00 -0.99330912583E+03  0.22332198759E+04  0.20001519929E+04 0.  0.
        2    1    3    3  502    0  0.44100078589E+03  0.47131697605E+02  0.50414617703E+03  0.67146590226E+03  0.25500000920E-02 0. -1.
       -2    1    3    3    0  502 -0.44100078589E+03 -0.47131697605E+02 -0.14974553029E+04  0.15617539736E+04  0.25500000920E-02 0.  1.
</event>
<event>
 5   0  0.2379743E-06  0.1999943E+04  0.7818609E-02  0.8606647E-01
       -1   -1    0    0    0  501  0.00000000000E+00  0.00000000000E+00  0.10152701737E+04  0.10152701737E+04  0.50400001928E-02 0. -1.
        1   -1    0    0  501    0  0.00000000000E+00  0.00000000000E+00 -0.98490296759E+03  0.98490296761E+03  0.50400001928E-02 0.  1.
    10030    2    1    2    0    0  0.00000000000E+00  0.00000000000E+00  0.30367206127E+02  0.20001731413E+04  0.19999426062E+04 0.  0.
        5    1    3    3  502    0  0.49594507970E+03  0.54829062123E+03 -0.65819660797E+03  0.98986311789E+03  0.46999998093E+01 0.  1.
       -5    1    3    3    0  502 -0.49594507970E+03 -0.54829062123E+03  0.68856381410E+03  0.10103100235E+04  0.46999998093E+01 0. -1.
</event>
<event>
 5   0  0.5030137E-06  0.1999600E+04  0.7818609E-02  0.8606808E-01
       -2   -1    0    0    0  501  0.00000000000E+00  0.00000000000E+00  0.59289346596E+03  0.59289346596E+03  0.25500000920E-02 0.  1.
        2   -1    0    0  501    0  0.00000000000E+00  0.00000000000E+00 -0.16859682383E+04  0.16859682383E+04  0.25500000920E-02 0. -1.
    10030    2    1    2    0    0  0.00000000000E+00  0.00000000000E+00 -0.10930747724E+04  0.22788617043E+04  0.19995995122E+04 0.  0.
        3    1    3    3  502    0  0.57644805957E+03  0.81140232671E+03 -0.65425440705E+03  0.11910982078E+04  0.10100000352E+00 0. -1.
       -3    1    3    3    0  502 -0.57644805957E+03 -0.81140232671E+03 -0.43882036532E+03  0.10877634965E+04  0.10100000352E+00 0.  1.
</event>
<event>
 5   0  0.4956214E-06  0.1999747E+04  0.7818609E-02  0.8606739E-01
        2   -1    0    0  501    0  0.00000000000E+00  0.00000000000E+00  0.23293549633E+04  0.23293549633E+04  0.25500000920E-02 0.  1.
       -2   -1    0    0    0  501  0.00000000000E+00  0.00000000000E+00 -0.42919469855E+03  0.42919469856E+03  0.25500000920E-02 0. -1.
    10030    2    1    2    0    0  0.00000000000E+00  0.00000000000E+00  0.19001602647E+04  0.27585496618E+04  0.19997467853E+04 0.  0.
        1    1    3    3  502    0 -0.24979683543E+01 -0.51529450038E+03  0.21320776923E+04  0.21934652830E+04  0.50400001928E-02 0.  1.
       -1    1    3    3    0  502  0.24979683543E+01  0.51529450038E+03 -0.23191742753E+03  0.56508437882E+03  0.50400001928E-02 0. -1.
</event>
<event>
 5   0  0.5118981E-06  0.2000096E+04  0.7818609E-02  0.8606576E-01
        2   -1    0    0  501    0  0.00000000000E+00  0.00000000000E+00  0.85034028603E+03  0.85034028604E+03  0.25500000920E-02 0.  1.
       -2   -1    0    0    0  501  0.00000000000E+00  0.00000000000E+00 -0.11761128087E+04  0.11761128087E+04  0.25500000920E-02 0. -1.
    10030    2    1    2    0    0  0.00000000000E+00  0.00000000000E+00 -0.32577252264E+03  0.20264530947E+04  0.20000960998E+04 0.  0.
        4    1    3    3  502    0  0.37477858655E+03  0.86499419429E+03  0.17530963253E+03  0.95885818829E+03  0.12699999809E+01 0.  1.
       -4    1    3    3    0  502 -0.37477858655E+03 -0.86499419429E+03 -0.50108215517E+03  0.10675949064E+04  0.12699999809E+01 0. -1.
</event>
<event>
 5   0  0.5129100E-06  0.1999721E+04  0.7818609E-02  0.8606751E-01
       -2   -1    0    0    0  501  0.00000000000E+00  0.00000000000E+00  0.50303170991E+03  0.50303170991E+03  0.25500000920E-02 0.  1.
        2   -1    0    0  501    0  0.00000000000E+00  0.00000000000E+00 -0.19873917978E+04  0.19873917978E+04  0.25500000920E-02 0. -1.
    10030    2    1    2    0    0  0.00000000000E+00  0.00000000000E+00 -0.14843600879E+04  0.24904235077E+04  0.19997210749E+04 0.  0.
        2    1    3    3  502    0 -0.36061466737E+03 -0.30290661595E+02 -0.19029705562E+04  0.19370744437E+04  0.25500000920E-02 0. -1.
       -2    1    3    3    0  502  0.36061466737E+03  0.30290661595E+02  0.41861046831E+03  0.55334906405E+03  0.25500000920E-02 0.  1.
</event>
<event>
 5   0  0.2379743E-06  0.1999605E+04  0.7818609E-02  0.8606805E-01
       -1   -1    0    0    0  501  0.00000000000E+00  0.00000000000E+00  0.10056147850E+04  0.10056147850E+04  0.50400001928E-02 0.  1.
        1   -1    0    0  501    0  0.00000000000E+00  0.00000000000E+00 -0.99402368544E+03  0.99402368545E+03  0.50400001928E-02 0. -1.
    10030    2    1    2    0    0  0.00000000000E+00  0.00000000000E+00  0.11591099550E+02  0.19996384705E+04  0.19996048757E+04 0.  0.
        5    1    3    3  502    0 -0.50210306662E+03  0.10484455258E+03 -0.85240471944E+03  0.99484459361E+03  0.46999998093E+01 0. -1.
       -5    1    3    3    0  502  0.50210306662E+03 -0.10484455258E+03  0.86399581899E+03  0.10047938768E+04  0.46999998093E+01 0.  1.
</event>
<event>
 5   0  0.5129100E-06  0.2000413E+04  0.7818609E-02  0.8606427E-01
       -2   -1    0    0    0  501  0.00000000000E+00  0.00000000000E+00  0.12396600916E+04  0.12396600916E+04  0.25500000920E-02 0. -1.
        2   -1    0    0  501    0  0.00000000000E+00  0.00000000000E+00 -0.80700623814E+03  0.80700623815E+03  0.25500000920E-02 0.  1.
    10030    2    1    2    0    0  0.00000000000E+00  0.00000000000E+00  0.43265385342E+03  0.20466663297E+04  0.20004133844E+04 0.  0.
        2    1    3    3  502    0 -0.16366729820E+03 -0.72985914404E+03  0.89570752172E+03  0.11669504356E+04  0.25500000920E-02 0. -1.
       -2    1    3    3    0  502  0.16366729820E+03  0.72985914404E+03 -0.46305366831E+03  0.87971589413E+03  0.25500000920E-02 0.  1.
</event>
<event>
 5   0  0.2379743E-06  0.1999258E+04  0.7818609E-02  0.8606968E-01
       -1   -1    0    0    0  501  0.00000000000E+00  0.00000000000E+00  0.73972705101E+03  0.73972705103E+03  0.50400001928E-02 0.  1.
        1   -1    0    0  501    0  0.00000000000E+00  0.00000000000E+00 -0.13508467064E+04  0.13508467064E+04  0.50400001928E-02 0. -1.
    10030    2    1    2    0    0  0.00000000000E+00  0.00000000000E+00 -0.61111965540E+03  0.20905737575E+04  0.19992577128E+04 0.  0.
        5    1    3    3  502    0  0.13290307459E+03  0.31874453375E+03  0.67535601088E+03  0.75854409000E+03  0.46999998093E+01 0.  1.
       -5    1    3    3    0  502 -0.13290307459E+03 -0.31874453375E+03 -0.12864756663E+04  0.13320296675E+04  0.46999998093E+01 0. -1.
</event>
<event>
 5   0  0.2356996E-06  0.2003083E+04  0.7818609E-02  0.8605181E-01
       -1   -1    0    0    0  501  0.00000000000E+00  0.00000000000E+00  0.13322739688E+04  0.13322739688E+04  0.50400001928E-02 0. -1.
        1   -1    0    0  501    0  0.00000000000E+00  0.00000000000E+00 -0.75291192316E+03  0.75291192318E+03  0.50400001928E-02 0.  1.
    10030    2    1    2    0    0  0.00000000000E+00  0.00000000000E+00  0.57936204563E+03  0.20851858920E+04  0.20030825805E+04 0.  0.
        4    1    3    3  502    0 -0.75983998974E+03  0.50909329079E+03 -0.13515268223E+03  0.92455429756E+03  0.12699999809E+01 0.  1.
       -4    1    3    3    0  502  0.75983998974E+03 -0.50909329079E+03  0.71451472786E+03  0.11606315944E+04  0.12699999809E+01 0. -1.
</event>
<event>
 5   0  0.2386776E-06  0.2001413E+04  0.7818609E-02  0.8605960E-01
       -1   -1    0    0    0  501  0.00000000000E+00  0.00000000000E+00  0.63626554505E+03  0.63626554507E+03  0.50400001928E-02 0.  1.
        1   -1    0    0  501    0  0.00000000000E+00  0.00000000000E+00 -0.15738919267E+04  0.15738919267E+04  0.50400001928E-02 0. -1.
    10030    2    1    2    0    0  0.00000000000E+00  0.00000000000E+00 -0.93762638161E+03  0.22101574717E+04  0.20014127057E+04 0.  0.
        2    1    3    3  502    0 -0.71109731932E+03 -0.32073062318E+03  0.22336779042E+03  0.81143126634E+03  0.25500000920E-02 0.  1.
       -2    1    3    3    0  502  0.71109731932E+03  0.32073062318E+03 -0.11609941720E+04  0.13987262054E+04  0.25500000920E-02 0. -1.
</event>
<event>
 5   0  0.2356996E-06  0.2000095E+04  0.7818609E-02  0.8606576E-01
       -1   -1    0    0    0  501  0.00000000000E+00  0.00000000000E+00  0.53941591194E+03  0.53941591196E+03  0.50400001928E-02 0.  1.
        1   -1    0    0  501    0  0.00000000000E+00  0.00000000000E+00 -0.18540329482E+04  0.18540329482E+04  0.50400001928E-02 0. -1.
    10030    2    1    2    0    0  0.00000000000E+00  0.00000000000E+00 -0.13146170362E+04  0.23934488601E+04  0.20000948713E+04 0.  0.
        4    1    3    3  502    0 -0.88883697959E+03  0.14610099302E+03 -0.11771591664E+04  0.14822557108E+04  0.12699999809E+01 0. -1.
       -4    1    3    3    0  502  0.88883697959E+03 -0.14610099302E+03 -0.13745786986E+03  0.91119314930E+03  0.12699999809E+01 0.  1.
</event>
<event>
 5   0  0.4956214E-06  0.1997403E+04  0.7818609E-02  0.8607836E-01
       -2   -1    0    0    0  501  0.00000000000E+00  0.00000000000E+00  0.45525000431E+03  0.45525000431E+03  0.25500000920E-02 0.  1.
        2   -1    0    0  501    0  0.00000000000E+00  0.00000000000E+00 -0.21908945744E+04  0.21908945744E+04  0.25500000920E-02 0. -1.
    10030    2    1    2    0    0  0.00000000000E+00  0.00000000000E+00 -0.17356445701E+04  0.26461445787E+04  0.19974030784E+04 0.  0.
        1    1    3    3  502    0 -0.44106429623E+03  0.76855302340E+03 -0.14780805769E+04  0.17233495452E+04  0.50400001928E-02 0. -1.
       -1    1    3    3    0  502  0.44106429623E+03 -0.76855302340E+03 -0.25756399318E+03  0.92279503347E+03  0.50400001928E-02 0.  1.
</event>
<event>
 5   0  0.5118981E-06  0.2000494E+04  0.7818609E-02  0.8606390E-01
        2   -1    0    0  501    0  0.00000000000E+00  0.00000000000E+00  0.71700553837E+03  0.71700553838E+03  0.25500000920E-02 0.  1.
       -2   -1    0    0    0  501  0.00000000000E+00  0.00000000000E+00 -0.13953787633E+04  0.13953787633E+04  0.25500000920E-02 0. -1.
    10030    2    1    2    0    0  0.00000000000E+00  0.00000000000E+00 -0.67837322493E+03  0.21123843017E+04  0.20004942404E+04 0.  0.
        4    1    3    3  502    0 -0.91663931504E+03 -0.39991175475E+03 -0.35853186748E+03  0.10624047055E+04  0.12699999809E+01 0.  1.
       -4    1    3    3    0  502  0.91663931504E+03  0.39991175475E+03 -0.31984135745E+03  0.10499795961E+04  0.12699999809E+01 0. -1.
</event>
<event>
 5   0  0.2311520E-06  0.2000082E+04  0.7818609E-02  0.8606582E-01
       -1   -1    0    0    0  501  0.00000000000E+00  0.00000000000E+00  0.50016343997E+03  0.50016343999E+03  0.50400001928E-02 0. -1.
        1   -1    0    0  501    0  0.00000000000E+00  0.00000000000E+00 -0.19995108581E+04  0.19995108581E+04  0.50400001928E-02 0.  1.
    10030    2    1    2    0    0  0.00000000000E+00  0.00000000000E+00 -0.14993474181E+04  0.24996742981E+04  0.20000822274E+04 0.  0.
        3    1    3    3  502    0  0.38783559325E+03  0.25357699220E+03  0.35789633698E+03  0.58549768282E+03  0.10100000352E+00 0. -1.
       -3    1    3    3    0  502 -0.38783559325E+03 -0.25357699220E+03 -0.18572437551E+04  0.19141766152E+04  0.10100000352E+00 0.  1.
</event>
<event>
 5   0  0.5030137E-06  0.1999459E+04  0.7818609E-02  0.8606874E-01
        2   -1    0    0  501    0  0.00000000000E+00  0.00000000000E+00  0.15468286055E+04  0.15468286055E+04  0.25500000920E-02 0. -1.
       -2   -1    0    0    0  501  0.00000000000E+00  0.00000000000E+00 -0.64613419337E+03  0.64613419338E+03  0.25500000920E-02 0.  1.
    10030    2    1    2    0    0  0.00000000000E+00  0.00000000000E+00  0.90069441209E+03  0.21929627988E+04  0.19994587801E+04 0.  0.
        3    1    3    3  502    0  0.43261306737E+03 -0.21018060199E+03  0.14115961138E+04  0.14912858714E+04  0.10100000352E+00 0. -1.
       -3    1    3    3    0  502 -0.43261306737E+03  0.21018060199E+03 -0.51090170171E+03  0.70167692745E+03  0.10100000352E+00 0.  1.
</event>
<event>
 5   0  0.2311520E-06  0.1999541E+04  0.7818609E-02  0.8606835E-01
        1   -1    0    0  501    0  0.00000000000E+00  0.00000000000E+00  0.14375774171E+04  0.14375774171E+04  0.50400001928E-02 0. -1.
       -1   -1    0    0    0  501  0.00000000000E+00  0.00000000000E+00 -0.69529566880E+03  0.69529566882E+03  0.50400001928E-02 0.  1.
    10030    2    1    2    0    0  0.00000000000E+00  0.00000000000E+00  0.74228174832E+03  0.21328730859E+04  0.19995412991E+04 0.  0.
        3    1    3    3  502    0  0.18730301741E+03 -0.16477560494E+03 -0.66156293533E+03  0.70703532297E+03  0.10100000352E+00 0.  1.
       -3    1    3    3    0  502 -0.18730301741E+03  0.16477560494E+03  0.14038446837E+04  0.14258377630E+04  0.10100000352E+00 0. -1.
</event>
<event>
 5   0  0.2386776E-06  0.2000568E+04  0.7818609E-02  0.8606355E-01
        1   -1    0    0  501    0  0.00000000000E+00  0.00000000000E+00  0.12493577079E+04  0.12493577079E+04  0.50400001928E-02 0. -1.
       -1   -1    0    0    0  501  0.00000000000E+00  0.00000000000E+00 -0.80086588691E+03  0.80086588693E+03  0.50400001928E-02 0.  1.
    10030    2    1    2    0    0  0.00000000000E+00  0.00000000000E+00  0.44849182102E+03  0.20502235949E+04  0.20005678882E+04 0.  0.
        2    1    3    3  502    0 -0.46754027916E+03  0.28523828390E+03 -0.63355614883E+03  0.83746533359E+03  0.25500000920E-02 0.  1.
       -2    1    3    3    0  502  0.46754027916E+03 -0.28523828390E+03  0.10820479699E+04  0.12127582613E+04  0.25500000920E-02 0. -1.
</event>
<event>
 5   0  0.5129100E-06  0.2000630E+04  0.7818609E-02  0.8606326E-01
       -2   -1    0    0    0  501  0.00000000000E+00  0.00000000000E+00  0.68174986162E+03  0.68174986162E+03  0.25500000920E-02 0. -1.
        2   -1    0    0  501    0  0.00000000000E+00  0.00000000000E+00 -0.14677376528E+04  0.14677376528E+04  0.25500000920E-02 0.  1.
    10030    2    1    2    0    0  0.00000000000E+00  0.00000000000E+00 -0.78598779122E+03  0.21494875145E+04  0.20006298425E+04 0.  0.
        2    1    3    3  502    0 -0.48816700249E+02  0.97464909350E+03 -0.62913348006E+03  0.11610912373E+04  0.25500000920E-02 0.  1.
       -2    1    3    3    0  502  0.48816700249E+02 -0.97464909350E+03 -0.15685431115E+03  0.98839627712E+03  0.25500000920E-02 0. -1.
</event>
<event>
 5   0  0.1777750E-06  0.2000090E+04  0.7818609E-02  0.8606579E-01
        3   -1    0    0  501    0  0.00000000000E+00  0.00000000000E+00  0.45361106680E+03  0.45361107804E+03  0.10100000352E+00 0. -1.
       -3   -1    0    0    0  501  0.00000000000E+00  0.00000000000E+00 -0.22047291496E+04  0.22047291519E+04  0.10100000352E+00 0.  1.
    10030    2    1    2    0    0  0.00000000000E+00  0.00000000000E+00 -0.17511180828E+04  0.26583402299E+04  0.20000895576E+04 0.  0.
        2    1    3    3  502    0  0.80895904328E+02  0.62452640375E+03  0.15697443759E+03  0.64901336687E+03  0.25500000920E-02 0. -1.
       -2    1    3    3    0  502 -0.80895904328E+02 -0.62452640375E+03 -0.19080925204E+04  0.20093268631E+04  0.25500000920E-02 0.  1.
</event>
<event>
 5   0  0.2313821E-06  0.1999788E+04  0.7818609E-02  0.8606720E-01
        1   -1    0    0  501    0  0.00000000000E+00  0.00000000000E+00  0.77032857823E+03  0.77032857825E+03  0.50400001928E-02 0. -1.
       -1   -1    0    0    0  501  0.00000000000E+00  0.00000000000E+00 -0.12978722159E+04  0.12978722159E+04  0.50400001928E-02 0.  1.
    10030    2    1    2    0    0  0.00000000000E+00  0.00000000000E+00 -0.52754363768E+03  0.20682007942E+04  0.19997880476E+04 0.  0.
        1    1    3    3  502    0 -0.26231594926E+03 -0.36374460934E+03  0.66048347152E+03  0.79834717651E+03  0.50400001928E-02 0. -1.
       -1    1    3    3    0  502  0.26231594926E+03  0.36374460934E+03 -0.11880271092E+04  0.12698536177E+04  0.50400001928E-02 0.  1.
</event>
<event>
 5   0  0.5118981E-06  0.1998205E+04  0.7818609E-02  0.8607460E-01
        2   -1    0    0  501    0  0.00000000000E+00  0.00000000000E+00  0.20463798516E+04  0.20463798516E+04  0.25500000920E-02 0. -1.
       -2   -1    0    0    0  501  0.00000000000E+00  0.00000000000E+00 -0.48779115865E+03  0.48779115866E+03  0.25500000920E-02 0.  1.
    10030    2    1    2    0    0  0.00000000000E+00  0.00000000000E+00  0.15585886930E+04  0.25341710103E+04  0.19982051935E+04 0.  0.
        4    1    3    3  502    0  0.18944211208E+03  0.70284058933E+02  0.20201954014E+04  0.20302756551E+04  0.12699999809E+01 0. -1.
       -4    1    3    3    0  502 -0.18944211208E+03 -0.70284058933E+02 -0.46160670847E+03  0.50389535519E+03  0.12699999809E+01 0.  1.
</event>
<event>
 5   0  0.2313821E-06  0.1999757E+04  0.7818609E-02  0.8606735E-01
        1   -1    0    0  501    0  0.00000000000E+00  0.00000000000E+00  0.10681956576E+04  0.10681956576E+04  0.50400001928E-02 0. -1.
       -1   -1    0    0    0  501  0.00000000000E+00  0.00000000000E+00 -0.93593014385E+03  0.93593014386E+03  0.50400001928E-02 0.  1.
    10030    2    1    2    0    0  0.00000000000E+00  0.00000000000E+00  0.13226551372E+03  0.20041258014E+04  0.19997565006E+04 0.  0.
        1    1    3    3  502    0  0.35628685234E+03 -0.42094241284E+03 -0.76973012625E+03  0.94689878200E+03  0.50400001928E-02 0.  1.
       -1    1    3    3    0  502 -0.35628685234E+03  0.42094241284E+03  0.90199563996E+03  0.10572270194E+04  0.50400001928E-02 0. -1.
</event>
<event>
 5   0  0.5118981E-06  0.2000041E+04  0.7818609E-02  0.8606601E-01
        2   -1    0    0  501    0  0.00000000000E+00  0.00000000000E+00  0.66149807940E+03  0.66149807941E+03  0.25500000920E-02 0.  1.
       -2   -1    0    0    0  501  0.00000000000E+00  0.00000000000E+00 -0.15117827804E+04  0.15117827804E+04  0.25500000920E-02 0. -1.
    10030    2    1    2    0    0  0.00000000000E+00  0.00000000000E+00 -0.85028470097E+03  0.21732808598E+04  0.20000414053E+04 0.  0.
        4    1    3    3  502    0  0.75612096059E+03  0.22981424552E+03  0.24072156684E+03  0.82612467590E+03  0.12699999809E+01 0.  1.
       -4    1    3    3    0  502 -0.75612096059E+03 -0.22981424552E+03 -0.10910062678E+04  0.13471561839E+04  0.12699999809E+01 0. -1.
</event>
<event>
 5   0  0.5251252E-06  0.2000430E+04  0.7818609E-02  0.8606420E-01
        2   -1    0    0  501    0  0.00000000000E+00  0.00000000000E+00  0.16538259495E+04  0.16538259495E+04  0.25500000920E-02 0. -1.
       -2   -1    0    0    0  501  0.00000000000E+00  0.00000000000E+00 -0.60491839611E+03  0.60491839611E+03  0.25500000920E-02 0.  1.
    10030    2    1    2    0    0  0.00000000000E+00  0.00000000000E+00  0.10489075534E+04  0.22587443456E+04  0.20004296947E+04 0.  0.
        5    1    3    3  502    0 -0.45325761315E+03  0.87944517397E+03  0.69017589482E+03  0.12063296124E+04  0.46999998093E+01 0.  1.
       -5    1    3    3    0  502  0.45325761315E+03 -0.87944517397E+03  0.35873165859E+03  0.10524147333E+04  0.46999998093E+01 0. -1.
</event>
<event>
 5   0  0.2356996E-06  0.2000230E+04  0.7818609E-02  0.8606513E-01
       -1   -1    0    0    0  501  0.00000000000E+00  0.00000000000E+00  0.99826412544E+03  0.99826412546E+03  0.50400001928E-02 0.  1.
        1   -1    0    0  501    0  0.00000000000E+00  0.00000000000E+00 -0.10019688341E+04  0.10019688341E+04  0.50400001928E-02 0. -1.
    10030    2    1    2    0    0  0.00000000000E+00  0.00000000000E+00 -0.37047086382E+01  0.20002329596E+04  0.20002295287E+04 0.  0.
        4    1    3    3  502    0 -0.46365731245E+03  0.56392581183E+03  0.68169655190E+03  0.99885045247E+03  0.12699999809E+01 0.  1.
       -4    1    3    3    0  502  0.46365731245E+03 -0.56392581183E+03 -0.68540126054E+03  0.10013825071E+04  0.12699999809E+01 0. -1.
</event>
<event>
 5   0  0.5251252E-06  0.1992740E+04  0.7818609E-02  0.8610023E-01
        2   -1    0    0  501    0  0.00000000000E+00  0.00000000000E+00  0.15204526375E+04  0.15204526375E+04  0.25500000920E-02 0.  1.
       -2   -1    0    0    0  501  0.00000000000E+00  0.00000000000E+00 -0.65293259318E+03  0.65293259319E+03  0.25500000920E-02 0. -1.
    10030    2    1    2    0    0  0.00000000000E+00  0.00000000000E+00  0.86752004431E+03  0.21733852307E+04  0.19927399062E+04 0.  0.
        5    1    3    3  502    0 -0.75787734131E+03 -0.48171318327E+03  0.90451914257E+03  0.12745990054E+04  0.46999998093E+01 0.  1.
       -5    1    3    3    0  502  0.75787734131E+03  0.48171318327E+03 -0.36999098258E+02  0.89878622524E+03  0.46999998093E+01 0. -1.
</event>
<event>
 5   0  0.2386776E-06  0.2006023E+04  0.7818609E-02  0.8603810E-01
       -1   -1    0    0    0  501  0.00000000000E+00  0.00000000000E+00  0.10327926537E+04  0.10327926537E+04  0.50400001928E-02 0.  1.
        1   -1    0    0  501    0  0.00000000000E+00  0.00000000000E+00 -0.97408895179E+03  0.97408895180E+03  0.50400001928E-02 0. -1.
    10030    2    1    2    0    0  0.00000000000E+00  0.00000000000E+00  0.58703701942E+02  0.20068816055E+04  0.20060228448E+04 0.  0.
        2    1    3    3  502    0  0.24892102737E+03  0.37610449124E+03  0.92562356187E+03  0.10296578288E+04  0.25500000920E-02 0.  1.
       -2    1    3    3    0  502 -0.24892102737E+03 -0.37610449124E+03 -0.86691985993E+03  0.97722377670E+03  0.25500000920E-02 0. -1.
</event>
<event>
 5   0  0.5129100E-06  0.2000068E+04  0.7818609E-02  0.8606589E-01
        2   -1    0    0  501    0  0.00000000000E+00  0.00000000000E+00  0.15325818085E+04  0.15325818085E+04  0.25500000920E-02 0.  1.
       -2   -1    0    0    0  501  0.00000000000E+00  0.00000000000E+00 -0.65253782649E+03  0.65253782650E+03  0.25500000920E-02 0. -1.
    10030    2    1    2    0    0  0.00000000000E+00  0.00000000000E+00  0.88004398199E+03  0.21851196350E+04  0.20000676011E+04 0.  0.
        2    1    3    3  502    0 -0.12183199146E+03  0.10123088650E+03  0.15187891144E+04  0.15270268827E+04  0.25500000920E-02 0.  1.
       -2    1    3    3    0  502  0.12183199146E+03 -0.10123088650E+03 -0.63874513236E+03  0.65809275231E+03  0.25500000920E-02 0. -1.
</event>
<event>
 5   0  0.2379743E-06  0.2012201E+04  0.7818609E-02  0.8600938E-01
       -1   -1    0    0    0  501  0.00000000000E+00  0.00000000000E+00  0.93197636169E+03  0.93197636171E+03  0.50400001928E-02 0.  1.
        1   -1    0    0  501    0  0.00000000000E+00  0.00000000000E+00 -0.10861199548E+04  0.10861199548E+04  0.50400001928E-02 0. -1.
    10030    2    1    2    0    0  0.00000000000E+00  0.00000000000E+00 -0.15414359307E+03  0.20180963165E+04  0.20122009083E+04 0.  0.
        5    1    3    3  502    0  0.80683838569E+02 -0.19740907876E+03 -0.10631797271E+04  0.10843677643E+04  0.46999998093E+01 0. -1.
       -5    1    3    3    0  502 -0.80683838569E+02  0.19740907876E+03  0.90903613402E+03  0.93372855217E+03  0.46999998093E+01 0.  1.
</event>
</LesHouchesEvents>
