<LesHouchesEvents version="3.0">
<header>
<!--
#*********************************************************************
#                                                                    *
#                        MadGraph5_aMC@NLO                           *
#                                                                    *
#                           Going Beyond                             *
#                                                                    *
#                   http://madgraph.hep.uiuc.edu                     *
#                   http://madgraph.phys.ucl.ac.be                   *
#                   http://amcatnlo.cern.ch                          *
#                                                                    *
#                     The MadGraph5_aMC@NLO team                     *
#                                                                    *
#....................................................................*
#                                                                    *
# This file contains all the information necessary to reproduce      *
# the events generated:                                              *
#                                                                    *
# 1. software version                                                *
# 2. proc_card          : code generation info including model       *
# 3. param_card         : model primary parameters in the LH format  *
# 4. run_card           : running parameters (collider and cuts)     *
# 5. pythia_card        : present only if pythia has been run        *
# 6. pgs_card           : present only if pgs has been run           *
# 7. delphes_cards      : present only if delphes has been run       *
#                                                                    *
#                                                                    *
#*********************************************************************
-->
<MGVersion>
#5.2.2.3
</MGVersion>
<MG5ProcCard>
#************************************************************
#*                     MadGraph5_aMC@NLO                    *
#*                                                          *
#*                *                       *                 *
#*                  *        * *        *                   *
#*                    * * * * 5 * * * *                     *
#*                  *        * *        *                   *
#*                *                       *                 *
#*                                                          *
#*                                                          *
#*         VERSION 2.2.3                 2015-02-10         *
#*                                                          *
#*    The MadGraph5_aMC@NLO Development Team - Find us at   *
#*    https://server06.fynu.ucl.ac.be/projects/madgraph     *
#*                                                          *
#************************************************************
#*                                                          *
#*               Command File for MadGraph5_aMC@NLO         *
#*                                                          *
#*     run as ./bin/mg5_aMC  filename                       *
#*                                                          *
#************************************************************
set group_subprocesses Auto
set ignore_six_quark_processes False
set loop_optimized_output True
set gauge unitary
set complex_mass_scheme False
import model sm
define p = g u c d s u~ c~ d~ s~
define j = g u c d s u~ c~ d~ s~
define l+ = e+ mu+
define l- = e- mu-
define vl = ve vm vt
define vl~ = ve~ vm~ vt~
import model Zprime_UFO
generate p p > zph, zph > j j
add process p p > zph, zph > b b~
output Dijet_signal
</MG5ProcCard>
<MGProcCard>
#*********************************************************************
#                        MadGraph/MadEvent                           *
#                   http://madgraph.hep.uiuc.edu                     *
#                                                                    *
#                          proc_card.dat                             *
#*********************************************************************
#                                                                    *
#            This Files is generated by MADGRAPH 5                   *
#                                                                    *
# WARNING: This Files is generated for MADEVENT (compatibility issue)*
#          This files is NOT a valid MG4 proc_card.dat               *
#          Running this in MG4 will NEVER reproduce the result of MG5*
#                                                                    *
#*********************************************************************
#*********************************************************************
# Process(es) requested : mg2 input                                  *
#*********************************************************************
# Begin PROCESS # This is TAG. Do not modify this line
p p > zph , zph > j j           #Process
# Be carefull the coupling are here in MG5 convention
          
end_coup           # End the couplings input

done               # this tells MG there are no more procs
# End PROCESS  # This is TAG. Do not modify this line
#*********************************************************************
# Model information                                                  *
#*********************************************************************
# Begin MODEL  # This is TAG. Do not modify this line
Zprime_UFO
# End   MODEL  # This is TAG. Do not modify this line
#*********************************************************************
# Start multiparticle definitions                                    *
#*********************************************************************
# Begin MULTIPARTICLES # This is TAG. Do not modify this line

# End  MULTIPARTICLES # This is TAG. Do not modify this line
</MGProcCard>
<MGRunCard>
#*********************************************************************
#                       MadGraph5_aMC@NLO                            *
#                                                                    *
#                     run_card.dat MadEvent                          *
#                                                                    *
#  This file is used to set the parameters of the run.               *
#                                                                    *
#  Some notation/conventions:                                        *
#                                                                    *
#   Lines starting with a '# ' are info or comments                  *
#                                                                    *
#   mind the format:   value    = variable     ! comment             *
#*********************************************************************
#
#*******************                                                 
# Running parameters
#*******************                                                 
#                                                                    
#*********************************************************************
# Tag name for the run (one word)                                    *
#*********************************************************************
  tag_1     = run_tag ! name of the run 
#*********************************************************************
# Run to generate the grid pack                                      *
#*********************************************************************
  .false.     = gridpack  !True = setting up the grid pack
#*********************************************************************
# Number of events and rnd seed                                      *
# Warning: Do not generate more than 1M events in a single run       *
# If you want to run Pythia, avoid more than 50k events in a run.    *
#*********************************************************************
  2000 = nevents ! Number of unweighted events requested 
 2505 = iseed   ! rnd seed (0=assigned automatically=default))
#*********************************************************************
# Collider type and energy                                           *
# lpp: 0=No PDF, 1=proton, -1=antiproton, 2=photon from proton,      *
#                                         3=photon from electron     *
#*********************************************************************
        1     = lpp1    ! beam 1 type 
        1     = lpp2    ! beam 2 type
     4000     = ebeam1  ! beam 1 total energy in GeV
     4000     = ebeam2  ! beam 2 total energy in GeV
#*********************************************************************
# Beam polarization from -100 (left-handed) to 100 (right-handed)    *
#*********************************************************************
        0     = polbeam1 ! beam polarization for beam 1
        0     = polbeam2 ! beam polarization for beam 2
#*********************************************************************
# PDF CHOICE: this automatically fixes also alpha_s and its evol.    *
#*********************************************************************
 'nn23lo1'    = pdlabel     ! PDF set                                     
 230000    = lhaid     ! if pdlabel=lhapdf, this is the lhapdf number
#*********************************************************************
# Renormalization and factorization scales                           *
#*********************************************************************
 F        = fixed_ren_scale  ! if .true. use fixed ren scale
 F        = fixed_fac_scale  ! if .true. use fixed fac scale
 91.1880  = scale            ! fixed ren scale
 91.1880  = dsqrt_q2fact1    ! fixed fact scale for pdf1
 91.1880  = dsqrt_q2fact2    ! fixed fact scale for pdf2
 1        = scalefact        ! scale factor for event-by-event scales
#*********************************************************************
# Matching - Warning! ickkw > 1 is still beta
#*********************************************************************
 0        = ickkw            ! 0 no matching, 1 MLM, 2 CKKW matching
 1        = highestmult      ! for ickkw=2, highest mult group
 1        = ktscheme         ! for ickkw=1, 1 Durham kT, 2 Pythia pTE
 1        = alpsfact         ! scale factor for QCD emission vx
 F        = chcluster        ! cluster only according to channel diag
 T        = pdfwgt           ! for ickkw=1, perform pdf reweighting
 5        = asrwgtflavor     ! highest quark flavor for a_s reweight
 T        = clusinfo         ! include clustering tag in output
 3.0      = lhe_version       ! Change the way clustering information pass to shower.        
#*********************************************************************
#**********************************************************
#
#**********************************************************
# Automatic ptj and mjj cuts if xqcut > 0
# (turn off for VBF and single top processes)
#**********************************************************
   T  = auto_ptj_mjj  ! Automatic setting of ptj and mjj
#**********************************************************
#                                                                    
#**********************************
# BW cutoff (M+/-bwcutoff*Gamma)
#**********************************
  15  = bwcutoff      ! (M+/-bwcutoff*Gamma)
#**********************************************************
# Apply pt/E/eta/dr/mij cuts on decay products or not
# (note that etmiss/ptll/ptheavy/ht/sorted cuts always apply)
#**********************************************************
   T  = cut_decays    ! Cut decay products 
#*************************************************************
# Number of helicities to sum per event (0 = all helicities)
# 0 gives more stable result, but longer run time (needed for
# long decay chains e.g.).
# Use >=2 if most helicities contribute, e.g. pure QCD.
#*************************************************************
   0  = nhel          ! Number of helicities used per event
#*******************                                                 
# Standard Cuts
#*******************                                                 
#                                                                    
#*********************************************************************
# Minimum and maximum pt's (for max, -1 means no cut)                *
#*********************************************************************
 20  = ptj       ! minimum pt for the jets 
  0  = ptb       ! minimum pt for the b 
 10  = pta       ! minimum pt for the photons 
 10  = ptl       ! minimum pt for the charged leptons 
  0  = misset    ! minimum missing Et (sum of neutrino's momenta)
  0  = ptheavy   ! minimum pt for one heavy final state
 1.0 = ptonium   ! minimum pt for the quarkonium states
 -1  = ptjmax    ! maximum pt for the jets
 -1  = ptbmax    ! maximum pt for the b
 -1  = ptamax    ! maximum pt for the photons
 -1  = ptlmax    ! maximum pt for the charged leptons
 -1  = missetmax ! maximum missing Et (sum of neutrino's momenta)
#*********************************************************************
# Minimum and maximum E's (in the center of mass frame)              *
#*********************************************************************
  0  = ej     ! minimum E for the jets 
  0  = eb     ! minimum E for the b 
  0  = ea     ! minimum E for the photons 
  0  = el     ! minimum E for the charged leptons 
 -1   = ejmax ! maximum E for the jets
 -1   = ebmax ! maximum E for the b
 -1   = eamax ! maximum E for the photons
 -1   = elmax ! maximum E for the charged leptons
#*********************************************************************
# Maximum and minimum absolute rapidity (for max, -1 means no cut)   *
#*********************************************************************
   5  = etaj    ! max rap for the jets 
  -1  = etab    ! max rap for the b
 2.5  = etaa    ! max rap for the photons 
 2.5  = etal    ! max rap for the charged leptons 
 0.6  = etaonium ! max rap for the quarkonium states
   0  = etajmin ! min rap for the jets
   0  = etabmin ! min rap for the b
   0  = etaamin ! min rap for the photons
   0  = etalmin ! main rap for the charged leptons
#*********************************************************************
# Minimum and maximum DeltaR distance                                *
#*********************************************************************
 0.4 = drjj    ! min distance between jets 
 0   = drbb    ! min distance between b's 
 0.4 = drll    ! min distance between leptons 
 0.4 = draa    ! min distance between gammas 
 0   = drbj    ! min distance between b and jet 
 0.4 = draj    ! min distance between gamma and jet 
 0.4 = drjl    ! min distance between jet and lepton 
 0   = drab    ! min distance between gamma and b 
 0   = drbl    ! min distance between b and lepton 
 0.4 = dral    ! min distance between gamma and lepton 
 -1  = drjjmax ! max distance between jets
 -1  = drbbmax ! max distance between b's
 -1  = drllmax ! max distance between leptons
 -1  = draamax ! max distance between gammas
 -1  = drbjmax ! max distance between b and jet
 -1  = drajmax ! max distance between gamma and jet
 -1  = drjlmax ! max distance between jet and lepton
 -1  = drabmax ! max distance between gamma and b
 -1  = drblmax ! max distance between b and lepton
 -1  = dralmax ! maxdistance between gamma and lepton
#*********************************************************************
# Minimum and maximum invariant mass for pairs                       *
# WARNING: for four lepton final state mmll cut require to have      *
#          different lepton masses for each flavor!                  *           
#*********************************************************************
 0   = mmjj    ! min invariant mass of a jet pair 
 0   = mmbb    ! min invariant mass of a b pair 
 0   = mmaa    ! min invariant mass of gamma gamma pair
 0   = mmll    ! min invariant mass of l+l- (same flavour) lepton pair
 -1  = mmjjmax ! max invariant mass of a jet pair
 -1  = mmbbmax ! max invariant mass of a b pair
 -1  = mmaamax ! max invariant mass of gamma gamma pair
 -1  = mmllmax ! max invariant mass of l+l- (same flavour) lepton pair
#*********************************************************************
# Minimum and maximum invariant mass for all letpons                 *
#*********************************************************************
 0   = mmnl    ! min invariant mass for all letpons (l+- and vl) 
 -1  = mmnlmax ! max invariant mass for all letpons (l+- and vl) 
#*********************************************************************
# Minimum and maximum pt for 4-momenta sum of leptons                *
#*********************************************************************
 0   = ptllmin  ! Minimum pt for 4-momenta sum of leptons(l and vl)
 -1  = ptllmax  ! Maximum pt for 4-momenta sum of leptons(l and vl)
#*********************************************************************
# Inclusive cuts                                                     *
#*********************************************************************
 0  = xptj ! minimum pt for at least one jet  
 0  = xptb ! minimum pt for at least one b 
 0  = xpta ! minimum pt for at least one photon 
 0  = xptl ! minimum pt for at least one charged lepton 
#*********************************************************************
# Control the pt's of the jets sorted by pt                          *
#*********************************************************************
 0   = ptj1min ! minimum pt for the leading jet in pt
 0   = ptj2min ! minimum pt for the second jet in pt
 0   = ptj3min ! minimum pt for the third jet in pt
 0   = ptj4min ! minimum pt for the fourth jet in pt
 -1  = ptj1max ! maximum pt for the leading jet in pt 
 -1  = ptj2max ! maximum pt for the second jet in pt
 -1  = ptj3max ! maximum pt for the third jet in pt
 -1  = ptj4max ! maximum pt for the fourth jet in pt
 0   = cutuse  ! reject event if fails any (0) / all (1) jet pt cuts
#*********************************************************************
# Control the pt's of leptons sorted by pt                           *
#*********************************************************************
 0   = ptl1min ! minimum pt for the leading lepton in pt
 0   = ptl2min ! minimum pt for the second lepton in pt
 0   = ptl3min ! minimum pt for the third lepton in pt
 0   = ptl4min ! minimum pt for the fourth lepton in pt
 -1  = ptl1max ! maximum pt for the leading lepton in pt 
 -1  = ptl2max ! maximum pt for the second lepton in pt
 -1  = ptl3max ! maximum pt for the third lepton in pt
 -1  = ptl4max ! maximum pt for the fourth lepton in pt
#*********************************************************************
# Control the Ht(k)=Sum of k leading jets                            *
#*********************************************************************
 0   = htjmin ! minimum jet HT=Sum(jet pt)
 -1  = htjmax ! maximum jet HT=Sum(jet pt)
 0   = ihtmin  !inclusive Ht for all partons (including b)
 -1  = ihtmax  !inclusive Ht for all partons (including b)
 0   = ht2min ! minimum Ht for the two leading jets
 0   = ht3min ! minimum Ht for the three leading jets
 0   = ht4min ! minimum Ht for the four leading jets
 -1  = ht2max ! maximum Ht for the two leading jets
 -1  = ht3max ! maximum Ht for the three leading jets
 -1  = ht4max ! maximum Ht for the four leading jets
#***********************************************************************
# Photon-isolation cuts, according to hep-ph/9801442                   *
# When ptgmin=0, all the other parameters are ignored                  *
# When ptgmin>0, pta and draj are not going to be used                 *
#***********************************************************************
   0 = ptgmin ! Min photon transverse momentum
 0.4 = R0gamma ! Radius of isolation code
 1.0 = xn ! n parameter of eq.(3.4) in hep-ph/9801442
 1.0 = epsgamma ! epsilon_gamma parameter of eq.(3.4) in hep-ph/9801442
 .true. = isoEM ! isolate photons from EM energy (photons and leptons)
#*********************************************************************
# WBF cuts                                                           *
#*********************************************************************
 0   = xetamin ! minimum rapidity for two jets in the WBF case  
 0   = deltaeta ! minimum rapidity for two jets in the WBF case 
#*********************************************************************
# KT DURHAM CUT                                                      *
#*********************************************************************
 -1    =  ktdurham        
 0.4  =  dparameter 
#*********************************************************************
# maximal pdg code for quark to be considered as a light jet         *
# (otherwise b cuts are applied)                                     *
#*********************************************************************
 4 = maxjetflavor    ! Maximum jet pdg code
#*********************************************************************
# Jet measure cuts                                                   *
#*********************************************************************
 0   = xqcut   ! minimum kt jet measure between partons
#*********************************************************************
#
#*********************************************************************
# Store info for systematics studies                                 *
# WARNING: If use_syst is T, matched Pythia output is                *
#          meaningful ONLY if plotted taking matchscale              *
#          reweighting into account!                                 *
#*********************************************************************
   F  = use_syst      ! Enable systematics studies
#
#**************************************
# Parameter of the systematics study
#  will be used by SysCalc (if installed)
#**************************************                                  
#
0.5 1 2 = sys_scalefact  # factorization/renormalization scale factor
0.5 1 2 = sys_alpsfact  # \alpha_s emission scale factors
30 50 = sys_matchscale # variation of merging scale
# PDF sets and number of members (0 or none for all members).
CT10nlo.LHgrid = sys_pdf # matching scales
# MSTW2008nlo68cl.LHgrid 1  = sys_pdf
</MGRunCard>
<slha>
######################################################################
## PARAM_CARD AUTOMATICALY GENERATED BY MG5 FOLLOWING UFO MODEL   ####
######################################################################
##                                                                  ##
##  Width set on Auto will be computed following the information    ##
##        present in the decay.py files of the model.               ##
##        See  arXiv:1402.1178 for more details.                    ##
##                                                                  ##
######################################################################

###################################
## INFORMATION FOR CKMBLOCK
###################################
Block ckmblock 
    1 2.277360e-01 # cabi 

###################################
## INFORMATION FOR FRBLOCK
###################################
Block frblock 
    1 1.400000e+00 # gz 

###################################
## INFORMATION FOR MASS
###################################
Block mass 
    1 5.040000e-03 # MD 
    2 2.550000e-03 # MU 
    3 1.010000e-01 # MS 
    4 1.270000e+00 # MC 
    5 4.700000e+00 # MB 
    6 1.720000e+02 # MT 
   11 5.110000e-04 # Me 
   13 1.056600e-01 # MM 
   15 1.777000e+00 # MTA 
   23 9.118760e+01 # MZ 
   25 1.200000e+02 # MH 
  10030 1.200000e+03 # MZph 
  10031 3.000000e+02 # MZpl 
## Dependent parameters, given by model restrictions.
## Those values should be edited following the 
## analytical expression. MG5 ignores those values 
## but they are important for interfacing the output of MG5
## to external program such as Pythia.
  12 0.000000 # ve : 0.0 
  14 0.000000 # vm : 0.0 
  16 0.000000 # vt : 0.0 
  21 0.000000 # g : 0.0 
  22 0.000000 # a : 0.0 
  24 79.824360 # w+ : cmath.sqrt(MZ__exp__2/2. + cmath.sqrt(MZ__exp__4/4. - (aEW*cmath.pi*MZ__exp__2)/(Gf*sqrt__2))) 

###################################
## INFORMATION FOR SMINPUTS
###################################
Block sminputs 
    1 1.279000e+02 # aEWM1 
    2 1.166370e-05 # Gf 
    3 1.184000e-01 # aS 

###################################
## INFORMATION FOR YUKAWA
###################################
Block yukawa 
    1 5.040000e-03 # ymdo 
    2 2.550000e-03 # ymup 
    3 1.010000e-01 # yms 
    4 1.270000e+00 # ymc 
    5 4.700000e+00 # ymb 
    6 1.720000e+02 # ymt 
   11 5.110000e-04 # yme 
   13 1.056600e-01 # ymm 
   15 1.777000e+00 # ymtau 

###################################
## INFORMATION FOR DECAY
###################################
DECAY   6 1.508336e+00 # WT 
DECAY  23 2.495200e+00 # WZ 
DECAY  24 2.085000e+00 # WW 
DECAY  25 5.753088e-03 # WH 
## Dependent parameters, given by model restrictions.
## Those values should be edited following the 
## analytical expression. MG5 ignores those values 
## but they are important for interfacing the output of MG5
## to external program such as Pythia.
DECAY  1 0.000000 # d : 0.0 
DECAY  2 0.000000 # u : 0.0 
DECAY  3 0.000000 # s : 0.0 
DECAY  4 0.000000 # c : 0.0 
DECAY  5 0.000000 # b : 0.0 
DECAY  11 0.000000 # e- : 0.0 
DECAY  12 0.000000 # ve : 0.0 
DECAY  13 0.000000 # mu- : 0.0 
DECAY  14 0.000000 # vm : 0.0 
DECAY  15 0.000000 # ta- : 0.0 
DECAY  16 0.000000 # vt : 0.0 
DECAY  21 0.000000 # g : 0.0 
DECAY  22 0.000000 # a : 0.0 
DECAY  10030 0.308725 # zph : (gz__exp__2*MZph*(5 + cmath.sqrt(1 - (4*MT__exp__2)/MZph__exp__2)))/(144.*cmath.pi) 
DECAY  10031 0.132629 # zpl : (5*gz__exp__2*MZpl)/(144.*cmath.pi) 
#===========================================================
# QUANTUM NUMBERS OF NEW STATE(S) (NON SM PDG CODE)
#===========================================================

Block QNUMBERS 10030  # zph 
        1 0  # 3 times electric charge
        2 3  # number of spin states (2S+1)
        3 1  # colour rep (1: singlet, 3: triplet, 8: octet)
        4 0  # Particle/Antiparticle distinction (0=own anti)
Block QNUMBERS 10031  # zpl 
        1 0  # 3 times electric charge
        2 3  # number of spin states (2S+1)
        3 1  # colour rep (1: singlet, 3: triplet, 8: octet)
        4 0  # Particle/Antiparticle distinction (0=own anti)
</slha>
## END BANNER##
<MGGenerationInfo>
#  Number of Events        :         3952
#  Integrated weight (pb)  :  0.15377E+01
#  Max wgt                 :  0.54676E-03
#  Average wgt             :  0.38909E-03
</MGGenerationInfo>
</header>
<init>
     2212     2212  0.40000000000E+04  0.40000000000E+04 0 0  247000  247000 2   1
  0.15397776741E+01  0.30664376480E-02  0.54675540000E-03   0
</init>
<event>
 5   0  0.5467554E-03  0.1217905E+04  0.7818609E-02  0.9097327E-01
       -2   -1    0    0    0  501  0.00000000000E+00  0.00000000000E+00  0.17173387783E+03  0.17173387784E+03  0.25500000920E-02 0.  1.
        2   -1    0    0  501    0  0.00000000000E+00  0.00000000000E+00 -0.21592883996E+04  0.21592883996E+04  0.25500000920E-02 0. -1.
    10030    2    1    2    0    0  0.00000000000E+00  0.00000000000E+00 -0.19875545218E+04  0.23310222774E+04  0.12179047093E+04 0.  0.
        1    1    3    3  502    0 -0.25172069156E+03  0.20766754454E+03 -0.19778099116E+04  0.20045501147E+04  0.50400001928E-02 0. -1.
       -1    1    3    3    0  502  0.25172069156E+03 -0.20766754454E+03 -0.97446101315E+01  0.32647216277E+03  0.50400001928E-02 0.  1.
</event>
<event>
 5   0  0.5467554E-03  0.1206579E+04  0.7818609E-02  0.9107117E-01
       -2   -1    0    0    0  501  0.00000000000E+00  0.00000000000E+00  0.42667912807E+03  0.42667912808E+03  0.25500000920E-02 0.  1.
        2   -1    0    0  501    0  0.00000000000E+00  0.00000000000E+00 -0.85300206719E+03  0.85300206719E+03  0.25500000920E-02 0. -1.
    10030    2    1    2    0    0  0.00000000000E+00  0.00000000000E+00 -0.42632293912E+03  0.12796811953E+04  0.12065789295E+04 0.  0.
        1    1    3    3  502    0 -0.43271399150E+03  0.23760470995E+03 -0.58095836768E+03  0.76237131481E+03  0.50400001928E-02 0. -1.
       -1    1    3    3    0  502  0.43271399150E+03 -0.23760470995E+03  0.15463542857E+03  0.51730988047E+03  0.50400001928E-02 0.  1.
</event>
<event>
 5   0  0.5108045E-03  0.1213042E+04  0.7818609E-02  0.9101517E-01
        2   -1    0    0  501    0  0.00000000000E+00  0.00000000000E+00  0.59920767660E+03  0.59920767661E+03  0.25500000920E-02 0.  1.
       -2   -1    0    0    0  501  0.00000000000E+00  0.00000000000E+00 -0.61392400840E+03  0.61392400840E+03  0.25500000920E-02 0. -1.
    10030    2    1    2    0    0  0.00000000000E+00  0.00000000000E+00 -0.14716331795E+02  0.12131316850E+04  0.12130424208E+04 0.  0.
        3    1    3    3  502    0 -0.33104757178E+03  0.32980249907E+02  0.49981599509E+03  0.60041338328E+03  0.10100000352E+00 0.  1.
       -3    1    3    3    0  502  0.33104757178E+03 -0.32980249907E+02 -0.51453232689E+03  0.61271830173E+03  0.10100000352E+00 0. -1.
</event>
<event>
 5   0  0.5467554E-03  0.1206264E+04  0.7818609E-02  0.9107391E-01
       -2   -1    0    0    0  501  0.00000000000E+00  0.00000000000E+00  0.52376752225E+03  0.52376752226E+03  0.25500000920E-02 0.  1.
        2   -1    0    0  501    0  0.00000000000E+00  0.00000000000E+00 -0.69452226310E+03  0.69452226310E+03  0.25500000920E-02 0. -1.
    10030    2    1    2    0    0  0.00000000000E+00  0.00000000000E+00 -0.17075474085E+03  0.12182897854E+04  0.12062639925E+04 0.  0.
        1    1    3    3  502    0 -0.13389329173E+01 -0.32614517994E+03 -0.59777712250E+03  0.68096252419E+03  0.50400001928E-02 0. -1.
       -1    1    3    3    0  502  0.13389329173E+01  0.32614517994E+03  0.42702238165E+03  0.53732726117E+03  0.50400001928E-02 0.  1.
</event>
<event>
 5   0  0.5108045E-03  0.1201011E+04  0.7818609E-02  0.9111972E-01
       -2   -1    0    0    0  501  0.00000000000E+00  0.00000000000E+00  0.10566084184E+04  0.10566084184E+04  0.25500000920E-02 0.  1.
        2   -1    0    0  501    0  0.00000000000E+00  0.00000000000E+00 -0.34128729029E+03  0.34128729030E+03  0.25500000920E-02 0. -1.
    10030    2    1    2    0    0  0.00000000000E+00  0.00000000000E+00  0.71532112813E+03  0.13978957087E+04  0.12010112806E+04 0.  0.
        3    1    3    3  502    0  0.10254222615E+03  0.19662833418E+03 -0.29188181603E+03  0.36656870390E+03  0.10100000352E+00 0. -1.
       -3    1    3    3    0  502 -0.10254222615E+03 -0.19662833418E+03  0.10072029442E+04  0.10313270048E+04  0.10100000352E+00 0.  1.
</event>
<event>
 5   0  0.2875848E-03  0.1245791E+04  0.7818609E-02  0.9073693E-01
       -1   -1    0    0    0  501  0.00000000000E+00  0.00000000000E+00  0.43941291826E+03  0.43941291829E+03  0.50400001928E-02 0. -1.
        1   -1    0    0  501    0  0.00000000000E+00  0.00000000000E+00 -0.88299416633E+03  0.88299416634E+03  0.50400001928E-02 0.  1.
    10030    2    1    2    0    0  0.00000000000E+00  0.00000000000E+00 -0.44358124806E+03  0.13224070846E+04  0.12457913846E+04 0.  0.
        1    1    3    3  502    0 -0.63515356483E+02  0.42015068415E+03  0.26167350790E+03  0.49903288736E+03  0.50400001928E-02 0. -1.
       -1    1    3    3    0  502  0.63515356483E+02 -0.42015068415E+03 -0.70525475596E+03  0.82337419727E+03  0.50400001928E-02 0.  1.
</event>
<event>
 5   0  0.2930868E-03  0.8888195E+03  0.7818609E-02  0.9439667E-01
        1   -1    0    0  501    0  0.00000000000E+00  0.00000000000E+00  0.46447411773E+03  0.46447411776E+03  0.50400001928E-02 0.  1.
       -1   -1    0    0    0  501  0.00000000000E+00  0.00000000000E+00 -0.42521213438E+03  0.42521213441E+03  0.50400001928E-02 0. -1.
    10030    2    1    2    0    0  0.00000000000E+00  0.00000000000E+00  0.39261983348E+02  0.88968625217E+03  0.88881951147E+03 0.  0.
        3    1    3    3  502    0  0.14590577726E+03 -0.41442196387E+03 -0.47262020753E+02  0.44189112775E+03  0.10100000352E+00 0. -1.
       -3    1    3    3    0  502 -0.14590577726E+03  0.41442196387E+03  0.86524004101E+02  0.44779512443E+03  0.10100000352E+00 0.  1.
</event>
<event>
 5   0  0.5467554E-03  0.1214600E+04  0.7818609E-02  0.9100172E-01
        2   -1    0    0  501    0  0.00000000000E+00  0.00000000000E+00  0.10542890539E+04  0.10542890539E+04  0.25500000920E-02 0.  1.
       -2   -1    0    0    0  501  0.00000000000E+00  0.00000000000E+00 -0.34982185187E+03  0.34982185188E+03  0.25500000920E-02 0. -1.
    10030    2    1    2    0    0  0.00000000000E+00  0.00000000000E+00  0.70446720202E+03  0.14041109058E+04  0.12146000976E+04 0.  0.
        1    1    3    3  502    0 -0.31005583110E+02  0.53851313134E+03  0.67479549308E+03  0.86389044231E+03  0.50400001928E-02 0. -1.
       -1    1    3    3    0  502  0.31005583110E+02 -0.53851313134E+03  0.29671708944E+02  0.54022046347E+03  0.50400001928E-02 0.  1.
</event>
<event>
 5   0  0.2792518E-03  0.1209954E+04  0.7818609E-02  0.9104188E-01
       -1   -1    0    0    0  501  0.00000000000E+00  0.00000000000E+00  0.42772418808E+03  0.42772418810E+03  0.50400001928E-02 0.  1.
        1   -1    0    0  501    0  0.00000000000E+00  0.00000000000E+00 -0.85568496988E+03  0.85568496990E+03  0.50400001928E-02 0. -1.
    10030    2    1    2    0    0  0.00000000000E+00  0.00000000000E+00 -0.42796078181E+03  0.12834091580E+04  0.12099539810E+04 0.  0.
        2    1    3    3  502    0  0.29768798478E+02 -0.18378293169E+03 -0.82454245213E+03  0.84530030328E+03  0.25500000920E-02 0. -1.
       -2    1    3    3    0  502 -0.29768798478E+02  0.18378293169E+03  0.39658167033E+03  0.43810885473E+03  0.25500000920E-02 0.  1.
</event>
<event>
 5   0  0.5108045E-03  0.1298217E+04  0.7818609E-02  0.9030980E-01
       -2   -1    0    0    0  501  0.00000000000E+00  0.00000000000E+00  0.37148705774E+03  0.37148705775E+03  0.25500000920E-02 0. -1.
        2   -1    0    0  501    0  0.00000000000E+00  0.00000000000E+00 -0.11342040966E+04  0.11342040966E+04  0.25500000920E-02 0.  1.
    10030    2    1    2    0    0  0.00000000000E+00  0.00000000000E+00 -0.76271703883E+03  0.15056911543E+04  0.12982174590E+04 0.  0.
        3    1    3    3  502    0 -0.26415790993E+03 -0.17350352099E+03  0.27622576195E+03  0.41974224822E+03  0.10100000352E+00 0. -1.
       -3    1    3    3    0  502  0.26415790993E+03  0.17350352099E+03 -0.10389428008E+04  0.10859489061E+04  0.10100000352E+00 0.  1.
</event>
<event>
 5   0  0.1922125E-03  0.1187667E+04  0.7818609E-02  0.9123721E-01
       -4   -1    0    0    0  501  0.00000000000E+00  0.00000000000E+00  0.77870701792E+03  0.77870805354E+03  0.12699999809E+01 0.  1.
        4   -1    0    0  501    0  0.00000000000E+00  0.00000000000E+00 -0.45284841823E+03  0.45285019906E+03  0.12699999809E+01 0. -1.
    10030    2    1    2    0    0  0.00000000000E+00  0.00000000000E+00  0.32585859969E+03  0.12315582526E+04  0.11876665789E+04 0.  0.
        5    1    3    3  502    0  0.11327804808E+03 -0.57214074854E+03  0.47277607212E+02  0.58517878845E+03  0.46999998093E+01 0.  1.
       -5    1    3    3    0  502 -0.11327804808E+03  0.57214074854E+03  0.27858099248E+03  0.64637946415E+03  0.46999998093E+01 0. -1.
</event>
<event>
 5   0  0.5031575E-03  0.1186144E+04  0.7818609E-02  0.9125071E-01
       -2   -1    0    0    0  501  0.00000000000E+00  0.00000000000E+00  0.19253990978E+03  0.19253990980E+03  0.25500000920E-02 0. -1.
        2   -1    0    0  501    0  0.00000000000E+00  0.00000000000E+00 -0.18268142484E+04  0.18268142484E+04  0.25500000920E-02 0.  1.
    10030    2    1    2    0    0  0.00000000000E+00  0.00000000000E+00 -0.16342743386E+04  0.20193541582E+04  0.11861444273E+04 0.  0.
        5    1    3    3  502    0  0.26348569198E+02 -0.87638813955E+02  0.18041518912E+03  0.20235251239E+03  0.46999998093E+01 0. -1.
       -5    1    3    3    0  502 -0.26348569198E+02  0.87638813955E+02 -0.18146895277E+04  0.18170016458E+04  0.46999998093E+01 0.  1.
</event>
<event>
 5   0  0.2926844E-03  0.1201435E+04  0.7818609E-02  0.9111602E-01
        1   -1    0    0  501    0  0.00000000000E+00  0.00000000000E+00  0.81647834454E+03  0.81647834455E+03  0.50400001928E-02 0.  1.
       -1   -1    0    0    0  501  0.00000000000E+00  0.00000000000E+00 -0.44197295021E+03  0.44197295023E+03  0.50400001928E-02 0. -1.
    10030    2    1    2    0    0  0.00000000000E+00  0.00000000000E+00  0.37450539433E+03  0.12584512948E+04  0.12014347136E+04 0.  0.
        5    1    3    3  502    0 -0.33443884066E+03 -0.35643143131E+03 -0.17852817731E+03  0.52037208174E+03  0.46999998093E+01 0. -1.
       -5    1    3    3    0  502  0.33443884066E+03  0.35643143131E+03  0.55303357164E+03  0.73807921304E+03  0.46999998093E+01 0.  1.
</event>
<event>
 5   0  0.2875848E-03  0.1212976E+04  0.7818609E-02  0.9101574E-01
       -1   -1    0    0    0  501  0.00000000000E+00  0.00000000000E+00  0.60833245330E+03  0.60833245332E+03  0.50400001928E-02 0.  1.
        1   -1    0    0  501    0  0.00000000000E+00  0.00000000000E+00 -0.60464879162E+03  0.60464879164E+03  0.50400001928E-02 0. -1.
    10030    2    1    2    0    0  0.00000000000E+00  0.00000000000E+00  0.36836616781E+01  0.12129812450E+04  0.12129756516E+04 0.  0.
        1    1    3    3  502    0 -0.29077657789E+03 -0.37118774175E+03 -0.37959947104E+03  0.60533223630E+03  0.50400001928E-02 0. -1.
       -1    1    3    3    0  502  0.29077657789E+03  0.37118774175E+03  0.38328313271E+03  0.60764900866E+03  0.50400001928E-02 0.  1.
</event>
<event>
 5   0  0.2930868E-03  0.1199939E+04  0.7818609E-02  0.9112910E-01
        1   -1    0    0  501    0  0.00000000000E+00  0.00000000000E+00  0.77686538013E+03  0.77686538014E+03  0.50400001928E-02 0.  1.
       -1   -1    0    0    0  501  0.00000000000E+00  0.00000000000E+00 -0.46335333298E+03  0.46335333301E+03  0.50400001928E-02 0. -1.
    10030    2    1    2    0    0  0.00000000000E+00  0.00000000000E+00  0.31351204715E+03  0.12402187131E+04  0.11999386037E+04 0.  0.
        3    1    3    3  502    0 -0.47113239539E+03  0.22970999361E+02  0.53997131413E+03  0.71698147193E+03  0.10100000352E+00 0.  1.
       -3    1    3    3    0  502  0.47113239539E+03 -0.22970999361E+02 -0.22645926698E+03  0.52323724122E+03  0.10100000352E+00 0. -1.
</event>
<event>
 5   0  0.2930868E-03  0.1321766E+04  0.7818609E-02  0.9012481E-01
       -1   -1    0    0    0  501  0.00000000000E+00  0.00000000000E+00  0.12315890831E+04  0.12315890832E+04  0.50400001928E-02 0. -1.
        1   -1    0    0  501    0  0.00000000000E+00  0.00000000000E+00 -0.35463621859E+03  0.35463621863E+03  0.50400001928E-02 0.  1.
    10030    2    1    2    0    0  0.00000000000E+00  0.00000000000E+00  0.87695286455E+03  0.15862253018E+04  0.13217656303E+04 0.  0.
        3    1    3    3  502    0  0.23354675553E+03 -0.10837659906E+03  0.11689268759E+04  0.11969459577E+04  0.10100000352E+00 0. -1.
       -3    1    3    3    0  502 -0.23354675553E+03  0.10837659906E+03 -0.29197401134E+03  0.38927934410E+03  0.10100000352E+00 0.  1.
</event>
<event>
 5   0  0.5467554E-03  0.1226656E+04  0.7818609E-02  0.9089840E-01
       -2   -1    0    0    0  501  0.00000000000E+00  0.00000000000E+00  0.39619446193E+03  0.39619446194E+03  0.25500000920E-02 0.  1.
        2   -1    0    0  501    0  0.00000000000E+00  0.00000000000E+00 -0.94946049070E+03  0.94946049070E+03  0.25500000920E-02 0. -1.
    10030    2    1    2    0    0  0.00000000000E+00  0.00000000000E+00 -0.55326602876E+03  0.13456549526E+04  0.12266555967E+04 0.  0.
        1    1    3    3  502    0 -0.58334456361E+03  0.16121509227E+03 -0.38572802168E+03  0.71768188816E+03  0.50400001928E-02 0.  1.
       -1    1    3    3    0  502  0.58334456361E+03 -0.16121509227E+03 -0.16753800709E+03  0.62797306448E+03  0.50400001928E-02 0. -1.
</event>
<event>
 5   0  0.2938349E-03  0.1195857E+04  0.7818609E-02  0.9116490E-01
       -1   -1    0    0    0  501  0.00000000000E+00  0.00000000000E+00  0.53721526031E+03  0.53721526033E+03  0.50400001928E-02 0.  1.
        1   -1    0    0  501    0  0.00000000000E+00  0.00000000000E+00 -0.66550376310E+03  0.66550376312E+03  0.50400001928E-02 0. -1.
    10030    2    1    2    0    0  0.00000000000E+00  0.00000000000E+00 -0.12828850279E+03  0.12027190235E+04  0.11958574787E+04 0.  0.
        4    1    3    3  502    0  0.47005119854E+03  0.20509648256E+03  0.24503541719E+03  0.56838073946E+03  0.12699999809E+01 0.  1.
       -4    1    3    3    0  502 -0.47005119854E+03 -0.20509648256E+03 -0.37332391998E+03  0.63433828399E+03  0.12699999809E+01 0. -1.
</event>
<event>
 5   0  0.2875848E-03  0.1228938E+04  0.7818609E-02  0.9087897E-01
       -1   -1    0    0    0  501  0.00000000000E+00  0.00000000000E+00  0.51143449494E+03  0.51143449496E+03  0.50400001928E-02 0.  1.
        1   -1    0    0  501    0  0.00000000000E+00  0.00000000000E+00 -0.73826120005E+03  0.73826120006E+03  0.50400001928E-02 0. -1.
    10030    2    1    2    0    0  0.00000000000E+00  0.00000000000E+00 -0.22682670511E+03  0.12496956950E+04  0.12289381498E+04 0.  0.
        1    1    3    3  502    0 -0.56978945900E+03  0.12923666690E+03 -0.30691698036E+03  0.65996983001E+03  0.50400001928E-02 0. -1.
       -1    1    3    3    0  502  0.56978945900E+03 -0.12923666690E+03  0.80090275253E+02  0.58972586502E+03  0.50400001928E-02 0.  1.
</event>
<event>
 5   0  0.5003526E-03  0.1198911E+04  0.7818609E-02  0.9113810E-01
        2   -1    0    0  501    0  0.00000000000E+00  0.00000000000E+00  0.44194998899E+03  0.44194998900E+03  0.25500000920E-02 0. -1.
       -2   -1    0    0    0  501  0.00000000000E+00  0.00000000000E+00 -0.81309367618E+03  0.81309367618E+03  0.25500000920E-02 0.  1.
    10030    2    1    2    0    0  0.00000000000E+00  0.00000000000E+00 -0.37114368719E+03  0.12550436652E+04  0.11989107410E+04 0.  0.
        2    1    3    3  502    0 -0.23410984019E+03 -0.49813575459E+03  0.63034323973E+02  0.55400358598E+03  0.25500000920E-02 0. -1.
       -2    1    3    3    0  502  0.23410984019E+03  0.49813575459E+03 -0.43417801116E+03  0.70104007921E+03  0.25500000920E-02 0.  1.
</event>
<event>
 5   0  0.2930868E-03  0.1222998E+04  0.7818609E-02  0.9092961E-01
       -1   -1    0    0    0  501  0.00000000000E+00  0.00000000000E+00  0.91331575089E+03  0.91331575090E+03  0.50400001928E-02 0.  1.
        1   -1    0    0  501    0  0.00000000000E+00  0.00000000000E+00 -0.40942162640E+03  0.40942162643E+03  0.50400001928E-02 0. -1.
    10030    2    1    2    0    0  0.00000000000E+00  0.00000000000E+00  0.50389412448E+03  0.13227373773E+04  0.12229983159E+04 0.  0.
        3    1    3    3  502    0 -0.12017503760E+03  0.32719816349E+03  0.79534590377E+03  0.86837537661E+03  0.10100000352E+00 0.  1.
       -3    1    3    3    0  502  0.12017503760E+03 -0.32719816349E+03 -0.29145177928E+03  0.45436200073E+03  0.10100000352E+00 0. -1.
</event>
<event>
 5   0  0.5108045E-03  0.1195144E+04  0.7818609E-02  0.9117118E-01
        2   -1    0    0  501    0  0.00000000000E+00  0.00000000000E+00  0.71189671883E+03  0.71189671883E+03  0.25500000920E-02 0.  1.
       -2   -1    0    0    0  501  0.00000000000E+00  0.00000000000E+00 -0.50160678738E+03  0.50160678738E+03  0.25500000920E-02 0. -1.
    10030    2    1    2    0    0  0.00000000000E+00  0.00000000000E+00  0.21028993145E+03  0.12135035062E+04  0.11951438844E+04 0.  0.
        3    1    3    3  502    0 -0.56704577882E+03  0.13454057624E+03 -0.28983273837E+02  0.58350845949E+03  0.10100000352E+00 0.  1.
       -3    1    3    3    0  502  0.56704577882E+03 -0.13454057624E+03  0.23927320529E+03  0.62999504673E+03  0.10100000352E+00 0. -1.
</event>
<event>
 5   0  0.2875848E-03  0.1196389E+04  0.7818609E-02  0.9116023E-01
        1   -1    0    0  501    0  0.00000000000E+00  0.00000000000E+00  0.63559394720E+03  0.63559394722E+03  0.50400001928E-02 0.  1.
       -1   -1    0    0    0  501  0.00000000000E+00  0.00000000000E+00 -0.56299560180E+03  0.56299560182E+03  0.50400001928E-02 0. -1.
    10030    2    1    2    0    0  0.00000000000E+00  0.00000000000E+00  0.72598345400E+02  0.11985895490E+04  0.11963888947E+04 0.  0.
        1    1    3    3  502    0  0.12106099804E+02  0.12763975588E+03  0.62166677678E+03  0.63475038110E+03  0.50400001928E-02 0.  1.
       -1    1    3    3    0  502 -0.12106099804E+02 -0.12763975588E+03 -0.54906843138E+03  0.56383916793E+03  0.50400001928E-02 0. -1.
</event>
<event>
 5   0  0.5003526E-03  0.1179547E+04  0.7818609E-02  0.9130950E-01
       -2   -1    0    0    0  501  0.00000000000E+00  0.00000000000E+00  0.34183533584E+03  0.34183533585E+03  0.25500000920E-02 0. -1.
        2   -1    0    0  501    0  0.00000000000E+00  0.00000000000E+00 -0.10175443229E+04  0.10175443229E+04  0.25500000920E-02 0.  1.
    10030    2    1    2    0    0  0.00000000000E+00  0.00000000000E+00 -0.67570898707E+03  0.13593796588E+04  0.11795467017E+04 0.  0.
        2    1    3    3  502    0 -0.56367398941E+03  0.16269814800E+03 -0.26838545367E+03  0.64515874437E+03  0.25500000920E-02 0.  1.
       -2    1    3    3    0  502  0.56367398941E+03 -0.16269814800E+03 -0.40732353341E+03  0.71422091440E+03  0.25500000920E-02 0. -1.
</event>
<event>
 5   0  0.2792518E-03  0.1185286E+04  0.7818609E-02  0.9125834E-01
        1   -1    0    0  501    0  0.00000000000E+00  0.00000000000E+00  0.74652043964E+03  0.74652043966E+03  0.50400001928E-02 0.  1.
       -1   -1    0    0    0  501  0.00000000000E+00  0.00000000000E+00 -0.47048383219E+03  0.47048383222E+03  0.50400001928E-02 0. -1.
    10030    2    1    2    0    0  0.00000000000E+00  0.00000000000E+00  0.27603660745E+03  0.12170042719E+04  0.11852861212E+04 0.  0.
        2    1    3    3  502    0  0.29880631339E+03  0.38270765950E+03 -0.21089192443E+03  0.52936355121E+03  0.25500000920E-02 0. -1.
       -2    1    3    3    0  502 -0.29880631339E+03 -0.38270765950E+03  0.48692853187E+03  0.68764072067E+03  0.25500000920E-02 0.  1.
</event>
<event>
 5   0  0.5108045E-03  0.1099211E+04  0.7818609E-02  0.9205961E-01
       -2   -1    0    0    0  501  0.00000000000E+00  0.00000000000E+00  0.16351628549E+03  0.16351628551E+03  0.25500000920E-02 0.  1.
        2   -1    0    0  501    0  0.00000000000E+00  0.00000000000E+00 -0.18473157655E+04  0.18473157655E+04  0.25500000920E-02 0. -1.
    10030    2    1    2    0    0  0.00000000000E+00  0.00000000000E+00 -0.16837994800E+04  0.20108320510E+04  0.10992110118E+04 0.  0.
        3    1    3    3  502    0  0.50743069838E+03 -0.17758960075E+03 -0.63298430768E+03  0.83047764806E+03  0.10100000352E+00 0.  1.
       -3    1    3    3    0  502 -0.50743069838E+03  0.17758960075E+03 -0.10508151723E+04  0.11803544030E+04  0.10100000352E+00 0. -1.
</event>
<event>
 5   0  0.5031575E-03  0.1170056E+04  0.7818609E-02  0.9139478E-01
       -2   -1    0    0    0  501  0.00000000000E+00  0.00000000000E+00  0.27136193968E+03  0.27136193970E+03  0.25500000920E-02 0. -1.
        2   -1    0    0  501    0  0.00000000000E+00  0.00000000000E+00 -0.12612589605E+04  0.12612589605E+04  0.25500000920E-02 0.  1.
    10030    2    1    2    0    0  0.00000000000E+00  0.00000000000E+00 -0.98989702085E+03  0.15326209002E+04  0.11700558585E+04 0.  0.
        5    1    3    3  502    0 -0.18413410556E+03 -0.20544150216E+02 -0.12217883861E+04  0.12357655041E+04  0.46999998093E+01 0.  1.
       -5    1    3    3    0  502  0.18413410556E+03  0.20544150216E+02  0.23189136520E+03  0.29685539609E+03  0.46999998093E+01 0. -1.
</event>
<event>
 5   0  0.2792518E-03  0.1184547E+04  0.7818609E-02  0.9126491E-01
       -1   -1    0    0    0  501  0.00000000000E+00  0.00000000000E+00  0.83522790524E+03  0.83522790526E+03  0.50400001928E-02 0.  1.
        1   -1    0    0  501    0  0.00000000000E+00  0.00000000000E+00 -0.41999090527E+03  0.41999090530E+03  0.50400001928E-02 0. -1.
    10030    2    1    2    0    0  0.00000000000E+00  0.00000000000E+00  0.41523699997E+03  0.12552188106E+04  0.11845473803E+04 0.  0.
        2    1    3    3  502    0 -0.34797743588E+03  0.57005149154E+02 -0.29664019559E+03  0.46079636344E+03  0.25500000920E-02 0. -1.
       -2    1    3    3    0  502  0.34797743588E+03 -0.57005149154E+02  0.71187719556E+03  0.79442244712E+03  0.25500000920E-02 0.  1.
</event>
<event>
 5   0  0.5108045E-03  0.1193337E+04  0.7818609E-02  0.9118709E-01
        2   -1    0    0  501    0  0.00000000000E+00  0.00000000000E+00  0.71424299229E+03  0.71424299230E+03  0.25500000920E-02 0.  1.
       -2   -1    0    0    0  501  0.00000000000E+00  0.00000000000E+00 -0.49844856228E+03  0.49844856228E+03  0.25500000920E-02 0. -1.
    10030    2    1    2    0    0  0.00000000000E+00  0.00000000000E+00  0.21579443002E+03  0.12126915546E+04  0.11933371571E+04 0.  0.
        3    1    3    3  502    0  0.15026511142E+03  0.14242993090E+03 -0.46077454182E+03  0.50515252896E+03  0.10100000352E+00 0. -1.
       -3    1    3    3    0  502 -0.15026511142E+03 -0.14242993090E+03  0.67656897183E+03  0.70753902562E+03  0.10100000352E+00 0.  1.
</event>
<event>
 5   0  0.5467554E-03  0.1211679E+04  0.7818609E-02  0.9102694E-01
       -2   -1    0    0    0  501  0.00000000000E+00  0.00000000000E+00  0.24950910550E+03  0.24950910551E+03  0.25500000920E-02 0. -1.
        2   -1    0    0  501    0  0.00000000000E+00  0.00000000000E+00 -0.14710557121E+04  0.14710557121E+04  0.25500000920E-02 0.  1.
    10030    2    1    2    0    0  0.00000000000E+00  0.00000000000E+00 -0.12215466066E+04  0.17205648176E+04  0.12116794871E+04 0.  0.
        1    1    3    3  502    0 -0.44408544145E+03 -0.23669127825E+03 -0.13173739997E+03  0.52018206724E+03  0.50400001928E-02 0. -1.
       -1    1    3    3    0  502  0.44408544145E+03  0.23669127825E+03 -0.10898092066E+04  0.12003827503E+04  0.50400001928E-02 0.  1.
</event>
<event>
 5   0  0.2926844E-03  0.1190523E+04  0.7818609E-02  0.9121192E-01
        1   -1    0    0  501    0  0.00000000000E+00  0.00000000000E+00  0.68694264757E+03  0.68694264758E+03  0.50400001928E-02 0. -1.
       -1   -1    0    0    0  501  0.00000000000E+00  0.00000000000E+00 -0.51581649374E+03  0.51581649376E+03  0.50400001928E-02 0.  1.
    10030    2    1    2    0    0  0.00000000000E+00  0.00000000000E+00  0.17112615383E+03  0.12027591413E+04  0.11905231588E+04 0.  0.
        5    1    3    3  502    0  0.12063538605E+03 -0.19810098076E+03 -0.46826580850E+03  0.52258190971E+03  0.46999998093E+01 0.  1.
       -5    1    3    3    0  502 -0.12063538605E+03  0.19810098076E+03  0.63939196233E+03  0.68017723164E+03  0.46999998093E+01 0. -1.
</event>
<event>
 5   0  0.5108045E-03  0.1192391E+04  0.7818609E-02  0.9119543E-01
       -2   -1    0    0    0  501  0.00000000000E+00  0.00000000000E+00  0.32943229417E+03  0.32943229418E+03  0.25500000920E-02 0.  1.
        2   -1    0    0  501    0  0.00000000000E+00  0.00000000000E+00 -0.10789745060E+04  0.10789745060E+04  0.25500000920E-02 0. -1.
    10030    2    1    2    0    0  0.00000000000E+00  0.00000000000E+00 -0.74954221186E+03  0.14084068002E+04  0.11923909541E+04 0.  0.
        3    1    3    3  502    0  0.37395869176E+03  0.44255411251E+03 -0.54076445722E+03  0.79254366065E+03  0.10100000352E+00 0. -1.
       -3    1    3    3    0  502 -0.37395869176E+03 -0.44255411251E+03 -0.20877775465E+03  0.61586313957E+03  0.10100000352E+00 0.  1.
</event>
<event>
 5   0  0.2938349E-03  0.1215281E+04  0.7818609E-02  0.9099586E-01
       -1   -1    0    0    0  501  0.00000000000E+00  0.00000000000E+00  0.29649512119E+03  0.29649512123E+03  0.50400001928E-02 0.  1.
        1   -1    0    0  501    0  0.00000000000E+00  0.00000000000E+00 -0.12453048741E+04  0.12453048741E+04  0.50400001928E-02 0. -1.
    10030    2    1    2    0    0  0.00000000000E+00  0.00000000000E+00 -0.94880975289E+03  0.15417999953E+04  0.12152807406E+04 0.  0.
        4    1    3    3  502    0 -0.25373940653E+03  0.41460878051E+03 -0.11831082738E+02  0.48623627458E+03  0.12699999809E+01 0.  1.
       -4    1    3    3    0  502  0.25373940653E+03 -0.41460878051E+03 -0.93697867015E+03  0.10555637207E+04  0.12699999809E+01 0. -1.
</event>
<event>
 5   0  0.2875848E-03  0.1063977E+04  0.7818609E-02  0.9241031E-01
       -1   -1    0    0    0  501  0.00000000000E+00  0.00000000000E+00  0.73453733208E+03  0.73453733210E+03  0.50400001928E-02 0. -1.
        1   -1    0    0  501    0  0.00000000000E+00  0.00000000000E+00 -0.38529277226E+03  0.38529277229E+03  0.50400001928E-02 0.  1.
    10030    2    1    2    0    0  0.00000000000E+00  0.00000000000E+00  0.34924455982E+03  0.11198301044E+04  0.10639773025E+04 0.  0.
        1    1    3    3  502    0  0.23367115985E+03 -0.45277668203E+03  0.33563324427E+03  0.61012999387E+03  0.50400001928E-02 0. -1.
       -1    1    3    3    0  502 -0.23367115985E+03  0.45277668203E+03  0.13611315550E+02  0.50970011053E+03  0.50400001928E-02 0.  1.
</event>
<event>
 5   0  0.2930868E-03  0.1185947E+04  0.7818609E-02  0.9125247E-01
        1   -1    0    0  501    0  0.00000000000E+00  0.00000000000E+00  0.87766807073E+03  0.87766807074E+03  0.50400001928E-02 0. -1.
       -1   -1    0    0    0  501  0.00000000000E+00  0.00000000000E+00 -0.40062700628E+03  0.40062700631E+03  0.50400001928E-02 0.  1.
    10030    2    1    2    0    0  0.00000000000E+00  0.00000000000E+00  0.47704106445E+03  0.12782950771E+04  0.11859469326E+04 0.  0.
        3    1    3    3  502    0  0.28135187121E+03  0.21936639302E+03 -0.27200368118E+03  0.44862735382E+03  0.10100000352E+00 0.  1.
       -3    1    3    3    0  502 -0.28135187121E+03 -0.21936639302E+03  0.74904474563E+03  0.82966772323E+03  0.10100000352E+00 0. -1.
</event>
<event>
 5   0  0.5189537E-03  0.1328174E+04  0.7818609E-02  0.9007517E-01
       -2   -1    0    0    0  501  0.00000000000E+00  0.00000000000E+00  0.21389090653E+03  0.21389090655E+03  0.25500000920E-02 0. -1.
        2   -1    0    0  501    0  0.00000000000E+00  0.00000000000E+00 -0.20618523186E+04  0.20618523186E+04  0.25500000920E-02 0.  1.
    10030    2    1    2    0    0  0.00000000000E+00  0.00000000000E+00 -0.18479614121E+04  0.22757432252E+04  0.13281738766E+04 0.  0.
        4    1    3    3  502    0  0.56441037300E+03  0.28289940516E+03 -0.12768769476E+04  0.14244323413E+04  0.12699999809E+01 0.  1.
       -4    1    3    3    0  502 -0.56441037300E+03 -0.28289940516E+03 -0.57108446447E+03  0.85131088391E+03  0.12699999809E+01 0. -1.
</event>
<event>
 5   0  0.5189537E-03  0.1183243E+04  0.7818609E-02  0.9127652E-01
       -2   -1    0    0    0  501  0.00000000000E+00  0.00000000000E+00  0.47527568588E+03  0.47527568588E+03  0.25500000920E-02 0.  1.
        2   -1    0    0  501    0  0.00000000000E+00  0.00000000000E+00 -0.73644834036E+03  0.73644834036E+03  0.25500000920E-02 0. -1.
    10030    2    1    2    0    0  0.00000000000E+00  0.00000000000E+00 -0.26117265448E+03  0.12117240262E+04  0.11832429845E+04 0.  0.
        4    1    3    3  502    0 -0.35875579657E+02 -0.54376524064E+03 -0.36644882728E+03  0.65669936049E+03  0.12699999809E+01 0. -1.
       -4    1    3    3    0  502  0.35875579657E+02  0.54376524064E+03  0.10527617280E+03  0.55502466576E+03  0.12699999809E+01 0.  1.
</event>
<event>
 5   0  0.2792518E-03  0.1216615E+04  0.7818609E-02  0.9098437E-01
       -1   -1    0    0    0  501  0.00000000000E+00  0.00000000000E+00  0.68960936294E+03  0.68960936296E+03  0.50400001928E-02 0. -1.
        1   -1    0    0  501    0  0.00000000000E+00  0.00000000000E+00 -0.53659051885E+03  0.53659051888E+03  0.50400001928E-02 0.  1.
    10030    2    1    2    0    0  0.00000000000E+00  0.00000000000E+00  0.15301884409E+03  0.12261998818E+04  0.12166147227E+04 0.  0.
        2    1    3    3  502    0  0.54296459429E+02 -0.86750640017E+02  0.68087030099E+03  0.68851880572E+03  0.25500000920E-02 0. -1.
       -2    1    3    3    0  502 -0.54296459429E+02  0.86750640017E+02 -0.52785145691E+03  0.53768107612E+03  0.25500000920E-02 0.  1.
</event>
<event>
 5   0  0.2926844E-03  0.1166997E+04  0.7818609E-02  0.9142245E-01
        1   -1    0    0  501    0  0.00000000000E+00  0.00000000000E+00  0.10928951189E+04  0.10928951189E+04  0.50400001928E-02 0. -1.
       -1   -1    0    0    0  501  0.00000000000E+00  0.00000000000E+00 -0.31153093943E+03  0.31153093947E+03  0.50400001928E-02 0.  1.
    10030    2    1    2    0    0  0.00000000000E+00  0.00000000000E+00  0.78136417951E+03  0.14044260584E+04  0.11669972462E+04 0.  0.
        5    1    3    3  502    0 -0.22376307825E+03  0.33458142723E+03  0.89903783907E+03  0.98504100053E+03  0.46999998093E+01 0. -1.
       -5    1    3    3    0  502  0.22376307825E+03 -0.33458142723E+03 -0.11767365957E+03  0.41938505790E+03  0.46999998093E+01 0.  1.
</event>
<event>
 5   0  0.2926844E-03  0.1195901E+04  0.7818609E-02  0.9116452E-01
       -1   -1    0    0    0  501  0.00000000000E+00  0.00000000000E+00  0.28170003243E+03  0.28170003247E+03  0.50400001928E-02 0. -1.
        1   -1    0    0  501    0  0.00000000000E+00  0.00000000000E+00 -0.12692393927E+04  0.12692393927E+04  0.50400001928E-02 0.  1.
    10030    2    1    2    0    0  0.00000000000E+00  0.00000000000E+00 -0.98753936028E+03  0.15509394252E+04  0.11959009627E+04 0.  0.
        5    1    3    3  502    0 -0.50748953409E+03  0.31365459495E+03 -0.54561009113E+03  0.80847838171E+03  0.46999998093E+01 0.  1.
       -5    1    3    3    0  502  0.50748953409E+03 -0.31365459495E+03 -0.44192926915E+03  0.74246104348E+03  0.46999998093E+01 0. -1.
</event>
<event>
 5   0  0.5003526E-03  0.1056816E+04  0.7818609E-02  0.9248335E-01
       -2   -1    0    0    0  501  0.00000000000E+00  0.00000000000E+00  0.27322994305E+03  0.27322994306E+03  0.25500000920E-02 0.  1.
        2   -1    0    0  501    0  0.00000000000E+00  0.00000000000E+00 -0.10219042711E+04  0.10219042711E+04  0.25500000920E-02 0. -1.
    10030    2    1    2    0    0  0.00000000000E+00  0.00000000000E+00 -0.74867432801E+03  0.12951342141E+04  0.10568156808E+04 0.  0.
        2    1    3    3  502    0 -0.26443989450E+02 -0.46411812269E+03 -0.68220503967E+03  0.82553536117E+03  0.25500000920E-02 0. -1.
       -2    1    3    3    0  502  0.26443989450E+02  0.46411812269E+03 -0.66469288332E+02  0.46959885294E+03  0.25500000920E-02 0.  1.
</event>
<event>
 5   0  0.5031575E-03  0.1250064E+04  0.7818609E-02  0.9070130E-01
       -2   -1    0    0    0  501  0.00000000000E+00  0.00000000000E+00  0.64805302359E+03  0.64805302360E+03  0.25500000920E-02 0. -1.
        2   -1    0    0  501    0  0.00000000000E+00  0.00000000000E+00 -0.60282846308E+03  0.60282846309E+03  0.25500000920E-02 0.  1.
    10030    2    1    2    0    0  0.00000000000E+00  0.00000000000E+00  0.45224560506E+02  0.12508814867E+04  0.12500636915E+04 0.  0.
        5    1    3    3  502    0  0.12947631026E+03 -0.35493783453E+03 -0.47560674167E+03  0.60742805666E+03  0.46999998093E+01 0.  1.
       -5    1    3    3    0  502 -0.12947631026E+03  0.35493783453E+03  0.52083130217E+03  0.64345343003E+03  0.46999998093E+01 0. -1.
</event>
<event>
 5   0  0.5467554E-03  0.1223023E+04  0.7818609E-02  0.9092940E-01
       -2   -1    0    0    0  501  0.00000000000E+00  0.00000000000E+00  0.23231989552E+03  0.23231989553E+03  0.25500000920E-02 0.  1.
        2   -1    0    0  501    0  0.00000000000E+00  0.00000000000E+00 -0.16096177782E+04  0.16096177782E+04  0.25500000920E-02 0. -1.
    10030    2    1    2    0    0  0.00000000000E+00  0.00000000000E+00 -0.13772978827E+04  0.18419376738E+04  0.12230228683E+04 0.  0.
        1    1    3    3  502    0 -0.10539377980E+02  0.21609865691E+03 -0.15500489502E+04  0.15650755432E+04  0.50400001928E-02 0. -1.
       -1    1    3    3    0  502  0.10539377980E+02 -0.21609865691E+03  0.17275106745E+03  0.27686213056E+03  0.50400001928E-02 0.  1.
</event>
<event>
 5   0  0.5003526E-03  0.1199321E+04  0.7818609E-02  0.9113451E-01
       -2   -1    0    0    0  501  0.00000000000E+00  0.00000000000E+00  0.53741902986E+03  0.53741902987E+03  0.25500000920E-02 0.  1.
        2   -1    0    0  501    0  0.00000000000E+00  0.00000000000E+00 -0.66911090164E+03  0.66911090165E+03  0.25500000920E-02 0. -1.
    10030    2    1    2    0    0  0.00000000000E+00  0.00000000000E+00 -0.13169187178E+03  0.12065299315E+04  0.11993213608E+04 0.  0.
        2    1    3    3  502    0  0.37369670946E+03 -0.15581713967E+03 -0.51084468921E+03  0.65183625871E+03  0.25500000920E-02 0. -1.
       -2    1    3    3    0  502 -0.37369670946E+03  0.15581713967E+03  0.37915281742E+03  0.55469367280E+03  0.25500000920E-02 0.  1.
</event>
<event>
 5   0  0.5108045E-03  0.1192495E+04  0.7818609E-02  0.9119451E-01
        2   -1    0    0  501    0  0.00000000000E+00  0.00000000000E+00  0.14279102360E+04  0.14279102361E+04  0.25500000920E-02 0. -1.
       -2   -1    0    0    0  501  0.00000000000E+00  0.00000000000E+00 -0.24897308108E+03  0.24897308109E+03  0.25500000920E-02 0.  1.
    10030    2    1    2    0    0  0.00000000000E+00  0.00000000000E+00  0.11789371550E+04  0.16768833171E+04  0.11924952176E+04 0.  0.
        3    1    3    3  502    0 -0.51470011219E+03 -0.33239796014E+02  0.16880615154E+03  0.54269385157E+03  0.10100000352E+00 0. -1.
       -3    1    3    3    0  502  0.51470011219E+03  0.33239796014E+02  0.10101310034E+04  0.11341894656E+04  0.10100000352E+00 0.  1.
</event>
<event>
 5   0  0.2926844E-03  0.1218739E+04  0.7818609E-02  0.9096611E-01
       -1   -1    0    0    0  501  0.00000000000E+00  0.00000000000E+00  0.33475482121E+03  0.33475482125E+03  0.50400001928E-02 0.  1.
        1   -1    0    0  501    0  0.00000000000E+00  0.00000000000E+00 -0.11092627370E+04  0.11092627370E+04  0.50400001928E-02 0. -1.
    10030    2    1    2    0    0  0.00000000000E+00  0.00000000000E+00 -0.77450791581E+03  0.14440175583E+04  0.12187387731E+04 0.  0.
        5    1    3    3  502    0  0.20961958045E+03 -0.50777306287E+03 -0.69969200226E+03  0.88958689284E+03  0.46999998093E+01 0. -1.
       -5    1    3    3    0  502 -0.20961958045E+03  0.50777306287E+03 -0.74815913550E+02  0.55443066545E+03  0.46999998093E+01 0.  1.
</event>
<event>
 5   0  0.5031575E-03  0.1161376E+04  0.7818609E-02  0.9147352E-01
       -2   -1    0    0    0  501  0.00000000000E+00  0.00000000000E+00  0.17502720448E+03  0.17502720450E+03  0.25500000920E-02 0.  1.
        2   -1    0    0  501    0  0.00000000000E+00  0.00000000000E+00 -0.19265494759E+04  0.19265494759E+04  0.25500000920E-02 0. -1.
    10030    2    1    2    0    0  0.00000000000E+00  0.00000000000E+00 -0.17515222714E+04  0.21015766804E+04  0.11613760271E+04 0.  0.
        5    1    3    3  502    0  0.41585022041E+03  0.34118329957E+03 -0.47997227841E+03  0.72092505003E+03  0.46999998093E+01 0.  1.
       -5    1    3    3    0  502 -0.41585022041E+03 -0.34118329957E+03 -0.12715499930E+04  0.13806516303E+04  0.46999998093E+01 0. -1.
</event>
<event>
 5   0  0.2926844E-03  0.1199445E+04  0.7818609E-02  0.9113342E-01
       -1   -1    0    0    0  501  0.00000000000E+00  0.00000000000E+00  0.39714427376E+03  0.39714427379E+03  0.50400001928E-02 0. -1.
        1   -1    0    0  501    0  0.00000000000E+00  0.00000000000E+00 -0.90563387515E+03  0.90563387517E+03  0.50400001928E-02 0.  1.
    10030    2    1    2    0    0  0.00000000000E+00  0.00000000000E+00 -0.50848960139E+03  0.13027781490E+04  0.11994453846E+04 0.  0.
        5    1    3    3  502    0  0.67947589874E+02 -0.52857069537E+03 -0.55296848716E+03  0.76798443523E+03  0.46999998093E+01 0.  1.
       -5    1    3    3    0  502 -0.67947589874E+02  0.52857069537E+03  0.44478885767E+02  0.53479371373E+03  0.46999998093E+01 0. -1.
</event>
<event>
 5   0  0.2930868E-03  0.1196846E+04  0.7818609E-02  0.9115622E-01
       -1   -1    0    0    0  501  0.00000000000E+00  0.00000000000E+00  0.71568537457E+03  0.71568537459E+03  0.50400001928E-02 0.  1.
        1   -1    0    0  501    0  0.00000000000E+00  0.00000000000E+00 -0.50037344457E+03  0.50037344459E+03  0.50400001928E-02 0. -1.
    10030    2    1    2    0    0  0.00000000000E+00  0.00000000000E+00  0.21531193000E+03  0.12160588192E+04  0.11968457814E+04 0.  0.
        3    1    3    3  502    0  0.35276944106E+03 -0.33813870436E+03 -0.24332512514E+03  0.54588569194E+03  0.10100000352E+00 0.  1.
       -3    1    3    3    0  502 -0.35276944106E+03  0.33813870436E+03  0.45863705515E+03  0.67017312725E+03  0.10100000352E+00 0. -1.
</event>
<event>
 5   0  0.5108045E-03  0.8791555E+03  0.7818609E-02  0.9452020E-01
       -2   -1    0    0    0  501  0.00000000000E+00  0.00000000000E+00  0.13830706890E+03  0.13830706892E+03  0.25500000920E-02 0. -1.
        2   -1    0    0  501    0  0.00000000000E+00  0.00000000000E+00 -0.13970984809E+04  0.13970984809E+04  0.25500000920E-02 0.  1.
    10030    2    1    2    0    0  0.00000000000E+00  0.00000000000E+00 -0.12587914120E+04  0.15354055498E+04  0.87915549449E+03 0.  0.
        3    1    3    3  502    0  0.39222467816E+03 -0.15498124938E+03 -0.41288317326E+03  0.59019650183E+03  0.10100000352E+00 0. -1.
       -3    1    3    3    0  502 -0.39222467816E+03  0.15498124938E+03 -0.84590823875E+03  0.94520904799E+03  0.10100000352E+00 0.  1.
</event>
<event>
 5   0  0.2875848E-03  0.1198642E+04  0.7818609E-02  0.9114046E-01
        1   -1    0    0  501    0  0.00000000000E+00  0.00000000000E+00  0.11733006964E+04  0.11733006964E+04  0.50400001928E-02 0.  1.
       -1   -1    0    0    0  501  0.00000000000E+00  0.00000000000E+00 -0.30613282174E+03  0.30613282178E+03  0.50400001928E-02 0. -1.
    10030    2    1    2    0    0  0.00000000000E+00  0.00000000000E+00  0.86716787467E+03  0.14794335182E+04  0.11986423203E+04 0.  0.
        1    1    3    3  502    0 -0.33799617024E+03  0.74842888024E+02 -0.17024816366E+03  0.38578142288E+03  0.50400001928E-02 0. -1.
       -1    1    3    3    0  502  0.33799617024E+03 -0.74842888024E+02  0.10374160383E+04  0.10936520953E+04  0.50400001928E-02 0.  1.
</event>
<event>
 5   0  0.2930868E-03  0.1202543E+04  0.7818609E-02  0.9110633E-01
        1   -1    0    0  501    0  0.00000000000E+00  0.00000000000E+00  0.45751460441E+03  0.45751460444E+03  0.50400001928E-02 0. -1.
       -1   -1    0    0    0  501  0.00000000000E+00  0.00000000000E+00 -0.79019875093E+03  0.79019875095E+03  0.50400001928E-02 0.  1.
    10030    2    1    2    0    0  0.00000000000E+00  0.00000000000E+00 -0.33268414652E+03  0.12477133554E+04  0.12025430869E+04 0.  0.
        3    1    3    3  502    0 -0.36364876939E+03  0.47849832246E+03 -0.14759729127E+03  0.61885866130E+03  0.10100000352E+00 0. -1.
       -3    1    3    3    0  502  0.36364876939E+03 -0.47849832246E+03 -0.18508685526E+03  0.62885469408E+03  0.10100000352E+00 0.  1.
</event>
<event>
 5   0  0.2792518E-03  0.1184768E+04  0.7818609E-02  0.9126295E-01
        1   -1    0    0  501    0  0.00000000000E+00  0.00000000000E+00  0.73791230055E+03  0.73791230057E+03  0.50400001928E-02 0.  1.
       -1   -1    0    0    0  501  0.00000000000E+00  0.00000000000E+00 -0.47555598008E+03  0.47555598011E+03  0.50400001928E-02 0. -1.
    10030    2    1    2    0    0  0.00000000000E+00  0.00000000000E+00  0.26235632047E+03  0.12134682807E+04  0.11847676689E+04 0.  0.
        2    1    3    3  502    0 -0.28482720740E+03  0.18125178239E+03 -0.36737824325E+03  0.49894440603E+03  0.25500000920E-02 0. -1.
       -2    1    3    3    0  502  0.28482720740E+03 -0.18125178239E+03  0.62973456372E+03  0.71452387465E+03  0.25500000920E-02 0.  1.
</event>
<event>
 5   0  0.2926844E-03  0.1187961E+04  0.7818609E-02  0.9123460E-01
       -1   -1    0    0    0  501  0.00000000000E+00  0.00000000000E+00  0.67268646192E+03  0.67268646194E+03  0.50400001928E-02 0. -1.
        1   -1    0    0  501    0  0.00000000000E+00  0.00000000000E+00 -0.52448308261E+03  0.52448308264E+03  0.50400001928E-02 0.  1.
    10030    2    1    2    0    0  0.00000000000E+00  0.00000000000E+00  0.14820337931E+03  0.11971695446E+04  0.11879607219E+04 0.  0.
        5    1    3    3  502    0  0.45337726664E+03 -0.17360805267E+03 -0.27074955560E+03  0.55589397704E+03  0.46999998093E+01 0.  1.
       -5    1    3    3    0  502 -0.45337726664E+03  0.17360805267E+03  0.41895293490E+03  0.64127556753E+03  0.46999998093E+01 0. -1.
</event>
<event>
 5   0  0.5189537E-03  0.1142570E+04  0.7818609E-02  0.9164665E-01
        2   -1    0    0  501    0  0.00000000000E+00  0.00000000000E+00  0.92774010252E+03  0.92774010252E+03  0.25500000920E-02 0.  1.
       -2   -1    0    0    0  501  0.00000000000E+00  0.00000000000E+00 -0.35178687047E+03  0.35178687048E+03  0.25500000920E-02 0. -1.
    10030    2    1    2    0    0  0.00000000000E+00  0.00000000000E+00  0.57595323205E+03  0.12795269730E+04  0.11425704132E+04 0.  0.
        4    1    3    3  502    0  0.52078427682E+03  0.21965884110E+03  0.19496085330E+03  0.59789431898E+03  0.12699999809E+01 0. -1.
       -4    1    3    3    0  502 -0.52078427682E+03 -0.21965884110E+03  0.38099237875E+03  0.68163265401E+03  0.12699999809E+01 0.  1.
</event>
<event>
 5   0  0.5108045E-03  0.1213215E+04  0.7818609E-02  0.9101367E-01
       -2   -1    0    0    0  501  0.00000000000E+00  0.00000000000E+00  0.16595038364E+03  0.16595038366E+03  0.25500000920E-02 0.  1.
        2   -1    0    0  501    0  0.00000000000E+00  0.00000000000E+00 -0.22173655932E+04  0.22173655932E+04  0.25500000920E-02 0. -1.
    10030    2    1    2    0    0  0.00000000000E+00  0.00000000000E+00 -0.20514152096E+04  0.23833159769E+04  0.12132150195E+04 0.  0.
        3    1    3    3  502    0  0.42565859140E+03 -0.32456977816E+03 -0.46508868499E+03  0.70911090277E+03  0.10100000352E+00 0. -1.
       -3    1    3    3    0  502 -0.42565859140E+03  0.32456977816E+03 -0.15863265246E+04  0.16742050741E+04  0.10100000352E+00 0.  1.
</event>
<event>
 5   0  0.2938349E-03  0.1258524E+04  0.7818609E-02  0.9063119E-01
       -1   -1    0    0    0  501  0.00000000000E+00  0.00000000000E+00  0.56549446891E+03  0.56549446893E+03  0.50400001928E-02 0. -1.
        1   -1    0    0  501    0  0.00000000000E+00  0.00000000000E+00 -0.70021978516E+03  0.70021978518E+03  0.50400001928E-02 0.  1.
    10030    2    1    2    0    0  0.00000000000E+00  0.00000000000E+00 -0.13472531625E+03  0.12657142541E+04  0.12585236042E+04 0.  0.
        4    1    3    3  502    0  0.35207718455E+03 -0.10365530947E+03  0.44669967548E+03  0.57813923931E+03  0.12699999809E+01 0. -1.
       -4    1    3    3    0  502 -0.35207718455E+03  0.10365530947E+03 -0.58142499173E+03  0.68757501480E+03  0.12699999809E+01 0.  1.
</event>
<event>
 5   0  0.5003526E-03  0.1162314E+04  0.7818609E-02  0.9146498E-01
        2   -1    0    0  501    0  0.00000000000E+00  0.00000000000E+00  0.89970012240E+03  0.89970012241E+03  0.25500000920E-02 0.  1.
       -2   -1    0    0    0  501  0.00000000000E+00  0.00000000000E+00 -0.37539531460E+03  0.37539531461E+03  0.25500000920E-02 0. -1.
    10030    2    1    2    0    0  0.00000000000E+00  0.00000000000E+00  0.52430480781E+03  0.12750954370E+04  0.11623135730E+04 0.  0.
        2    1    3    3  502    0  0.10255175732E+03  0.37781639249E+03 -0.20903681708E+03  0.44380004537E+03  0.25500000920E-02 0. -1.
       -2    1    3    3    0  502 -0.10255175732E+03 -0.37781639249E+03  0.73334162489E+03  0.83129539165E+03  0.25500000920E-02 0.  1.
</event>
<event>
 5   0  0.2926844E-03  0.1202983E+04  0.7818609E-02  0.9110250E-01
        1   -1    0    0  501    0  0.00000000000E+00  0.00000000000E+00  0.10012676099E+04  0.10012676099E+04  0.50400001928E-02 0.  1.
       -1   -1    0    0    0  501  0.00000000000E+00  0.00000000000E+00 -0.36133372611E+03  0.36133372614E+03  0.50400001928E-02 0. -1.
    10030    2    1    2    0    0  0.00000000000E+00  0.00000000000E+00  0.63993388375E+03  0.13626013360E+04  0.12029825540E+04 0.  0.
        5    1    3    3  502    0  0.23104563892E+03  0.50150937125E+03  0.59009751209E+03  0.80816514432E+03  0.46999998093E+01 0. -1.
       -5    1    3    3    0  502 -0.23104563892E+03 -0.50150937125E+03  0.49836371657E+02  0.55443619169E+03  0.46999998093E+01 0.  1.
</event>
<event>
 5   0  0.5003526E-03  0.1172760E+04  0.7818609E-02  0.9137040E-01
       -2   -1    0    0    0  501  0.00000000000E+00  0.00000000000E+00  0.40245346952E+03  0.40245346952E+03  0.25500000920E-02 0. -1.
        2   -1    0    0  501    0  0.00000000000E+00  0.00000000000E+00 -0.85436289667E+03  0.85436289668E+03  0.25500000920E-02 0.  1.
    10030    2    1    2    0    0  0.00000000000E+00  0.00000000000E+00 -0.45190942716E+03  0.12568163662E+04  0.11727596719E+04 0.  0.
        2    1    3    3  502    0 -0.84720691110E+01  0.56042403613E+02  0.39951095548E+03  0.40351149985E+03  0.25500000920E-02 0. -1.
       -2    1    3    3    0  502  0.84720691110E+01 -0.56042403613E+02 -0.85142038264E+03  0.85330486635E+03  0.25500000920E-02 0.  1.
</event>
<event>
 5   0  0.2938349E-03  0.1192111E+04  0.7818609E-02  0.9119790E-01
       -1   -1    0    0    0  501  0.00000000000E+00  0.00000000000E+00  0.25152357679E+03  0.25152357684E+03  0.50400001928E-02 0. -1.
        1   -1    0    0  501    0  0.00000000000E+00  0.00000000000E+00 -0.14125196319E+04  0.14125196319E+04  0.50400001928E-02 0.  1.
    10030    2    1    2    0    0  0.00000000000E+00  0.00000000000E+00 -0.11609960551E+04  0.16640432088E+04  0.11921107166E+04 0.  0.
        4    1    3    3  502    0 -0.21349245239E+03  0.25370038719E+03  0.11090287545E+03  0.34963405779E+03  0.12699999809E+01 0. -1.
       -4    1    3    3    0  502  0.21349245239E+03 -0.25370038719E+03 -0.12718989306E+04  0.13144091510E+04  0.12699999809E+01 0.  1.
</event>
<event>
 5   0  0.2938349E-03  0.1221372E+04  0.7818609E-02  0.9094353E-01
       -1   -1    0    0    0  501  0.00000000000E+00  0.00000000000E+00  0.45191037634E+03  0.45191037636E+03  0.50400001928E-02 0.  1.
        1   -1    0    0  501    0  0.00000000000E+00  0.00000000000E+00 -0.82524574045E+03  0.82524574046E+03  0.50400001928E-02 0. -1.
    10030    2    1    2    0    0  0.00000000000E+00  0.00000000000E+00 -0.37333536411E+03  0.12771561168E+04  0.12213715457E+04 0.  0.
        4    1    3    3  502    0  0.46518920721E+03  0.33059682285E+03 -0.41394298680E+03  0.70501465730E+03  0.12699999809E+01 0. -1.
       -4    1    3    3    0  502 -0.46518920721E+03 -0.33059682285E+03  0.40607622693E+02  0.57214145952E+03  0.12699999809E+01 0.  1.
</event>
<event>
 5   0  0.2792518E-03  0.1204997E+04  0.7818609E-02  0.9108494E-01
       -1   -1    0    0    0  501  0.00000000000E+00  0.00000000000E+00  0.67525039832E+03  0.67525039834E+03  0.50400001928E-02 0. -1.
        1   -1    0    0  501    0  0.00000000000E+00  0.00000000000E+00 -0.53758460898E+03  0.53758460900E+03  0.50400001928E-02 0.  1.
    10030    2    1    2    0    0  0.00000000000E+00  0.00000000000E+00  0.13766578934E+03  0.12128350073E+04  0.12049966330E+04 0.  0.
        2    1    3    3  502    0  0.20202166854E+03  0.32387633780E+03 -0.40034910446E+03  0.55316185895E+03  0.25500000920E-02 0.  1.
       -2    1    3    3    0  502 -0.20202166854E+03 -0.32387633780E+03  0.53801489380E+03  0.65967314839E+03  0.25500000920E-02 0. -1.
</event>
<event>
 5   0  0.5003526E-03  0.1206042E+04  0.7818609E-02  0.9107585E-01
       -2   -1    0    0    0  501  0.00000000000E+00  0.00000000000E+00  0.45127339451E+03  0.45127339452E+03  0.25500000920E-02 0.  1.
        2   -1    0    0  501    0  0.00000000000E+00  0.00000000000E+00 -0.80579546198E+03  0.80579546199E+03  0.25500000920E-02 0. -1.
    10030    2    1    2    0    0  0.00000000000E+00  0.00000000000E+00 -0.35452206747E+03  0.12570688565E+04  0.12060415472E+04 0.  0.
        2    1    3    3  502    0  0.22502240910E+03  0.31238734025E+03 -0.66102428207E+03  0.76496668976E+03  0.25500000920E-02 0. -1.
       -2    1    3    3    0  502 -0.22502240910E+03 -0.31238734025E+03  0.30650221460E+03  0.49210216674E+03  0.25500000920E-02 0.  1.
</event>
<event>
 5   0  0.1922125E-03  0.1205834E+04  0.7818609E-02  0.9107765E-01
       -3   -1    0    0    0  501  0.00000000000E+00  0.00000000000E+00  0.46967855811E+03  0.46967856897E+03  0.10100000352E+00 0. -1.
        3   -1    0    0  501    0  0.00000000000E+00  0.00000000000E+00 -0.77395287802E+03  0.77395288461E+03  0.10100000352E+00 0.  1.
    10030    2    1    2    0    0  0.00000000000E+00  0.00000000000E+00 -0.30427431991E+03  0.12436314536E+04  0.12058342882E+04 0.  0.
        4    1    3    3  502    0 -0.22917908864E+03  0.29555614064E+03  0.33558226694E+03  0.50248737071E+03  0.12699999809E+01 0. -1.
       -4    1    3    3    0  502  0.22917908864E+03 -0.29555614064E+03 -0.63985658684E+03  0.74114408286E+03  0.12699999809E+01 0.  1.
</event>
<event>
 5   0  0.5031575E-03  0.1239807E+04  0.7818609E-02  0.9078710E-01
        2   -1    0    0  501    0  0.00000000000E+00  0.00000000000E+00  0.40123588889E+03  0.40123588890E+03  0.25500000920E-02 0.  1.
       -2   -1    0    0    0  501  0.00000000000E+00  0.00000000000E+00 -0.95774169014E+03  0.95774169014E+03  0.25500000920E-02 0. -1.
    10030    2    1    2    0    0  0.00000000000E+00  0.00000000000E+00 -0.55650580125E+03  0.13589775790E+04  0.12398069824E+04 0.  0.
        5    1    3    3  502    0 -0.16465186953E+03 -0.25683350465E+03  0.31323026155E+03  0.43727448359E+03  0.46999998093E+01 0.  1.
       -5    1    3    3    0  502  0.16465186953E+03  0.25683350465E+03 -0.86973606279E+03  0.92170309545E+03  0.46999998093E+01 0. -1.
</event>
<event>
 5   0  0.5031575E-03  0.9560102E+03  0.7818609E-02  0.9358153E-01
        2   -1    0    0  501    0  0.00000000000E+00  0.00000000000E+00  0.51974803008E+03  0.51974803009E+03  0.25500000920E-02 0.  1.
       -2   -1    0    0    0  501  0.00000000000E+00  0.00000000000E+00 -0.43961466832E+03  0.43961466832E+03  0.25500000920E-02 0. -1.
    10030    2    1    2    0    0  0.00000000000E+00  0.00000000000E+00  0.80133361765E+02  0.95936269841E+03  0.95601016283E+03 0.  0.
        5    1    3    3  502    0  0.38466451035E+03  0.18926625740E+03  0.25218026128E+03  0.49739870918E+03  0.46999998093E+01 0.  1.
       -5    1    3    3    0  502 -0.38466451035E+03 -0.18926625740E+03 -0.17204689952E+03  0.46196398923E+03  0.46999998093E+01 0. -1.
</event>
<event>
 5   0  0.5189537E-03  0.1136469E+04  0.7818609E-02  0.9170358E-01
       -2   -1    0    0    0  501  0.00000000000E+00  0.00000000000E+00  0.19318143640E+03  0.19318143642E+03  0.25500000920E-02 0.  1.
        2   -1    0    0  501    0  0.00000000000E+00  0.00000000000E+00 -0.16714369576E+04  0.16714369576E+04  0.25500000920E-02 0. -1.
    10030    2    1    2    0    0  0.00000000000E+00  0.00000000000E+00 -0.14782555212E+04  0.18646183940E+04  0.11364692558E+04 0.  0.
        4    1    3    3  502    0 -0.46938047142E+02  0.56608612048E+03 -0.71412085056E+03  0.91248390571E+03  0.12699999809E+01 0.  1.
       -4    1    3    3    0  502  0.46938047142E+02 -0.56608612048E+03 -0.76413467065E+03  0.95213448832E+03  0.12699999809E+01 0. -1.
</event>
<event>
 5   0  0.2938349E-03  0.1222565E+04  0.7818609E-02  0.9093332E-01
       -1   -1    0    0    0  501  0.00000000000E+00  0.00000000000E+00  0.71206043142E+03  0.71206043144E+03  0.50400001928E-02 0.  1.
        1   -1    0    0  501    0  0.00000000000E+00  0.00000000000E+00 -0.52476726107E+03  0.52476726109E+03  0.50400001928E-02 0. -1.
    10030    2    1    2    0    0  0.00000000000E+00  0.00000000000E+00  0.18729317035E+03  0.12368276925E+04  0.12225645215E+04 0.  0.
        4    1    3    3  502    0  0.10790089590E+03 -0.10404038672E+02 -0.51496445882E+03  0.52625170223E+03  0.12699999809E+01 0. -1.
       -4    1    3    3    0  502 -0.10790089590E+03  0.10404038672E+02  0.70225762917E+03  0.71057599030E+03  0.12699999809E+01 0.  1.
</event>
<event>
 5   0  0.2792518E-03  0.1192970E+04  0.7818609E-02  0.9119032E-01
        1   -1    0    0  501    0  0.00000000000E+00  0.00000000000E+00  0.21930568230E+04  0.21930568230E+04  0.50400001928E-02 0.  1.
       -1   -1    0    0    0  501  0.00000000000E+00  0.00000000000E+00 -0.16223684918E+03  0.16223684926E+03  0.50400001928E-02 0. -1.
    10030    2    1    2    0    0  0.00000000000E+00  0.00000000000E+00  0.20308199738E+04  0.23552936722E+04  0.11929704592E+04 0.  0.
        2    1    3    3  502    0 -0.17193580684E+03 -0.19529022656E+03  0.20751096840E+04  0.20913585046E+04  0.25500000920E-02 0.  1.
       -2    1    3    3    0  502  0.17193580684E+03  0.19529022656E+03 -0.44289710203E+02  0.26393516761E+03  0.25500000920E-02 0. -1.
</event>
<event>
 5   0  0.5003526E-03  0.1122923E+04  0.7818609E-02  0.9183134E-01
        2   -1    0    0  501    0  0.00000000000E+00  0.00000000000E+00  0.74666790365E+03  0.74666790366E+03  0.25500000920E-02 0.  1.
       -2   -1    0    0    0  501  0.00000000000E+00  0.00000000000E+00 -0.42219413516E+03  0.42219413517E+03  0.25500000920E-02 0. -1.
    10030    2    1    2    0    0  0.00000000000E+00  0.00000000000E+00  0.32447376849E+03  0.11688620388E+04  0.11229226329E+04 0.  0.
        2    1    3    3  502    0  0.10019194480E+03  0.34973842254E+03  0.60738094792E+03  0.70800212281E+03  0.25500000920E-02 0.  1.
       -2    1    3    3    0  502 -0.10019194480E+03 -0.34973842254E+03 -0.28290717944E+03  0.46085991601E+03  0.25500000920E-02 0. -1.
</event>
<event>
 5   0  0.2792518E-03  0.1237094E+04  0.7818609E-02  0.9080994E-01
        1   -1    0    0  501    0  0.00000000000E+00  0.00000000000E+00  0.13200577503E+04  0.13200577503E+04  0.50400001928E-02 0. -1.
       -1   -1    0    0    0  501  0.00000000000E+00  0.00000000000E+00 -0.28983623104E+03  0.28983623109E+03  0.50400001928E-02 0.  1.
    10030    2    1    2    0    0  0.00000000000E+00  0.00000000000E+00  0.10302215193E+04  0.16098939814E+04  0.12370942780E+04 0.  0.
        2    1    3    3  502    0 -0.26151075578E+03 -0.53202931827E+03  0.74481855126E+03  0.95194419227E+03  0.25500000920E-02 0. -1.
       -2    1    3    3    0  502  0.26151075578E+03  0.53202931827E+03  0.28540296801E+03  0.65794978915E+03  0.25500000920E-02 0.  1.
</event>
<event>
 5   0  0.5108045E-03  0.1246960E+04  0.7818609E-02  0.9072718E-01
       -2   -1    0    0    0  501  0.00000000000E+00  0.00000000000E+00  0.41637516801E+03  0.41637516802E+03  0.25500000920E-02 0. -1.
        2   -1    0    0  501    0  0.00000000000E+00  0.00000000000E+00 -0.93359813633E+03  0.93359813634E+03  0.25500000920E-02 0.  1.
    10030    2    1    2    0    0  0.00000000000E+00  0.00000000000E+00 -0.51722296832E+03  0.13499733044E+04  0.12469596319E+04 0.  0.
        3    1    3    3  502    0 -0.46981030623E+03 -0.15532994623E+03 -0.66925967506E+03  0.83232063467E+03  0.10100000352E+00 0.  1.
       -3    1    3    3    0  502  0.46981030623E+03  0.15532994623E+03  0.15203670675E+03  0.51765266968E+03  0.10100000352E+00 0. -1.
</event>
<event>
 5   0  0.5031575E-03  0.1193673E+04  0.7818609E-02  0.9118412E-01
       -2   -1    0    0    0  501  0.00000000000E+00  0.00000000000E+00  0.25987671968E+03  0.25987671969E+03  0.25500000920E-02 0. -1.
        2   -1    0    0  501    0  0.00000000000E+00  0.00000000000E+00 -0.13707034084E+04  0.13707034084E+04  0.25500000920E-02 0.  1.
    10030    2    1    2    0    0  0.00000000000E+00  0.00000000000E+00 -0.11108266888E+04  0.16305801281E+04  0.11936731637E+04 0.  0.
        5    1    3    3  502    0  0.10993499597E+03 -0.25372372506E+03  0.16706783046E+03  0.32310243263E+03  0.46999998093E+01 0. -1.
       -5    1    3    3    0  502 -0.10993499597E+03  0.25372372506E+03 -0.12778945192E+04  0.13074776955E+04  0.46999998093E+01 0.  1.
</event>
<event>
 5   0  0.2926844E-03  0.1117690E+04  0.7818609E-02  0.9188120E-01
       -1   -1    0    0    0  501  0.00000000000E+00  0.00000000000E+00  0.53110369722E+03  0.53110369724E+03  0.50400001928E-02 0. -1.
        1   -1    0    0  501    0  0.00000000000E+00  0.00000000000E+00 -0.58803514961E+03  0.58803514964E+03  0.50400001928E-02 0.  1.
    10030    2    1    2    0    0  0.00000000000E+00  0.00000000000E+00 -0.56931452393E+02  0.11191388469E+04  0.11176898355E+04 0.  0.
        5    1    3    3  502    0 -0.47398421098E+03 -0.29561011026E+03 -0.43951303556E+02  0.56035718665E+03  0.46999998093E+01 0. -1.
       -5    1    3    3    0  502  0.47398421098E+03  0.29561011026E+03 -0.12980148838E+02  0.55878166023E+03  0.46999998093E+01 0.  1.
</event>
<event>
 5   0  0.2930868E-03  0.1224968E+04  0.7818609E-02  0.9091278E-01
        1   -1    0    0  501    0  0.00000000000E+00  0.00000000000E+00  0.20339473963E+04  0.20339473963E+04  0.50400001928E-02 0.  1.
       -1   -1    0    0    0  501  0.00000000000E+00  0.00000000000E+00 -0.18443785456E+03  0.18443785463E+03  0.50400001928E-02 0. -1.
    10030    2    1    2    0    0  0.00000000000E+00  0.00000000000E+00  0.18495095418E+04  0.22183852510E+04  0.12249683982E+04 0.  0.
        3    1    3    3  502    0 -0.17398763574E+03 -0.37161993413E+03  0.17482277414E+04  0.17957375417E+04  0.10100000352E+00 0.  1.
       -3    1    3    3    0  502  0.17398763574E+03  0.37161993413E+03  0.10128180040E+03  0.42264770925E+03  0.10100000352E+00 0. -1.
</event>
<event>
 5   0  0.5108045E-03  0.1173515E+04  0.7818609E-02  0.9136360E-01
       -2   -1    0    0    0  501  0.00000000000E+00  0.00000000000E+00  0.26706143341E+03  0.26706143342E+03  0.25500000920E-02 0.  1.
        2   -1    0    0  501    0  0.00000000000E+00  0.00000000000E+00 -0.12891575676E+04  0.12891575676E+04  0.25500000920E-02 0. -1.
    10030    2    1    2    0    0  0.00000000000E+00  0.00000000000E+00 -0.10220961342E+04  0.15562190010E+04  0.11735148366E+04 0.  0.
        3    1    3    3  502    0 -0.17912194558E+03  0.17801505630E+03  0.19130660874E+03  0.31681581464E+03  0.10100000352E+00 0.  1.
       -3    1    3    3    0  502  0.17912194558E+03 -0.17801505630E+03 -0.12134027429E+04  0.12394031864E+04  0.10100000352E+00 0. -1.
</event>
<event>
 5   0  0.5467554E-03  0.1159970E+04  0.7818609E-02  0.9148635E-01
        2   -1    0    0  501    0  0.00000000000E+00  0.00000000000E+00  0.65972782777E+03  0.65972782777E+03  0.25500000920E-02 0.  1.
       -2   -1    0    0    0  501  0.00000000000E+00  0.00000000000E+00 -0.50988072690E+03  0.50988072691E+03  0.25500000920E-02 0. -1.
    10030    2    1    2    0    0  0.00000000000E+00  0.00000000000E+00  0.14984710086E+03  0.11696085547E+04  0.11599698348E+04 0.  0.
        1    1    3    3  502    0 -0.43015508027E+03 -0.57632080881E+02  0.46286418299E+03  0.63450618732E+03  0.50400001928E-02 0.  1.
       -1    1    3    3    0  502  0.43015508027E+03  0.57632080881E+02 -0.31301708212E+03  0.53510236736E+03  0.50400001928E-02 0. -1.
</event>
<event>
 5   0  0.5467554E-03  0.1201852E+04  0.7818609E-02  0.9111237E-01
       -2   -1    0    0    0  501  0.00000000000E+00  0.00000000000E+00  0.49006198031E+03  0.49006198032E+03  0.25500000920E-02 0. -1.
        2   -1    0    0  501    0  0.00000000000E+00  0.00000000000E+00 -0.73687061817E+03  0.73687061817E+03  0.25500000920E-02 0.  1.
    10030    2    1    2    0    0  0.00000000000E+00  0.00000000000E+00 -0.24680863786E+03  0.12269325985E+04  0.12018523610E+04 0.  0.
        1    1    3    3  502    0  0.47003602867E+03  0.13572008845E+03 -0.47962502845E+03  0.68512333094E+03  0.50400001928E-02 0.  1.
       -1    1    3    3    0  502 -0.47003602867E+03 -0.13572008845E+03  0.23281639059E+03  0.54180926755E+03  0.50400001928E-02 0. -1.
</event>
<event>
 5   0  0.5003526E-03  0.1133858E+04  0.7818609E-02  0.9172806E-01
        2   -1    0    0  501    0  0.00000000000E+00  0.00000000000E+00  0.13490976267E+04  0.13490976267E+04  0.25500000920E-02 0.  1.
       -2   -1    0    0    0  501  0.00000000000E+00  0.00000000000E+00 -0.23823943319E+03  0.23823943320E+03  0.25500000920E-02 0. -1.
    10030    2    1    2    0    0  0.00000000000E+00  0.00000000000E+00  0.11108581935E+04  0.15873370599E+04  0.11338575817E+04 0.  0.
        2    1    3    3  502    0  0.32316308433E+03  0.34747757267E+03  0.12114578920E+03  0.48974620451E+03  0.25500000920E-02 0. -1.
       -2    1    3    3    0  502 -0.32316308433E+03 -0.34747757267E+03  0.98971240426E+03  0.10975908553E+04  0.25500000920E-02 0.  1.
</event>
<event>
 5   0  0.2875848E-03  0.1188524E+04  0.7818609E-02  0.9122961E-01
        1   -1    0    0  501    0  0.00000000000E+00  0.00000000000E+00  0.12584414334E+04  0.12584414334E+04  0.50400001928E-02 0.  1.
       -1   -1    0    0    0  501  0.00000000000E+00  0.00000000000E+00 -0.28062270595E+03  0.28062270600E+03  0.50400001928E-02 0. -1.
    10030    2    1    2    0    0  0.00000000000E+00  0.00000000000E+00  0.97781872748E+03  0.15390641394E+04  0.11885238582E+04 0.  0.
        1    1    3    3  502    0  0.43603788489E+03  0.18166695128E+03  0.95583324099E+03  0.10661843663E+04  0.50400001928E-02 0.  1.
       -1    1    3    3    0  502 -0.43603788489E+03 -0.18166695128E+03  0.21985486496E+02  0.47287977319E+03  0.50400001928E-02 0. -1.
</event>
<event>
 5   0  0.5467554E-03  0.1308620E+04  0.7818609E-02  0.9022757E-01
       -2   -1    0    0    0  501  0.00000000000E+00  0.00000000000E+00  0.56439350990E+03  0.56439350991E+03  0.25500000920E-02 0.  1.
        2   -1    0    0  501    0  0.00000000000E+00  0.00000000000E+00 -0.75855143909E+03  0.75855143909E+03  0.25500000920E-02 0. -1.
    10030    2    1    2    0    0  0.00000000000E+00  0.00000000000E+00 -0.19415792919E+03  0.13229449490E+04  0.13086198977E+04 0.  0.
        1    1    3    3  502    0  0.33849153819E+03 -0.52708386231E+03  0.94007582425E+02  0.63342824765E+03  0.50400001928E-02 0. -1.
       -1    1    3    3    0  502 -0.33849153819E+03  0.52708386231E+03 -0.28816551161E+03  0.68951670135E+03  0.50400001928E-02 0.  1.
</event>
<event>
 5   0  0.5189537E-03  0.1225584E+04  0.7818609E-02  0.9090753E-01
       -2   -1    0    0    0  501  0.00000000000E+00  0.00000000000E+00  0.10245627219E+04  0.10245627219E+04  0.25500000920E-02 0. -1.
        2   -1    0    0  501    0  0.00000000000E+00  0.00000000000E+00 -0.36651168661E+03  0.36651168662E+03  0.25500000920E-02 0.  1.
    10030    2    1    2    0    0  0.00000000000E+00  0.00000000000E+00  0.65805103528E+03  0.13910744085E+04  0.12255842872E+04 0.  0.
        4    1    3    3  502    0 -0.15626048929E+03  0.30973397625E+03 -0.24431624467E+03  0.42431652910E+03  0.12699999809E+01 0.  1.
       -4    1    3    3    0  502  0.15626048929E+03 -0.30973397625E+03  0.90236727995E+03  0.96675787940E+03  0.12699999809E+01 0. -1.
</event>
<event>
 5   0  0.5108045E-03  0.1192607E+04  0.7818609E-02  0.9119352E-01
       -2   -1    0    0    0  501  0.00000000000E+00  0.00000000000E+00  0.44921772360E+03  0.44921772361E+03  0.25500000920E-02 0.  1.
        2   -1    0    0  501    0  0.00000000000E+00  0.00000000000E+00 -0.79154889678E+03  0.79154889678E+03  0.25500000920E-02 0. -1.
    10030    2    1    2    0    0  0.00000000000E+00  0.00000000000E+00 -0.34233117318E+03  0.12407666204E+04  0.11926068816E+04 0.  0.
        3    1    3    3  502    0 -0.45715403777E+03  0.34197057240E+03 -0.35029293659E+03  0.66980507482E+03  0.10100000352E+00 0. -1.
       -3    1    3    3    0  502  0.45715403777E+03 -0.34197057240E+03  0.79617634094E+01  0.57096154557E+03  0.10100000352E+00 0.  1.
</event>
<event>
 5   0  0.2926844E-03  0.1202048E+04  0.7818609E-02  0.9111065E-01
       -1   -1    0    0    0  501  0.00000000000E+00  0.00000000000E+00  0.22686251081E+03  0.22686251086E+03  0.50400001928E-02 0. -1.
        1   -1    0    0  501    0  0.00000000000E+00  0.00000000000E+00 -0.15922866546E+04  0.15922866546E+04  0.50400001928E-02 0.  1.
    10030    2    1    2    0    0  0.00000000000E+00  0.00000000000E+00 -0.13654241438E+04  0.18191491655E+04  0.12020484989E+04 0.  0.
        5    1    3    3  502    0 -0.13224380616E+03 -0.66184929426E+02  0.19887117815E+03  0.24787235555E+03  0.46999998093E+01 0. -1.
       -5    1    3    3    0  502  0.13224380616E+03  0.66184929426E+02 -0.15642953220E+04  0.15712768099E+04  0.46999998093E+01 0.  1.
</event>
<event>
 5   0  0.2792518E-03  0.1116458E+04  0.7818609E-02  0.9189298E-01
        1   -1    0    0  501    0  0.00000000000E+00  0.00000000000E+00  0.40092903413E+03  0.40092903416E+03  0.50400001928E-02 0.  1.
       -1   -1    0    0    0  501  0.00000000000E+00  0.00000000000E+00 -0.77724317581E+03  0.77724317583E+03  0.50400001928E-02 0. -1.
    10030    2    1    2    0    0  0.00000000000E+00  0.00000000000E+00 -0.37631414169E+03  0.11781722100E+04  0.11164575331E+04 0.  0.
        2    1    3    3  502    0 -0.12340324512E+03 -0.97488928494E+02  0.37706866500E+03  0.40855015631E+03  0.25500000920E-02 0.  1.
       -2    1    3    3    0  502  0.12340324512E+03  0.97488928494E+02 -0.75338280669E+03  0.76962205368E+03  0.25500000920E-02 0. -1.
</event>
<event>
 5   0  0.5467554E-03  0.1200002E+04  0.7818609E-02  0.9112855E-01
        2   -1    0    0  501    0  0.00000000000E+00  0.00000000000E+00  0.85020158590E+03  0.85020158590E+03  0.25500000920E-02 0. -1.
       -2   -1    0    0    0  501  0.00000000000E+00  0.00000000000E+00 -0.42343034927E+03  0.42343034928E+03  0.25500000920E-02 0.  1.
    10030    2    1    2    0    0  0.00000000000E+00  0.00000000000E+00  0.42677123663E+03  0.12736319352E+04  0.12000019241E+04 0.  0.
        1    1    3    3  502    0  0.90127267620E+02  0.46976769646E+03  0.59782085799E+03  0.76563332691E+03  0.50400001928E-02 0. -1.
       -1    1    3    3    0  502 -0.90127267620E+02 -0.46976769646E+03 -0.17104962136E+03  0.50799860827E+03  0.50400001928E-02 0.  1.
</event>
<event>
 5   0  0.5189537E-03  0.1181024E+04  0.7818609E-02  0.9129630E-01
       -2   -1    0    0    0  501  0.00000000000E+00  0.00000000000E+00  0.47351196000E+03  0.47351196001E+03  0.25500000920E-02 0. -1.
        2   -1    0    0  501    0  0.00000000000E+00  0.00000000000E+00 -0.73642136889E+03  0.73642136890E+03  0.25500000920E-02 0.  1.
    10030    2    1    2    0    0  0.00000000000E+00  0.00000000000E+00 -0.26290940889E+03  0.12099333289E+04  0.11810238368E+04 0.  0.
        4    1    3    3  502    0  0.37129484056E+03 -0.44648439656E+03 -0.24129167213E+03  0.62883341112E+03  0.12699999809E+01 0. -1.
       -4    1    3    3    0  502 -0.37129484056E+03  0.44648439656E+03 -0.21617736760E+02  0.58109991778E+03  0.12699999809E+01 0.  1.
</event>
<event>
 5   0  0.5108045E-03  0.1196472E+04  0.7818609E-02  0.9115950E-01
       -2   -1    0    0    0  501  0.00000000000E+00  0.00000000000E+00  0.38935342365E+03  0.38935342365E+03  0.25500000920E-02 0. -1.
        2   -1    0    0  501    0  0.00000000000E+00  0.00000000000E+00 -0.91918159151E+03  0.91918159152E+03  0.25500000920E-02 0.  1.
    10030    2    1    2    0    0  0.00000000000E+00  0.00000000000E+00 -0.52982816787E+03  0.13085350152E+04  0.11964723141E+04 0.  0.
        3    1    3    3  502    0  0.52129830737E+03 -0.19613923033E+03 -0.26145169470E+02  0.55758954710E+03  0.10100000352E+00 0. -1.
       -3    1    3    3    0  502 -0.52129830737E+03  0.19613923033E+03 -0.50368299840E+03  0.75094546807E+03  0.10100000352E+00 0.  1.
</event>
<event>
 5   0  0.2875848E-03  0.1194430E+04  0.7818609E-02  0.9117746E-01
        1   -1    0    0  501    0  0.00000000000E+00  0.00000000000E+00  0.14207411830E+04  0.14207411830E+04  0.50400001928E-02 0. -1.
       -1   -1    0    0    0  501  0.00000000000E+00  0.00000000000E+00 -0.25104206387E+03  0.25104206392E+03  0.50400001928E-02 0.  1.
    10030    2    1    2    0    0  0.00000000000E+00  0.00000000000E+00  0.11696991191E+04  0.16717832469E+04  0.11944300714E+04 0.  0.
        1    1    3    3  502    0 -0.54072911376E+03  0.23870944491E+03  0.46529930665E+03  0.75224571674E+03  0.50400001928E-02 0. -1.
       -1    1    3    3    0  502  0.54072911376E+03 -0.23870944491E+03  0.70439981243E+03  0.91953753014E+03  0.50400001928E-02 0.  1.
</event>
<event>
 5   0  0.5003526E-03  0.1205853E+04  0.7818609E-02  0.9107749E-01
       -2   -1    0    0    0  501  0.00000000000E+00  0.00000000000E+00  0.28789766038E+03  0.28789766039E+03  0.25500000920E-02 0.  1.
        2   -1    0    0  501    0  0.00000000000E+00  0.00000000000E+00 -0.12626727210E+04  0.12626727210E+04  0.25500000920E-02 0. -1.
    10030    2    1    2    0    0  0.00000000000E+00  0.00000000000E+00 -0.97477506061E+03  0.15505703814E+04  0.12058532617E+04 0.  0.
        2    1    3    3  502    0 -0.41266948789E+03 -0.42934503572E+03 -0.60860937066E+03  0.85149200348E+03  0.25500000920E-02 0.  1.
       -2    1    3    3    0  502  0.41266948789E+03  0.42934503572E+03 -0.36616568995E+03  0.69907837789E+03  0.25500000920E-02 0. -1.
</event>
<event>
 5   0  0.2875848E-03  0.1202657E+04  0.7818609E-02  0.9110534E-01
        1   -1    0    0  501    0  0.00000000000E+00  0.00000000000E+00  0.99811850941E+03  0.99811850942E+03  0.50400001928E-02 0.  1.
       -1   -1    0    0    0  501  0.00000000000E+00  0.00000000000E+00 -0.36227765881E+03  0.36227765884E+03  0.50400001928E-02 0. -1.
    10030    2    1    2    0    0  0.00000000000E+00  0.00000000000E+00  0.63584085060E+03  0.13603961683E+04  0.12026571196E+04 0.  0.
        1    1    3    3  502    0  0.38808731109E+03  0.37770644603E+03  0.61358836085E+03  0.81839146928E+03  0.50400001928E-02 0.  1.
       -1    1    3    3    0  502 -0.38808731109E+03 -0.37770644603E+03  0.22252489756E+02  0.54200469899E+03  0.50400001928E-02 0. -1.
</event>
<event>
 5   0  0.2792518E-03  0.1194555E+04  0.7818609E-02  0.9117636E-01
        1   -1    0    0  501    0  0.00000000000E+00  0.00000000000E+00  0.54225273475E+03  0.54225273477E+03  0.50400001928E-02 0.  1.
       -1   -1    0    0    0  501  0.00000000000E+00  0.00000000000E+00 -0.65788558061E+03  0.65788558063E+03  0.50400001928E-02 0. -1.
    10030    2    1    2    0    0  0.00000000000E+00  0.00000000000E+00 -0.11563284586E+03  0.12001383154E+04  0.11945547376E+04 0.  0.
        2    1    3    3  502    0 -0.38710979740E+03  0.24194930074E+03 -0.44477486992E+03  0.63735244904E+03  0.25500000920E-02 0. -1.
       -2    1    3    3    0  502  0.38710979740E+03 -0.24194930074E+03  0.32914202406E+03  0.56278586637E+03  0.25500000920E-02 0.  1.
</event>
<event>
 5   0  0.5031575E-03  0.1259323E+04  0.7818609E-02  0.9062459E-01
        2   -1    0    0  501    0  0.00000000000E+00  0.00000000000E+00  0.76414244379E+03  0.76414244380E+03  0.25500000920E-02 0.  1.
       -2   -1    0    0    0  501  0.00000000000E+00  0.00000000000E+00 -0.51884802870E+03  0.51884802871E+03  0.25500000920E-02 0. -1.
    10030    2    1    2    0    0  0.00000000000E+00  0.00000000000E+00  0.24529441509E+03  0.12829904725E+04  0.12593233113E+04 0.  0.
        5    1    3    3  502    0 -0.42153922294E+03 -0.29335262588E+03  0.49377432007E+03  0.71245087461E+03  0.46999998093E+01 0.  1.
       -5    1    3    3    0  502  0.42153922294E+03  0.29335262588E+03 -0.24847990498E+03  0.57053959789E+03  0.46999998093E+01 0. -1.
</event>
<event>
 5   0  0.2875848E-03  0.1110634E+04  0.7818609E-02  0.9194889E-01
       -1   -1    0    0    0  501  0.00000000000E+00  0.00000000000E+00  0.28053573801E+03  0.28053573806E+03  0.50400001928E-02 0. -1.
        1   -1    0    0  501    0  0.00000000000E+00  0.00000000000E+00 -0.10992425776E+04  0.10992425776E+04  0.50400001928E-02 0.  1.
    10030    2    1    2    0    0  0.00000000000E+00  0.00000000000E+00 -0.81870683955E+03  0.13797783156E+04  0.11106337430E+04 0.  0.
        1    1    3    3  502    0  0.43561986366E+03  0.33337586891E+03 -0.30196016672E+03  0.62616617435E+03  0.50400001928E-02 0.  1.
       -1    1    3    3    0  502 -0.43561986366E+03 -0.33337586891E+03 -0.51674667283E+03  0.75361214129E+03  0.50400001928E-02 0. -1.
</event>
<event>
 5   0  0.5189537E-03  0.1212708E+04  0.7818609E-02  0.9101806E-01
       -2   -1    0    0    0  501  0.00000000000E+00  0.00000000000E+00  0.14968066229E+04  0.14968066229E+04  0.25500000920E-02 0. -1.
        2   -1    0    0  501    0  0.00000000000E+00  0.00000000000E+00 -0.24563299952E+03  0.24563299953E+03  0.25500000920E-02 0.  1.
    10030    2    1    2    0    0  0.00000000000E+00  0.00000000000E+00  0.12511736234E+04  0.17424396224E+04  0.12127078799E+04 0.  0.
        4    1    3    3  502    0  0.24615271728E+03  0.15251094429E+03  0.13910379643E+04  0.14208585361E+04  0.12699999809E+01 0. -1.
       -4    1    3    3    0  502 -0.24615271728E+03 -0.15251094429E+03 -0.13986434095E+03  0.32158108638E+03  0.12699999809E+01 0.  1.
</event>
<event>
 5   0  0.1922125E-03  0.1203778E+04  0.7818609E-02  0.9109556E-01
       -3   -1    0    0    0  501  0.00000000000E+00  0.00000000000E+00  0.55948754059E+03  0.55948754971E+03  0.10100000352E+00 0.  1.
        3   -1    0    0  501    0  0.00000000000E+00  0.00000000000E+00 -0.64750438831E+03  0.64750439619E+03  0.10100000352E+00 0. -1.
    10030    2    1    2    0    0  0.00000000000E+00  0.00000000000E+00 -0.88016847722E+02  0.12069919459E+04  0.12037784647E+04 0.  0.
        4    1    3    3  502    0 -0.24327793558E+03  0.25458491206E+02  0.50740213887E+03  0.56328574644E+03  0.12699999809E+01 0.  1.
       -4    1    3    3    0  502  0.24327793558E+03 -0.25458491206E+02 -0.59541898659E+03  0.64370619945E+03  0.12699999809E+01 0. -1.
</event>
<event>
 5   0  0.5108045E-03  0.1210044E+04  0.7818609E-02  0.9104110E-01
        2   -1    0    0  501    0  0.00000000000E+00  0.00000000000E+00  0.61247816492E+03  0.61247816492E+03  0.25500000920E-02 0.  1.
       -2   -1    0    0    0  501  0.00000000000E+00  0.00000000000E+00 -0.59765667660E+03  0.59765667661E+03  0.25500000920E-02 0. -1.
    10030    2    1    2    0    0  0.00000000000E+00  0.00000000000E+00  0.14821488314E+02  0.12101348415E+04  0.12100440728E+04 0.  0.
        3    1    3    3  502    0  0.32000592801E+03 -0.45810269237E+03  0.23935438766E+03  0.60790821989E+03  0.10100000352E+00 0.  1.
       -3    1    3    3    0  502 -0.32000592801E+03  0.45810269237E+03 -0.22453289935E+03  0.60222662164E+03  0.10100000352E+00 0. -1.
</event>
<event>
 5   0  0.5031575E-03  0.1204374E+04  0.7818609E-02  0.9109037E-01
        2   -1    0    0  501    0  0.00000000000E+00  0.00000000000E+00  0.13044299631E+04  0.13044299631E+04  0.25500000920E-02 0. -1.
       -2   -1    0    0    0  501  0.00000000000E+00  0.00000000000E+00 -0.27799816927E+03  0.27799816928E+03  0.25500000920E-02 0.  1.
    10030    2    1    2    0    0  0.00000000000E+00  0.00000000000E+00  0.10264317938E+04  0.15824281324E+04  0.12043739315E+04 0.  0.
        5    1    3    3  502    0  0.24406039799E+03  0.43500449042E+03  0.95647529155E+03  0.10787314114E+04  0.46999998093E+01 0. -1.
       -5    1    3    3    0  502 -0.24406039799E+03 -0.43500449042E+03  0.69956502295E+02  0.50369672101E+03  0.46999998093E+01 0.  1.
</event>
<event>
 5   0  0.2930868E-03  0.1173966E+04  0.7818609E-02  0.9135954E-01
        1   -1    0    0  501    0  0.00000000000E+00  0.00000000000E+00  0.84485003861E+03  0.84485003862E+03  0.50400001928E-02 0. -1.
       -1   -1    0    0    0  501  0.00000000000E+00  0.00000000000E+00 -0.40782252270E+03  0.40782252274E+03  0.50400001928E-02 0.  1.
    10030    2    1    2    0    0  0.00000000000E+00  0.00000000000E+00  0.43702751590E+03  0.12526725614E+04  0.11739657134E+04 0.  0.
        3    1    3    3  502    0  0.11462441300E+02  0.37680138714E+02 -0.40641102058E+03  0.40831496209E+03  0.10100000352E+00 0.  1.
       -3    1    3    3    0  502 -0.11462441300E+02 -0.37680138714E+02  0.84343853649E+03  0.84435759927E+03  0.10100000352E+00 0. -1.
</event>
<event>
 5   0  0.5003526E-03  0.1235764E+04  0.7818609E-02  0.9082116E-01
       -2   -1    0    0    0  501  0.00000000000E+00  0.00000000000E+00  0.62477500936E+03  0.62477500937E+03  0.25500000920E-02 0.  1.
        2   -1    0    0  501    0  0.00000000000E+00  0.00000000000E+00 -0.61106477047E+03  0.61106477048E+03  0.25500000920E-02 0. -1.
    10030    2    1    2    0    0  0.00000000000E+00  0.00000000000E+00  0.13710238892E+02  0.12358397798E+04  0.12357637277E+04 0.  0.
        2    1    3    3  502    0  0.61692178617E+03 -0.34200511522E+02  0.28758739039E+01  0.61787574471E+03  0.25500000920E-02 0. -1.
       -2    1    3    3    0  502 -0.61692178617E+03  0.34200511522E+02  0.10834364988E+02  0.61796403513E+03  0.25500000920E-02 0.  1.
</event>
<event>
 5   0  0.5189537E-03  0.1149210E+04  0.7818609E-02  0.9158513E-01
        2   -1    0    0  501    0  0.00000000000E+00  0.00000000000E+00  0.88602993228E+03  0.88602993229E+03  0.25500000920E-02 0.  1.
       -2   -1    0    0    0  501  0.00000000000E+00  0.00000000000E+00 -0.37264076006E+03  0.37264076007E+03  0.25500000920E-02 0. -1.
    10030    2    1    2    0    0  0.00000000000E+00  0.00000000000E+00  0.51338917222E+03  0.12586706924E+04  0.11492099328E+04 0.  0.
        4    1    3    3  502    0 -0.32272564879E+03  0.23001025367E+03 -0.19900350104E+03  0.44346427985E+03  0.12699999809E+01 0. -1.
       -4    1    3    3    0  502  0.32272564879E+03 -0.23001025367E+03  0.71239267326E+03  0.81520641251E+03  0.12699999809E+01 0.  1.
</event>
<event>
 5   0  0.5189537E-03  0.1193816E+04  0.7818609E-02  0.9118287E-01
       -2   -1    0    0    0  501  0.00000000000E+00  0.00000000000E+00  0.18324464623E+03  0.18324464625E+03  0.25500000920E-02 0.  1.
        2   -1    0    0  501    0  0.00000000000E+00  0.00000000000E+00 -0.19443907319E+04  0.19443907319E+04  0.25500000920E-02 0. -1.
    10030    2    1    2    0    0  0.00000000000E+00  0.00000000000E+00 -0.17611460856E+04  0.21276353781E+04  0.11938160525E+04 0.  0.
        4    1    3    3  502    0 -0.11395948241E+03 -0.34928300840E+03 -0.42151435959E+02  0.36981581908E+03  0.12699999809E+01 0.  1.
       -4    1    3    3    0  502  0.11395948241E+03  0.34928300840E+03 -0.17189946497E+04  0.17578195590E+04  0.12699999809E+01 0. -1.
</event>
<event>
 5   0  0.2938349E-03  0.1165176E+04  0.7818609E-02  0.9143896E-01
       -1   -1    0    0    0  501  0.00000000000E+00  0.00000000000E+00  0.34887334520E+03  0.34887334523E+03  0.50400001928E-02 0. -1.
        1   -1    0    0  501    0  0.00000000000E+00  0.00000000000E+00 -0.97287067205E+03  0.97287067206E+03  0.50400001928E-02 0.  1.
    10030    2    1    2    0    0  0.00000000000E+00  0.00000000000E+00 -0.62399732686E+03  0.13217440173E+04  0.11651757736E+04 0.  0.
        4    1    3    3  502    0  0.20643120184E+03  0.52991876827E+03 -0.16860344879E+03  0.59317491341E+03  0.12699999809E+01 0. -1.
       -4    1    3    3    0  502 -0.20643120184E+03 -0.52991876827E+03 -0.45539387807E+03  0.72856910389E+03  0.12699999809E+01 0.  1.
</event>
<event>
 5   0  0.2926844E-03  0.1202245E+04  0.7818609E-02  0.9110894E-01
       -1   -1    0    0    0  501  0.00000000000E+00  0.00000000000E+00  0.16643174332E+03  0.16643174339E+03  0.50400001928E-02 0.  1.
        1   -1    0    0  501    0  0.00000000000E+00  0.00000000000E+00 -0.21711487270E+04  0.21711487270E+04  0.50400001928E-02 0. -1.
    10030    2    1    2    0    0  0.00000000000E+00  0.00000000000E+00 -0.20047169836E+04  0.23375804704E+04  0.12022446801E+04 0.  0.
        5    1    3    3  502    0 -0.32934621644E+03  0.15051845053E+03 -0.69474718795E+02  0.36874592985E+03  0.46999998093E+01 0.  1.
       -5    1    3    3    0  502  0.32934621644E+03 -0.15051845053E+03 -0.19352422648E+04  0.19688345405E+04  0.46999998093E+01 0. -1.
</event>
<event>
 5   0  0.2875848E-03  0.1173317E+04  0.7818609E-02  0.9136538E-01
       -1   -1    0    0    0  501  0.00000000000E+00  0.00000000000E+00  0.24323664732E+03  0.24323664737E+03  0.50400001928E-02 0.  1.
        1   -1    0    0  501    0  0.00000000000E+00  0.00000000000E+00 -0.14149519538E+04  0.14149519538E+04  0.50400001928E-02 0. -1.
    10030    2    1    2    0    0  0.00000000000E+00  0.00000000000E+00 -0.11717153064E+04  0.16581886011E+04  0.11733169553E+04 0.  0.
        1    1    3    3  502    0  0.17444629103E+03  0.54751842337E+03 -0.75283785223E+03  0.94708646076E+03  0.50400001928E-02 0.  1.
       -1    1    3    3    0  502 -0.17444629103E+03 -0.54751842337E+03 -0.41887745420E+03  0.71110214038E+03  0.50400001928E-02 0. -1.
</event>
<event>
 5   0  0.2938349E-03  0.1226083E+04  0.7818609E-02  0.9090327E-01
       -1   -1    0    0    0  501  0.00000000000E+00  0.00000000000E+00  0.58708783975E+03  0.58708783978E+03  0.50400001928E-02 0.  1.
        1   -1    0    0  501    0  0.00000000000E+00  0.00000000000E+00 -0.64014280610E+03  0.64014280612E+03  0.50400001928E-02 0. -1.
    10030    2    1    2    0    0  0.00000000000E+00  0.00000000000E+00 -0.53054966342E+02  0.12272306459E+04  0.12260832879E+04 0.  0.
        4    1    3    3  502    0 -0.10927798666E+03  0.39098461508E+03  0.43325822777E+03  0.59373811771E+03  0.12699999809E+01 0.  1.
       -4    1    3    3    0  502  0.10927798666E+03 -0.39098461508E+03 -0.48631319411E+03  0.63349252818E+03  0.12699999809E+01 0. -1.
</event>
<event>
 5   0  0.2875848E-03  0.1162607E+04  0.7818609E-02  0.9146231E-01
        1   -1    0    0  501    0  0.00000000000E+00  0.00000000000E+00  0.70073375624E+03  0.70073375626E+03  0.50400001928E-02 0. -1.
       -1   -1    0    0    0  501  0.00000000000E+00  0.00000000000E+00 -0.48222824091E+03  0.48222824094E+03  0.50400001928E-02 0.  1.
    10030    2    1    2    0    0  0.00000000000E+00  0.00000000000E+00  0.21850551533E+03  0.11829619972E+04  0.11626067377E+04 0.  0.
        1    1    3    3  502    0  0.21662860695E+03  0.93164691950E+02  0.64988010043E+03  0.69134055149E+03  0.50400001928E-02 0. -1.
       -1    1    3    3    0  502 -0.21662860695E+03 -0.93164691950E+02 -0.43137458510E+03  0.49162144570E+03  0.50400001928E-02 0.  1.
</event>
<event>
 5   0  0.5003526E-03  0.1170078E+04  0.7818609E-02  0.9139458E-01
       -2   -1    0    0    0  501  0.00000000000E+00  0.00000000000E+00  0.59538819964E+03  0.59538819965E+03  0.25500000920E-02 0. -1.
        2   -1    0    0  501    0  0.00000000000E+00  0.00000000000E+00 -0.57486935106E+03  0.57486935106E+03  0.25500000920E-02 0.  1.
    10030    2    1    2    0    0  0.00000000000E+00  0.00000000000E+00  0.20518848587E+02  0.11702575507E+04  0.11700776521E+04 0.  0.
        2    1    3    3  502    0  0.34418111796E+03  0.38359021809E+03 -0.26667361419E+03  0.58027313731E+03  0.25500000920E-02 0. -1.
       -2    1    3    3    0  502 -0.34418111796E+03 -0.38359021809E+03  0.28719246278E+03  0.58998441340E+03  0.25500000920E-02 0.  1.
</event>
<event>
 5   0  0.2938349E-03  0.1211006E+04  0.7818609E-02  0.9103277E-01
        1   -1    0    0  501    0  0.00000000000E+00  0.00000000000E+00  0.14817195523E+04  0.14817195523E+04  0.50400001928E-02 0. -1.
       -1   -1    0    0    0  501  0.00000000000E+00  0.00000000000E+00 -0.24743811812E+03  0.24743811817E+03  0.50400001928E-02 0.  1.
    10030    2    1    2    0    0  0.00000000000E+00  0.00000000000E+00  0.12342814342E+04  0.17291576705E+04  0.12110060242E+04 0.  0.
        4    1    3    3  502    0  0.14428096293E+02 -0.12754592713E+03 -0.22778625104E+03  0.26146571965E+03  0.12699999809E+01 0.  1.
       -4    1    3    3    0  502 -0.14428096293E+02  0.12754592713E+03  0.14620676852E+04  0.14676919508E+04  0.12699999809E+01 0. -1.
</event>
<event>
 5   0  0.5003526E-03  0.1182486E+04  0.7818609E-02  0.9128326E-01
       -2   -1    0    0    0  501  0.00000000000E+00  0.00000000000E+00  0.51042968051E+03  0.51042968052E+03  0.25500000920E-02 0.  1.
        2   -1    0    0  501    0  0.00000000000E+00  0.00000000000E+00 -0.68485071169E+03  0.68485071169E+03  0.25500000920E-02 0. -1.
    10030    2    1    2    0    0  0.00000000000E+00  0.00000000000E+00 -0.17442103118E+03  0.11952803922E+04  0.11824857377E+04 0.  0.
        2    1    3    3  502    0 -0.46398776593E+03 -0.35997717509E+02  0.28141002826E+03  0.54384932344E+03  0.25500000920E-02 0.  1.
       -2    1    3    3    0  502  0.46398776593E+03  0.35997717509E+02 -0.45583105944E+03  0.65143106877E+03  0.25500000920E-02 0. -1.
</event>
<event>
 5   0  0.2875848E-03  0.1206711E+04  0.7818609E-02  0.9107003E-01
       -1   -1    0    0    0  501  0.00000000000E+00  0.00000000000E+00  0.49350756288E+03  0.49350756291E+03  0.50400001928E-02 0.  1.
        1   -1    0    0  501    0  0.00000000000E+00  0.00000000000E+00 -0.73765364144E+03  0.73765364145E+03  0.50400001928E-02 0. -1.
    10030    2    1    2    0    0  0.00000000000E+00  0.00000000000E+00 -0.24414607855E+03  0.12311612044E+04  0.12067106544E+04 0.  0.
        1    1    3    3  502    0  0.52580299827E+03 -0.17935661174E+01  0.17983775452E+03  0.55571002137E+03  0.50400001928E-02 0.  1.
       -1    1    3    3    0  502 -0.52580299827E+03  0.17935661174E+01 -0.42398383307E+03  0.67545118299E+03  0.50400001928E-02 0. -1.
</event>
<event>
 5   0  0.2930868E-03  0.1207265E+04  0.7818609E-02  0.9106521E-01
       -1   -1    0    0    0  501  0.00000000000E+00  0.00000000000E+00  0.12522288230E+04  0.12522288230E+04  0.50400001928E-02 0.  1.
        1   -1    0    0  501    0  0.00000000000E+00  0.00000000000E+00 -0.29097878975E+03  0.29097878980E+03  0.50400001928E-02 0. -1.
    10030    2    1    2    0    0  0.00000000000E+00  0.00000000000E+00  0.96125003328E+03  0.15432076128E+04  0.12072647224E+04 0.  0.
        3    1    3    3  502    0 -0.13870538341E+03  0.23062882619E+03  0.11712956852E+04  0.12018163051E+04  0.10100000352E+00 0.  1.
       -3    1    3    3    0  502  0.13870538341E+03 -0.23062882619E+03 -0.21004565196E+03  0.34139130769E+03  0.10100000352E+00 0. -1.
</event>
<event>
 5   0  0.5003526E-03  0.1269726E+04  0.7818609E-02  0.9053923E-01
        2   -1    0    0  501    0  0.00000000000E+00  0.00000000000E+00  0.87088932706E+03  0.87088932707E+03  0.25500000920E-02 0. -1.
       -2   -1    0    0    0  501  0.00000000000E+00  0.00000000000E+00 -0.46280429885E+03  0.46280429886E+03  0.25500000920E-02 0.  1.
    10030    2    1    2    0    0  0.00000000000E+00  0.00000000000E+00  0.40808502821E+03  0.13336936259E+04  0.12697264657E+04 0.  0.
        2    1    3    3  502    0  0.16756833109E+03 -0.39241278890E+03 -0.28972975316E+03  0.51576183685E+03  0.25500000920E-02 0.  1.
       -2    1    3    3    0  502 -0.16756833109E+03  0.39241278890E+03  0.69781478137E+03  0.81793178908E+03  0.25500000920E-02 0. -1.
</event>
<event>
 5   0  0.5108045E-03  0.1183288E+04  0.7818609E-02  0.9127611E-01
        2   -1    0    0  501    0  0.00000000000E+00  0.00000000000E+00  0.63044832597E+03  0.63044832597E+03  0.25500000920E-02 0.  1.
       -2   -1    0    0    0  501  0.00000000000E+00  0.00000000000E+00 -0.55522825292E+03  0.55522825293E+03  0.25500000920E-02 0. -1.
    10030    2    1    2    0    0  0.00000000000E+00  0.00000000000E+00  0.75220073044E+02  0.11856765789E+04  0.11832881688E+04 0.  0.
        3    1    3    3  502    0 -0.35471027067E+01 -0.30940201029E+03  0.54291009515E+03  0.62489484517E+03  0.10100000352E+00 0.  1.
       -3    1    3    3    0  502  0.35471027067E+01  0.30940201029E+03 -0.46769002210E+03  0.56078173373E+03  0.10100000352E+00 0. -1.
</event>
<event>
 5   0  0.5031575E-03  0.1215358E+04  0.7818609E-02  0.9099519E-01
       -2   -1    0    0    0  501  0.00000000000E+00  0.00000000000E+00  0.36532779713E+03  0.36532779714E+03  0.25500000920E-02 0.  1.
        2   -1    0    0  501    0  0.00000000000E+00  0.00000000000E+00 -0.10108018148E+04  0.10108018148E+04  0.25500000920E-02 0. -1.
    10030    2    1    2    0    0  0.00000000000E+00  0.00000000000E+00 -0.64547401770E+03  0.13761296120E+04  0.12153583840E+04 0.  0.
        5    1    3    3  502    0 -0.94107455421E+02  0.16922883119E+03  0.32943960696E+03  0.38216116378E+03  0.46999998093E+01 0.  1.
       -5    1    3    3    0  502  0.94107455421E+02 -0.16922883119E+03 -0.97491362466E+03  0.99396844820E+03  0.46999998093E+01 0. -1.
</event>
<event>
 5   0  0.2938349E-03  0.1169700E+04  0.7818609E-02  0.9139800E-01
       -1   -1    0    0    0  501  0.00000000000E+00  0.00000000000E+00  0.38456864819E+03  0.38456864822E+03  0.50400001928E-02 0.  1.
        1   -1    0    0  501    0  0.00000000000E+00  0.00000000000E+00 -0.88943609920E+03  0.88943609921E+03  0.50400001928E-02 0. -1.
    10030    2    1    2    0    0  0.00000000000E+00  0.00000000000E+00 -0.50486745101E+03  0.12740047474E+04  0.11696995141E+04 0.  0.
        4    1    3    3  502    0  0.85524339555E+02 -0.50318630040E+03 -0.56344308691E+03  0.76025034736E+03  0.12699999809E+01 0. -1.
       -4    1    3    3    0  502 -0.85524339555E+02  0.50318630040E+03  0.58575635902E+02  0.51375440007E+03  0.12699999809E+01 0.  1.
</event>
<event>
 5   0  0.2875848E-03  0.1182316E+04  0.7818609E-02  0.9128478E-01
       -1   -1    0    0    0  501  0.00000000000E+00  0.00000000000E+00  0.35983352926E+03  0.35983352929E+03  0.50400001928E-02 0.  1.
        1   -1    0    0  501    0  0.00000000000E+00  0.00000000000E+00 -0.97119217120E+03  0.97119217121E+03  0.50400001928E-02 0. -1.
    10030    2    1    2    0    0  0.00000000000E+00  0.00000000000E+00 -0.61135864194E+03  0.13310257005E+04  0.11823155359E+04 0.  0.
        1    1    3    3  502    0  0.28621595582E+03 -0.15716130613E+03  0.24910035215E+03  0.41069481976E+03  0.50400001928E-02 0.  1.
       -1    1    3    3    0  502 -0.28621595582E+03  0.15716130613E+03 -0.86045899409E+03  0.92033088074E+03  0.50400001928E-02 0. -1.
</event>
<event>
 5   0  0.2926844E-03  0.1225735E+04  0.7818609E-02  0.9090624E-01
        1   -1    0    0  501    0  0.00000000000E+00  0.00000000000E+00  0.78233915147E+03  0.78233915149E+03  0.50400001928E-02 0. -1.
       -1   -1    0    0    0  501  0.00000000000E+00  0.00000000000E+00 -0.48010710850E+03  0.48010710852E+03  0.50400001928E-02 0.  1.
    10030    2    1    2    0    0  0.00000000000E+00  0.00000000000E+00  0.30223204298E+03  0.12624462600E+04  0.12257350250E+04 0.  0.
        5    1    3    3  502    0  0.25633870587E+03  0.39922246998E+03 -0.24844152564E+03  0.53556829100E+03  0.46999998093E+01 0.  1.
       -5    1    3    3    0  502 -0.25633870587E+03 -0.39922246998E+03  0.55067356861E+03  0.72687796901E+03  0.46999998093E+01 0. -1.
</event>
<event>
 5   0  0.5108045E-03  0.1184241E+04  0.7818609E-02  0.9126763E-01
        2   -1    0    0  501    0  0.00000000000E+00  0.00000000000E+00  0.26553146850E+03  0.26553146852E+03  0.25500000920E-02 0.  1.
       -2   -1    0    0    0  501  0.00000000000E+00  0.00000000000E+00 -0.13203966904E+04  0.13203966904E+04  0.25500000920E-02 0. -1.
    10030    2    1    2    0    0  0.00000000000E+00  0.00000000000E+00 -0.10548652219E+04  0.15859281589E+04  0.11842413136E+04 0.  0.
        3    1    3    3  502    0 -0.41086831454E+03 -0.14315436191E+03  0.10418070262E+02  0.43521774966E+03  0.10100000352E+00 0.  1.
       -3    1    3    3    0  502  0.41086831454E+03  0.14315436191E+03 -0.10652832921E+04  0.11507104092E+04  0.10100000352E+00 0. -1.
</event>
<event>
 5   0  0.5003526E-03  0.1235625E+04  0.7818609E-02  0.9082233E-01
        2   -1    0    0  501    0  0.00000000000E+00  0.00000000000E+00  0.30355293812E+03  0.30355293813E+03  0.25500000920E-02 0.  1.
       -2   -1    0    0    0  501  0.00000000000E+00  0.00000000000E+00 -0.12574156952E+04  0.12574156952E+04  0.25500000920E-02 0. -1.
    10030    2    1    2    0    0  0.00000000000E+00  0.00000000000E+00 -0.95386275710E+03  0.15609686334E+04  0.12356249087E+04 0.  0.
        2    1    3    3  502    0  0.13208295732E+03  0.85180182672E+02 -0.12317384273E+04  0.12417250599E+04  0.25500000920E-02 0. -1.
       -2    1    3    3    0  502 -0.13208295732E+03 -0.85180182672E+02  0.27787567016E+03  0.31924357347E+03  0.25500000920E-02 0.  1.
</event>
<event>
 5   0  0.2792518E-03  0.1190365E+04  0.7818609E-02  0.9121332E-01
        1   -1    0    0  501    0  0.00000000000E+00  0.00000000000E+00  0.50994209261E+03  0.50994209263E+03  0.50400001928E-02 0.  1.
       -1   -1    0    0    0  501  0.00000000000E+00  0.00000000000E+00 -0.69467194845E+03  0.69467194846E+03  0.50400001928E-02 0. -1.
    10030    2    1    2    0    0  0.00000000000E+00  0.00000000000E+00 -0.18472985584E+03  0.12046140411E+04  0.11903654348E+04 0.  0.
        2    1    3    3  502    0  0.16781426908E+03  0.28840127279E+03  0.40638899779E+03  0.52582215681E+03  0.25500000920E-02 0.  1.
       -2    1    3    3    0  502 -0.16781426908E+03 -0.28840127279E+03 -0.59111885363E+03  0.67879188429E+03  0.25500000920E-02 0. -1.
</event>
<event>
 5   0  0.2792518E-03  0.8967855E+03  0.7818609E-02  0.9429609E-01
       -1   -1    0    0    0  501  0.00000000000E+00  0.00000000000E+00  0.31748526817E+03  0.31748526821E+03  0.50400001928E-02 0. -1.
        1   -1    0    0  501    0  0.00000000000E+00  0.00000000000E+00 -0.63327685923E+03  0.63327685925E+03  0.50400001928E-02 0.  1.
    10030    2    1    2    0    0  0.00000000000E+00  0.00000000000E+00 -0.31579159106E+03  0.95076212746E+03  0.89678553402E+03 0.  0.
        2    1    3    3  502    0 -0.15069058411E+02  0.19797127404E+03  0.26834285304E+03  0.33380771208E+03  0.25500000920E-02 0. -1.
       -2    1    3    3    0  502  0.15069058411E+02 -0.19797127404E+03 -0.58413444409E+03  0.61695441537E+03  0.25500000920E-02 0.  1.
</event>
<event>
 5   0  0.5467554E-03  0.1173227E+04  0.7818609E-02  0.9136619E-01
        2   -1    0    0  501    0  0.00000000000E+00  0.00000000000E+00  0.88788408522E+03  0.88788408522E+03  0.25500000920E-02 0. -1.
       -2   -1    0    0    0  501  0.00000000000E+00  0.00000000000E+00 -0.38756778126E+03  0.38756778127E+03  0.25500000920E-02 0.  1.
    10030    2    1    2    0    0  0.00000000000E+00  0.00000000000E+00  0.50031630395E+03  0.12754518665E+04  0.11732267725E+04 0.  0.
        1    1    3    3  502    0  0.10681282912E+03 -0.51358231720E+03  0.53559900817E+03  0.74969465423E+03  0.50400001928E-02 0. -1.
       -1    1    3    3    0  502 -0.10681282912E+03  0.51358231720E+03 -0.35282704221E+02  0.52575721226E+03  0.50400001928E-02 0.  1.
</event>
<event>
 5   0  0.2930868E-03  0.1175439E+04  0.7818609E-02  0.9134631E-01
       -1   -1    0    0    0  501  0.00000000000E+00  0.00000000000E+00  0.23161019762E+03  0.23161019767E+03  0.50400001928E-02 0. -1.
        1   -1    0    0  501    0  0.00000000000E+00  0.00000000000E+00 -0.14913598199E+04  0.14913598199E+04  0.50400001928E-02 0.  1.
    10030    2    1    2    0    0  0.00000000000E+00  0.00000000000E+00 -0.12597496222E+04  0.17229700175E+04  0.11754388842E+04 0.  0.
        3    1    3    3  502    0 -0.49169015980E+03  0.27865928126E+03 -0.39350222204E+03  0.68866117738E+03  0.10100000352E+00 0. -1.
       -3    1    3    3    0  502  0.49169015980E+03 -0.27865928126E+03 -0.86624740020E+03  0.10343088402E+04  0.10100000352E+00 0.  1.
</event>
<event>
 5   0  0.5467554E-03  0.1194966E+04  0.7818609E-02  0.9117274E-01
        2   -1    0    0  501    0  0.00000000000E+00  0.00000000000E+00  0.24475783656E+04  0.24475783656E+04  0.25500000920E-02 0.  1.
       -2   -1    0    0    0  501  0.00000000000E+00  0.00000000000E+00 -0.14585265694E+03  0.14585265696E+03  0.25500000920E-02 0. -1.
    10030    2    1    2    0    0  0.00000000000E+00  0.00000000000E+00  0.23017257086E+04  0.25934310226E+04  0.11949657865E+04 0.  0.
        1    1    3    3  502    0  0.14042222302E+03  0.48690811606E+03  0.46391012516E+03  0.68703021655E+03  0.50400001928E-02 0. -1.
       -1    1    3    3    0  502 -0.14042222302E+03 -0.48690811606E+03  0.18378155835E+04  0.19064008060E+04  0.50400001928E-02 0.  1.
</event>
<event>
 5   0  0.2792518E-03  0.1200333E+04  0.7818609E-02  0.9112565E-01
       -1   -1    0    0    0  501  0.00000000000E+00  0.00000000000E+00  0.19491121531E+03  0.19491121538E+03  0.50400001928E-02 0.  1.
        1   -1    0    0  501    0  0.00000000000E+00  0.00000000000E+00 -0.18480191775E+04  0.18480191775E+04  0.50400001928E-02 0. -1.
    10030    2    1    2    0    0  0.00000000000E+00  0.00000000000E+00 -0.16531079622E+04  0.20429303929E+04  0.12003327270E+04 0.  0.
        2    1    3    3  502    0  0.96510125795E+02 -0.47156064914E+03 -0.21641250935E+03  0.52774806907E+03  0.25500000920E-02 0.  1.
       -2    1    3    3    0  502 -0.96510125795E+02  0.47156064914E+03 -0.14366954528E+04  0.15151823238E+04  0.25500000920E-02 0. -1.
</event>
<event>
 5   0  0.2938349E-03  0.1199162E+04  0.7818609E-02  0.9113591E-01
       -1   -1    0    0    0  501  0.00000000000E+00  0.00000000000E+00  0.18612478252E+03  0.18612478259E+03  0.50400001928E-02 0.  1.
        1   -1    0    0  501    0  0.00000000000E+00  0.00000000000E+00 -0.19314846106E+04  0.19314846106E+04  0.50400001928E-02 0. -1.
    10030    2    1    2    0    0  0.00000000000E+00  0.00000000000E+00 -0.17453598281E+04  0.21176093932E+04  0.11991616291E+04 0.  0.
        4    1    3    3  502    0  0.15713230987E+03  0.43729734826E+03 -0.15418077025E+04  0.16103080879E+04  0.12699999809E+01 0.  1.
       -4    1    3    3    0  502 -0.15713230987E+03 -0.43729734826E+03 -0.20355212557E+03  0.50730130527E+03  0.12699999809E+01 0. -1.
</event>
<event>
 5   0  0.5189537E-03  0.1168200E+04  0.7818609E-02  0.9141156E-01
        2   -1    0    0  501    0  0.00000000000E+00  0.00000000000E+00  0.57126023436E+03  0.57126023436E+03  0.25500000920E-02 0.  1.
       -2   -1    0    0    0  501  0.00000000000E+00  0.00000000000E+00 -0.59722806746E+03  0.59722806747E+03  0.25500000920E-02 0. -1.
    10030    2    1    2    0    0  0.00000000000E+00  0.00000000000E+00 -0.25967833107E+02  0.11684883018E+04  0.11681997189E+04 0.  0.
        4    1    3    3  502    0 -0.31689171078E+03  0.65844465762E+02 -0.49932947438E+03  0.59505242367E+03  0.12699999809E+01 0. -1.
       -4    1    3    3    0  502  0.31689171078E+03 -0.65844465762E+02  0.47336164127E+03  0.57343587816E+03  0.12699999809E+01 0.  1.
</event>
<event>
 5   0  0.5003526E-03  0.1193773E+04  0.7818609E-02  0.9118324E-01
        2   -1    0    0  501    0  0.00000000000E+00  0.00000000000E+00  0.10899964081E+04  0.10899964081E+04  0.25500000920E-02 0. -1.
       -2   -1    0    0    0  501  0.00000000000E+00  0.00000000000E+00 -0.32685769760E+03  0.32685769761E+03  0.25500000920E-02 0.  1.
    10030    2    1    2    0    0  0.00000000000E+00  0.00000000000E+00  0.76313871047E+03  0.14168541057E+04  0.11937733727E+04 0.  0.
        2    1    3    3  502    0 -0.45907860499E+03  0.26781976716E+02 -0.70070687424E+02  0.46516700343E+03  0.25500000920E-02 0.  1.
       -2    1    3    3    0  502  0.45907860499E+03 -0.26781976716E+02  0.83320939790E+03  0.95168710225E+03  0.25500000920E-02 0. -1.
</event>
<event>
 5   0  0.2926844E-03  0.1236019E+04  0.7818609E-02  0.9081901E-01
       -1   -1    0    0    0  501  0.00000000000E+00  0.00000000000E+00  0.63208808927E+03  0.63208808929E+03  0.50400001928E-02 0. -1.
        1   -1    0    0  501    0  0.00000000000E+00  0.00000000000E+00 -0.60424402616E+03  0.60424402618E+03  0.50400001928E-02 0.  1.
    10030    2    1    2    0    0  0.00000000000E+00  0.00000000000E+00  0.27844063102E+02  0.12363321155E+04  0.12360185306E+04 0.  0.
        5    1    3    3  502    0 -0.33137460143E+03 -0.30382550730E+03 -0.41020712078E+03  0.60861402982E+03  0.46999998093E+01 0.  1.
       -5    1    3    3    0  502  0.33137460143E+03  0.30382550730E+03  0.43805118388E+03  0.62771808565E+03  0.46999998093E+01 0. -1.
</event>
<event>
 5   0  0.5031575E-03  0.1276366E+04  0.7818609E-02  0.9048520E-01
       -2   -1    0    0    0  501  0.00000000000E+00  0.00000000000E+00  0.70712613591E+03  0.70712613592E+03  0.25500000920E-02 0.  1.
        2   -1    0    0  501    0  0.00000000000E+00  0.00000000000E+00 -0.57596135103E+03  0.57596135103E+03  0.25500000920E-02 0. -1.
    10030    2    1    2    0    0  0.00000000000E+00  0.00000000000E+00  0.13116478489E+03  0.12830874870E+04  0.12763656601E+04 0.  0.
        5    1    3    3  502    0 -0.36319962286E+03  0.23555060784E+03 -0.40577626120E+03  0.59335867657E+03  0.46999998093E+01 0. -1.
       -5    1    3    3    0  502  0.36319962286E+03 -0.23555060784E+03  0.53694104609E+03  0.68972881039E+03  0.46999998093E+01 0.  1.
</event>
<event>
 5   0  0.5003526E-03  0.1211100E+04  0.7818609E-02  0.9103196E-01
        2   -1    0    0  501    0  0.00000000000E+00  0.00000000000E+00  0.27843823348E+04  0.27843823348E+04  0.25500000920E-02 0.  1.
       -2   -1    0    0    0  501  0.00000000000E+00  0.00000000000E+00 -0.13169562054E+03  0.13169562057E+03  0.25500000920E-02 0. -1.
    10030    2    1    2    0    0  0.00000000000E+00  0.00000000000E+00  0.26526867143E+04  0.29160779554E+04  0.12111002592E+04 0.  0.
        2    1    3    3  502    0 -0.35731358466E+03 -0.25324337859E+03  0.31942038702E+03  0.54206511623E+03  0.25500000920E-02 0. -1.
       -2    1    3    3    0  502  0.35731358466E+03  0.25324337859E+03  0.23332663273E+04  0.23740128392E+04  0.25500000920E-02 0.  1.
</event>
<event>
 5   0  0.1922125E-03  0.1160683E+04  0.7818609E-02  0.9147985E-01
        4   -1    0    0  501    0  0.00000000000E+00  0.00000000000E+00  0.55557913459E+03  0.55558058614E+03  0.12699999809E+01 0.  1.
       -4   -1    0    0    0  501  0.00000000000E+00  0.00000000000E+00 -0.60620413302E+03  0.60620546335E+03  0.12699999809E+01 0. -1.
    10030    2    1    2    0    0  0.00000000000E+00  0.00000000000E+00 -0.50624998425E+02  0.11617860495E+04  0.11606825295E+04 0.  0.
        3    1    3    3  502    0  0.42007749485E+03  0.14650634218E+03  0.34769010712E+03  0.56463938117E+03  0.10100000352E+00 0.  1.
       -3    1    3    3    0  502 -0.42007749485E+03 -0.14650634218E+03 -0.39831510554E+03  0.59714666832E+03  0.10100000352E+00 0. -1.
</event>
<event>
 5   0  0.2930868E-03  0.1204444E+04  0.7818609E-02  0.9108975E-01
       -1   -1    0    0    0  501  0.00000000000E+00  0.00000000000E+00  0.79220943265E+03  0.79220943267E+03  0.50400001928E-02 0.  1.
        1   -1    0    0  501    0  0.00000000000E+00  0.00000000000E+00 -0.45779758095E+03  0.45779758098E+03  0.50400001928E-02 0. -1.
    10030    2    1    2    0    0  0.00000000000E+00  0.00000000000E+00  0.33441185170E+03  0.12500070136E+04  0.12044443730E+04 0.  0.
        3    1    3    3  502    0  0.69335056348E+02  0.20231753701E+03 -0.41705739426E+03  0.46869672084E+03  0.10100000352E+00 0. -1.
       -3    1    3    3    0  502 -0.69335056348E+02 -0.20231753701E+03  0.75146924596E+03  0.78131029280E+03  0.10100000352E+00 0.  1.
</event>
<event>
 5   0  0.5467554E-03  0.1009027E+04  0.7818609E-02  0.9298699E-01
       -2   -1    0    0    0  501  0.00000000000E+00  0.00000000000E+00  0.20741959408E+03  0.20741959409E+03  0.25500000920E-02 0. -1.
        2   -1    0    0  501    0  0.00000000000E+00  0.00000000000E+00 -0.12271456182E+04  0.12271456182E+04  0.25500000920E-02 0.  1.
    10030    2    1    2    0    0  0.00000000000E+00  0.00000000000E+00 -0.10197260241E+04  0.14345652123E+04  0.10090273455E+04 0.  0.
        1    1    3    3  502    0  0.36026365838E+03  0.82072050314E+02 -0.21465239439E+02  0.37011684847E+03  0.50400001928E-02 0. -1.
       -1    1    3    3    0  502 -0.36026365838E+03 -0.82072050314E+02 -0.99826078470E+03  0.10644483638E+04  0.50400001928E-02 0.  1.
</event>
<event>
 5   0  0.2930868E-03  0.1189363E+04  0.7818609E-02  0.9122218E-01
       -1   -1    0    0    0  501  0.00000000000E+00  0.00000000000E+00  0.36002806434E+03  0.36002806438E+03  0.50400001928E-02 0.  1.
        1   -1    0    0  501    0  0.00000000000E+00  0.00000000000E+00 -0.98227356190E+03  0.98227356192E+03  0.50400001928E-02 0. -1.
    10030    2    1    2    0    0  0.00000000000E+00  0.00000000000E+00 -0.62224549756E+03  0.13423016263E+04  0.11893629373E+04 0.  0.
        3    1    3    3  502    0 -0.65566184125E+02 -0.12324279151E+03 -0.96351960640E+03  0.97357986436E+03  0.10100000352E+00 0. -1.
       -3    1    3    3    0  502  0.65566184125E+02  0.12324279151E+03  0.34127410884E+03  0.36872176194E+03  0.10100000352E+00 0.  1.
</event>
<event>
 5   0  0.5003526E-03  0.1224011E+04  0.7818609E-02  0.9092095E-01
       -2   -1    0    0    0  501  0.00000000000E+00  0.00000000000E+00  0.29397365147E+03  0.29397365148E+03  0.25500000920E-02 0.  1.
        2   -1    0    0  501    0  0.00000000000E+00  0.00000000000E+00 -0.12740967579E+04  0.12740967579E+04  0.25500000920E-02 0. -1.
    10030    2    1    2    0    0  0.00000000000E+00  0.00000000000E+00 -0.98012310643E+03  0.15680704094E+04  0.12240112357E+04 0.  0.
        2    1    3    3  502    0 -0.60122787154E+03  0.35439839898E+02 -0.35078186056E+03  0.69697837088E+03  0.25500000920E-02 0.  1.
       -2    1    3    3    0  502  0.60122787154E+03 -0.35439839898E+02 -0.62934124586E+03  0.87109203849E+03  0.25500000920E-02 0. -1.
</event>
<event>
 5   0  0.5108045E-03  0.1240672E+04  0.7818609E-02  0.9077983E-01
       -2   -1    0    0    0  501  0.00000000000E+00  0.00000000000E+00  0.72522091115E+03  0.72522091115E+03  0.25500000920E-02 0.  1.
        2   -1    0    0  501    0  0.00000000000E+00  0.00000000000E+00 -0.53061987475E+03  0.53061987475E+03  0.25500000920E-02 0. -1.
    10030    2    1    2    0    0  0.00000000000E+00  0.00000000000E+00  0.19460103640E+03  0.12558407859E+04  0.12406718003E+04 0.  0.
        3    1    3    3  502    0  0.49341576318E+03  0.20195402362E+03  0.41830890528E+03  0.67766281693E+03  0.10100000352E+00 0.  1.
       -3    1    3    3    0  502 -0.49341576318E+03 -0.20195402362E+03 -0.22370786887E+03  0.57817796898E+03  0.10100000352E+00 0. -1.
</event>
<event>
 5   0  0.5467554E-03  0.1207004E+04  0.7818609E-02  0.9106748E-01
       -2   -1    0    0    0  501  0.00000000000E+00  0.00000000000E+00  0.48880945513E+03  0.48880945514E+03  0.25500000920E-02 0.  1.
        2   -1    0    0  501    0  0.00000000000E+00  0.00000000000E+00 -0.74510499922E+03  0.74510499922E+03  0.25500000920E-02 0. -1.
    10030    2    1    2    0    0  0.00000000000E+00  0.00000000000E+00 -0.25629554408E+03  0.12339144544E+04  0.12070035107E+04 0.  0.
        1    1    3    3  502    0 -0.18495395816E+03  0.55249627045E+03 -0.28899056581E+03  0.65036577604E+03  0.50400001928E-02 0. -1.
       -1    1    3    3    0  502  0.18495395816E+03 -0.55249627045E+03  0.32695021727E+02  0.58354867832E+03  0.50400001928E-02 0.  1.
</event>
<event>
 5   0  0.5031575E-03  0.1219728E+04  0.7818609E-02  0.9095762E-01
       -2   -1    0    0    0  501  0.00000000000E+00  0.00000000000E+00  0.25369928904E+03  0.25369928905E+03  0.25500000920E-02 0.  1.
        2   -1    0    0  501    0  0.00000000000E+00  0.00000000000E+00 -0.14660420315E+04  0.14660420315E+04  0.25500000920E-02 0. -1.
    10030    2    1    2    0    0  0.00000000000E+00  0.00000000000E+00 -0.12123427425E+04  0.17197413206E+04  0.12197275452E+04 0.  0.
        5    1    3    3  502    0 -0.79339452589E+02  0.12699346788E+03 -0.14396941038E+04  0.14474678898E+04  0.46999998093E+01 0. -1.
       -5    1    3    3    0  502  0.79339452589E+02 -0.12699346788E+03  0.22735136128E+03  0.27227343076E+03  0.46999998093E+01 0.  1.
</event>
<event>
 5   0  0.2938349E-03  0.1171531E+04  0.7818609E-02  0.9138147E-01
       -1   -1    0    0    0  501  0.00000000000E+00  0.00000000000E+00  0.21661938933E+03  0.21661938938E+03  0.50400001928E-02 0.  1.
        1   -1    0    0  501    0  0.00000000000E+00  0.00000000000E+00 -0.15839817357E+04  0.15839817357E+04  0.50400001928E-02 0. -1.
    10030    2    1    2    0    0  0.00000000000E+00  0.00000000000E+00 -0.13673623464E+04  0.18006011251E+04  0.11715308897E+04 0.  0.
        4    1    3    3  502    0  0.39411415818E+03 -0.34767218640E+03 -0.28609247460E+03  0.59837482885E+03  0.12699999809E+01 0. -1.
       -4    1    3    3    0  502 -0.39411415818E+03  0.34767218640E+03 -0.10812698718E+04  0.12022262963E+04  0.12699999809E+01 0.  1.
</event>
<event>
 5   0  0.2926844E-03  0.1190785E+04  0.7818609E-02  0.9120960E-01
       -1   -1    0    0    0  501  0.00000000000E+00  0.00000000000E+00  0.42029886167E+03  0.42029886170E+03  0.50400001928E-02 0.  1.
        1   -1    0    0  501    0  0.00000000000E+00  0.00000000000E+00 -0.84342963430E+03  0.84342963432E+03  0.50400001928E-02 0. -1.
    10030    2    1    2    0    0  0.00000000000E+00  0.00000000000E+00 -0.42313077264E+03  0.12637284960E+04  0.11907854806E+04 0.  0.
        5    1    3    3  502    0  0.19138119846E+03 -0.12524161123E+01  0.38674419033E+03  0.43153388097E+03  0.46999998093E+01 0.  1.
       -5    1    3    3    0  502 -0.19138119846E+03  0.12524161123E+01 -0.80987496297E+03  0.83219461505E+03  0.46999998093E+01 0. -1.
</event>
<event>
 5   0  0.5189537E-03  0.1205302E+04  0.7818609E-02  0.9108228E-01
       -2   -1    0    0    0  501  0.00000000000E+00  0.00000000000E+00  0.39775988904E+03  0.39775988905E+03  0.25500000920E-02 0. -1.
        2   -1    0    0  501    0  0.00000000000E+00  0.00000000000E+00 -0.91308429689E+03  0.91308429690E+03  0.25500000920E-02 0.  1.
    10030    2    1    2    0    0  0.00000000000E+00  0.00000000000E+00 -0.51532440785E+03  0.13108441859E+04  0.12053021341E+04 0.  0.
        4    1    3    3  502    0  0.21568235454E+03  0.68854164682E+02  0.34974729076E+03  0.41663479733E+03  0.12699999809E+01 0. -1.
       -4    1    3    3    0  502 -0.21568235454E+03 -0.68854164682E+02 -0.86507169861E+03  0.89420938861E+03  0.12699999809E+01 0.  1.
</event>
<event>
 5   0  0.2938349E-03  0.1203372E+04  0.7818609E-02  0.9109910E-01
       -1   -1    0    0    0  501  0.00000000000E+00  0.00000000000E+00  0.73663442709E+03  0.73663442710E+03  0.50400001928E-02 0.  1.
        1   -1    0    0  501    0  0.00000000000E+00  0.00000000000E+00 -0.49145979929E+03  0.49145979931E+03  0.50400001928E-02 0. -1.
    10030    2    1    2    0    0  0.00000000000E+00  0.00000000000E+00  0.24517462780E+03  0.12280942264E+04  0.12033722744E+04 0.  0.
        4    1    3    3  502    0 -0.26588296146E+03 -0.49565878040E+03  0.34064298752E+03  0.65757937439E+03  0.12699999809E+01 0.  1.
       -4    1    3    3    0  502  0.26588296146E+03  0.49565878040E+03 -0.95468359720E+02  0.57051485203E+03  0.12699999809E+01 0. -1.
</event>
<event>
 5   0  0.2875848E-03  0.1168881E+04  0.7818609E-02  0.9140540E-01
       -1   -1    0    0    0  501  0.00000000000E+00  0.00000000000E+00  0.46102949352E+03  0.46102949355E+03  0.50400001928E-02 0.  1.
        1   -1    0    0  501    0  0.00000000000E+00  0.00000000000E+00 -0.74088687203E+03  0.74088687205E+03  0.50400001928E-02 0. -1.
    10030    2    1    2    0    0  0.00000000000E+00  0.00000000000E+00 -0.27985737851E+03  0.12019163656E+04  0.11688810023E+04 0.  0.
        1    1    3    3  502    0 -0.31733430573E+03  0.43617232505E+03  0.91426555334E+02  0.54708881708E+03  0.50400001928E-02 0.  1.
       -1    1    3    3    0  502  0.31733430573E+03 -0.43617232505E+03 -0.37128393385E+03  0.65482754851E+03  0.50400001928E-02 0. -1.
</event>
<event>
 5   0  0.5467554E-03  0.1205793E+04  0.7818609E-02  0.9107801E-01
       -2   -1    0    0    0  501  0.00000000000E+00  0.00000000000E+00  0.21220021008E+03  0.21220021009E+03  0.25500000920E-02 0. -1.
        2   -1    0    0  501    0  0.00000000000E+00  0.00000000000E+00 -0.17129314174E+04  0.17129314174E+04  0.25500000920E-02 0.  1.
    10030    2    1    2    0    0  0.00000000000E+00  0.00000000000E+00 -0.15007312074E+04  0.19251316275E+04  0.12057933598E+04 0.  0.
        1    1    3    3  502    0  0.73340011047E+02  0.57431517568E+01  0.20500775332E+03  0.21780707050E+03  0.50400001928E-02 0. -1.
       -1    1    3    3    0  502 -0.73340011047E+02 -0.57431517568E+01 -0.17057389607E+04  0.17073245570E+04  0.50400001928E-02 0.  1.
</event>
<event>
 5   0  0.2926844E-03  0.1174238E+04  0.7818609E-02  0.9135710E-01
       -1   -1    0    0    0  501  0.00000000000E+00  0.00000000000E+00  0.59508910074E+03  0.59508910076E+03  0.50400001928E-02 0.  1.
        1   -1    0    0  501    0  0.00000000000E+00  0.00000000000E+00 -0.57925525933E+03  0.57925525935E+03  0.50400001928E-02 0. -1.
    10030    2    1    2    0    0  0.00000000000E+00  0.00000000000E+00  0.15833841404E+02  0.11743443601E+04  0.11742376104E+04 0.  0.
        5    1    3    3  502    0 -0.22419142153E+03  0.80403404435E+02 -0.52875081600E+03  0.57993621749E+03  0.46999998093E+01 0. -1.
       -5    1    3    3    0  502  0.22419142153E+03 -0.80403404435E+02  0.54458465741E+03  0.59440814262E+03  0.46999998093E+01 0.  1.
</event>
<event>
 5   0  0.5189537E-03  0.1186358E+04  0.7818609E-02  0.9124882E-01
       -2   -1    0    0    0  501  0.00000000000E+00  0.00000000000E+00  0.23128620582E+03  0.23128620583E+03  0.25500000920E-02 0. -1.
        2   -1    0    0  501    0  0.00000000000E+00  0.00000000000E+00 -0.15213233420E+04  0.15213233420E+04  0.25500000920E-02 0.  1.
    10030    2    1    2    0    0  0.00000000000E+00  0.00000000000E+00 -0.12900371362E+04  0.17526095478E+04  0.11863576250E+04 0.  0.
        4    1    3    3  502    0 -0.55027449704E+03 -0.19062661821E+03 -0.81162638197E+03  0.99893920059E+03  0.12699999809E+01 0.  1.
       -4    1    3    3    0  502  0.55027449704E+03  0.19062661821E+03 -0.47841075421E+03  0.75367034724E+03  0.12699999809E+01 0. -1.
</event>
<event>
 5   0  0.5467554E-03  0.1203890E+04  0.7818609E-02  0.9109458E-01
       -2   -1    0    0    0  501  0.00000000000E+00  0.00000000000E+00  0.15297944117E+03  0.15297944119E+03  0.25500000920E-02 0. -1.
        2   -1    0    0  501    0  0.00000000000E+00  0.00000000000E+00 -0.23685393460E+04  0.23685393460E+04  0.25500000920E-02 0.  1.
    10030    2    1    2    0    0  0.00000000000E+00  0.00000000000E+00 -0.22155599049E+04  0.25215187872E+04  0.12038900707E+04 0.  0.
        1    1    3    3  502    0  0.58417890591E+03 -0.39850348045E+02 -0.81541645910E+03  0.10038710306E+04  0.50400001928E-02 0. -1.
       -1    1    3    3    0  502 -0.58417890591E+03  0.39850348045E+02 -0.14001434458E+04  0.15176477566E+04  0.50400001928E-02 0.  1.
</event>
<event>
 5   0  0.5108045E-03  0.1189320E+04  0.7818609E-02  0.9122257E-01
       -2   -1    0    0    0  501  0.00000000000E+00  0.00000000000E+00  0.69098529025E+03  0.69098529025E+03  0.25500000920E-02 0. -1.
        2   -1    0    0  501    0  0.00000000000E+00  0.00000000000E+00 -0.51176248086E+03  0.51176248087E+03  0.25500000920E-02 0.  1.
    10030    2    1    2    0    0  0.00000000000E+00  0.00000000000E+00  0.17922280938E+03  0.12027477711E+04  0.11893197154E+04 0.  0.
        3    1    3    3  502    0  0.58922292046E+03  0.23945779893E+02  0.12174769272E+02  0.58983496470E+03  0.10100000352E+00 0.  1.
       -3    1    3    3    0  502 -0.58922292046E+03 -0.23945779893E+02  0.16704804011E+03  0.61291280642E+03  0.10100000352E+00 0. -1.
</event>
<event>
 5   0  0.5003526E-03  0.1211413E+04  0.7818609E-02  0.9102925E-01
       -2   -1    0    0    0  501  0.00000000000E+00  0.00000000000E+00  0.49460115444E+03  0.49460115444E+03  0.25500000920E-02 0.  1.
        2   -1    0    0  501    0  0.00000000000E+00  0.00000000000E+00 -0.74177005788E+03  0.74177005788E+03  0.25500000920E-02 0. -1.
    10030    2    1    2    0    0  0.00000000000E+00  0.00000000000E+00 -0.24716890344E+03  0.12363712123E+04  0.12114129386E+04 0.  0.
        2    1    3    3  502    0  0.41334460492E+03 -0.27671829102E+02  0.32740278059E+03  0.52802658389E+03  0.25500000920E-02 0.  1.
       -2    1    3    3    0  502 -0.41334460492E+03  0.27671829102E+02 -0.57457168403E+03  0.70834462844E+03  0.25500000920E-02 0. -1.
</event>
<event>
 5   0  0.5467554E-03  0.1050096E+04  0.7818609E-02  0.9255245E-01
       -2   -1    0    0    0  501  0.00000000000E+00  0.00000000000E+00  0.88873367863E+03  0.88873367863E+03  0.25500000920E-02 0.  1.
        2   -1    0    0  501    0  0.00000000000E+00  0.00000000000E+00 -0.31018872713E+03  0.31018872714E+03  0.25500000920E-02 0. -1.
    10030    2    1    2    0    0  0.00000000000E+00  0.00000000000E+00  0.57854495150E+03  0.11989224058E+04  0.10500955548E+04 0.  0.
        1    1    3    3  502    0 -0.48499746113E+03 -0.16036333348E+02  0.60369838123E+02  0.48900329106E+03  0.50400001928E-02 0. -1.
       -1    1    3    3    0  502  0.48499746113E+03  0.16036333348E+02  0.51817511338E+03  0.70991911471E+03  0.50400001928E-02 0.  1.
</event>
<event>
 5   0  0.5031575E-03  0.1158076E+04  0.7818609E-02  0.9150365E-01
        2   -1    0    0  501    0  0.00000000000E+00  0.00000000000E+00  0.43945307406E+03  0.43945307407E+03  0.25500000920E-02 0. -1.
       -2   -1    0    0    0  501  0.00000000000E+00  0.00000000000E+00 -0.76296014348E+03  0.76296014349E+03  0.25500000920E-02 0.  1.
    10030    2    1    2    0    0  0.00000000000E+00  0.00000000000E+00 -0.32350706942E+03  0.12024132176E+04  0.11580763022E+04 0.  0.
        5    1    3    3  502    0  0.40175277783E+03  0.27907580123E+03  0.15990455651E+03  0.51466508967E+03  0.46999998093E+01 0. -1.
       -5    1    3    3    0  502 -0.40175277783E+03 -0.27907580123E+03 -0.48341162593E+03  0.68774812789E+03  0.46999998093E+01 0.  1.
</event>
<event>
 5   0  0.5003526E-03  0.1270730E+04  0.7818609E-02  0.9053104E-01
        2   -1    0    0  501    0  0.00000000000E+00  0.00000000000E+00  0.97600289965E+03  0.97600289965E+03  0.25500000920E-02 0.  1.
       -2   -1    0    0    0  501  0.00000000000E+00  0.00000000000E+00 -0.41361410471E+03  0.41361410471E+03  0.25500000920E-02 0. -1.
    10030    2    1    2    0    0  0.00000000000E+00  0.00000000000E+00  0.56238879494E+03  0.13896170044E+04  0.12707298148E+04 0.  0.
        2    1    3    3  502    0  0.22019551102E+03 -0.51922458556E+03 -0.38768719011E+02  0.56531694376E+03  0.25500000920E-02 0. -1.
       -2    1    3    3    0  502 -0.22019551102E+03  0.51922458556E+03  0.60115751395E+03  0.82430006060E+03  0.25500000920E-02 0.  1.
</event>
<event>
 5   0  0.2930868E-03  0.1180265E+04  0.7818609E-02  0.9130308E-01
        1   -1    0    0  501    0  0.00000000000E+00  0.00000000000E+00  0.11765897321E+04  0.11765897321E+04  0.50400001928E-02 0.  1.
       -1   -1    0    0    0  501  0.00000000000E+00  0.00000000000E+00 -0.29598802523E+03  0.29598802527E+03  0.50400001928E-02 0. -1.
    10030    2    1    2    0    0  0.00000000000E+00  0.00000000000E+00  0.88060170685E+03  0.14725777574E+04  0.11802651759E+04 0.  0.
        3    1    3    3  502    0  0.10657117885E+03 -0.39862652323E+03 -0.86084372237E+02  0.42151043940E+03  0.10100000352E+00 0. -1.
       -3    1    3    3    0  502 -0.10657117885E+03  0.39862652323E+03  0.96668607909E+03  0.10510673180E+04  0.10100000352E+00 0.  1.
</event>
<event>
 5   0  0.2875848E-03  0.1193564E+04  0.7818609E-02  0.9118508E-01
        1   -1    0    0  501    0  0.00000000000E+00  0.00000000000E+00  0.11567152408E+04  0.11567152408E+04  0.50400001928E-02 0. -1.
       -1   -1    0    0    0  501  0.00000000000E+00  0.00000000000E+00 -0.30789676974E+03  0.30789676978E+03  0.50400001928E-02 0.  1.
    10030    2    1    2    0    0  0.00000000000E+00  0.00000000000E+00  0.84881847107E+03  0.14646120106E+04  0.11935642190E+04 0.  0.
        1    1    3    3  502    0  0.10280553660E+03  0.36874368638E+03  0.98620793441E+03  0.10578974310E+04  0.50400001928E-02 0. -1.
       -1    1    3    3    0  502 -0.10280553660E+03 -0.36874368638E+03 -0.13738946334E+03  0.40671457961E+03  0.50400001928E-02 0.  1.
</event>
<event>
 5   0  0.5003526E-03  0.1224335E+04  0.7818609E-02  0.9091819E-01
       -2   -1    0    0    0  501  0.00000000000E+00  0.00000000000E+00  0.27368638193E+03  0.27368638194E+03  0.25500000920E-02 0. -1.
        2   -1    0    0  501    0  0.00000000000E+00  0.00000000000E+00 -0.13692645120E+04  0.13692645120E+04  0.25500000920E-02 0.  1.
    10030    2    1    2    0    0  0.00000000000E+00  0.00000000000E+00 -0.10955781301E+04  0.16429508940E+04  0.12243350035E+04 0.  0.
        2    1    3    3  502    0  0.25775066316E+03  0.55075840968E+03 -0.64247544876E+03  0.88461569761E+03  0.25500000920E-02 0.  1.
       -2    1    3    3    0  502 -0.25775066316E+03 -0.55075840968E+03 -0.45310268134E+03  0.75833519636E+03  0.25500000920E-02 0. -1.
</event>
<event>
 5   0  0.5031575E-03  0.1208898E+04  0.7818609E-02  0.9105104E-01
        2   -1    0    0  501    0  0.00000000000E+00  0.00000000000E+00  0.18928640946E+04  0.18928640946E+04  0.25500000920E-02 0.  1.
       -2   -1    0    0    0  501  0.00000000000E+00  0.00000000000E+00 -0.19301892043E+03  0.19301892045E+03  0.25500000920E-02 0. -1.
    10030    2    1    2    0    0  0.00000000000E+00  0.00000000000E+00  0.16998451742E+04  0.20858830151E+04  0.12088979842E+04 0.  0.
        5    1    3    3  502    0 -0.56658613012E+03  0.24652739544E+02  0.48919014545E+03  0.74897041919E+03  0.46999998093E+01 0. -1.
       -5    1    3    3    0  502  0.56658613012E+03 -0.24652739544E+02  0.12106550287E+04  0.13369125959E+04  0.46999998093E+01 0.  1.
</event>
<event>
 5   0  0.5031575E-03  0.1411042E+04  0.7818609E-02  0.8945864E-01
       -2   -1    0    0    0  501  0.00000000000E+00  0.00000000000E+00  0.21413935702E+03  0.21413935703E+03  0.25500000920E-02 0. -1.
        2   -1    0    0  501    0  0.00000000000E+00  0.00000000000E+00 -0.23244670034E+04  0.23244670034E+04  0.25500000920E-02 0.  1.
    10030    2    1    2    0    0  0.00000000000E+00  0.00000000000E+00 -0.21103276463E+04  0.25386063604E+04  0.14110419831E+04 0.  0.
        5    1    3    3  502    0  0.34387255694E+03  0.44847804535E+01 -0.21634292082E+04  0.21905972879E+04  0.46999998093E+01 0.  1.
       -5    1    3    3    0  502 -0.34387255694E+03 -0.44847804535E+01  0.53101561888E+02  0.34800907251E+03  0.46999998093E+01 0. -1.
</event>
<event>
 5   0  0.2938349E-03  0.1153416E+04  0.7818609E-02  0.9154638E-01
        1   -1    0    0  501    0  0.00000000000E+00  0.00000000000E+00  0.58779065419E+03  0.58779065421E+03  0.50400001928E-02 0.  1.
       -1   -1    0    0    0  501  0.00000000000E+00  0.00000000000E+00 -0.56583423333E+03  0.56583423335E+03  0.50400001928E-02 0. -1.
    10030    2    1    2    0    0  0.00000000000E+00  0.00000000000E+00  0.21956420865E+02  0.11536248876E+04  0.11534159253E+04 0.  0.
        4    1    3    3  502    0 -0.83985021668E+02  0.20425768195E+03 -0.52186193715E+03  0.56667113818E+03  0.12699999809E+01 0. -1.
       -4    1    3    3    0  502  0.83985021668E+02 -0.20425768195E+03  0.54381835802E+03  0.58695374938E+03  0.12699999809E+01 0.  1.
</event>
<event>
 5   0  0.2926844E-03  0.1199729E+04  0.7818609E-02  0.9113094E-01
       -1   -1    0    0    0  501  0.00000000000E+00  0.00000000000E+00  0.35645947649E+03  0.35645947652E+03  0.50400001928E-02 0.  1.
        1   -1    0    0  501    0  0.00000000000E+00  0.00000000000E+00 -0.10094758086E+04  0.10094758086E+04  0.50400001928E-02 0. -1.
    10030    2    1    2    0    0  0.00000000000E+00  0.00000000000E+00 -0.65301633207E+03  0.13659352851E+04  0.11997286665E+04 0.  0.
        5    1    3    3  502    0  0.25502316235E+03  0.40738625727E+03 -0.73513782887E+03  0.87832231748E+03  0.46999998093E+01 0. -1.
       -5    1    3    3    0  502 -0.25502316235E+03 -0.40738625727E+03  0.82121496805E+02  0.48761296761E+03  0.46999998093E+01 0.  1.
</event>
<event>
 5   0  0.5467554E-03  0.1209564E+04  0.7818609E-02  0.9104526E-01
        2   -1    0    0  501    0  0.00000000000E+00  0.00000000000E+00  0.59309966517E+03  0.59309966518E+03  0.25500000920E-02 0.  1.
       -2   -1    0    0    0  501  0.00000000000E+00  0.00000000000E+00 -0.61669410069E+03  0.61669410069E+03  0.25500000920E-02 0. -1.
    10030    2    1    2    0    0  0.00000000000E+00  0.00000000000E+00 -0.23594435511E+02  0.12097937659E+04  0.12095636645E+04 0.  0.
        1    1    3    3  502    0  0.20674169427E+02  0.24481755215E+03 -0.56453062124E+03  0.61567676378E+03  0.50400001928E-02 0. -1.
       -1    1    3    3    0  502 -0.20674169427E+02 -0.24481755215E+03  0.54093618572E+03  0.59411700209E+03  0.50400001928E-02 0.  1.
</event>
<event>
 5   0  0.5189537E-03  0.1194715E+04  0.7818609E-02  0.9117495E-01
        2   -1    0    0  501    0  0.00000000000E+00  0.00000000000E+00  0.51335013499E+03  0.51335013500E+03  0.25500000920E-02 0.  1.
       -2   -1    0    0    0  501  0.00000000000E+00  0.00000000000E+00 -0.69511221619E+03  0.69511221620E+03  0.25500000920E-02 0. -1.
    10030    2    1    2    0    0  0.00000000000E+00  0.00000000000E+00 -0.18176208120E+03  0.12084623512E+04  0.11947149451E+04 0.  0.
        4    1    3    3  502    0  0.22747779276E+03  0.53286849064E+03 -0.23794788455E+03  0.62635116602E+03  0.12699999809E+01 0. -1.
       -4    1    3    3    0  502 -0.22747779276E+03 -0.53286849064E+03  0.56185803342E+02  0.58211118518E+03  0.12699999809E+01 0.  1.
</event>
<event>
 5   0  0.5003526E-03  0.1173415E+04  0.7818609E-02  0.9136450E-01
       -2   -1    0    0    0  501  0.00000000000E+00  0.00000000000E+00  0.39063215732E+03  0.39063215733E+03  0.25500000920E-02 0.  1.
        2   -1    0    0  501    0  0.00000000000E+00  0.00000000000E+00 -0.88120221450E+03  0.88120221450E+03  0.25500000920E-02 0. -1.
    10030    2    1    2    0    0  0.00000000000E+00  0.00000000000E+00 -0.49057005718E+03  0.12718343718E+04  0.11734153946E+04 0.  0.
        2    1    3    3  502    0 -0.26274755731E+03 -0.52270814029E+03 -0.19722840845E+03  0.61738085807E+03  0.25500000920E-02 0. -1.
       -2    1    3    3    0  502  0.26274755731E+03  0.52270814029E+03 -0.29334164873E+03  0.65445351377E+03  0.25500000920E-02 0.  1.
</event>
<event>
 5   0  0.5003526E-03  0.1207766E+04  0.7818609E-02  0.9106086E-01
       -2   -1    0    0    0  501  0.00000000000E+00  0.00000000000E+00  0.18631868431E+03  0.18631868433E+03  0.25500000920E-02 0.  1.
        2   -1    0    0  501    0  0.00000000000E+00  0.00000000000E+00 -0.19572616925E+04  0.19572616925E+04  0.25500000920E-02 0. -1.
    10030    2    1    2    0    0  0.00000000000E+00  0.00000000000E+00 -0.17709430082E+04  0.21435803769E+04  0.12077655789E+04 0.  0.
        2    1    3    3  502    0 -0.50339098390E+03  0.33254246941E+03 -0.93200617694E+03  0.11102353311E+04  0.25500000920E-02 0.  1.
       -2    1    3    3    0  502  0.50339098390E+03 -0.33254246941E+03 -0.83893683129E+03  0.10333450457E+04  0.25500000920E-02 0. -1.
</event>
<event>
 5   0  0.2792518E-03  0.1110989E+04  0.7818609E-02  0.9194547E-01
        1   -1    0    0  501    0  0.00000000000E+00  0.00000000000E+00  0.13708816483E+04  0.13708816483E+04  0.50400001928E-02 0.  1.
       -1   -1    0    0    0  501  0.00000000000E+00  0.00000000000E+00 -0.22509186541E+03  0.22509186546E+03  0.50400001928E-02 0. -1.
    10030    2    1    2    0    0  0.00000000000E+00  0.00000000000E+00  0.11457897829E+04  0.15959735138E+04  0.11109893024E+04 0.  0.
        2    1    3    3  502    0  0.38518889392E+03 -0.38120734898E+03  0.74815659193E+03  0.92381156789E+03  0.25500000920E-02 0. -1.
       -2    1    3    3    0  502 -0.38518889392E+03  0.38120734898E+03  0.39763319094E+03  0.67216194586E+03  0.25500000920E-02 0.  1.
</event>
<event>
 5   0  0.2930868E-03  0.1332083E+04  0.7818609E-02  0.9004503E-01
        1   -1    0    0  501    0  0.00000000000E+00  0.00000000000E+00  0.78517301604E+03  0.78517301606E+03  0.50400001928E-02 0.  1.
       -1   -1    0    0    0  501  0.00000000000E+00  0.00000000000E+00 -0.56498508054E+03  0.56498508057E+03  0.50400001928E-02 0. -1.
    10030    2    1    2    0    0  0.00000000000E+00  0.00000000000E+00  0.22018793550E+03  0.13501580966E+04  0.13320826397E+04 0.  0.
        3    1    3    3  502    0 -0.29084924355E+03  0.10385759337E+02  0.71731410468E+03  0.77410637606E+03  0.10100000352E+00 0.  1.
       -3    1    3    3    0  502  0.29084924355E+03 -0.10385759337E+02 -0.49712616919E+03  0.57605172056E+03  0.10100000352E+00 0. -1.
</event>
<event>
 5   0  0.5031575E-03  0.1141978E+04  0.7818609E-02  0.9165216E-01
        2   -1    0    0  501    0  0.00000000000E+00  0.00000000000E+00  0.62316070121E+03  0.62316070122E+03  0.25500000920E-02 0.  1.
       -2   -1    0    0    0  501  0.00000000000E+00  0.00000000000E+00 -0.52318493275E+03  0.52318493276E+03  0.25500000920E-02 0. -1.
    10030    2    1    2    0    0  0.00000000000E+00  0.00000000000E+00  0.99975768460E+02  0.11463456340E+04  0.11419777398E+04 0.  0.
        5    1    3    3  502    0  0.80875625776E+01  0.25547114437E+03 -0.46252863925E+03  0.52847492504E+03  0.46999998093E+01 0. -1.
       -5    1    3    3    0  502 -0.80875625776E+01 -0.25547114437E+03  0.56250440771E+03  0.61787070894E+03  0.46999998093E+01 0.  1.
</event>
<event>
 5   0  0.5467554E-03  0.1207643E+04  0.7818609E-02  0.9106193E-01
       -2   -1    0    0    0  501  0.00000000000E+00  0.00000000000E+00  0.30512483426E+03  0.30512483427E+03  0.25500000920E-02 0. -1.
        2   -1    0    0  501    0  0.00000000000E+00  0.00000000000E+00 -0.11949218358E+04  0.11949218358E+04  0.25500000920E-02 0.  1.
    10030    2    1    2    0    0  0.00000000000E+00  0.00000000000E+00 -0.88979700153E+03  0.15000466701E+04  0.12076428729E+04 0.  0.
        1    1    3    3  502    0  0.72244248511E+02  0.59205229974E+03 -0.32801190759E+03  0.68068859886E+03  0.50400001928E-02 0.  1.
       -1    1    3    3    0  502 -0.72244248511E+02 -0.59205229974E+03 -0.56178509394E+03  0.81935807121E+03  0.50400001928E-02 0. -1.
</event>
<event>
 5   0  0.2938349E-03  0.1188451E+04  0.7818609E-02  0.9123026E-01
       -1   -1    0    0    0  501  0.00000000000E+00  0.00000000000E+00  0.44210036676E+03  0.44210036679E+03  0.50400001928E-02 0. -1.
        1   -1    0    0  501    0  0.00000000000E+00  0.00000000000E+00 -0.79869627821E+03  0.79869627823E+03  0.50400001928E-02 0.  1.
    10030    2    1    2    0    0  0.00000000000E+00  0.00000000000E+00 -0.35659591145E+03  0.12407966450E+04  0.11884509541E+04 0.  0.
        4    1    3    3  502    0 -0.41494747879E+03 -0.14890773895E+03  0.23768221590E+03  0.50084865332E+03  0.12699999809E+01 0. -1.
       -4    1    3    3    0  502  0.41494747879E+03  0.14890773895E+03 -0.59427812735E+03  0.73994799170E+03  0.12699999809E+01 0.  1.
</event>
<event>
 5   0  0.2930868E-03  0.1200960E+04  0.7818609E-02  0.9112017E-01
        1   -1    0    0  501    0  0.00000000000E+00  0.00000000000E+00  0.27556617359E+03  0.27556617363E+03  0.50400001928E-02 0.  1.
       -1   -1    0    0    0  501  0.00000000000E+00  0.00000000000E+00 -0.13084918030E+04  0.13084918030E+04  0.50400001928E-02 0. -1.
    10030    2    1    2    0    0  0.00000000000E+00  0.00000000000E+00 -0.10329256294E+04  0.15840579767E+04  0.12009597485E+04 0.  0.
        3    1    3    3  502    0 -0.46025786855E+03 -0.10769093674E+03 -0.28005124953E+02  0.47351762443E+03  0.10100000352E+00 0.  1.
       -3    1    3    3    0  502  0.46025786855E+03  0.10769093674E+03 -0.10049205045E+04  0.11105403522E+04  0.10100000352E+00 0. -1.
</event>
<event>
 5   0  0.5031575E-03  0.1197676E+04  0.7818609E-02  0.9114894E-01
        2   -1    0    0  501    0  0.00000000000E+00  0.00000000000E+00  0.10252391588E+04  0.10252391588E+04  0.25500000920E-02 0. -1.
       -2   -1    0    0    0  501  0.00000000000E+00  0.00000000000E+00 -0.34977857705E+03  0.34977857706E+03  0.25500000920E-02 0.  1.
    10030    2    1    2    0    0  0.00000000000E+00  0.00000000000E+00  0.67546058174E+03  0.13750177359E+04  0.11976755723E+04 0.  0.
        5    1    3    3  502    0 -0.13520859091E+03  0.13542572778E+03 -0.31370632749E+03  0.36749862681E+03  0.46999998093E+01 0.  1.
       -5    1    3    3    0  502  0.13520859091E+03 -0.13542572778E+03  0.98916690923E+03  0.10075191091E+04  0.46999998093E+01 0. -1.
</event>
<event>
 5   0  0.1922125E-03  0.1188096E+04  0.7818609E-02  0.9123340E-01
       -4   -1    0    0    0  501  0.00000000000E+00  0.00000000000E+00  0.43279708647E+03  0.43279894981E+03  0.12699999809E+01 0. -1.
        4   -1    0    0  501    0  0.00000000000E+00  0.00000000000E+00 -0.81537395055E+03  0.81537493960E+03  0.12699999809E+01 0.  1.
    10030    2    1    2    0    0  0.00000000000E+00  0.00000000000E+00 -0.38257686408E+03  0.12481738894E+04  0.11880963771E+04 0.  0.
        1    1    3    3  502    0 -0.17068778521E+03 -0.30549005976E+03  0.31302137213E+03  0.46951131623E+03  0.50400001928E-02 0. -1.
       -1    1    3    3    0  502  0.17068778521E+03  0.30549005976E+03 -0.69559823621E+03  0.77866257318E+03  0.50400001928E-02 0.  1.
</event>
<event>
 5   0  0.5003526E-03  0.1245668E+04  0.7818609E-02  0.9073796E-01
       -2   -1    0    0    0  501  0.00000000000E+00  0.00000000000E+00  0.24897667192E+03  0.24897667193E+03  0.25500000920E-02 0. -1.
        2   -1    0    0  501    0  0.00000000000E+00  0.00000000000E+00 -0.15580664956E+04  0.15580664956E+04  0.25500000920E-02 0.  1.
    10030    2    1    2    0    0  0.00000000000E+00  0.00000000000E+00 -0.13090898237E+04  0.18070431676E+04  0.12456680308E+04 0.  0.
        2    1    3    3  502    0 -0.56394000778E+03 -0.26129511492E+02 -0.10361851596E+04  0.11799960884E+04  0.25500000920E-02 0.  1.
       -2    1    3    3    0  502  0.56394000778E+03  0.26129511492E+02 -0.27290466412E+03  0.62704707914E+03  0.25500000920E-02 0. -1.
</event>
<event>
 5   0  0.5189537E-03  0.1202054E+04  0.7818609E-02  0.9111061E-01
        2   -1    0    0  501    0  0.00000000000E+00  0.00000000000E+00  0.13144714211E+04  0.13144714211E+04  0.25500000920E-02 0.  1.
       -2   -1    0    0    0  501  0.00000000000E+00  0.00000000000E+00 -0.27481249699E+03  0.27481249700E+03  0.25500000920E-02 0. -1.
    10030    2    1    2    0    0  0.00000000000E+00  0.00000000000E+00  0.10396589241E+04  0.15892839181E+04  0.12020535320E+04 0.  0.
        4    1    3    3  502    0 -0.45025622238E+03 -0.85438808330E+02  0.57205147761E+01  0.45832825895E+03  0.12699999809E+01 0. -1.
       -4    1    3    3    0  502  0.45025622238E+03  0.85438808330E+02  0.10339384093E+04  0.11309556591E+04  0.12699999809E+01 0.  1.
</event>
<event>
 5   0  0.2875848E-03  0.1202851E+04  0.7818609E-02  0.9110364E-01
       -1   -1    0    0    0  501  0.00000000000E+00  0.00000000000E+00  0.73613500647E+03  0.73613500649E+03  0.50400001928E-02 0.  1.
        1   -1    0    0  501    0  0.00000000000E+00  0.00000000000E+00 -0.49136754691E+03  0.49136754693E+03  0.50400001928E-02 0. -1.
    10030    2    1    2    0    0  0.00000000000E+00  0.00000000000E+00  0.24476745956E+03  0.12275025534E+04  0.12028513663E+04 0.  0.
        1    1    3    3  502    0 -0.45653823333E+03  0.78277002524E+02  0.51385777534E+03  0.69181230180E+03  0.50400001928E-02 0.  1.
       -1    1    3    3    0  502  0.45653823333E+03 -0.78277002524E+02 -0.26909031577E+03  0.53569025163E+03  0.50400001928E-02 0. -1.
</event>
<event>
 5   0  0.2875848E-03  0.1195582E+04  0.7818609E-02  0.9116733E-01
       -1   -1    0    0    0  501  0.00000000000E+00  0.00000000000E+00  0.40321687699E+03  0.40321687702E+03  0.50400001928E-02 0.  1.
        1   -1    0    0  501    0  0.00000000000E+00  0.00000000000E+00 -0.88625746522E+03  0.88625746524E+03  0.50400001928E-02 0. -1.
    10030    2    1    2    0    0  0.00000000000E+00  0.00000000000E+00 -0.48304058823E+03  0.12894743423E+04  0.11955818121E+04 0.  0.
        1    1    3    3  502    0  0.53327401469E+03 -0.27010092017E+03 -0.23690831750E+03  0.64300951217E+03  0.50400001928E-02 0.  1.
       -1    1    3    3    0  502 -0.53327401469E+03  0.27010092017E+03 -0.24613227073E+03  0.64646483009E+03  0.50400001928E-02 0. -1.
</event>
<event>
 5   0  0.2926844E-03  0.1338489E+04  0.7818609E-02  0.8999588E-01
       -1   -1    0    0    0  501  0.00000000000E+00  0.00000000000E+00  0.65715788956E+03  0.65715788958E+03  0.50400001928E-02 0. -1.
        1   -1    0    0  501    0  0.00000000000E+00  0.00000000000E+00 -0.68155306978E+03  0.68155306980E+03  0.50400001928E-02 0.  1.
    10030    2    1    2    0    0  0.00000000000E+00  0.00000000000E+00 -0.24395180221E+02  0.13387109594E+04  0.13384886656E+04 0.  0.
        5    1    3    3  502    0 -0.15564229830E+03  0.32020019045E+03 -0.57896021119E+03  0.67968353160E+03  0.46999998093E+01 0.  1.
       -5    1    3    3    0  502  0.15564229830E+03 -0.32020019045E+03  0.55456503097E+03  0.65902742777E+03  0.46999998093E+01 0. -1.
</event>
<event>
 5   0  0.5467554E-03  0.1217800E+04  0.7818609E-02  0.9097418E-01
       -2   -1    0    0    0  501  0.00000000000E+00  0.00000000000E+00  0.48456343401E+03  0.48456343402E+03  0.25500000920E-02 0.  1.
        2   -1    0    0  501    0  0.00000000000E+00  0.00000000000E+00 -0.76514009890E+03  0.76514009890E+03  0.25500000920E-02 0. -1.
    10030    2    1    2    0    0  0.00000000000E+00  0.00000000000E+00 -0.28057666489E+03  0.12497035329E+04  0.12177995136E+04 0.  0.
        1    1    3    3  502    0 -0.17187134157E+03 -0.42832199893E+03  0.26730667253E+03  0.53334074476E+03  0.50400001928E-02 0.  1.
       -1    1    3    3    0  502  0.17187134157E+03  0.42832199893E+03 -0.54788333742E+03  0.71636278816E+03  0.50400001928E-02 0. -1.
</event>
<event>
 5   0  0.1922125E-03  0.1209011E+04  0.7818609E-02  0.9105006E-01
        3   -1    0    0  501    0  0.00000000000E+00  0.00000000000E+00  0.25193284195E+03  0.25193286219E+03  0.10100000352E+00 0. -1.
       -3   -1    0    0    0  501  0.00000000000E+00  0.00000000000E+00 -0.14504927702E+04  0.14504927738E+04  0.10100000352E+00 0.  1.
    10030    2    1    2    0    0  0.00000000000E+00  0.00000000000E+00 -0.11985599283E+04  0.17024256360E+04  0.12090108123E+04 0.  0.
        5    1    3    3  502    0  0.48067545456E+02  0.78016972433E+02  0.24206998259E+03  0.25887661807E+03  0.46999998093E+01 0. -1.
       -5    1    3    3    0  502 -0.48067545456E+02 -0.78016972433E+02 -0.14406299109E+04  0.14435490179E+04  0.46999998093E+01 0.  1.
</event>
<event>
 5   0  0.5189537E-03  0.1214519E+04  0.7818609E-02  0.9100242E-01
        2   -1    0    0  501    0  0.00000000000E+00  0.00000000000E+00  0.12450123539E+04  0.12450123539E+04  0.25500000920E-02 0.  1.
       -2   -1    0    0    0  501  0.00000000000E+00  0.00000000000E+00 -0.29619334947E+03  0.29619334948E+03  0.25500000920E-02 0. -1.
    10030    2    1    2    0    0  0.00000000000E+00  0.00000000000E+00  0.94881900440E+03  0.15412057033E+04  0.12145194593E+04 0.  0.
        4    1    3    3  502    0  0.35691882960E+03 -0.11147761068E+02  0.10976956704E+04  0.11543191592E+04  0.12699999809E+01 0.  1.
       -4    1    3    3    0  502 -0.35691882960E+03  0.11147761068E+02 -0.14887666599E+03  0.38688654419E+03  0.12699999809E+01 0. -1.
</event>
<event>
 5   0  0.2938349E-03  0.1174166E+04  0.7818609E-02  0.9135775E-01
       -1   -1    0    0    0  501  0.00000000000E+00  0.00000000000E+00  0.41628940044E+03  0.41628940047E+03  0.50400001928E-02 0. -1.
        1   -1    0    0  501    0  0.00000000000E+00  0.00000000000E+00 -0.82794879830E+03  0.82794879831E+03  0.50400001928E-02 0.  1.
    10030    2    1    2    0    0  0.00000000000E+00  0.00000000000E+00 -0.41165939786E+03  0.12442381988E+04  0.11741657615E+04 0.  0.
        4    1    3    3  502    0  0.37269158208E+02 -0.26603212058E+03 -0.75900076555E+03  0.80513716492E+03  0.12699999809E+01 0.  1.
       -4    1    3    3    0  502 -0.37269158208E+02  0.26603212058E+03  0.34734136769E+03  0.43910103386E+03  0.12699999809E+01 0. -1.
</event>
<event>
 5   0  0.2926844E-03  0.1157217E+04  0.7818609E-02  0.9151151E-01
       -1   -1    0    0    0  501  0.00000000000E+00  0.00000000000E+00  0.10985063855E+04  0.10985063855E+04  0.50400001928E-02 0.  1.
        1   -1    0    0  501    0  0.00000000000E+00  0.00000000000E+00 -0.30476627566E+03  0.30476627570E+03  0.50400001928E-02 0. -1.
    10030    2    1    2    0    0  0.00000000000E+00  0.00000000000E+00  0.79374010982E+03  0.14032726612E+04  0.11572168335E+04 0.  0.
        5    1    3    3  502    0 -0.28111115302E+03  0.49049716519E+03  0.24759046687E+03  0.61719857315E+03  0.46999998093E+01 0. -1.
       -5    1    3    3    0  502  0.28111115302E+03 -0.49049716519E+03  0.54614964295E+03  0.78607408805E+03  0.46999998093E+01 0.  1.
</event>
<event>
 5   0  0.5467554E-03  0.1203503E+04  0.7818609E-02  0.9109796E-01
       -2   -1    0    0    0  501  0.00000000000E+00  0.00000000000E+00  0.19847993795E+03  0.19847993797E+03  0.25500000920E-02 0. -1.
        2   -1    0    0  501    0  0.00000000000E+00  0.00000000000E+00 -0.18243897338E+04  0.18243897338E+04  0.25500000920E-02 0.  1.
    10030    2    1    2    0    0  0.00000000000E+00  0.00000000000E+00 -0.16259097958E+04  0.20228696718E+04  0.12035028229E+04 0.  0.
        1    1    3    3  502    0 -0.20498517919E+03 -0.31181374891E+03 -0.16064329658E+04  0.16492039326E+04  0.50400001928E-02 0.  1.
       -1    1    3    3    0  502  0.20498517919E+03  0.31181374891E+03 -0.19476830062E+02  0.37366573917E+03  0.50400001928E-02 0. -1.
</event>
<event>
 5   0  0.2930868E-03  0.1018001E+04  0.7818609E-02  0.9289019E-01
        1   -1    0    0  501    0  0.00000000000E+00  0.00000000000E+00  0.96773514573E+03  0.96773514575E+03  0.50400001928E-02 0. -1.
       -1   -1    0    0    0  501  0.00000000000E+00  0.00000000000E+00 -0.26771968075E+03  0.26771968080E+03  0.50400001928E-02 0.  1.
    10030    2    1    2    0    0  0.00000000000E+00  0.00000000000E+00  0.70001546498E+03  0.12354548265E+04  0.10180014623E+04 0.  0.
        3    1    3    3  502    0  0.20538748208E+03 -0.46282730245E+03  0.41293544172E+03  0.65338259765E+03  0.10100000352E+00 0.  1.
       -3    1    3    3    0  502 -0.20538748208E+03  0.46282730245E+03  0.28708002326E+03  0.58207222889E+03  0.10100000352E+00 0. -1.
</event>
<event>
 5   0  0.5003526E-03  0.1199669E+04  0.7818609E-02  0.9113146E-01
       -2   -1    0    0    0  501  0.00000000000E+00  0.00000000000E+00  0.69355034897E+03  0.69355034898E+03  0.25500000920E-02 0.  1.
        2   -1    0    0  501    0  0.00000000000E+00  0.00000000000E+00 -0.51878188431E+03  0.51878188432E+03  0.25500000920E-02 0. -1.
    10030    2    1    2    0    0  0.00000000000E+00  0.00000000000E+00  0.17476846466E+03  0.12123322333E+04  0.11996688825E+04 0.  0.
        2    1    3    3  502    0 -0.53826145381E+03 -0.58700693340E+02 -0.17346874214E+03  0.56856184234E+03  0.25500000920E-02 0. -1.
       -2    1    3    3    0  502  0.53826145381E+03  0.58700693340E+02  0.34823720680E+03  0.64377039095E+03  0.25500000920E-02 0.  1.
</event>
<event>
 5   0  0.5003526E-03  0.1170930E+04  0.7818609E-02  0.9138689E-01
        2   -1    0    0  501    0  0.00000000000E+00  0.00000000000E+00  0.23412561443E+04  0.23412561443E+04  0.25500000920E-02 0.  1.
       -2   -1    0    0    0  501  0.00000000000E+00  0.00000000000E+00 -0.14640412156E+03  0.14640412158E+03  0.25500000920E-02 0. -1.
    10030    2    1    2    0    0  0.00000000000E+00  0.00000000000E+00  0.21948520227E+04  0.24876602658E+04  0.11709304833E+04 0.  0.
        2    1    3    3  502    0  0.38004618582E+03  0.17401075950E+03  0.22649192052E+03  0.47540870611E+03  0.25500000920E-02 0. -1.
       -2    1    3    3    0  502 -0.38004618582E+03 -0.17401075950E+03  0.19683601022E+04  0.20122515597E+04  0.25500000920E-02 0.  1.
</event>
<event>
 5   0  0.5189537E-03  0.1220073E+04  0.7818609E-02  0.9095466E-01
        2   -1    0    0  501    0  0.00000000000E+00  0.00000000000E+00  0.96005936478E+03  0.96005936479E+03  0.25500000920E-02 0. -1.
       -2   -1    0    0    0  501  0.00000000000E+00  0.00000000000E+00 -0.38762673403E+03  0.38762673404E+03  0.25500000920E-02 0.  1.
    10030    2    1    2    0    0  0.00000000000E+00  0.00000000000E+00  0.57243263075E+03  0.13476860988E+04  0.12200732372E+04 0.  0.
        4    1    3    3  502    0  0.53427431905E+03 -0.17235665249E+03  0.22527623676E+02  0.56184069840E+03  0.12699999809E+01 0.  1.
       -4    1    3    3    0  502 -0.53427431905E+03  0.17235665249E+03  0.54990500708E+03  0.78584540042E+03  0.12699999809E+01 0. -1.
</event>
<event>
 5   0  0.5031575E-03  0.1197711E+04  0.7818609E-02  0.9114862E-01
        2   -1    0    0  501    0  0.00000000000E+00  0.00000000000E+00  0.10202439053E+04  0.10202439053E+04  0.25500000920E-02 0.  1.
       -2   -1    0    0    0  501  0.00000000000E+00  0.00000000000E+00 -0.35151209230E+03  0.35151209231E+03  0.25500000920E-02 0. -1.
    10030    2    1    2    0    0  0.00000000000E+00  0.00000000000E+00  0.66873181299E+03  0.13717559976E+04  0.11977112671E+04 0.  0.
        5    1    3    3  502    0  0.23607714969E+03  0.53862228930E+03  0.46373873399E+03  0.74894732428E+03  0.46999998093E+01 0.  1.
       -5    1    3    3    0  502 -0.23607714969E+03 -0.53862228930E+03  0.20499307900E+03  0.62280867333E+03  0.46999998093E+01 0. -1.
</event>
<event>
 5   0  0.5467554E-03  0.1196869E+04  0.7818609E-02  0.9115602E-01
        2   -1    0    0  501    0  0.00000000000E+00  0.00000000000E+00  0.32111332033E+03  0.32111332035E+03  0.25500000920E-02 0. -1.
       -2   -1    0    0    0  501  0.00000000000E+00  0.00000000000E+00 -0.11152566248E+04  0.11152566248E+04  0.25500000920E-02 0.  1.
    10030    2    1    2    0    0  0.00000000000E+00  0.00000000000E+00 -0.79414330442E+03  0.14363699451E+04  0.11968688446E+04 0.  0.
        1    1    3    3  502    0  0.13977109750E+03 -0.31004377078E+03 -0.98800756921E+03  0.10449028933E+04  0.50400001928E-02 0.  1.
       -1    1    3    3    0  502 -0.13977109750E+03  0.31004377078E+03  0.19386426479E+03  0.39146705185E+03  0.50400001928E-02 0. -1.
</event>
<event>
 5   0  0.5031575E-03  0.1162967E+04  0.7818609E-02  0.9145903E-01
        2   -1    0    0  501    0  0.00000000000E+00  0.00000000000E+00  0.96860007218E+03  0.96860007218E+03  0.25500000920E-02 0. -1.
       -2   -1    0    0    0  501  0.00000000000E+00  0.00000000000E+00 -0.34908456859E+03  0.34908456860E+03  0.25500000920E-02 0.  1.
    10030    2    1    2    0    0  0.00000000000E+00  0.00000000000E+00  0.61951550359E+03  0.13176846408E+04  0.11629674773E+04 0.  0.
        5    1    3    3  502    0  0.18324589723E+03 -0.54882603088E+03  0.37496572532E+03  0.68950014951E+03  0.46999998093E+01 0. -1.
       -5    1    3    3    0  502 -0.18324589723E+03  0.54882603088E+03  0.24454977827E+03  0.62818449127E+03  0.46999998093E+01 0.  1.
</event>
<event>
 5   0  0.2938349E-03  0.1195492E+04  0.7818609E-02  0.9116811E-01
       -1   -1    0    0    0  501  0.00000000000E+00  0.00000000000E+00  0.88964293020E+03  0.88964293021E+03  0.50400001928E-02 0.  1.
        1   -1    0    0  501    0  0.00000000000E+00  0.00000000000E+00 -0.40162242470E+03  0.40162242473E+03  0.50400001928E-02 0. -1.
    10030    2    1    2    0    0  0.00000000000E+00  0.00000000000E+00  0.48802050550E+03  0.12912653549E+04  0.11954924521E+04 0.  0.
        4    1    3    3  502    0  0.56149123201E+03 -0.19075995450E+03  0.32510624296E+03  0.67628207574E+03  0.12699999809E+01 0. -1.
       -4    1    3    3    0  502 -0.56149123201E+03  0.19075995450E+03  0.16291426254E+03  0.61498327920E+03  0.12699999809E+01 0.  1.
</event>
<event>
 5   0  0.2926844E-03  0.1227906E+04  0.7818609E-02  0.9088775E-01
        1   -1    0    0  501    0  0.00000000000E+00  0.00000000000E+00  0.83652600178E+03  0.83652600179E+03  0.50400001928E-02 0.  1.
       -1   -1    0    0    0  501  0.00000000000E+00  0.00000000000E+00 -0.45059979989E+03  0.45059979992E+03  0.50400001928E-02 0. -1.
    10030    2    1    2    0    0  0.00000000000E+00  0.00000000000E+00  0.38592620189E+03  0.12871258017E+04  0.12279062652E+04 0.  0.
        5    1    3    3  502    0  0.15771151791E+03  0.37475731249E+03  0.67514845599E+03  0.78813926040E+03  0.46999998093E+01 0.  1.
       -5    1    3    3    0  502 -0.15771151791E+03 -0.37475731249E+03 -0.28922225411E+03  0.49898654132E+03  0.46999998093E+01 0. -1.
</event>
<event>
 5   0  0.5189537E-03  0.1199038E+04  0.7818609E-02  0.9113699E-01
        2   -1    0    0  501    0  0.00000000000E+00  0.00000000000E+00  0.26689960905E+04  0.26689960905E+04  0.25500000920E-02 0. -1.
       -2   -1    0    0    0  501  0.00000000000E+00  0.00000000000E+00 -0.13466603608E+03  0.13466603610E+03  0.25500000920E-02 0.  1.
    10030    2    1    2    0    0  0.00000000000E+00  0.00000000000E+00  0.25343300544E+04  0.28036621266E+04  0.11990381543E+04 0.  0.
        4    1    3    3  502    0  0.53636291750E+03 -0.24170773649E+03  0.99736494064E+03  0.11579491556E+04  0.12699999809E+01 0.  1.
       -4    1    3    3    0  502 -0.53636291750E+03  0.24170773649E+03  0.15369651138E+04  0.16457129711E+04  0.12699999809E+01 0. -1.
</event>
<event>
 5   0  0.5003526E-03  0.1221291E+04  0.7818609E-02  0.9094422E-01
       -2   -1    0    0    0  501  0.00000000000E+00  0.00000000000E+00  0.99463811866E+03  0.99463811866E+03  0.25500000920E-02 0. -1.
        2   -1    0    0  501    0  0.00000000000E+00  0.00000000000E+00 -0.37489796988E+03  0.37489796989E+03  0.25500000920E-02 0.  1.
    10030    2    1    2    0    0  0.00000000000E+00  0.00000000000E+00  0.61974014878E+03  0.13695360885E+04  0.12212908113E+04 0.  0.
        2    1    3    3  502    0  0.36185287743E+03  0.49173156502E+03  0.32362130264E+03  0.69099072676E+03  0.25500000920E-02 0.  1.
       -2    1    3    3    0  502 -0.36185287743E+03 -0.49173156502E+03  0.29611884614E+03  0.67854536178E+03  0.25500000920E-02 0. -1.
</event>
<event>
 5   0  0.2926844E-03  0.1171417E+04  0.7818609E-02  0.9138250E-01
        1   -1    0    0  501    0  0.00000000000E+00  0.00000000000E+00  0.91412377041E+03  0.91412377042E+03  0.50400001928E-02 0. -1.
       -1   -1    0    0    0  501  0.00000000000E+00  0.00000000000E+00 -0.37528213313E+03  0.37528213317E+03  0.50400001928E-02 0.  1.
    10030    2    1    2    0    0  0.00000000000E+00  0.00000000000E+00  0.53884163727E+03  0.12894059036E+04  0.11714167807E+04 0.  0.
        5    1    3    3  502    0  0.27100654115E+03 -0.20696528349E+03  0.79356984855E+03  0.86374438837E+03  0.46999998093E+01 0. -1.
       -5    1    3    3    0  502 -0.27100654115E+03  0.20696528349E+03 -0.25472821128E+03  0.42566151521E+03  0.46999998093E+01 0.  1.
</event>
<event>
 5   0  0.2792518E-03  0.1268205E+04  0.7818609E-02  0.9055166E-01
        1   -1    0    0  501    0  0.00000000000E+00  0.00000000000E+00  0.11287638617E+04  0.11287638617E+04  0.50400001928E-02 0. -1.
       -1   -1    0    0    0  501  0.00000000000E+00  0.00000000000E+00 -0.35621781564E+03  0.35621781568E+03  0.50400001928E-02 0.  1.
    10030    2    1    2    0    0  0.00000000000E+00  0.00000000000E+00  0.77254604608E+03  0.14849816774E+04  0.12682047110E+04 0.  0.
        2    1    3    3  502    0  0.17750505427E+03 -0.33079484575E+03 -0.21210942464E+03  0.43118868526E+03  0.25500000920E-02 0.  1.
       -2    1    3    3    0  502 -0.17750505427E+03  0.33079484575E+03  0.98465547072E+03  0.10537929921E+04  0.25500000920E-02 0. -1.
</event>
<event>
 5   0  0.5031575E-03  0.9573886E+03  0.7818609E-02  0.9356556E-01
       -2   -1    0    0    0  501  0.00000000000E+00  0.00000000000E+00  0.15304266620E+03  0.15304266622E+03  0.25500000920E-02 0. -1.
        2   -1    0    0  501    0  0.00000000000E+00  0.00000000000E+00 -0.14972832197E+04  0.14972832197E+04  0.25500000920E-02 0.  1.
    10030    2    1    2    0    0  0.00000000000E+00  0.00000000000E+00 -0.13442405535E+04  0.16503258860E+04  0.95738856485E+03 0.  0.
        5    1    3    3  502    0  0.29399432196E+02 -0.46081497097E+03 -0.45468242263E+03  0.64805320732E+03  0.46999998093E+01 0. -1.
       -5    1    3    3    0  502 -0.29399432196E+02  0.46081497097E+03 -0.88955813091E+03  0.10022726786E+04  0.46999998093E+01 0.  1.
</event>
<event>
 5   0  0.2792518E-03  0.1215625E+04  0.7818609E-02  0.9099289E-01
       -1   -1    0    0    0  501  0.00000000000E+00  0.00000000000E+00  0.72964651387E+03  0.72964651388E+03  0.50400001928E-02 0.  1.
        1   -1    0    0  501    0  0.00000000000E+00  0.00000000000E+00 -0.50632203378E+03  0.50632203380E+03  0.50400001928E-02 0. -1.
    10030    2    1    2    0    0  0.00000000000E+00  0.00000000000E+00  0.22332448009E+03  0.12359685477E+04  0.12156251180E+04 0.  0.
        2    1    3    3  502    0  0.35324774301E+03  0.35612339248E+03  0.46066792515E+03  0.68104535523E+03  0.25500000920E-02 0.  1.
       -2    1    3    3    0  502 -0.35324774301E+03 -0.35612339248E+03 -0.23734344506E+03  0.55492319246E+03  0.25500000920E-02 0. -1.
</event>
<event>
 5   0  0.2930868E-03  0.1063074E+04  0.7818609E-02  0.9241949E-01
       -1   -1    0    0    0  501  0.00000000000E+00  0.00000000000E+00  0.17590656244E+03  0.17590656252E+03  0.50400001928E-02 0. -1.
        1   -1    0    0  501    0  0.00000000000E+00  0.00000000000E+00 -0.16061467754E+04  0.16061467754E+04  0.50400001928E-02 0.  1.
    10030    2    1    2    0    0  0.00000000000E+00  0.00000000000E+00 -0.14302402129E+04  0.17820533379E+04  0.10630743306E+04 0.  0.
        3    1    3    3  502    0  0.38655513906E+03 -0.24243266713E+02 -0.13253540561E+04  0.13807881792E+04  0.10100000352E+00 0.  1.
       -3    1    3    3    0  502 -0.38655513906E+03  0.24243266713E+02 -0.10488615683E+03  0.40126515873E+03  0.10100000352E+00 0. -1.
</event>
<event>
 5   0  0.2875848E-03  0.1192211E+04  0.7818609E-02  0.9119701E-01
       -1   -1    0    0    0  501  0.00000000000E+00  0.00000000000E+00  0.84783659640E+03  0.84783659641E+03  0.50400001928E-02 0. -1.
        1   -1    0    0  501    0  0.00000000000E+00  0.00000000000E+00 -0.41911606347E+03  0.41911606350E+03  0.50400001928E-02 0.  1.
    10030    2    1    2    0    0  0.00000000000E+00  0.00000000000E+00  0.42872053293E+03  0.12669526599E+04  0.11922112846E+04 0.  0.
        1    1    3    3  502    0  0.23345471196E+03  0.92814612408E+02  0.78882952807E+03  0.82786936119E+03  0.50400001928E-02 0. -1.
       -1    1    3    3    0  502 -0.23345471196E+03 -0.92814612408E+02 -0.36010899514E+03  0.43908329872E+03  0.50400001928E-02 0.  1.
</event>
<event>
 5   0  0.5467554E-03  0.1198747E+04  0.7818609E-02  0.9113954E-01
       -2   -1    0    0    0  501  0.00000000000E+00  0.00000000000E+00  0.54728681181E+03  0.54728681182E+03  0.25500000920E-02 0. -1.
        2   -1    0    0  501    0  0.00000000000E+00  0.00000000000E+00 -0.65641713208E+03  0.65641713209E+03  0.25500000920E-02 0.  1.
    10030    2    1    2    0    0  0.00000000000E+00  0.00000000000E+00 -0.10913032027E+03  0.12037039439E+04  0.11987467446E+04 0.  0.
        1    1    3    3  502    0 -0.12954487169E+03  0.16019168975E+03  0.51061692235E+03  0.55061138079E+03  0.50400001928E-02 0. -1.
       -1    1    3    3    0  502  0.12954487169E+03 -0.16019168975E+03 -0.61974724262E+03  0.65309256312E+03  0.50400001928E-02 0.  1.
</event>
<event>
 5   0  0.5108045E-03  0.1239067E+04  0.7818609E-02  0.9079332E-01
       -2   -1    0    0    0  501  0.00000000000E+00  0.00000000000E+00  0.73437264967E+03  0.73437264968E+03  0.25500000920E-02 0.  1.
        2   -1    0    0  501    0  0.00000000000E+00  0.00000000000E+00 -0.52265263972E+03  0.52265263973E+03  0.25500000920E-02 0. -1.
    10030    2    1    2    0    0  0.00000000000E+00  0.00000000000E+00  0.21172000995E+03  0.12570252894E+04  0.12390670747E+04 0.  0.
        3    1    3    3  502    0  0.27489300248E+03  0.28106308707E+03 -0.37988971408E+03  0.54669811303E+03  0.10100000352E+00 0. -1.
       -3    1    3    3    0  502 -0.27489300248E+03 -0.28106308707E+03  0.59160972403E+03  0.71032717638E+03  0.10100000352E+00 0.  1.
</event>
<event>
 5   0  0.5031575E-03  0.1174139E+04  0.7818609E-02  0.9135799E-01
        2   -1    0    0  501    0  0.00000000000E+00  0.00000000000E+00  0.13119654060E+04  0.13119654060E+04  0.25500000920E-02 0.  1.
       -2   -1    0    0    0  501  0.00000000000E+00  0.00000000000E+00 -0.26269780806E+03  0.26269780807E+03  0.25500000920E-02 0. -1.
    10030    2    1    2    0    0  0.00000000000E+00  0.00000000000E+00  0.10492675979E+04  0.15746632140E+04  0.11741387250E+04 0.  0.
        5    1    3    3  502    0  0.30457551844E+03  0.38787794155E+03  0.95171913677E+03  0.10719174172E+04  0.46999998093E+01 0.  1.
       -5    1    3    3    0  502 -0.30457551844E+03 -0.38787794155E+03  0.97548461128E+02  0.50274579684E+03  0.46999998093E+01 0. -1.
</event>
<event>
 5   0  0.5189537E-03  0.1177749E+04  0.7818609E-02  0.9132559E-01
       -2   -1    0    0    0  501  0.00000000000E+00  0.00000000000E+00  0.17411587236E+03  0.17411587238E+03  0.25500000920E-02 0.  1.
        2   -1    0    0  501    0  0.00000000000E+00  0.00000000000E+00 -0.19916217607E+04  0.19916217607E+04  0.25500000920E-02 0. -1.
    10030    2    1    2    0    0  0.00000000000E+00  0.00000000000E+00 -0.18175058884E+04  0.21657376331E+04  0.11777486324E+04 0.  0.
        4    1    3    3  502    0 -0.42911900761E+02 -0.58469753790E+03 -0.80705268595E+03  0.99752107389E+03  0.12699999809E+01 0.  1.
       -4    1    3    3    0  502  0.42911900761E+02  0.58469753790E+03 -0.10104532024E+04  0.11682165592E+04  0.12699999809E+01 0. -1.
</event>
<event>
 5   0  0.5467554E-03  0.1207041E+04  0.7818609E-02  0.9106716E-01
       -2   -1    0    0    0  501  0.00000000000E+00  0.00000000000E+00  0.54405783939E+03  0.54405783939E+03  0.25500000920E-02 0.  1.
        2   -1    0    0  501    0  0.00000000000E+00  0.00000000000E+00 -0.66948213886E+03  0.66948213887E+03  0.25500000920E-02 0. -1.
    10030    2    1    2    0    0  0.00000000000E+00  0.00000000000E+00 -0.12542429948E+03  0.12135399783E+04  0.12070410200E+04 0.  0.
        1    1    3    3  502    0  0.17010156334E+03  0.72477359378E+02 -0.64030471712E+03  0.66646653349E+03  0.50400001928E-02 0. -1.
       -1    1    3    3    0  502 -0.17010156334E+03 -0.72477359378E+02  0.51488041764E+03  0.54707344477E+03  0.50400001928E-02 0.  1.
</event>
<event>
 5   0  0.2792518E-03  0.1191905E+04  0.7818609E-02  0.9119972E-01
       -1   -1    0    0    0  501  0.00000000000E+00  0.00000000000E+00  0.37418636320E+03  0.37418636323E+03  0.50400001928E-02 0.  1.
        1   -1    0    0  501    0  0.00000000000E+00  0.00000000000E+00 -0.94915055625E+03  0.94915055627E+03  0.50400001928E-02 0. -1.
    10030    2    1    2    0    0  0.00000000000E+00  0.00000000000E+00 -0.57496419305E+03  0.13233369195E+04  0.11919046855E+04 0.  0.
        2    1    3    3  502    0  0.26592089336E+03  0.13468602445E+03  0.28547027307E+03  0.41273178158E+03  0.25500000920E-02 0.  1.
       -2    1    3    3    0  502 -0.26592089336E+03 -0.13468602445E+03 -0.86043446613E+03  0.91060513793E+03  0.25500000920E-02 0. -1.
</event>
<event>
 5   0  0.2930868E-03  0.1297459E+04  0.7818609E-02  0.9031582E-01
        1   -1    0    0  501    0  0.00000000000E+00  0.00000000000E+00  0.66667554836E+03  0.66667554838E+03  0.50400001928E-02 0.  1.
       -1   -1    0    0    0  501  0.00000000000E+00  0.00000000000E+00 -0.63126670447E+03  0.63126670449E+03  0.50400001928E-02 0. -1.
    10030    2    1    2    0    0  0.00000000000E+00  0.00000000000E+00  0.35408843889E+02  0.12979422529E+04  0.12974591730E+04 0.  0.
        3    1    3    3  502    0 -0.54630804954E+03 -0.34334906650E+03 -0.49469665340E+02  0.64713856665E+03  0.10100000352E+00 0.  1.
       -3    1    3    3    0  502  0.54630804954E+03  0.34334906650E+03  0.84878509230E+02  0.65080368621E+03  0.10100000352E+00 0. -1.
</event>
<event>
 5   0  0.5031575E-03  0.1210095E+04  0.7818609E-02  0.9104066E-01
        2   -1    0    0  501    0  0.00000000000E+00  0.00000000000E+00  0.83622087325E+03  0.83622087326E+03  0.25500000920E-02 0. -1.
       -2   -1    0    0    0  501  0.00000000000E+00  0.00000000000E+00 -0.43778207153E+03  0.43778207154E+03  0.25500000920E-02 0.  1.
    10030    2    1    2    0    0  0.00000000000E+00  0.00000000000E+00  0.39843880172E+03  0.12740029448E+04  0.12100950478E+04 0.  0.
        5    1    3    3  502    0  0.97762099043E+02 -0.59546517124E+03  0.15303683237E+03  0.62255807780E+03  0.46999998093E+01 0.  1.
       -5    1    3    3    0  502 -0.97762099043E+02  0.59546517124E+03  0.24540196935E+03  0.65144486699E+03  0.46999998093E+01 0. -1.
</event>
<event>
 5   0  0.5108045E-03  0.1230339E+04  0.7818609E-02  0.9086708E-01
        2   -1    0    0  501    0  0.00000000000E+00  0.00000000000E+00  0.14950114544E+04  0.14950114544E+04  0.25500000920E-02 0.  1.
       -2   -1    0    0    0  501  0.00000000000E+00  0.00000000000E+00 -0.25313072512E+03  0.25313072513E+03  0.25500000920E-02 0. -1.
    10030    2    1    2    0    0  0.00000000000E+00  0.00000000000E+00  0.12418807293E+04  0.17481421795E+04  0.12303387071E+04 0.  0.
        3    1    3    3  502    0 -0.44961797766E+03 -0.28451396547E+03  0.18224390502E+03  0.56242099311E+03  0.10100000352E+00 0. -1.
       -3    1    3    3    0  502  0.44961797766E+03  0.28451396547E+03  0.10596368243E+04  0.11857211864E+04  0.10100000352E+00 0.  1.
</event>
<event>
 5   0  0.2792518E-03  0.1132736E+04  0.7818609E-02  0.9173860E-01
       -1   -1    0    0    0  501  0.00000000000E+00  0.00000000000E+00  0.33879967689E+03  0.33879967693E+03  0.50400001928E-02 0. -1.
        1   -1    0    0  501    0  0.00000000000E+00  0.00000000000E+00 -0.94679143157E+03  0.94679143158E+03  0.50400001928E-02 0.  1.
    10030    2    1    2    0    0  0.00000000000E+00  0.00000000000E+00 -0.60799175468E+03  0.12855911085E+04  0.11327358582E+04 0.  0.
        2    1    3    3  502    0 -0.13066193533E+03 -0.27604601891E+03  0.23733606811E+03  0.38678463663E+03  0.25500000920E-02 0. -1.
       -2    1    3    3    0  502  0.13066193533E+03  0.27604601891E+03 -0.84532782279E+03  0.89880647188E+03  0.25500000920E-02 0.  1.
</event>
<event>
 5   0  0.2875848E-03  0.1197848E+04  0.7818609E-02  0.9114742E-01
        1   -1    0    0  501    0  0.00000000000E+00  0.00000000000E+00  0.99203683977E+03  0.99203683978E+03  0.50400001928E-02 0. -1.
       -1   -1    0    0    0  501  0.00000000000E+00  0.00000000000E+00 -0.36158942942E+03  0.36158942946E+03  0.50400001928E-02 0.  1.
    10030    2    1    2    0    0  0.00000000000E+00  0.00000000000E+00  0.63044741034E+03  0.13536262692E+04  0.11978481287E+04 0.  0.
        1    1    3    3  502    0 -0.46094595650E+03  0.18836633295E+03 -0.60858320152E+02  0.50165404948E+03  0.50400001928E-02 0.  1.
       -1    1    3    3    0  502  0.46094595650E+03 -0.18836633295E+03  0.69130573050E+03  0.85197221976E+03  0.50400001928E-02 0. -1.
</event>
<event>
 5   0  0.5031575E-03  0.1203633E+04  0.7818609E-02  0.9109682E-01
        2   -1    0    0  501    0  0.00000000000E+00  0.00000000000E+00  0.21795159445E+03  0.21795159447E+03  0.25500000920E-02 0. -1.
       -2   -1    0    0    0  501  0.00000000000E+00  0.00000000000E+00 -0.16617596070E+04  0.16617596070E+04  0.25500000920E-02 0.  1.
    10030    2    1    2    0    0  0.00000000000E+00  0.00000000000E+00 -0.14438080126E+04  0.18797112015E+04  0.12036330935E+04 0.  0.
        5    1    3    3  502    0  0.13072139671E+03  0.23839928357E+03 -0.15603463491E+04  0.15838639844E+04  0.46999998093E+01 0.  1.
       -5    1    3    3    0  502 -0.13072139671E+03 -0.23839928357E+03  0.11653833654E+03  0.29584721707E+03  0.46999998093E+01 0. -1.
</event>
<event>
 5   0  0.2938349E-03  0.1001912E+04  0.7818609E-02  0.9306450E-01
       -1   -1    0    0    0  501  0.00000000000E+00  0.00000000000E+00  0.21852009048E+03  0.21852009054E+03  0.50400001928E-02 0. -1.
        1   -1    0    0  501    0  0.00000000000E+00  0.00000000000E+00 -0.11484392607E+04  0.11484392607E+04  0.50400001928E-02 0.  1.
    10030    2    1    2    0    0  0.00000000000E+00  0.00000000000E+00 -0.92991917020E+03  0.13669593512E+04  0.10019122740E+04 0.  0.
        4    1    3    3  502    0  0.13968051130E+03  0.44778765598E+03 -0.70491079354E+03  0.84671439685E+03  0.12699999809E+01 0.  1.
       -4    1    3    3    0  502 -0.13968051130E+03 -0.44778765598E+03 -0.22500837666E+03  0.52024495437E+03  0.12699999809E+01 0. -1.
</event>
<event>
 5   0  0.2875848E-03  0.1178060E+04  0.7818609E-02  0.9132281E-01
        1   -1    0    0  501    0  0.00000000000E+00  0.00000000000E+00  0.49877098234E+03  0.49877098236E+03  0.50400001928E-02 0.  1.
       -1   -1    0    0    0  501  0.00000000000E+00  0.00000000000E+00 -0.69562200955E+03  0.69562200957E+03  0.50400001928E-02 0. -1.
    10030    2    1    2    0    0  0.00000000000E+00  0.00000000000E+00 -0.19685102721E+03  0.11943929919E+04  0.11780595453E+04 0.  0.
        1    1    3    3  502    0  0.52298584105E+03 -0.12877016182E+03 -0.34018522164E+03  0.63704154461E+03  0.50400001928E-02 0. -1.
       -1    1    3    3    0  502 -0.52298584105E+03  0.12877016182E+03  0.14333419442E+03  0.55735144732E+03  0.50400001928E-02 0.  1.
</event>
<event>
 5   0  0.5189537E-03  0.1199790E+04  0.7818609E-02  0.9113040E-01
       -2   -1    0    0    0  501  0.00000000000E+00  0.00000000000E+00  0.96043553425E+03  0.96043553426E+03  0.25500000920E-02 0.  1.
        2   -1    0    0  501    0  0.00000000000E+00  0.00000000000E+00 -0.37469875062E+03  0.37469875063E+03  0.25500000920E-02 0. -1.
    10030    2    1    2    0    0  0.00000000000E+00  0.00000000000E+00  0.58573678363E+03  0.13351342849E+04  0.11997899729E+04 0.  0.
        4    1    3    3  502    0  0.59831485669E+03 -0.39190657885E+02  0.31385907754E+03  0.67677596652E+03  0.12699999809E+01 0. -1.
       -4    1    3    3    0  502 -0.59831485669E+03  0.39190657885E+02  0.27187770608E+03  0.65835831837E+03  0.12699999809E+01 0.  1.
</event>
<event>
 5   0  0.2930868E-03  0.1133339E+04  0.7818609E-02  0.9173293E-01
        1   -1    0    0  501    0  0.00000000000E+00  0.00000000000E+00  0.29138549850E+03  0.29138549855E+03  0.50400001928E-02 0. -1.
       -1   -1    0    0    0  501  0.00000000000E+00  0.00000000000E+00 -0.11020258828E+04  0.11020258828E+04  0.50400001928E-02 0.  1.
    10030    2    1    2    0    0  0.00000000000E+00  0.00000000000E+00 -0.81064038427E+03  0.13934113813E+04  0.11333390689E+04 0.  0.
        3    1    3    3  502    0  0.35023834917E+03  0.34242763565E+03 -0.75564654502E+03  0.90051390777E+03  0.10100000352E+00 0.  1.
       -3    1    3    3    0  502 -0.35023834917E+03 -0.34242763565E+03 -0.54993839249E+02  0.49289747356E+03  0.10100000352E+00 0. -1.
</event>
<event>
 5   0  0.2875848E-03  0.1205770E+04  0.7818609E-02  0.9107821E-01
        1   -1    0    0  501    0  0.00000000000E+00  0.00000000000E+00  0.64840239757E+03  0.64840239759E+03  0.50400001928E-02 0.  1.
       -1   -1    0    0    0  501  0.00000000000E+00  0.00000000000E+00 -0.56056292248E+03  0.56056292251E+03  0.50400001928E-02 0. -1.
    10030    2    1    2    0    0  0.00000000000E+00  0.00000000000E+00  0.87839475083E+02  0.12089653201E+04  0.12057700327E+04 0.  0.
        1    1    3    3  502    0 -0.14802476909E+03  0.31952512287E+03  0.53456578023E+03  0.64013140044E+03  0.50400001928E-02 0.  1.
       -1    1    3    3    0  502  0.14802476909E+03 -0.31952512287E+03 -0.44672630515E+03  0.56883391965E+03  0.50400001928E-02 0. -1.
</event>
<event>
 5   0  0.2875848E-03  0.1213333E+04  0.7818609E-02  0.9101265E-01
        1   -1    0    0  501    0  0.00000000000E+00  0.00000000000E+00  0.77933651865E+03  0.77933651867E+03  0.50400001928E-02 0. -1.
       -1   -1    0    0    0  501  0.00000000000E+00  0.00000000000E+00 -0.47225354419E+03  0.47225354422E+03  0.50400001928E-02 0.  1.
    10030    2    1    2    0    0  0.00000000000E+00  0.00000000000E+00  0.30708297446E+03  0.12515900629E+04  0.12133333146E+04 0.  0.
        1    1    3    3  502    0 -0.31826431795E+03  0.13896395916E+03  0.66666044041E+03  0.75169096100E+03  0.50400001928E-02 0. -1.
       -1    1    3    3    0  502  0.31826431795E+03 -0.13896395916E+03 -0.35957746595E+03  0.49989910189E+03  0.50400001928E-02 0.  1.
</event>
<event>
 5   0  0.2926844E-03  0.1340407E+04  0.7818609E-02  0.8998122E-01
        1   -1    0    0  501    0  0.00000000000E+00  0.00000000000E+00  0.20476366224E+04  0.20476366224E+04  0.50400001928E-02 0. -1.
       -1   -1    0    0    0  501  0.00000000000E+00  0.00000000000E+00 -0.21936143313E+03  0.21936143319E+03  0.50400001928E-02 0.  1.
    10030    2    1    2    0    0  0.00000000000E+00  0.00000000000E+00  0.18282751893E+04  0.22669980556E+04  0.13404066608E+04 0.  0.
        5    1    3    3  502    0 -0.38348889992E+02  0.16823597438E+03 -0.18112077706E+03  0.25020153141E+03  0.46999998093E+01 0.  1.
       -5    1    3    3    0  502  0.38348889992E+02 -0.16823597438E+03  0.20093959664E+04  0.20167965242E+04  0.46999998093E+01 0. -1.
</event>
<event>
 5   0  0.2926844E-03  0.1018749E+04  0.7818609E-02  0.9288217E-01
       -1   -1    0    0    0  501  0.00000000000E+00  0.00000000000E+00  0.31776626265E+03  0.31776626269E+03  0.50400001928E-02 0.  1.
        1   -1    0    0  501    0  0.00000000000E+00  0.00000000000E+00 -0.81651957685E+03  0.81651957686E+03  0.50400001928E-02 0. -1.
    10030    2    1    2    0    0  0.00000000000E+00  0.00000000000E+00 -0.49875331420E+03  0.11342858396E+04  0.10187489864E+04 0.  0.
        5    1    3    3  502    0 -0.22104367210E+03  0.69957562584E+01 -0.76025017096E+03  0.79177753064E+03  0.46999998093E+01 0. -1.
       -5    1    3    3    0  502  0.22104367210E+03 -0.69957562584E+01  0.26149685676E+03  0.34250830891E+03  0.46999998093E+01 0.  1.
</event>
<event>
 5   0  0.2792518E-03  0.1172752E+04  0.7818609E-02  0.9137046E-01
        1   -1    0    0  501    0  0.00000000000E+00  0.00000000000E+00  0.12120616496E+04  0.12120616496E+04  0.50400001928E-02 0.  1.
       -1   -1    0    0    0  501  0.00000000000E+00  0.00000000000E+00 -0.28367945976E+03  0.28367945981E+03  0.50400001928E-02 0. -1.
    10030    2    1    2    0    0  0.00000000000E+00  0.00000000000E+00  0.92838218982E+03  0.14957411094E+04  0.11727523080E+04 0.  0.
        2    1    3    3  502    0 -0.31093447249E+02 -0.14274465509E+03 -0.26009651775E+03  0.29831700852E+03  0.25500000920E-02 0. -1.
       -2    1    3    3    0  502  0.31093447249E+02  0.14274465509E+03  0.11884787076E+04  0.11974241009E+04  0.25500000920E-02 0.  1.
</event>
<event>
 5   0  0.2792518E-03  0.1174992E+04  0.7818609E-02  0.9135032E-01
       -1   -1    0    0    0  501  0.00000000000E+00  0.00000000000E+00  0.89555321035E+03  0.89555321036E+03  0.50400001928E-02 0.  1.
        1   -1    0    0  501    0  0.00000000000E+00  0.00000000000E+00 -0.38540594119E+03  0.38540594123E+03  0.50400001928E-02 0. -1.
    10030    2    1    2    0    0  0.00000000000E+00  0.00000000000E+00  0.51014726915E+03  0.12809591516E+04  0.11749919624E+04 0.  0.
        2    1    3    3  502    0 -0.64027343794E+01  0.50921237773E+03 -0.64284258570E+02  0.51329397673E+03  0.25500000920E-02 0. -1.
       -2    1    3    3    0  502  0.64027343794E+01 -0.50921237773E+03  0.57443152772E+03  0.76766517486E+03  0.25500000920E-02 0.  1.
</event>
<event>
 5   0  0.2792518E-03  0.1191116E+04  0.7818609E-02  0.9120669E-01
       -1   -1    0    0    0  501  0.00000000000E+00  0.00000000000E+00  0.65389620000E+03  0.65389620002E+03  0.50400001928E-02 0.  1.
        1   -1    0    0  501    0  0.00000000000E+00  0.00000000000E+00 -0.54242428690E+03  0.54242428692E+03  0.50400001928E-02 0. -1.
    10030    2    1    2    0    0  0.00000000000E+00  0.00000000000E+00  0.11147191310E+03  0.11963204869E+04  0.11911157459E+04 0.  0.
        2    1    3    3  502    0  0.20250029228E+03 -0.55253855520E+02 -0.50404117058E+03  0.54600078624E+03  0.25500000920E-02 0. -1.
       -2    1    3    3    0  502 -0.20250029228E+03  0.55253855520E+02  0.61551308368E+03  0.65031970070E+03  0.25500000920E-02 0.  1.
</event>
<event>
 5   0  0.5031575E-03  0.1038098E+04  0.7818609E-02  0.9267719E-01
       -2   -1    0    0    0  501  0.00000000000E+00  0.00000000000E+00  0.17709169343E+03  0.17709169344E+03  0.25500000920E-02 0. -1.
        2   -1    0    0  501    0  0.00000000000E+00  0.00000000000E+00 -0.15213136408E+04  0.15213136408E+04  0.25500000920E-02 0.  1.
    10030    2    1    2    0    0  0.00000000000E+00  0.00000000000E+00 -0.13442219473E+04  0.16984053342E+04  0.10380982784E+04 0.  0.
        5    1    3    3  502    0  0.39198090683E+03  0.18668117344E+03 -0.20678954892E+03  0.48091880747E+03  0.46999998093E+01 0. -1.
       -5    1    3    3    0  502 -0.39198090683E+03 -0.18668117344E+03 -0.11374323984E+04  0.12174865267E+04  0.46999998093E+01 0.  1.
</event>
<event>
 5   0  0.2875848E-03  0.1229560E+04  0.7818609E-02  0.9087369E-01
       -1   -1    0    0    0  501  0.00000000000E+00  0.00000000000E+00  0.68803528972E+03  0.68803528974E+03  0.50400001928E-02 0. -1.
        1   -1    0    0  501    0  0.00000000000E+00  0.00000000000E+00 -0.54932466167E+03  0.54932466169E+03  0.50400001928E-02 0.  1.
    10030    2    1    2    0    0  0.00000000000E+00  0.00000000000E+00  0.13871062805E+03  0.12373599514E+04  0.12295604951E+04 0.  0.
        1    1    3    3  502    0  0.18770268049E+03 -0.48648177368E+03 -0.25837585624E+03  0.58194062884E+03  0.50400001928E-02 0.  1.
       -1    1    3    3    0  502 -0.18770268049E+03  0.48648177368E+03  0.39708648430E+03  0.65541932259E+03  0.50400001928E-02 0. -1.
</event>
<event>
 5   0  0.1922125E-03  0.1204592E+04  0.7818609E-02  0.9108847E-01
       -3   -1    0    0    0  501  0.00000000000E+00  0.00000000000E+00  0.83170108290E+03  0.83170108903E+03  0.10100000352E+00 0. -1.
        3   -1    0    0  501    0  0.00000000000E+00  0.00000000000E+00 -0.43616693636E+03  0.43616694805E+03  0.10100000352E+00 0.  1.
    10030    2    1    2    0    0  0.00000000000E+00  0.00000000000E+00  0.39553414654E+03  0.12678680371E+04  0.12045920880E+04 0.  0.
        1    1    3    3  502    0  0.51217752285E+03 -0.29651738487E+03  0.31550056390E+03  0.67066309000E+03  0.50400001928E-02 0.  1.
       -1    1    3    3    0  502 -0.51217752285E+03  0.29651738487E+03  0.80033582638E+02  0.59720494708E+03  0.50400001928E-02 0. -1.
</event>
<event>
 5   0  0.5031575E-03  0.1207408E+04  0.7818609E-02  0.9106397E-01
        2   -1    0    0  501    0  0.00000000000E+00  0.00000000000E+00  0.91064383814E+03  0.91064383814E+03  0.25500000920E-02 0.  1.
       -2   -1    0    0    0  501  0.00000000000E+00  0.00000000000E+00 -0.40022091306E+03  0.40022091307E+03  0.25500000920E-02 0. -1.
    10030    2    1    2    0    0  0.00000000000E+00  0.00000000000E+00  0.51042292508E+03  0.13108647512E+04  0.12074083127E+04 0.  0.
        5    1    3    3  502    0 -0.11417762589E+03  0.58418750810E+03  0.14596631058E+03  0.61289463099E+03  0.46999998093E+01 0. -1.
       -5    1    3    3    0  502  0.11417762589E+03 -0.58418750810E+03  0.36445661450E+03  0.69797012022E+03  0.46999998093E+01 0.  1.
</event>
<event>
 5   0  0.2938349E-03  0.1194746E+04  0.7818609E-02  0.9117468E-01
        1   -1    0    0  501    0  0.00000000000E+00  0.00000000000E+00  0.97431076702E+03  0.97431076703E+03  0.50400001928E-02 0. -1.
       -1   -1    0    0    0  501  0.00000000000E+00  0.00000000000E+00 -0.36626327896E+03  0.36626327899E+03  0.50400001928E-02 0.  1.
    10030    2    1    2    0    0  0.00000000000E+00  0.00000000000E+00  0.60804748806E+03  0.13405740460E+04  0.11947455901E+04 0.  0.
        4    1    3    3  502    0 -0.32178890284E+03  0.29325704603E+03  0.76297824861E+03  0.87845615359E+03  0.12699999809E+01 0. -1.
       -4    1    3    3    0  502  0.32178890284E+03 -0.29325704603E+03 -0.15493076054E+03  0.46211789243E+03  0.12699999809E+01 0.  1.
</event>
<event>
 5   0  0.5189537E-03  0.1197998E+04  0.7818609E-02  0.9114611E-01
        2   -1    0    0  501    0  0.00000000000E+00  0.00000000000E+00  0.96538301646E+03  0.96538301647E+03  0.25500000920E-02 0.  1.
       -2   -1    0    0    0  501  0.00000000000E+00  0.00000000000E+00 -0.37166548320E+03  0.37166548321E+03  0.25500000920E-02 0. -1.
    10030    2    1    2    0    0  0.00000000000E+00  0.00000000000E+00  0.59371753326E+03  0.13370484997E+04  0.11979975714E+04 0.  0.
        4    1    3    3  502    0 -0.33451282975E+03  0.25124680378E+03 -0.18158778205E+03  0.45606964947E+03  0.12699999809E+01 0. -1.
       -4    1    3    3    0  502  0.33451282975E+03 -0.25124680378E+03  0.77530531531E+03  0.88097885022E+03  0.12699999809E+01 0.  1.
</event>
<event>
 5   0  0.5467554E-03  0.1258950E+04  0.7818609E-02  0.9062767E-01
       -2   -1    0    0    0  501  0.00000000000E+00  0.00000000000E+00  0.26557448616E+03  0.26557448618E+03  0.25500000920E-02 0. -1.
        2   -1    0    0  501    0  0.00000000000E+00  0.00000000000E+00 -0.14920069364E+04  0.14920069364E+04  0.25500000920E-02 0.  1.
    10030    2    1    2    0    0  0.00000000000E+00  0.00000000000E+00 -0.12264324503E+04  0.17575814226E+04  0.12589503175E+04 0.  0.
        1    1    3    3  502    0 -0.40449053872E+01 -0.59095928317E+03 -0.31058873074E+03  0.66761860019E+03  0.50400001928E-02 0. -1.
       -1    1    3    3    0  502  0.40449053872E+01  0.59095928317E+03 -0.91584371952E+03  0.10899628224E+04  0.50400001928E-02 0.  1.
</event>
<event>
 5   0  0.2930868E-03  0.1190627E+04  0.7818609E-02  0.9121101E-01
        1   -1    0    0  501    0  0.00000000000E+00  0.00000000000E+00  0.78945760102E+03  0.78945760103E+03  0.50400001928E-02 0. -1.
       -1   -1    0    0    0  501  0.00000000000E+00  0.00000000000E+00 -0.44891322960E+03  0.44891322963E+03  0.50400001928E-02 0.  1.
    10030    2    1    2    0    0  0.00000000000E+00  0.00000000000E+00  0.34054437142E+03  0.12383708307E+04  0.11906266608E+04 0.  0.
        3    1    3    3  502    0  0.53221848328E+03 -0.26573031357E+03  0.19419081490E+03  0.62576289143E+03  0.10100000352E+00 0. -1.
       -3    1    3    3    0  502 -0.53221848328E+03  0.26573031357E+03  0.14635355652E+03  0.61260793923E+03  0.10100000352E+00 0.  1.
</event>
<event>
 5   0  0.5108045E-03  0.1197159E+04  0.7818609E-02  0.9115347E-01
       -2   -1    0    0    0  501  0.00000000000E+00  0.00000000000E+00  0.21047606433E+03  0.21047606435E+03  0.25500000920E-02 0.  1.
        2   -1    0    0  501    0  0.00000000000E+00  0.00000000000E+00 -0.17023188651E+04  0.17023188651E+04  0.25500000920E-02 0. -1.
    10030    2    1    2    0    0  0.00000000000E+00  0.00000000000E+00 -0.14918428008E+04  0.19127949295E+04  0.11971589285E+04 0.  0.
        3    1    3    3  502    0  0.54700292590E+03  0.24026887576E+03 -0.68708427553E+03  0.91050872895E+03  0.10100000352E+00 0. -1.
       -3    1    3    3    0  502 -0.54700292590E+03 -0.24026887576E+03 -0.80475852527E+03  0.10022862005E+04  0.10100000352E+00 0.  1.
</event>
<event>
 5   0  0.2938349E-03  0.1222426E+04  0.7818609E-02  0.9093451E-01
       -1   -1    0    0    0  501  0.00000000000E+00  0.00000000000E+00  0.24480744967E+03  0.24480744973E+03  0.50400001928E-02 0.  1.
        1   -1    0    0  501    0  0.00000000000E+00  0.00000000000E+00 -0.15260200937E+04  0.15260200938E+04  0.50400001928E-02 0. -1.
    10030    2    1    2    0    0  0.00000000000E+00  0.00000000000E+00 -0.12812126441E+04  0.17708275435E+04  0.12224256008E+04 0.  0.
        4    1    3    3  502    0 -0.29764535517E+03 -0.25350887583E+03  0.39966564148E+02  0.39301201856E+03  0.12699999809E+01 0.  1.
       -4    1    3    3    0  502  0.29764535517E+03  0.25350887583E+03 -0.13211792082E+04  0.13778155249E+04  0.12699999809E+01 0. -1.
</event>
<event>
 5   0  0.5003526E-03  0.1259491E+04  0.7818609E-02  0.9062321E-01
       -2   -1    0    0    0  501  0.00000000000E+00  0.00000000000E+00  0.37885422396E+03  0.37885422397E+03  0.25500000920E-02 0. -1.
        2   -1    0    0  501    0  0.00000000000E+00  0.00000000000E+00 -0.10467866707E+04  0.10467866707E+04  0.25500000920E-02 0.  1.
    10030    2    1    2    0    0  0.00000000000E+00  0.00000000000E+00 -0.66793244674E+03  0.14256408947E+04  0.12594912493E+04 0.  0.
        2    1    3    3  502    0  0.10870970406E+03 -0.32383385653E+03 -0.93280692115E+03  0.99338558402E+03  0.25500000920E-02 0.  1.
       -2    1    3    3    0  502 -0.10870970406E+03  0.32383385653E+03  0.26487447441E+03  0.43225531065E+03  0.25500000920E-02 0. -1.
</event>
<event>
 5   0  0.2938349E-03  0.1138657E+04  0.7818609E-02  0.9168313E-01
        1   -1    0    0  501    0  0.00000000000E+00  0.00000000000E+00  0.16994030060E+04  0.16994030060E+04  0.50400001928E-02 0. -1.
       -1   -1    0    0    0  501  0.00000000000E+00  0.00000000000E+00 -0.19073446589E+03  0.19073446596E+03  0.50400001928E-02 0.  1.
    10030    2    1    2    0    0  0.00000000000E+00  0.00000000000E+00  0.15086685401E+04  0.18901374720E+04  0.11386566203E+04 0.  0.
        4    1    3    3  502    0  0.39170762818E+03 -0.22108405123E+03  0.13337096967E+04  0.14075141888E+04  0.12699999809E+01 0. -1.
       -4    1    3    3    0  502 -0.39170762818E+03  0.22108405123E+03  0.17495884341E+03  0.48262328318E+03  0.12699999809E+01 0.  1.
</event>
<event>
 5   0  0.2938349E-03  0.1279430E+04  0.7818609E-02  0.9046038E-01
        1   -1    0    0  501    0  0.00000000000E+00  0.00000000000E+00  0.12261721660E+04  0.12261721660E+04  0.50400001928E-02 0.  1.
       -1   -1    0    0    0  501  0.00000000000E+00  0.00000000000E+00 -0.33375036398E+03  0.33375036402E+03  0.50400001928E-02 0. -1.
    10030    2    1    2    0    0  0.00000000000E+00  0.00000000000E+00  0.89242180203E+03  0.15599225300E+04  0.12794301962E+04 0.  0.
        4    1    3    3  502    0 -0.30744657204E+03  0.50907352179E+03  0.15883771304E+03  0.61555688382E+03  0.12699999809E+01 0. -1.
       -4    1    3    3    0  502  0.30744657204E+03 -0.50907352179E+03  0.73358408899E+03  0.94436564622E+03  0.12699999809E+01 0.  1.
</event>
<event>
 5   0  0.2792518E-03  0.1202068E+04  0.7818609E-02  0.9111049E-01
       -1   -1    0    0    0  501  0.00000000000E+00  0.00000000000E+00  0.62077269940E+03  0.62077269942E+03  0.50400001928E-02 0.  1.
        1   -1    0    0  501    0  0.00000000000E+00  0.00000000000E+00 -0.58192249583E+03  0.58192249585E+03  0.50400001928E-02 0. -1.
    10030    2    1    2    0    0  0.00000000000E+00  0.00000000000E+00  0.38850203575E+02  0.12026951953E+04  0.12020675499E+04 0.  0.
        2    1    3    3  502    0  0.19987270813E+02  0.60058566933E+03  0.31219445595E+02  0.60172858582E+03  0.25500000920E-02 0. -1.
       -2    1    3    3    0  502 -0.19987270813E+02 -0.60058566933E+03  0.76307579798E+01  0.60096660945E+03  0.25500000920E-02 0.  1.
</event>
<event>
 5   0  0.5003526E-03  0.1336790E+04  0.7818609E-02  0.9000889E-01
        2   -1    0    0  501    0  0.00000000000E+00  0.00000000000E+00  0.72196226389E+03  0.72196226390E+03  0.25500000920E-02 0. -1.
       -2   -1    0    0    0  501  0.00000000000E+00  0.00000000000E+00 -0.61880191957E+03  0.61880191958E+03  0.25500000920E-02 0.  1.
    10030    2    1    2    0    0  0.00000000000E+00  0.00000000000E+00  0.10316034432E+03  0.13407641835E+04  0.13367896390E+04 0.  0.
        2    1    3    3  502    0 -0.64928399763E+03 -0.58392705092E+02 -0.96412651967E+02  0.65899530883E+03  0.25500000920E-02 0.  1.
       -2    1    3    3    0  502  0.64928399763E+03  0.58392705092E+02  0.19957299629E+03  0.68176887465E+03  0.25500000920E-02 0. -1.
</event>
<event>
 5   0  0.5467554E-03  0.1222624E+04  0.7818609E-02  0.9093281E-01
       -2   -1    0    0    0  501  0.00000000000E+00  0.00000000000E+00  0.28295908493E+03  0.28295908495E+03  0.25500000920E-02 0. -1.
        2   -1    0    0  501    0  0.00000000000E+00  0.00000000000E+00 -0.13206948375E+04  0.13206948375E+04  0.25500000920E-02 0.  1.
    10030    2    1    2    0    0  0.00000000000E+00  0.00000000000E+00 -0.10377357526E+04  0.16036539225E+04  0.12226243948E+04 0.  0.
        1    1    3    3  502    0  0.43006276406E+02  0.41761137016E+03 -0.11017092177E+04  0.11789876999E+04  0.50400001928E-02 0.  1.
       -1    1    3    3    0  502 -0.43006276406E+02 -0.41761137016E+03  0.63973465076E+02  0.42466622253E+03  0.50400001928E-02 0. -1.
</event>
<event>
 5   0  0.1922125E-03  0.1216062E+04  0.7818609E-02  0.9098912E-01
       -4   -1    0    0    0  501  0.00000000000E+00  0.00000000000E+00  0.12861072507E+04  0.12861078777E+04  0.12699999809E+01 0. -1.
        4   -1    0    0  501    0  0.00000000000E+00  0.00000000000E+00 -0.28745591225E+03  0.28745871771E+03  0.12699999809E+01 0.  1.
    10030    2    1    2    0    0  0.00000000000E+00  0.00000000000E+00  0.99865133843E+03  0.15735665954E+04  0.12160622248E+04 0.  0.
        3    1    3    3  502    0 -0.42018431226E+03  0.88227778044E+02 -0.57783942078E+02  0.43321817973E+03  0.10100000352E+00 0.  1.
       -3    1    3    3    0  502  0.42018431226E+03 -0.88227778044E+02  0.10564352805E+04  0.11403484157E+04  0.10100000352E+00 0. -1.
</event>
<event>
 5   0  0.5467554E-03  0.1217086E+04  0.7818609E-02  0.9098032E-01
        2   -1    0    0  501    0  0.00000000000E+00  0.00000000000E+00  0.91360842446E+03  0.91360842446E+03  0.25500000920E-02 0.  1.
       -2   -1    0    0    0  501  0.00000000000E+00  0.00000000000E+00 -0.40534245211E+03  0.40534245211E+03  0.25500000920E-02 0. -1.
    10030    2    1    2    0    0  0.00000000000E+00  0.00000000000E+00  0.50826597235E+03  0.13189508766E+04  0.12170855008E+04 0.  0.
        1    1    3    3  502    0  0.50381745344E+03  0.28090222715E+03  0.44035095276E+02  0.57851290154E+03  0.50400001928E-02 0. -1.
       -1    1    3    3    0  502 -0.50381745344E+03 -0.28090222715E+03  0.46423087707E+03  0.74043797503E+03  0.50400001928E-02 0.  1.
</event>
<event>
 5   0  0.2875848E-03  0.1155086E+04  0.7818609E-02  0.9153104E-01
        1   -1    0    0  501    0  0.00000000000E+00  0.00000000000E+00  0.90289325218E+03  0.90289325220E+03  0.50400001928E-02 0.  1.
       -1   -1    0    0    0  501  0.00000000000E+00  0.00000000000E+00 -0.36942998220E+03  0.36942998223E+03  0.50400001928E-02 0. -1.
    10030    2    1    2    0    0  0.00000000000E+00  0.00000000000E+00  0.53346326999E+03  0.12723232344E+04  0.11550858637E+04 0.  0.
        1    1    3    3  502    0  0.21995729652E+03  0.53237717451E+03  0.22066365371E+03  0.61684610425E+03  0.50400001928E-02 0.  1.
       -1    1    3    3    0  502 -0.21995729652E+03 -0.53237717451E+03  0.31279961627E+03  0.65547713018E+03  0.50400001928E-02 0. -1.
</event>
<event>
 5   0  0.5031575E-03  0.1197247E+04  0.7818609E-02  0.9115270E-01
        2   -1    0    0  501    0  0.00000000000E+00  0.00000000000E+00  0.29419146946E+03  0.29419146947E+03  0.25500000920E-02 0. -1.
       -2   -1    0    0    0  501  0.00000000000E+00  0.00000000000E+00 -0.12180847852E+04  0.12180847852E+04  0.25500000920E-02 0.  1.
    10030    2    1    2    0    0  0.00000000000E+00  0.00000000000E+00 -0.92389331571E+03  0.15122762546E+04  0.11972470971E+04 0.  0.
        5    1    3    3  502    0  0.27358762193E+03  0.27573285826E+03  0.11336515640E+03  0.40466349561E+03  0.46999998093E+01 0. -1.
       -5    1    3    3    0  502 -0.27358762193E+03 -0.27573285826E+03 -0.10372584721E+04  0.11076127590E+04  0.46999998093E+01 0.  1.
</event>
<event>
 5   0  0.1922125E-03  0.1166739E+04  0.7818609E-02  0.9142479E-01
        3   -1    0    0  501    0  0.00000000000E+00  0.00000000000E+00  0.69877306322E+03  0.69877307052E+03  0.10100000352E+00 0. -1.
       -3   -1    0    0    0  501  0.00000000000E+00  0.00000000000E+00 -0.48702466799E+03  0.48702467846E+03  0.10100000352E+00 0.  1.
    10030    2    1    2    0    0  0.00000000000E+00  0.00000000000E+00  0.21174839523E+03  0.11857977490E+04  0.11667385819E+04 0.  0.
        5    1    3    3  502    0 -0.31416052818E+03 -0.43898481871E+03  0.33060416429E+03  0.63302899773E+03  0.46999998093E+01 0. -1.
       -5    1    3    3    0  502  0.31416052818E+03  0.43898481871E+03 -0.11885576906E+03  0.55276875125E+03  0.46999998093E+01 0.  1.
</event>
<event>
 5   0  0.5189537E-03  0.1170424E+04  0.7818609E-02  0.9139145E-01
        2   -1    0    0  501    0  0.00000000000E+00  0.00000000000E+00  0.10356630104E+04  0.10356630104E+04  0.25500000920E-02 0. -1.
       -2   -1    0    0    0  501  0.00000000000E+00  0.00000000000E+00 -0.33068015513E+03  0.33068015514E+03  0.25500000920E-02 0.  1.
    10030    2    1    2    0    0  0.00000000000E+00  0.00000000000E+00  0.70498285527E+03  0.13663431656E+04  0.11704242051E+04 0.  0.
        4    1    3    3  502    0  0.10745402992E+03 -0.31176589826E+03  0.91687084525E+03  0.97437061924E+03  0.12699999809E+01 0. -1.
       -4    1    3    3    0  502 -0.10745402992E+03  0.31176589826E+03 -0.21188798998E+03  0.39197254631E+03  0.12699999809E+01 0.  1.
</event>
<event>
 5   0  0.5189537E-03  0.1199079E+04  0.7818609E-02  0.9113663E-01
        2   -1    0    0  501    0  0.00000000000E+00  0.00000000000E+00  0.15558851539E+04  0.15558851539E+04  0.25500000920E-02 0. -1.
       -2   -1    0    0    0  501  0.00000000000E+00  0.00000000000E+00 -0.23102470556E+03  0.23102470557E+03  0.25500000920E-02 0.  1.
    10030    2    1    2    0    0  0.00000000000E+00  0.00000000000E+00  0.13248604483E+04  0.17869098595E+04  0.11990794962E+04 0.  0.
        4    1    3    3  502    0  0.19479955813E+02 -0.62976234036E+02 -0.22560564321E+03  0.23504253632E+03  0.12699999809E+01 0.  1.
       -4    1    3    3    0  502 -0.19479955813E+02  0.62976234036E+02  0.15504660916E+04  0.15518673232E+04  0.12699999809E+01 0. -1.
</event>
<event>
 5   0  0.2792518E-03  0.1224924E+04  0.7818609E-02  0.9091316E-01
        1   -1    0    0  501    0  0.00000000000E+00  0.00000000000E+00  0.81547163586E+03  0.81547163588E+03  0.50400001928E-02 0.  1.
       -1   -1    0    0    0  501  0.00000000000E+00  0.00000000000E+00 -0.45999084349E+03  0.45999084351E+03  0.50400001928E-02 0. -1.
    10030    2    1    2    0    0  0.00000000000E+00  0.00000000000E+00  0.35548079238E+03  0.12754624794E+04  0.12249236477E+04 0.  0.
        2    1    3    3  502    0  0.38113591888E+03 -0.42193710324E+03 -0.59278044246E+02  0.57167245367E+03  0.25500000920E-02 0. -1.
       -2    1    3    3    0  502 -0.38113591888E+03  0.42193710324E+03  0.41475883662E+03  0.70379002572E+03  0.25500000920E-02 0.  1.
</event>
<event>
 5   0  0.2930868E-03  0.1180866E+04  0.7818609E-02  0.9129771E-01
       -1   -1    0    0    0  501  0.00000000000E+00  0.00000000000E+00  0.25772711650E+03  0.25772711655E+03  0.50400001928E-02 0. -1.
        1   -1    0    0  501    0  0.00000000000E+00  0.00000000000E+00 -0.13526368878E+04  0.13526368878E+04  0.50400001928E-02 0.  1.
    10030    2    1    2    0    0  0.00000000000E+00  0.00000000000E+00 -0.10949097713E+04  0.16103640044E+04  0.11808661310E+04 0.  0.
        3    1    3    3  502    0  0.58818708827E+03  0.41477225511E+02 -0.58897060348E+03  0.83340913903E+03  0.10100000352E+00 0.  1.
       -3    1    3    3    0  502 -0.58818708827E+03 -0.41477225511E+02 -0.50593916782E+03  0.77695486535E+03  0.10100000352E+00 0. -1.
</event>
<event>
 5   0  0.2926844E-03  0.1191520E+04  0.7818609E-02  0.9120312E-01
       -1   -1    0    0    0  501  0.00000000000E+00  0.00000000000E+00  0.64868780687E+03  0.64868780689E+03  0.50400001928E-02 0.  1.
        1   -1    0    0  501    0  0.00000000000E+00  0.00000000000E+00 -0.54715028663E+03  0.54715028665E+03  0.50400001928E-02 0. -1.
    10030    2    1    2    0    0  0.00000000000E+00  0.00000000000E+00  0.10153752024E+03  0.11958380935E+04  0.11915195668E+04 0.  0.
        5    1    3    3  502    0 -0.26878123364E+03 -0.52941312007E+03  0.17447523973E+01  0.59375646305E+03  0.46999998093E+01 0.  1.
       -5    1    3    3    0  502  0.26878123364E+03  0.52941312007E+03  0.99792767839E+02  0.60208163049E+03  0.46999998093E+01 0. -1.
</event>
<event>
 5   0  0.5189537E-03  0.1190170E+04  0.7818609E-02  0.9121504E-01
       -2   -1    0    0    0  501  0.00000000000E+00  0.00000000000E+00  0.16347033160E+03  0.16347033162E+03  0.25500000920E-02 0.  1.
        2   -1    0    0  501    0  0.00000000000E+00  0.00000000000E+00 -0.21663038011E+04  0.21663038011E+04  0.25500000920E-02 0. -1.
    10030    2    1    2    0    0  0.00000000000E+00  0.00000000000E+00 -0.20028334695E+04  0.23297741327E+04  0.11901704092E+04 0.  0.
        4    1    3    3  502    0  0.22335038142E+03 -0.66877167417E+02  0.70340602009E+02  0.24353102799E+03  0.12699999809E+01 0.  1.
       -4    1    3    3    0  502 -0.22335038142E+03  0.66877167417E+02 -0.20731740715E+04  0.20862431047E+04  0.12699999809E+01 0. -1.
</event>
<event>
 5   0  0.5031575E-03  0.1208593E+04  0.7818609E-02  0.9105368E-01
       -2   -1    0    0    0  501  0.00000000000E+00  0.00000000000E+00  0.74724713151E+03  0.74724713152E+03  0.25500000920E-02 0.  1.
        2   -1    0    0  501    0  0.00000000000E+00  0.00000000000E+00 -0.48869293561E+03  0.48869293562E+03  0.25500000920E-02 0. -1.
    10030    2    1    2    0    0  0.00000000000E+00  0.00000000000E+00  0.25855419590E+03  0.12359400671E+04  0.12085932224E+04 0.  0.
        5    1    3    3  502    0 -0.28139421209E+03  0.52996303063E+03  0.56184029553E+02  0.60267922779E+03  0.46999998093E+01 0. -1.
       -5    1    3    3    0  502  0.28139421209E+03 -0.52996303063E+03  0.20237016635E+03  0.63326083935E+03  0.46999998093E+01 0.  1.
</event>
<event>
 5   0  0.5467554E-03  0.1179962E+04  0.7818609E-02  0.9130579E-01
       -2   -1    0    0    0  501  0.00000000000E+00  0.00000000000E+00  0.85882655403E+03  0.85882655403E+03  0.25500000920E-02 0.  1.
        2   -1    0    0  501    0  0.00000000000E+00  0.00000000000E+00 -0.40529441717E+03  0.40529441718E+03  0.25500000920E-02 0. -1.
    10030    2    1    2    0    0  0.00000000000E+00  0.00000000000E+00  0.45353213686E+03  0.12641209712E+04  0.11799620463E+04 0.  0.
        1    1    3    3  502    0  0.58916880283E+03  0.25572518951E+02  0.24543833803E+03  0.63875958682E+03  0.50400001928E-02 0. -1.
       -1    1    3    3    0  502 -0.58916880283E+03 -0.25572518951E+02  0.20809379883E+03  0.62536138439E+03  0.50400001928E-02 0.  1.
</event>
<event>
 5   0  0.5467554E-03  0.1196817E+04  0.7818609E-02  0.9115647E-01
        2   -1    0    0  501    0  0.00000000000E+00  0.00000000000E+00  0.63070387225E+03  0.63070387225E+03  0.25500000920E-02 0. -1.
       -2   -1    0    0    0  501  0.00000000000E+00  0.00000000000E+00 -0.56776670516E+03  0.56776670517E+03  0.25500000920E-02 0.  1.
    10030    2    1    2    0    0  0.00000000000E+00  0.00000000000E+00  0.62937167080E+02  0.11984705774E+04  0.11968168774E+04 0.  0.
        1    1    3    3  502    0 -0.37132207251E+03  0.42536461141E+03  0.22992800914E+03  0.60965730012E+03  0.50400001928E-02 0.  1.
       -1    1    3    3    0  502  0.37132207251E+03 -0.42536461141E+03 -0.16699084206E+03  0.58881327730E+03  0.50400001928E-02 0. -1.
</event>
<event>
 5   0  0.1922125E-03  0.1196366E+04  0.7818609E-02  0.9116043E-01
        3   -1    0    0  501    0  0.00000000000E+00  0.00000000000E+00  0.15063512671E+04  0.15063512705E+04  0.10100000352E+00 0. -1.
       -3   -1    0    0    0  501  0.00000000000E+00  0.00000000000E+00 -0.23754272142E+03  0.23754274289E+03  0.10100000352E+00 0.  1.
    10030    2    1    2    0    0  0.00000000000E+00  0.00000000000E+00  0.12688085457E+04  0.17438940134E+04  0.11963658322E+04 0.  0.
        2    1    3    3  502    0 -0.41986483919E+03  0.40061194462E+03  0.84587237564E+03  0.10258052882E+04  0.25500000920E-02 0. -1.
       -2    1    3    3    0  502  0.41986483919E+03 -0.40061194462E+03  0.42293617008E+03  0.71808872524E+03  0.25500000920E-02 0.  1.
</event>
<event>
 5   0  0.1922125E-03  0.1216169E+04  0.7818609E-02  0.9098820E-01
        3   -1    0    0  501    0  0.00000000000E+00  0.00000000000E+00  0.12266733961E+04  0.12266734003E+04  0.10100000352E+00 0. -1.
       -3   -1    0    0    0  501  0.00000000000E+00  0.00000000000E+00 -0.30143868685E+03  0.30143870377E+03  0.10100000352E+00 0.  1.
    10030    2    1    2    0    0  0.00000000000E+00  0.00000000000E+00  0.92523470926E+03  0.15281121040E+04  0.12161691228E+04 0.  0.
        4    1    3    3  502    0 -0.19560995588E+03  0.52824027605E+03  0.75041860367E+03  0.93831270785E+03  0.12699999809E+01 0. -1.
       -4    1    3    3    0  502  0.19560995588E+03 -0.52824027605E+03  0.17481610559E+03  0.58979939620E+03  0.12699999809E+01 0.  1.
</event>
<event>
 5   0  0.5189537E-03  0.1158971E+04  0.7818609E-02  0.9149547E-01
        2   -1    0    0  501    0  0.00000000000E+00  0.00000000000E+00  0.91723564135E+03  0.91723564135E+03  0.25500000920E-02 0. -1.
       -2   -1    0    0    0  501  0.00000000000E+00  0.00000000000E+00 -0.36610373161E+03  0.36610373162E+03  0.25500000920E-02 0.  1.
    10030    2    1    2    0    0  0.00000000000E+00  0.00000000000E+00  0.55113190973E+03  0.12833393730E+04  0.11589709074E+04 0.  0.
        4    1    3    3  502    0 -0.62624423119E+02 -0.39214032348E+03 -0.19174737554E+03  0.44098131547E+03  0.12699999809E+01 0.  1.
       -4    1    3    3    0  502  0.62624423119E+02  0.39214032348E+03  0.74287928527E+03  0.84235805751E+03  0.12699999809E+01 0. -1.
</event>
<event>
 5   0  0.2938349E-03  0.1196379E+04  0.7818609E-02  0.9116032E-01
        1   -1    0    0  501    0  0.00000000000E+00  0.00000000000E+00  0.23828198173E+04  0.23828198173E+04  0.50400001928E-02 0. -1.
       -1   -1    0    0    0  501  0.00000000000E+00  0.00000000000E+00 -0.15017101249E+03  0.15017101257E+03  0.50400001928E-02 0.  1.
    10030    2    1    2    0    0  0.00000000000E+00  0.00000000000E+00  0.22326488048E+04  0.25329908298E+04  0.11963786435E+04 0.  0.
        4    1    3    3  502    0  0.84405726138E+02  0.40796465083E+03  0.20251729966E+04  0.20675799288E+04  0.12699999809E+01 0. -1.
       -4    1    3    3    0  502 -0.84405726138E+02 -0.40796465083E+03  0.20747580819E+03  0.46541090104E+03  0.12699999809E+01 0.  1.
</event>
<event>
 5   0  0.5189537E-03  0.1179152E+04  0.7818609E-02  0.9131303E-01
        2   -1    0    0  501    0  0.00000000000E+00  0.00000000000E+00  0.42155248388E+03  0.42155248389E+03  0.25500000920E-02 0. -1.
       -2   -1    0    0    0  501  0.00000000000E+00  0.00000000000E+00 -0.82457025559E+03  0.82457025560E+03  0.25500000920E-02 0.  1.
    10030    2    1    2    0    0  0.00000000000E+00  0.00000000000E+00 -0.40301777171E+03  0.12461227395E+04  0.11791516262E+04 0.  0.
        4    1    3    3  502    0  0.14693300700E+03  0.26064829413E+03  0.33535096285E+03  0.44943155537E+03  0.12699999809E+01 0. -1.
       -4    1    3    3    0  502 -0.14693300700E+03 -0.26064829413E+03 -0.73836873456E+03  0.79669118412E+03  0.12699999809E+01 0.  1.
</event>
<event>
 5   0  0.2930868E-03  0.1238013E+04  0.7818609E-02  0.9080220E-01
       -1   -1    0    0    0  501  0.00000000000E+00  0.00000000000E+00  0.27205100401E+03  0.27205100406E+03  0.50400001928E-02 0. -1.
        1   -1    0    0  501    0  0.00000000000E+00  0.00000000000E+00 -0.14084449022E+04  0.14084449022E+04  0.50400001928E-02 0.  1.
    10030    2    1    2    0    0  0.00000000000E+00  0.00000000000E+00 -0.11363938982E+04  0.16804959063E+04  0.12380126813E+04 0.  0.
        3    1    3    3  502    0 -0.15585291318E+03  0.36343421428E+03  0.78243338667E+02  0.40310865645E+03  0.10100000352E+00 0. -1.
       -3    1    3    3    0  502  0.15585291318E+03 -0.36343421428E+03 -0.12146372368E+04  0.12773872498E+04  0.10100000352E+00 0.  1.
</event>
<event>
 5   0  0.2938349E-03  0.1190220E+04  0.7818609E-02  0.9121460E-01
        1   -1    0    0  501    0  0.00000000000E+00  0.00000000000E+00  0.11946362335E+04  0.11946362335E+04  0.50400001928E-02 0. -1.
       -1   -1    0    0    0  501  0.00000000000E+00  0.00000000000E+00 -0.29645525671E+03  0.29645525675E+03  0.50400001928E-02 0.  1.
    10030    2    1    2    0    0  0.00000000000E+00  0.00000000000E+00  0.89818097675E+03  0.14910914902E+04  0.11902204692E+04 0.  0.
        4    1    3    3  502    0  0.39493558612E+03 -0.40547986151E+03  0.67929836422E+03  0.88421485840E+03  0.12699999809E+01 0. -1.
       -4    1    3    3    0  502 -0.39493558612E+03  0.40547986151E+03  0.21888261253E+03  0.60687663182E+03  0.12699999809E+01 0.  1.
</event>
<event>
 5   0  0.2792518E-03  0.1216999E+04  0.7818609E-02  0.9098106E-01
       -1   -1    0    0    0  501  0.00000000000E+00  0.00000000000E+00  0.14810129530E+04  0.14810129530E+04  0.50400001928E-02 0. -1.
        1   -1    0    0  501    0  0.00000000000E+00  0.00000000000E+00 -0.25001246599E+03  0.25001246604E+03  0.50400001928E-02 0.  1.
    10030    2    1    2    0    0  0.00000000000E+00  0.00000000000E+00  0.12310004870E+04  0.17310254191E+04  0.12169990971E+04 0.  0.
        2    1    3    3  502    0 -0.53800797069E+03  0.27081153990E+02  0.10180233100E+04  0.11517627469E+04  0.25500000920E-02 0. -1.
       -2    1    3    3    0  502  0.53800797069E+03 -0.27081153990E+02  0.21297717704E+03  0.57926267218E+03  0.25500000920E-02 0.  1.
</event>
<event>
 5   0  0.5467554E-03  0.1205403E+04  0.7818609E-02  0.9108141E-01
        2   -1    0    0  501    0  0.00000000000E+00  0.00000000000E+00  0.83624275092E+03  0.83624275092E+03  0.25500000920E-02 0. -1.
       -2   -1    0    0    0  501  0.00000000000E+00  0.00000000000E+00 -0.43438203162E+03  0.43438203163E+03  0.25500000920E-02 0.  1.
    10030    2    1    2    0    0  0.00000000000E+00  0.00000000000E+00  0.40186071929E+03  0.12706247826E+04  0.12054025470E+04 0.  0.
        1    1    3    3  502    0 -0.40288952145E+03 -0.43339675175E+03  0.80300050029E+02  0.59716062243E+03  0.50400001928E-02 0.  1.
       -1    1    3    3    0  502  0.40288952145E+03  0.43339675175E+03  0.32156066926E+03  0.67346416012E+03  0.50400001928E-02 0. -1.
</event>
<event>
 5   0  0.2875848E-03  0.1204918E+04  0.7818609E-02  0.9108562E-01
        1   -1    0    0  501    0  0.00000000000E+00  0.00000000000E+00  0.75623795545E+03  0.75623795547E+03  0.50400001928E-02 0. -1.
       -1   -1    0    0    0  501  0.00000000000E+00  0.00000000000E+00 -0.47995088507E+03  0.47995088510E+03  0.50400001928E-02 0.  1.
    10030    2    1    2    0    0  0.00000000000E+00  0.00000000000E+00  0.27628707038E+03  0.12361888406E+04  0.12049183808E+04 0.  0.
        1    1    3    3  502    0 -0.58743805303E+02  0.58640890325E+03  0.98755295608E+01  0.58942663884E+03  0.50400001928E-02 0.  1.
       -1    1    3    3    0  502  0.58743805303E+02 -0.58640890325E+03  0.26641154082E+03  0.64676220172E+03  0.50400001928E-02 0. -1.
</event>
<event>
 5   0  0.5108045E-03  0.1204591E+04  0.7818609E-02  0.9108847E-01
        2   -1    0    0  501    0  0.00000000000E+00  0.00000000000E+00  0.68395089295E+03  0.68395089295E+03  0.25500000920E-02 0. -1.
       -2   -1    0    0    0  501  0.00000000000E+00  0.00000000000E+00 -0.53038891516E+03  0.53038891516E+03  0.25500000920E-02 0.  1.
    10030    2    1    2    0    0  0.00000000000E+00  0.00000000000E+00  0.15356197779E+03  0.12143398081E+04  0.12045911707E+04 0.  0.
        3    1    3    3  502    0 -0.38480282509E+03 -0.12426662497E+03  0.52676158425E+03  0.66407317753E+03  0.10100000352E+00 0. -1.
       -3    1    3    3    0  502  0.38480282509E+03  0.12426662497E+03 -0.37319960646E+03  0.55026663058E+03  0.10100000352E+00 0.  1.
</event>
<event>
 5   0  0.5003526E-03  0.1240589E+04  0.7818609E-02  0.9078053E-01
        2   -1    0    0  501    0  0.00000000000E+00  0.00000000000E+00  0.96608282252E+03  0.96608282253E+03  0.25500000920E-02 0.  1.
       -2   -1    0    0    0  501  0.00000000000E+00  0.00000000000E+00 -0.39827339247E+03  0.39827339248E+03  0.25500000920E-02 0. -1.
    10030    2    1    2    0    0  0.00000000000E+00  0.00000000000E+00  0.56780943005E+03  0.13643562150E+04  0.12405887040E+04 0.  0.
        2    1    3    3  502    0  0.27661569357E+03  0.31032481029E+03  0.79021173619E+03  0.89288986881E+03  0.25500000920E-02 0.  1.
       -2    1    3    3    0  502 -0.27661569357E+03 -0.31032481029E+03 -0.22240230614E+03  0.47146634619E+03  0.25500000920E-02 0. -1.
</event>
<event>
 5   0  0.5189537E-03  0.1195558E+04  0.7818609E-02  0.9116754E-01
       -2   -1    0    0    0  501  0.00000000000E+00  0.00000000000E+00  0.43633789086E+03  0.43633789087E+03  0.25500000920E-02 0. -1.
        2   -1    0    0  501    0  0.00000000000E+00  0.00000000000E+00 -0.81895177416E+03  0.81895177416E+03  0.25500000920E-02 0.  1.
    10030    2    1    2    0    0  0.00000000000E+00  0.00000000000E+00 -0.38261388329E+03  0.12552896650E+04  0.11955579281E+04 0.  0.
        4    1    3    3  502    0  0.58051948801E+03 -0.13533604010E+03 -0.14412455469E+03  0.61326358108E+03  0.12699999809E+01 0. -1.
       -4    1    3    3    0  502 -0.58051948801E+03  0.13533604010E+03 -0.23848932860E+03  0.64202608395E+03  0.12699999809E+01 0.  1.
</event>
<event>
 5   0  0.2938349E-03  0.1251036E+04  0.7818609E-02  0.9069322E-01
       -1   -1    0    0    0  501  0.00000000000E+00  0.00000000000E+00  0.11451658141E+04  0.11451658142E+04  0.50400001928E-02 0. -1.
        1   -1    0    0  501    0  0.00000000000E+00  0.00000000000E+00 -0.34167328165E+03  0.34167328168E+03  0.50400001928E-02 0.  1.
    10030    2    1    2    0    0  0.00000000000E+00  0.00000000000E+00  0.80349253250E+03  0.14868390958E+04  0.12510356698E+04 0.  0.
        4    1    3    3  502    0 -0.12596705203E+03  0.42222496320E+03  0.92942537904E+03  0.10285790032E+04  0.12699999809E+01 0. -1.
       -4    1    3    3    0  502  0.12596705203E+03 -0.42222496320E+03 -0.12593284655E+03  0.45826009262E+03  0.12699999809E+01 0.  1.
</event>
<event>
 5   0  0.2875848E-03  0.1075458E+04  0.7818609E-02  0.9229447E-01
        1   -1    0    0  501    0  0.00000000000E+00  0.00000000000E+00  0.54011959614E+03  0.54011959616E+03  0.50400001928E-02 0.  1.
       -1   -1    0    0    0  501  0.00000000000E+00  0.00000000000E+00 -0.53534942683E+03  0.53534942686E+03  0.50400001928E-02 0. -1.
    10030    2    1    2    0    0  0.00000000000E+00  0.00000000000E+00  0.47701693073E+01  0.10754690230E+04  0.10754584441E+04 0.  0.
        1    1    3    3  502    0 -0.52283930288E+02 -0.15859685260E+03  0.51353211360E+03  0.54000166920E+03  0.50400001928E-02 0.  1.
       -1    1    3    3    0  502  0.52283930288E+02  0.15859685260E+03 -0.50876194429E+03  0.53546735382E+03  0.50400001928E-02 0. -1.
</event>
<event>
 5   0  0.5189537E-03  0.1236487E+04  0.7818609E-02  0.9081505E-01
       -2   -1    0    0    0  501  0.00000000000E+00  0.00000000000E+00  0.48788115873E+03  0.48788115874E+03  0.25500000920E-02 0.  1.
        2   -1    0    0  501    0  0.00000000000E+00  0.00000000000E+00 -0.78343928972E+03  0.78343928973E+03  0.25500000920E-02 0. -1.
    10030    2    1    2    0    0  0.00000000000E+00  0.00000000000E+00 -0.29555813099E+03  0.12713204485E+04  0.12364873933E+04 0.  0.
        4    1    3    3  502    0  0.48479652744E+02 -0.56948874995E+03  0.94564001330E+02  0.57932001199E+03  0.12699999809E+01 0.  1.
       -4    1    3    3    0  502 -0.48479652744E+02  0.56948874995E+03 -0.39012213232E+03  0.69200043647E+03  0.12699999809E+01 0. -1.
</event>
<event>
 5   0  0.5031575E-03  0.1225974E+04  0.7818609E-02  0.9090421E-01
        2   -1    0    0  501    0  0.00000000000E+00  0.00000000000E+00  0.81632224662E+03  0.81632224662E+03  0.25500000920E-02 0. -1.
       -2   -1    0    0    0  501  0.00000000000E+00  0.00000000000E+00 -0.46029988847E+03  0.46029988848E+03  0.25500000920E-02 0.  1.
    10030    2    1    2    0    0  0.00000000000E+00  0.00000000000E+00  0.35602235814E+03  0.12766221351E+04  0.12259739623E+04 0.  0.
        5    1    3    3  502    0 -0.49322415778E+03 -0.10270587142E+03  0.54159540604E+03  0.73970686064E+03  0.46999998093E+01 0. -1.
       -5    1    3    3    0  502  0.49322415778E+03  0.10270587142E+03 -0.18557304790E+03  0.53691527446E+03  0.46999998093E+01 0.  1.
</event>
<event>
 5   0  0.2792518E-03  0.1202659E+04  0.7818609E-02  0.9110532E-01
       -1   -1    0    0    0  501  0.00000000000E+00  0.00000000000E+00  0.37911430185E+03  0.37911430188E+03  0.50400001928E-02 0.  1.
        1   -1    0    0  501    0  0.00000000000E+00  0.00000000000E+00 -0.95379444217E+03  0.95379444219E+03  0.50400001928E-02 0. -1.
    10030    2    1    2    0    0  0.00000000000E+00  0.00000000000E+00 -0.57468014032E+03  0.13329087441E+04  0.12026589111E+04 0.  0.
        2    1    3    3  502    0 -0.48885484589E+03 -0.14761147499E+03  0.64585215180E+02  0.51472270003E+03  0.25500000920E-02 0.  1.
       -2    1    3    3    0  502  0.48885484589E+03  0.14761147499E+03 -0.63926535550E+03  0.81818604404E+03  0.25500000920E-02 0. -1.
</event>
<event>
 5   0  0.2930868E-03  0.1200367E+04  0.7818609E-02  0.9112536E-01
        1   -1    0    0  501    0  0.00000000000E+00  0.00000000000E+00  0.82384265968E+03  0.82384265969E+03  0.50400001928E-02 0.  1.
       -1   -1    0    0    0  501  0.00000000000E+00  0.00000000000E+00 -0.43724362986E+03  0.43724362989E+03  0.50400001928E-02 0. -1.
    10030    2    1    2    0    0  0.00000000000E+00  0.00000000000E+00  0.38659902982E+03  0.12610862896E+04  0.12003665357E+04 0.  0.
        3    1    3    3  502    0  0.44151698134E+03 -0.40642976473E+03  0.18292336262E+03  0.62736222811E+03  0.10100000352E+00 0. -1.
       -3    1    3    3    0  502 -0.44151698134E+03  0.40642976473E+03  0.20367566720E+03  0.63372406147E+03  0.10100000352E+00 0.  1.
</event>
<event>
 5   0  0.5003526E-03  0.1246989E+04  0.7818609E-02  0.9072693E-01
        2   -1    0    0  501    0  0.00000000000E+00  0.00000000000E+00  0.23244551279E+04  0.23244551279E+04  0.25500000920E-02 0. -1.
       -2   -1    0    0    0  501  0.00000000000E+00  0.00000000000E+00 -0.16724150531E+03  0.16724150533E+03  0.25500000920E-02 0.  1.
    10030    2    1    2    0    0  0.00000000000E+00  0.00000000000E+00  0.21572136226E+04  0.24916966332E+04  0.12469889729E+04 0.  0.
        2    1    3    3  502    0 -0.56604006465E+03 -0.22798041235E+03  0.13342551544E+04  0.14671786668E+04  0.25500000920E-02 0.  1.
       -2    1    3    3    0  502  0.56604006465E+03  0.22798041235E+03  0.82295846817E+03  0.10245179664E+04  0.25500000920E-02 0. -1.
</event>
<event>
 5   0  0.5189537E-03  0.1221073E+04  0.7818609E-02  0.9094609E-01
        2   -1    0    0  501    0  0.00000000000E+00  0.00000000000E+00  0.53159104161E+03  0.53159104162E+03  0.25500000920E-02 0. -1.
       -2   -1    0    0    0  501  0.00000000000E+00  0.00000000000E+00 -0.70120549883E+03  0.70120549883E+03  0.25500000920E-02 0.  1.
    10030    2    1    2    0    0  0.00000000000E+00  0.00000000000E+00 -0.16961445722E+03  0.12327965404E+04  0.12210725802E+04 0.  0.
        4    1    3    3  502    0 -0.43020814861E+03  0.25866081083E+03  0.26604701395E+03  0.56812594794E+03  0.12699999809E+01 0. -1.
       -4    1    3    3    0  502  0.43020814861E+03 -0.25866081083E+03 -0.43566147117E+03  0.66467059251E+03  0.12699999809E+01 0.  1.
</event>
<event>
 5   0  0.2875848E-03  0.1210441E+04  0.7818609E-02  0.9103767E-01
        1   -1    0    0  501    0  0.00000000000E+00  0.00000000000E+00  0.79134624388E+03  0.79134624390E+03  0.50400001928E-02 0.  1.
       -1   -1    0    0    0  501  0.00000000000E+00  0.00000000000E+00 -0.46287149305E+03  0.46287149308E+03  0.50400001928E-02 0. -1.
    10030    2    1    2    0    0  0.00000000000E+00  0.00000000000E+00  0.32847475082E+03  0.12542177370E+04  0.12104406098E+04 0.  0.
        1    1    3    3  502    0  0.58185828314E+03  0.13088096838E+03  0.57543802123E+02  0.59916623631E+03  0.50400001928E-02 0. -1.
       -1    1    3    3    0  502 -0.58185828314E+03 -0.13088096838E+03  0.27093094870E+03  0.65505150067E+03  0.50400001928E-02 0.  1.
</event>
<event>
 5   0  0.2875848E-03  0.1451457E+04  0.7818609E-02  0.8917391E-01
       -1   -1    0    0    0  501  0.00000000000E+00  0.00000000000E+00  0.27219980044E+03  0.27219980048E+03  0.50400001928E-02 0.  1.
        1   -1    0    0  501    0  0.00000000000E+00  0.00000000000E+00 -0.19349082441E+04  0.19349082441E+04  0.50400001928E-02 0. -1.
    10030    2    1    2    0    0  0.00000000000E+00  0.00000000000E+00 -0.16627084437E+04  0.22071080446E+04  0.14514567000E+04 0.  0.
        1    1    3    3  502    0 -0.66351452168E+03  0.27546433452E+03 -0.98753796087E+03  0.12212138815E+04  0.50400001928E-02 0. -1.
       -1    1    3    3    0  502  0.66351452168E+03 -0.27546433452E+03 -0.67517048284E+03  0.98589416318E+03  0.50400001928E-02 0.  1.
</event>
<event>
 5   0  0.5108045E-03  0.1178784E+04  0.7818609E-02  0.9131632E-01
       -2   -1    0    0    0  501  0.00000000000E+00  0.00000000000E+00  0.33263022293E+03  0.33263022294E+03  0.25500000920E-02 0.  1.
        2   -1    0    0  501    0  0.00000000000E+00  0.00000000000E+00 -0.10443518769E+04  0.10443518769E+04  0.25500000920E-02 0. -1.
    10030    2    1    2    0    0  0.00000000000E+00  0.00000000000E+00 -0.71172165398E+03  0.13769820999E+04  0.11787841153E+04 0.  0.
        3    1    3    3  502    0 -0.31768131230E+03 -0.28720609515E+03  0.11716169589E+03  0.44399958385E+03  0.10100000352E+00 0.  1.
       -3    1    3    3    0  502  0.31768131230E+03  0.28720609515E+03 -0.82888334986E+03  0.93298251600E+03  0.10100000352E+00 0. -1.
</event>
<event>
 5   0  0.2938349E-03  0.1194063E+04  0.7818609E-02  0.9118069E-01
       -1   -1    0    0    0  501  0.00000000000E+00  0.00000000000E+00  0.57395890063E+03  0.57395890065E+03  0.50400001928E-02 0.  1.
        1   -1    0    0  501    0  0.00000000000E+00  0.00000000000E+00 -0.62103132702E+03  0.62103132704E+03  0.50400001928E-02 0. -1.
    10030    2    1    2    0    0  0.00000000000E+00  0.00000000000E+00 -0.47072426388E+02  0.11949902277E+04  0.11940627416E+04 0.  0.
        4    1    3    3  502    0  0.46126333014E+03  0.79410263212E+02  0.34739301138E+03  0.58288366497E+03  0.12699999809E+01 0.  1.
       -4    1    3    3    0  502 -0.46126333014E+03 -0.79410263212E+02 -0.39446543776E+03  0.61210656272E+03  0.12699999809E+01 0. -1.
</event>
<event>
 5   0  0.2930868E-03  0.1141457E+04  0.7818609E-02  0.9165701E-01
       -1   -1    0    0    0  501  0.00000000000E+00  0.00000000000E+00  0.57574467089E+03  0.57574467091E+03  0.50400001928E-02 0. -1.
        1   -1    0    0  501    0  0.00000000000E+00  0.00000000000E+00 -0.56575573215E+03  0.56575573217E+03  0.50400001928E-02 0.  1.
    10030    2    1    2    0    0  0.00000000000E+00  0.00000000000E+00  0.99889387418E+01  0.11415004031E+04  0.11414566971E+04 0.  0.
        3    1    3    3  502    0 -0.24479097275E+03  0.74232886961E+02  0.51520778710E+03  0.57521493021E+03  0.10100000352E+00 0. -1.
       -3    1    3    3    0  502  0.24479097275E+03 -0.74232886961E+02 -0.50521884836E+03  0.56628547287E+03  0.10100000352E+00 0.  1.
</event>
<event>
 5   0  0.2875848E-03  0.1141395E+04  0.7818609E-02  0.9165759E-01
       -1   -1    0    0    0  501  0.00000000000E+00  0.00000000000E+00  0.68948776740E+03  0.68948776741E+03  0.50400001928E-02 0.  1.
        1   -1    0    0  501    0  0.00000000000E+00  0.00000000000E+00 -0.47237298970E+03  0.47237298972E+03  0.50400001928E-02 0. -1.
    10030    2    1    2    0    0  0.00000000000E+00  0.00000000000E+00  0.21711477770E+03  0.11618607571E+04  0.11413945822E+04 0.  0.
        1    1    3    3  502    0 -0.69246009140E+02 -0.36011582160E+03 -0.33656712019E+03  0.49775078219E+03  0.50400001928E-02 0. -1.
       -1    1    3    3    0  502  0.69246009140E+02  0.36011582160E+03  0.55368189789E+03  0.66410997495E+03  0.50400001928E-02 0.  1.
</event>
<event>
 5   0  0.2930868E-03  0.1170762E+04  0.7818609E-02  0.9138840E-01
        1   -1    0    0  501    0  0.00000000000E+00  0.00000000000E+00  0.10839419779E+04  0.10839419779E+04  0.50400001928E-02 0. -1.
       -1   -1    0    0    0  501  0.00000000000E+00  0.00000000000E+00 -0.31613422628E+03  0.31613422632E+03  0.50400001928E-02 0.  1.
    10030    2    1    2    0    0  0.00000000000E+00  0.00000000000E+00  0.76780775157E+03  0.14000762042E+04  0.11707624158E+04 0.  0.
        3    1    3    3  502    0 -0.51072433219E+03 -0.92529399704E+01  0.41990054329E+02  0.51253110662E+03  0.10100000352E+00 0.  1.
       -3    1    3    3    0  502  0.51072433219E+03  0.92529399704E+01  0.72581769724E+03  0.88754509757E+03  0.10100000352E+00 0. -1.
</event>
<event>
 5   0  0.1922125E-03  0.1267559E+04  0.7818609E-02  0.9055694E-01
        4   -1    0    0  501    0  0.00000000000E+00  0.00000000000E+00  0.73325455834E+03  0.73325565816E+03  0.12699999809E+01 0. -1.
       -4   -1    0    0    0  501  0.00000000000E+00  0.00000000000E+00 -0.54779756878E+03  0.54779904095E+03  0.12699999809E+01 0.  1.
    10030    2    1    2    0    0  0.00000000000E+00  0.00000000000E+00  0.18545698956E+03  0.12810546991E+04  0.12675594058E+04 0.  0.
        4    1    3    3  502    0 -0.54316037429E+02 -0.62522675582E+03  0.18208001124E+03  0.65346267798E+03  0.12699999809E+01 0. -1.
       -4    1    3    3    0  502  0.54316037429E+02  0.62522675582E+03  0.33769783137E+01  0.62759202114E+03  0.12699999809E+01 0.  1.
</event>
<event>
 5   0  0.2938349E-03  0.1154781E+04  0.7818609E-02  0.9153384E-01
        1   -1    0    0  501    0  0.00000000000E+00  0.00000000000E+00  0.66564599189E+03  0.66564599191E+03  0.50400001928E-02 0. -1.
       -1   -1    0    0    0  501  0.00000000000E+00  0.00000000000E+00 -0.50083635471E+03  0.50083635474E+03  0.50400001928E-02 0.  1.
    10030    2    1    2    0    0  0.00000000000E+00  0.00000000000E+00  0.16480963718E+03  0.11664823466E+04  0.11547808660E+04 0.  0.
        4    1    3    3  502    0 -0.22150504069E+03  0.38997005550E+03 -0.28492403159E+03  0.53134211570E+03  0.12699999809E+01 0.  1.
       -4    1    3    3    0  502  0.22150504069E+03 -0.38997005550E+03  0.44973366877E+03  0.63514023094E+03  0.12699999809E+01 0. -1.
</event>
<event>
 5   0  0.2875848E-03  0.1206761E+04  0.7818609E-02  0.9106959E-01
       -1   -1    0    0    0  501  0.00000000000E+00  0.00000000000E+00  0.36299980034E+03  0.36299980038E+03  0.50400001928E-02 0.  1.
        1   -1    0    0  501    0  0.00000000000E+00  0.00000000000E+00 -0.10029422673E+04  0.10029422673E+04  0.50400001928E-02 0. -1.
    10030    2    1    2    0    0  0.00000000000E+00  0.00000000000E+00 -0.63994246698E+03  0.13659420677E+04  0.12067606935E+04 0.  0.
        1    1    3    3  502    0 -0.37329659455E+03  0.97711796225E+02  0.20508024255E+03  0.43698495230E+03  0.50400001928E-02 0.  1.
       -1    1    3    3    0  502  0.37329659455E+03 -0.97711796225E+02 -0.84502270953E+03  0.92895711541E+03  0.50400001928E-02 0. -1.
</event>
<event>
 5   0  0.2930868E-03  0.1192489E+04  0.7818609E-02  0.9119456E-01
       -1   -1    0    0    0  501  0.00000000000E+00  0.00000000000E+00  0.39113617379E+03  0.39113617382E+03  0.50400001928E-02 0. -1.
        1   -1    0    0  501    0  0.00000000000E+00  0.00000000000E+00 -0.90891042249E+03  0.90891042251E+03  0.50400001928E-02 0.  1.
    10030    2    1    2    0    0  0.00000000000E+00  0.00000000000E+00 -0.51777424871E+03  0.13000465963E+04  0.11924894046E+04 0.  0.
        3    1    3    3  502    0 -0.48029442710E+03  0.35226147840E+03 -0.28848043954E+03  0.66180953458E+03  0.10100000352E+00 0. -1.
       -3    1    3    3    0  502  0.48029442710E+03 -0.35226147840E+03 -0.22929380917E+03  0.63823706175E+03  0.10100000352E+00 0.  1.
</event>
<event>
 5   0  0.5031575E-03  0.1205478E+04  0.7818609E-02  0.9108075E-01
       -2   -1    0    0    0  501  0.00000000000E+00  0.00000000000E+00  0.27655536046E+03  0.27655536047E+03  0.25500000920E-02 0.  1.
        2   -1    0    0  501    0  0.00000000000E+00  0.00000000000E+00 -0.13136398699E+04  0.13136398699E+04  0.25500000920E-02 0. -1.
    10030    2    1    2    0    0  0.00000000000E+00  0.00000000000E+00 -0.10370845094E+04  0.15901952304E+04  0.12054777439E+04 0.  0.
        5    1    3    3  502    0  0.12866361871E+03  0.27661816554E+02 -0.12944311229E+04  0.13011124182E+04  0.46999998093E+01 0. -1.
       -5    1    3    3    0  502 -0.12866361871E+03 -0.27661816554E+02  0.25734661342E+03  0.28908281220E+03  0.46999998093E+01 0.  1.
</event>
<event>
 5   0  0.5189537E-03  0.1206383E+04  0.7818609E-02  0.9107288E-01
        2   -1    0    0  501    0  0.00000000000E+00  0.00000000000E+00  0.19690364420E+04  0.19690364420E+04  0.25500000920E-02 0.  1.
       -2   -1    0    0    0  501  0.00000000000E+00  0.00000000000E+00 -0.18478058799E+03  0.18478058801E+03  0.25500000920E-02 0. -1.
    10030    2    1    2    0    0  0.00000000000E+00  0.00000000000E+00  0.17842558540E+04  0.21538170300E+04  0.12063825456E+04 0.  0.
        4    1    3    3  502    0  0.17578206229E+01  0.54189686861E+03  0.41915194917E+03  0.68508778674E+03  0.12699999809E+01 0. -1.
       -4    1    3    3    0  502 -0.17578206229E+01 -0.54189686861E+03  0.13651039049E+04  0.14687292433E+04  0.12699999809E+01 0.  1.
</event>
<event>
 5   0  0.2926844E-03  0.1171224E+04  0.7818609E-02  0.9138424E-01
        1   -1    0    0  501    0  0.00000000000E+00  0.00000000000E+00  0.31611499943E+03  0.31611499947E+03  0.50400001928E-02 0. -1.
       -1   -1    0    0    0  501  0.00000000000E+00  0.00000000000E+00 -0.10848621841E+04  0.10848621841E+04  0.50400001928E-02 0.  1.
    10030    2    1    2    0    0  0.00000000000E+00  0.00000000000E+00 -0.76874718467E+03  0.14009771836E+04  0.11712236486E+04 0.  0.
        5    1    3    3  502    0  0.17657419651E+03 -0.46613009893E+03 -0.75201381664E+03  0.90222091885E+03  0.46999998093E+01 0. -1.
       -5    1    3    3    0  502 -0.17657419651E+03  0.46613009893E+03 -0.16733368033E+02  0.49875626473E+03  0.46999998093E+01 0.  1.
</event>
<event>
 5   0  0.5189537E-03  0.1169892E+04  0.7818609E-02  0.9139626E-01
       -2   -1    0    0    0  501  0.00000000000E+00  0.00000000000E+00  0.16800279179E+03  0.16800279181E+03  0.25500000920E-02 0.  1.
        2   -1    0    0  501    0  0.00000000000E+00  0.00000000000E+00 -0.20366424777E+04  0.20366424777E+04  0.25500000920E-02 0. -1.
    10030    2    1    2    0    0  0.00000000000E+00  0.00000000000E+00 -0.18686396859E+04  0.22046452695E+04  0.11698916568E+04 0.  0.
        4    1    3    3  502    0 -0.23263443743E+03 -0.28771952168E+03 -0.17880956985E+04  0.18259762169E+04  0.12699999809E+01 0. -1.
       -4    1    3    3    0  502  0.23263443743E+03  0.28771952168E+03 -0.80543987412E+02  0.37866905266E+03  0.12699999809E+01 0.  1.
</event>
<event>
 5   0  0.2930868E-03  0.1198413E+04  0.7818609E-02  0.9114247E-01
        1   -1    0    0  501    0  0.00000000000E+00  0.00000000000E+00  0.68909227288E+03  0.68909227290E+03  0.50400001928E-02 0.  1.
       -1   -1    0    0    0  501  0.00000000000E+00  0.00000000000E+00 -0.52104525236E+03  0.52104525238E+03  0.50400001928E-02 0. -1.
    10030    2    1    2    0    0  0.00000000000E+00  0.00000000000E+00  0.16804702052E+03  0.12101375253E+04  0.11984127123E+04 0.  0.
        3    1    3    3  502    0 -0.26357144881E+03 -0.53686356289E+03  0.12120567454E+03  0.61023210300E+03  0.10100000352E+00 0.  1.
       -3    1    3    3    0  502  0.26357144881E+03  0.53686356289E+03  0.46841345981E+02  0.59990542228E+03  0.10100000352E+00 0. -1.
</event>
<event>
 5   0  0.5003526E-03  0.1085804E+04  0.7818609E-02  0.9219139E-01
        2   -1    0    0  501    0  0.00000000000E+00  0.00000000000E+00  0.14649322828E+04  0.14649322828E+04  0.25500000920E-02 0. -1.
       -2   -1    0    0    0  501  0.00000000000E+00  0.00000000000E+00 -0.20119893033E+03  0.20119893035E+03  0.25500000920E-02 0.  1.
    10030    2    1    2    0    0  0.00000000000E+00  0.00000000000E+00  0.12637333525E+04  0.16661312132E+04  0.10858044176E+04 0.  0.
        2    1    3    3  502    0 -0.53251712001E+03 -0.93061135141E+02  0.70871193249E+03  0.89135148020E+03  0.25500000920E-02 0.  1.
       -2    1    3    3    0  502  0.53251712001E+03  0.93061135141E+02  0.55502142002E+03  0.77477973300E+03  0.25500000920E-02 0. -1.
</event>
<event>
 5   0  0.5467554E-03  0.9282527E+03  0.7818609E-02  0.9390937E-01
        2   -1    0    0  501    0  0.00000000000E+00  0.00000000000E+00  0.12205592340E+04  0.12205592340E+04  0.25500000920E-02 0.  1.
       -2   -1    0    0    0  501  0.00000000000E+00  0.00000000000E+00 -0.17648735870E+03  0.17648735871E+03  0.25500000920E-02 0. -1.
    10030    2    1    2    0    0  0.00000000000E+00  0.00000000000E+00  0.10440718753E+04  0.13970465927E+04  0.92825271418E+03 0.  0.
        1    1    3    3  502    0 -0.32464521630E+02 -0.44225030545E+03  0.31581961386E+03  0.54440913508E+03  0.50400001928E-02 0. -1.
       -1    1    3    3    0  502  0.32464521630E+02  0.44225030545E+03  0.72825226140E+03  0.85263745759E+03  0.50400001928E-02 0.  1.
</event>
<event>
 5   0  0.2938349E-03  0.1223556E+04  0.7818609E-02  0.9092484E-01
       -1   -1    0    0    0  501  0.00000000000E+00  0.00000000000E+00  0.44700557454E+03  0.44700557456E+03  0.50400001928E-02 0.  1.
        1   -1    0    0  501    0  0.00000000000E+00  0.00000000000E+00 -0.83728805410E+03  0.83728805412E+03  0.50400001928E-02 0. -1.
    10030    2    1    2    0    0  0.00000000000E+00  0.00000000000E+00 -0.39028247957E+03  0.12842936287E+04  0.12235561740E+04 0.  0.
        4    1    3    3  502    0 -0.61105258786E+03  0.16090431065E+01 -0.16395154734E+03  0.63266861541E+03  0.12699999809E+01 0.  1.
       -4    1    3    3    0  502  0.61105258786E+03 -0.16090431065E+01 -0.22633093223E+03  0.65162501328E+03  0.12699999809E+01 0. -1.
</event>
<event>
 5   0  0.5467554E-03  0.1189890E+04  0.7818609E-02  0.9121752E-01
        2   -1    0    0  501    0  0.00000000000E+00  0.00000000000E+00  0.10945530292E+04  0.10945530292E+04  0.25500000920E-02 0.  1.
       -2   -1    0    0    0  501  0.00000000000E+00  0.00000000000E+00 -0.32338293919E+03  0.32338293920E+03  0.25500000920E-02 0. -1.
    10030    2    1    2    0    0  0.00000000000E+00  0.00000000000E+00  0.77117008997E+03  0.14179359684E+04  0.11898903742E+04 0.  0.
        1    1    3    3  502    0 -0.24780150027E+03  0.10611431242E+03  0.10176036453E+04  0.10527027168E+04  0.50400001928E-02 0.  1.
       -1    1    3    3    0  502  0.24780150027E+03 -0.10611431242E+03 -0.24643355537E+03  0.36523325160E+03  0.50400001928E-02 0. -1.
</event>
<event>
 5   0  0.2792518E-03  0.1224973E+04  0.7818609E-02  0.9091274E-01
       -1   -1    0    0    0  501  0.00000000000E+00  0.00000000000E+00  0.62728627580E+03  0.62728627582E+03  0.50400001928E-02 0. -1.
        1   -1    0    0  501    0  0.00000000000E+00  0.00000000000E+00 -0.59803631163E+03  0.59803631165E+03  0.50400001928E-02 0.  1.
    10030    2    1    2    0    0  0.00000000000E+00  0.00000000000E+00  0.29249964170E+02  0.12253225875E+04  0.12249734213E+04 0.  0.
        2    1    3    3  502    0 -0.34651499061E+02 -0.13595250556E+03  0.61099636616E+03  0.62689741555E+03  0.25500000920E-02 0. -1.
       -2    1    3    3    0  502  0.34651499061E+02  0.13595250556E+03 -0.58174640199E+03  0.59842517192E+03  0.25500000920E-02 0.  1.
</event>
<event>
 5   0  0.5189537E-03  0.1398725E+04  0.7818609E-02  0.8954742E-01
        2   -1    0    0  501    0  0.00000000000E+00  0.00000000000E+00  0.16453562284E+04  0.16453562284E+04  0.25500000920E-02 0.  1.
       -2   -1    0    0    0  501  0.00000000000E+00  0.00000000000E+00 -0.29726583956E+03  0.29726583957E+03  0.25500000920E-02 0. -1.
    10030    2    1    2    0    0  0.00000000000E+00  0.00000000000E+00  0.13480903888E+04  0.19426220680E+04  0.13987254207E+04 0.  0.
        4    1    3    3  502    0 -0.64688281809E+03  0.50706230243E+02  0.10364212700E+04  0.12227833675E+04  0.12699999809E+01 0. -1.
       -4    1    3    3    0  502  0.64688281809E+03 -0.50706230243E+02  0.31166911886E+03  0.71983870046E+03  0.12699999809E+01 0.  1.
</event>
<event>
 5   0  0.5108045E-03  0.1214269E+04  0.7818609E-02  0.9100458E-01
        2   -1    0    0  501    0  0.00000000000E+00  0.00000000000E+00  0.16101246267E+04  0.16101246267E+04  0.25500000920E-02 0.  1.
       -2   -1    0    0    0  501  0.00000000000E+00  0.00000000000E+00 -0.22893388078E+03  0.22893388079E+03  0.25500000920E-02 0. -1.
    10030    2    1    2    0    0  0.00000000000E+00  0.00000000000E+00  0.13811907459E+04  0.18390585075E+04  0.12142686347E+04 0.  0.
        3    1    3    3  502    0  0.25907152042E+03  0.53824890903E+03  0.85499190204E+03  0.10429962145E+04  0.10100000352E+00 0. -1.
       -3    1    3    3    0  502 -0.25907152042E+03 -0.53824890903E+03  0.52619884384E+03  0.79606229293E+03  0.10100000352E+00 0.  1.
</event>
<event>
 5   0  0.2792518E-03  0.1202361E+04  0.7818609E-02  0.9110793E-01
        1   -1    0    0  501    0  0.00000000000E+00  0.00000000000E+00  0.94496989639E+03  0.94496989640E+03  0.50400001928E-02 0.  1.
       -1   -1    0    0    0  501  0.00000000000E+00  0.00000000000E+00 -0.38246491170E+03  0.38246491174E+03  0.50400001928E-02 0. -1.
    10030    2    1    2    0    0  0.00000000000E+00  0.00000000000E+00  0.56250498469E+03  0.13274348081E+04  0.12023607246E+04 0.  0.
        2    1    3    3  502    0  0.17653182021E+03 -0.21213019243E+03 -0.30839865608E+03  0.41385073779E+03  0.25500000920E-02 0. -1.
       -2    1    3    3    0  502 -0.17653182021E+03  0.21213019243E+03  0.87090364077E+03  0.91358407035E+03  0.25500000920E-02 0.  1.
</event>
<event>
 5   0  0.2938349E-03  0.1198260E+04  0.7818609E-02  0.9114381E-01
        1   -1    0    0  501    0  0.00000000000E+00  0.00000000000E+00  0.67045413264E+03  0.67045413266E+03  0.50400001928E-02 0.  1.
       -1   -1    0    0    0  501  0.00000000000E+00  0.00000000000E+00 -0.53539369140E+03  0.53539369143E+03  0.50400001928E-02 0. -1.
    10030    2    1    2    0    0  0.00000000000E+00  0.00000000000E+00  0.13506044124E+03  0.12058478241E+04  0.11982602606E+04 0.  0.
        4    1    3    3  502    0  0.10891558458E+03 -0.38651675487E+02 -0.52406877089E+03  0.53666213404E+03  0.12699999809E+01 0. -1.
       -4    1    3    3    0  502 -0.10891558458E+03  0.38651675487E+02  0.65912921213E+03  0.66918569005E+03  0.12699999809E+01 0.  1.
</event>
<event>
 5   0  0.2930868E-03  0.1133837E+04  0.7818609E-02  0.9172826E-01
       -1   -1    0    0    0  501  0.00000000000E+00  0.00000000000E+00  0.34434356026E+03  0.34434356030E+03  0.50400001928E-02 0. -1.
        1   -1    0    0  501    0  0.00000000000E+00  0.00000000000E+00 -0.93335957996E+03  0.93335957997E+03  0.50400001928E-02 0.  1.
    10030    2    1    2    0    0  0.00000000000E+00  0.00000000000E+00 -0.58901601969E+03  0.12777031403E+04  0.11338366034E+04 0.  0.
        3    1    3    3  502    0 -0.46801837429E+03 -0.35185611612E+02 -0.65284516780E+03  0.80404356179E+03  0.10100000352E+00 0.  1.
       -3    1    3    3    0  502  0.46801837429E+03  0.35185611612E+02  0.63829148113E+02  0.47365957848E+03  0.10100000352E+00 0. -1.
</event>
<event>
 5   0  0.2930868E-03  0.9680110E+03  0.7818609E-02  0.9344343E-01
       -1   -1    0    0    0  501  0.00000000000E+00  0.00000000000E+00  0.53774942865E+03  0.53774942867E+03  0.50400001928E-02 0. -1.
        1   -1    0    0  501    0  0.00000000000E+00  0.00000000000E+00 -0.43563287639E+03  0.43563287642E+03  0.50400001928E-02 0.  1.
    10030    2    1    2    0    0  0.00000000000E+00  0.00000000000E+00  0.10211655225E+03  0.97338230509E+03  0.96801101317E+03 0.  0.
        3    1    3    3  502    0  0.77636716887E+02  0.34985590208E+03 -0.27606933861E+03  0.45237252564E+03  0.10100000352E+00 0.  1.
       -3    1    3    3    0  502 -0.77636716887E+02 -0.34985590208E+03  0.37818589087E+03  0.52100977945E+03  0.10100000352E+00 0. -1.
</event>
<event>
 5   0  0.5108045E-03  0.1168837E+04  0.7818609E-02  0.9140580E-01
       -2   -1    0    0    0  501  0.00000000000E+00  0.00000000000E+00  0.74369723211E+03  0.74369723212E+03  0.25500000920E-02 0. -1.
        2   -1    0    0  501    0  0.00000000000E+00  0.00000000000E+00 -0.45925242462E+03  0.45925242463E+03  0.25500000920E-02 0.  1.
    10030    2    1    2    0    0  0.00000000000E+00  0.00000000000E+00  0.28444480749E+03  0.12029496567E+04  0.11688366131E+04 0.  0.
        3    1    3    3  502    0 -0.61596549109E+02 -0.32702469849E+03  0.63666591656E+03  0.71838902260E+03  0.10100000352E+00 0. -1.
       -3    1    3    3    0  502  0.61596549109E+02  0.32702469849E+03 -0.35222110907E+03  0.48456063414E+03  0.10100000352E+00 0.  1.
</event>
<event>
 5   0  0.5031575E-03  0.1177579E+04  0.7818609E-02  0.9132711E-01
        2   -1    0    0  501    0  0.00000000000E+00  0.00000000000E+00  0.12080507609E+04  0.12080507609E+04  0.25500000920E-02 0.  1.
       -2   -1    0    0    0  501  0.00000000000E+00  0.00000000000E+00 -0.28696886453E+03  0.28696886454E+03  0.25500000920E-02 0. -1.
    10030    2    1    2    0    0  0.00000000000E+00  0.00000000000E+00  0.92108189635E+03  0.14950196254E+04  0.11775787959E+04 0.  0.
        5    1    3    3  502    0 -0.29712307066E+03 -0.26022215653E+03 -0.93802524596E+02  0.40597868600E+03  0.46999998093E+01 0. -1.
       -5    1    3    3    0  502  0.29712307066E+03  0.26022215653E+03  0.10148844209E+04  0.10890409394E+04  0.46999998093E+01 0.  1.
</event>
<event>
 5   0  0.5003526E-03  0.1221666E+04  0.7818609E-02  0.9094101E-01
       -2   -1    0    0    0  501  0.00000000000E+00  0.00000000000E+00  0.32210010125E+03  0.32210010126E+03  0.25500000920E-02 0. -1.
        2   -1    0    0  501    0  0.00000000000E+00  0.00000000000E+00 -0.11583876370E+04  0.11583876370E+04  0.25500000920E-02 0.  1.
    10030    2    1    2    0    0  0.00000000000E+00  0.00000000000E+00 -0.83628753576E+03  0.14804877383E+04  0.12216657074E+04 0.  0.
        2    1    3    3  502    0  0.26849488080E+03  0.38330405939E+03 -0.89387446972E+03  0.10089712932E+04  0.25500000920E-02 0.  1.
       -2    1    3    3    0  502 -0.26849488080E+03 -0.38330405939E+03  0.57586933961E+02  0.47151644503E+03  0.25500000920E-02 0. -1.
</event>
<event>
 5   0  0.2875848E-03  0.1153278E+04  0.7818609E-02  0.9154765E-01
        1   -1    0    0  501    0  0.00000000000E+00  0.00000000000E+00  0.70747105574E+03  0.70747105576E+03  0.50400001928E-02 0. -1.
       -1   -1    0    0    0  501  0.00000000000E+00  0.00000000000E+00 -0.47000168358E+03  0.47000168360E+03  0.50400001928E-02 0.  1.
    10030    2    1    2    0    0  0.00000000000E+00  0.00000000000E+00  0.23746937216E+03  0.11774727394E+04  0.11532780884E+04 0.  0.
        1    1    3    3  502    0 -0.48553955367E+03 -0.31095159688E+03  0.12745993583E+03  0.59049605337E+03  0.50400001928E-02 0. -1.
       -1    1    3    3    0  502  0.48553955367E+03  0.31095159688E+03  0.11000943633E+03  0.58697668599E+03  0.50400001928E-02 0.  1.
</event>
<event>
 5   0  0.5003526E-03  0.1198737E+04  0.7818609E-02  0.9113962E-01
        2   -1    0    0  501    0  0.00000000000E+00  0.00000000000E+00  0.12206343819E+04  0.12206343819E+04  0.25500000920E-02 0.  1.
       -2   -1    0    0    0  501  0.00000000000E+00  0.00000000000E+00 -0.29430832869E+03  0.29430832870E+03  0.25500000920E-02 0. -1.
    10030    2    1    2    0    0  0.00000000000E+00  0.00000000000E+00  0.92632605320E+03  0.15149427106E+04  0.11987374440E+04 0.  0.
        2    1    3    3  502    0  0.27043278131E+03  0.41535370315E+03  0.37228625556E+02  0.49702973603E+03  0.25500000920E-02 0. -1.
       -2    1    3    3    0  502 -0.27043278131E+03 -0.41535370315E+03  0.88909742764E+03  0.10179129746E+04  0.25500000920E-02 0.  1.
</event>
<event>
 5   0  0.2875848E-03  0.1147507E+04  0.7818609E-02  0.9160087E-01
       -1   -1    0    0    0  501  0.00000000000E+00  0.00000000000E+00  0.32796581504E+03  0.32796581508E+03  0.50400001928E-02 0. -1.
        1   -1    0    0  501    0  0.00000000000E+00  0.00000000000E+00 -0.10037415445E+04  0.10037415445E+04  0.50400001928E-02 0.  1.
    10030    2    1    2    0    0  0.00000000000E+00  0.00000000000E+00 -0.67577572948E+03  0.13317073596E+04  0.11475067124E+04 0.  0.
        1    1    3    3  502    0 -0.21375670864E+03 -0.13321384373E+02  0.27983671508E+03  0.35238895684E+03  0.50400001928E-02 0. -1.
       -1    1    3    3    0  502  0.21375670864E+03  0.13321384373E+02 -0.95561244457E+03  0.97931840277E+03  0.50400001928E-02 0.  1.
</event>
<event>
 5   0  0.2926844E-03  0.1207281E+04  0.7818609E-02  0.9106507E-01
        1   -1    0    0  501    0  0.00000000000E+00  0.00000000000E+00  0.67761554487E+03  0.67761554489E+03  0.50400001928E-02 0.  1.
       -1   -1    0    0    0  501  0.00000000000E+00  0.00000000000E+00 -0.53774112536E+03  0.53774112538E+03  0.50400001928E-02 0. -1.
    10030    2    1    2    0    0  0.00000000000E+00  0.00000000000E+00  0.13987441951E+03  0.12153566703E+04  0.12072808218E+04 0.  0.
        5    1    3    3  502    0 -0.36292992793E+03 -0.22068201240E+03  0.50168953610E+03  0.65736836235E+03  0.46999998093E+01 0.  1.
       -5    1    3    3    0  502  0.36292992793E+03  0.22068201240E+03 -0.36181511659E+03  0.55798830792E+03  0.46999998093E+01 0. -1.
</event>
<event>
 5   0  0.5189537E-03  0.1186527E+04  0.7818609E-02  0.9124732E-01
       -2   -1    0    0    0  501  0.00000000000E+00  0.00000000000E+00  0.87380743535E+03  0.87380743535E+03  0.25500000920E-02 0. -1.
        2   -1    0    0  501    0  0.00000000000E+00  0.00000000000E+00 -0.40279080690E+03  0.40279080690E+03  0.25500000920E-02 0.  1.
    10030    2    1    2    0    0  0.00000000000E+00  0.00000000000E+00  0.47101662845E+03  0.12765982423E+04  0.11865270363E+04 0.  0.
        4    1    3    3  502    0 -0.89726542440E+02 -0.91990146891E+01  0.86638579131E+03  0.87106912847E+03  0.12699999809E+01 0. -1.
       -4    1    3    3    0  502  0.89726542440E+02  0.91990146891E+01 -0.39536916286E+03  0.40552911379E+03  0.12699999809E+01 0.  1.
</event>
<event>
 5   0  0.2930868E-03  0.1219694E+04  0.7818609E-02  0.9095791E-01
        1   -1    0    0  501    0  0.00000000000E+00  0.00000000000E+00  0.72948975090E+03  0.72948975092E+03  0.50400001928E-02 0.  1.
       -1   -1    0    0    0  501  0.00000000000E+00  0.00000000000E+00 -0.50982702837E+03  0.50982702840E+03  0.50400001928E-02 0. -1.
    10030    2    1    2    0    0  0.00000000000E+00  0.00000000000E+00  0.21966272253E+03  0.12393167793E+04  0.12196943748E+04 0.  0.
        3    1    3    3  502    0 -0.26983018940E+02 -0.43218169014E+03 -0.32650062276E+03  0.54232072011E+03  0.10100000352E+00 0. -1.
       -3    1    3    3    0  502  0.26983018940E+02  0.43218169014E+03  0.54616334529E+03  0.69699605920E+03  0.10100000352E+00 0.  1.
</event>
<event>
 5   0  0.1922125E-03  0.1200925E+04  0.7818609E-02  0.9112047E-01
        3   -1    0    0  501    0  0.00000000000E+00  0.00000000000E+00  0.37949894146E+03  0.37949895490E+03  0.10100000352E+00 0.  1.
       -3   -1    0    0    0  501  0.00000000000E+00  0.00000000000E+00 -0.95008287609E+03  0.95008288146E+03  0.10100000352E+00 0. -1.
    10030    2    1    2    0    0  0.00000000000E+00  0.00000000000E+00 -0.57058393462E+03  0.13295818364E+04  0.12009254070E+04 0.  0.
        1    1    3    3  502    0 -0.26201442831E+03  0.90102244694E+02 -0.87507751791E+03  0.91789467670E+03  0.50400001928E-02 0. -1.
       -1    1    3    3    0  502  0.26201442831E+03 -0.90102244694E+02  0.30449358328E+03  0.41168715966E+03  0.50400001928E-02 0.  1.
</event>
<event>
 5   0  0.2875848E-03  0.1210664E+04  0.7818609E-02  0.9103573E-01
        1   -1    0    0  501    0  0.00000000000E+00  0.00000000000E+00  0.44086084713E+03  0.44086084715E+03  0.50400001928E-02 0. -1.
       -1   -1    0    0    0  501  0.00000000000E+00  0.00000000000E+00 -0.83116234217E+03  0.83116234219E+03  0.50400001928E-02 0.  1.
    10030    2    1    2    0    0  0.00000000000E+00  0.00000000000E+00 -0.39030149505E+03  0.12720231893E+04  0.12106641719E+04 0.  0.
        1    1    3    3  502    0 -0.26078959920E+03 -0.46926780276E+03 -0.48897273408E+03  0.72616652391E+03  0.50400001928E-02 0.  1.
       -1    1    3    3    0  502  0.26078959920E+03  0.46926780276E+03  0.98671239026E+02  0.54585666543E+03  0.50400001928E-02 0. -1.
</event>
<event>
 5   0  0.2792518E-03  0.1090940E+04  0.7818609E-02  0.9214068E-01
       -1   -1    0    0    0  501  0.00000000000E+00  0.00000000000E+00  0.23402551160E+03  0.23402551165E+03  0.50400001928E-02 0.  1.
        1   -1    0    0  501    0  0.00000000000E+00  0.00000000000E+00 -0.12713892676E+04  0.12713892676E+04  0.50400001928E-02 0. -1.
    10030    2    1    2    0    0  0.00000000000E+00  0.00000000000E+00 -0.10373637560E+04  0.15054147792E+04  0.10909400054E+04 0.  0.
        2    1    3    3  502    0  0.37514590024E+03  0.96007457718E+02 -0.10488057568E+04  0.11180095679E+04  0.25500000920E-02 0. -1.
       -2    1    3    3    0  502 -0.37514590024E+03 -0.96007457718E+02  0.11442000800E+02  0.38740521136E+03  0.25500000920E-02 0.  1.
</event>
<event>
 5   0  0.2938349E-03  0.1209468E+04  0.7818609E-02  0.9104610E-01
        1   -1    0    0  501    0  0.00000000000E+00  0.00000000000E+00  0.21417656647E+03  0.21417656653E+03  0.50400001928E-02 0.  1.
       -1   -1    0    0    0  501  0.00000000000E+00  0.00000000000E+00 -0.17074837796E+04  0.17074837796E+04  0.50400001928E-02 0. -1.
    10030    2    1    2    0    0  0.00000000000E+00  0.00000000000E+00 -0.14933072131E+04  0.19216603462E+04  0.12094676735E+04 0.  0.
        4    1    3    3  502    0 -0.31103534646E+03  0.50676365086E+03 -0.92178052751E+03  0.10969199325E+04  0.12699999809E+01 0.  1.
       -4    1    3    3    0  502  0.31103534646E+03 -0.50676365086E+03 -0.57152668564E+03  0.82474041363E+03  0.12699999809E+01 0. -1.
</event>
<event>
 5   0  0.1922125E-03  0.1298270E+04  0.7818609E-02  0.9030938E-01
        3   -1    0    0  501    0  0.00000000000E+00  0.00000000000E+00  0.39275339417E+03  0.39275340715E+03  0.10100000352E+00 0. -1.
       -3   -1    0    0    0  501  0.00000000000E+00  0.00000000000E+00 -0.10728777854E+04  0.10728777901E+04  0.10100000352E+00 0.  1.
    10030    2    1    2    0    0  0.00000000000E+00  0.00000000000E+00 -0.68012439122E+03  0.14656311973E+04  0.12982702411E+04 0.  0.
        2    1    3    3  502    0 -0.21133749229E+02 -0.54777661041E+03  0.52419905309E+02  0.55068475260E+03  0.25500000920E-02 0.  1.
       -2    1    3    3    0  502  0.21133749229E+02  0.54777661041E+03 -0.73254429652E+03  0.91494644469E+03  0.25500000920E-02 0. -1.
</event>
<event>
 5   0  0.5467554E-03  0.1144628E+04  0.7818609E-02  0.9162753E-01
        2   -1    0    0  501    0  0.00000000000E+00  0.00000000000E+00  0.16356347637E+04  0.16356347637E+04  0.25500000920E-02 0. -1.
       -2   -1    0    0    0  501  0.00000000000E+00  0.00000000000E+00 -0.20025468360E+03  0.20025468361E+03  0.25500000920E-02 0.  1.
    10030    2    1    2    0    0  0.00000000000E+00  0.00000000000E+00  0.14353800801E+04  0.18358894473E+04  0.11446283626E+04 0.  0.
        1    1    3    3  502    0 -0.14213458285E+03 -0.54627020010E+03  0.86925940178E+03  0.10364483966E+04  0.50400001928E-02 0. -1.
       -1    1    3    3    0  502  0.14213458285E+03  0.54627020010E+03  0.56612067835E+03  0.79944105076E+03  0.50400001928E-02 0.  1.
</event>
<event>
 5   0  0.2792518E-03  0.1264836E+04  0.7818609E-02  0.9057925E-01
        1   -1    0    0  501    0  0.00000000000E+00  0.00000000000E+00  0.71833613387E+03  0.71833613389E+03  0.50400001928E-02 0. -1.
       -1   -1    0    0    0  501  0.00000000000E+00  0.00000000000E+00 -0.55677669871E+03  0.55677669874E+03  0.50400001928E-02 0.  1.
    10030    2    1    2    0    0  0.00000000000E+00  0.00000000000E+00  0.16155943516E+03  0.12751128326E+04  0.12648364657E+04 0.  0.
        2    1    3    3  502    0  0.44851760463E+03 -0.40720014040E+03 -0.10227980215E+03  0.61436239626E+03  0.25500000920E-02 0.  1.
       -2    1    3    3    0  502 -0.44851760463E+03  0.40720014040E+03  0.26383923731E+03  0.66075043637E+03  0.25500000920E-02 0. -1.
</event>
<event>
 5   0  0.5108045E-03  0.1197787E+04  0.7818609E-02  0.9114796E-01
       -2   -1    0    0    0  501  0.00000000000E+00  0.00000000000E+00  0.50976727076E+03  0.50976727077E+03  0.25500000920E-02 0.  1.
        2   -1    0    0  501    0  0.00000000000E+00  0.00000000000E+00 -0.70360176696E+03  0.70360176697E+03  0.25500000920E-02 0. -1.
    10030    2    1    2    0    0  0.00000000000E+00  0.00000000000E+00 -0.19383449620E+03  0.12133690377E+04  0.11977865460E+04 0.  0.
        3    1    3    3  502    0 -0.20476736504E+03 -0.40194652001E+03 -0.49597412466E+03  0.67043345775E+03  0.10100000352E+00 0. -1.
       -3    1    3    3    0  502  0.20476736504E+03  0.40194652001E+03  0.30213962846E+03  0.54293557999E+03  0.10100000352E+00 0.  1.
</event>
<event>
 5   0  0.2938349E-03  0.1158003E+04  0.7818609E-02  0.9150432E-01
        1   -1    0    0  501    0  0.00000000000E+00  0.00000000000E+00  0.10205387670E+04  0.10205387670E+04  0.50400001928E-02 0. -1.
       -1   -1    0    0    0  501  0.00000000000E+00  0.00000000000E+00 -0.32849570607E+03  0.32849570611E+03  0.50400001928E-02 0.  1.
    10030    2    1    2    0    0  0.00000000000E+00  0.00000000000E+00  0.69204306096E+03  0.13490344731E+04  0.11580027684E+04 0.  0.
        4    1    3    3  502    0 -0.44590920451E+03  0.31370573892E+03  0.57309942019E+03  0.79100623741E+03  0.12699999809E+01 0. -1.
       -4    1    3    3    0  502  0.44590920451E+03 -0.31370573892E+03  0.11894364077E+03  0.55802823574E+03  0.12699999809E+01 0.  1.
</event>
<event>
 5   0  0.5467554E-03  0.1154433E+04  0.7818609E-02  0.9153703E-01
       -2   -1    0    0    0  501  0.00000000000E+00  0.00000000000E+00  0.52140717475E+03  0.52140717476E+03  0.25500000920E-02 0. -1.
        2   -1    0    0  501    0  0.00000000000E+00  0.00000000000E+00 -0.63899977868E+03  0.63899977868E+03  0.25500000920E-02 0.  1.
    10030    2    1    2    0    0  0.00000000000E+00  0.00000000000E+00 -0.11759260392E+03  0.11604069534E+04  0.11544333143E+04 0.  0.
        1    1    3    3  502    0 -0.22854767650E+03  0.33475840920E+03 -0.47187513627E+03  0.62206380478E+03  0.50400001928E-02 0.  1.
       -1    1    3    3    0  502  0.22854767650E+03 -0.33475840920E+03  0.35428253234E+03  0.53834314866E+03  0.50400001928E-02 0. -1.
</event>
<event>
 5   0  0.2930868E-03  0.1196110E+04  0.7818609E-02  0.9116269E-01
       -1   -1    0    0    0  501  0.00000000000E+00  0.00000000000E+00  0.35453574308E+03  0.35453574311E+03  0.50400001928E-02 0. -1.
        1   -1    0    0  501    0  0.00000000000E+00  0.00000000000E+00 -0.10088391001E+04  0.10088391001E+04  0.50400001928E-02 0.  1.
    10030    2    1    2    0    0  0.00000000000E+00  0.00000000000E+00 -0.65430335704E+03  0.13633748432E+04  0.11961095603E+04 0.  0.
        3    1    3    3  502    0 -0.40383795367E+03  0.31946713982E+03  0.19564610282E+02  0.51529324702E+03  0.10100000352E+00 0. -1.
       -3    1    3    3    0  502  0.40383795367E+03 -0.31946713982E+03 -0.67386796732E+03  0.84808159621E+03  0.10100000352E+00 0.  1.
</event>
<event>
 5   0  0.5189537E-03  0.1185441E+04  0.7818609E-02  0.9125696E-01
        2   -1    0    0  501    0  0.00000000000E+00  0.00000000000E+00  0.98985858539E+03  0.98985858540E+03  0.25500000920E-02 0.  1.
       -2   -1    0    0    0  501  0.00000000000E+00  0.00000000000E+00 -0.35491686494E+03  0.35491686495E+03  0.25500000920E-02 0. -1.
    10030    2    1    2    0    0  0.00000000000E+00  0.00000000000E+00  0.63494172045E+03  0.13447754503E+04  0.11854408562E+04 0.  0.
        4    1    3    3  502    0 -0.30464968896E+02  0.53849703613E+02 -0.35124216019E+03  0.35665189317E+03  0.12699999809E+01 0. -1.
       -4    1    3    3    0  502  0.30464968896E+02 -0.53849703613E+02  0.98618388064E+03  0.98812355718E+03  0.12699999809E+01 0.  1.
</event>
<event>
 5   0  0.5189537E-03  0.1213995E+04  0.7818609E-02  0.9100694E-01
        2   -1    0    0  501    0  0.00000000000E+00  0.00000000000E+00  0.12365927739E+04  0.12365927739E+04  0.25500000920E-02 0. -1.
       -2   -1    0    0    0  501  0.00000000000E+00  0.00000000000E+00 -0.29795268791E+03  0.29795268792E+03  0.25500000920E-02 0.  1.
    10030    2    1    2    0    0  0.00000000000E+00  0.00000000000E+00  0.93864008604E+03  0.15345454619E+04  0.12139952897E+04 0.  0.
        4    1    3    3  502    0  0.32708358583E+03 -0.51050934036E+03  0.43266121014E+03  0.74484951122E+03  0.12699999809E+01 0.  1.
       -4    1    3    3    0  502 -0.32708358583E+03  0.51050934036E+03  0.50597887589E+03  0.78969595064E+03  0.12699999809E+01 0. -1.
</event>
<event>
 5   0  0.5031575E-03  0.1281636E+04  0.7818609E-02  0.9044256E-01
        2   -1    0    0  501    0  0.00000000000E+00  0.00000000000E+00  0.20919276336E+04  0.20919276336E+04  0.25500000920E-02 0. -1.
       -2   -1    0    0    0  501  0.00000000000E+00  0.00000000000E+00 -0.19630097342E+03  0.19630097344E+03  0.25500000920E-02 0.  1.
    10030    2    1    2    0    0  0.00000000000E+00  0.00000000000E+00  0.18956266601E+04  0.22882286070E+04  0.12816355657E+04 0.  0.
        5    1    3    3  502    0 -0.18610372608E+03 -0.55168402631E+03  0.14256714223E+04  0.15399840766E+04  0.46999998093E+01 0. -1.
       -5    1    3    3    0  502  0.18610372608E+03  0.55168402631E+03  0.46995523783E+03  0.74824453042E+03  0.46999998093E+01 0.  1.
</event>
<event>
 5   0  0.5003526E-03  0.1199978E+04  0.7818609E-02  0.9112876E-01
        2   -1    0    0  501    0  0.00000000000E+00  0.00000000000E+00  0.64826984598E+03  0.64826984598E+03  0.25500000920E-02 0. -1.
       -2   -1    0    0    0  501  0.00000000000E+00  0.00000000000E+00 -0.55530418799E+03  0.55530418800E+03  0.25500000920E-02 0.  1.
    10030    2    1    2    0    0  0.00000000000E+00  0.00000000000E+00  0.92965657988E+02  0.12035740340E+04  0.11999782672E+04 0.  0.
        2    1    3    3  502    0 -0.19173735386E+03 -0.51338762660E+03  0.29146232816E+03  0.62070955910E+03  0.25500000920E-02 0. -1.
       -2    1    3    3    0  502  0.19173735386E+03  0.51338762660E+03 -0.19849667017E+03  0.58286447489E+03  0.25500000920E-02 0.  1.
</event>
<event>
 5   0  0.5108045E-03  0.1212582E+04  0.7818609E-02  0.9101915E-01
       -2   -1    0    0    0  501  0.00000000000E+00  0.00000000000E+00  0.77113918326E+03  0.77113918327E+03  0.25500000920E-02 0. -1.
        2   -1    0    0  501    0  0.00000000000E+00  0.00000000000E+00 -0.47668254568E+03  0.47668254569E+03  0.25500000920E-02 0.  1.
    10030    2    1    2    0    0  0.00000000000E+00  0.00000000000E+00  0.29445663758E+03  0.12478217290E+04  0.12125816904E+04 0.  0.
        3    1    3    3  502    0  0.28051747108E+03  0.16263673880E+03  0.67441329019E+03  0.74831414298E+03  0.10100000352E+00 0. -1.
       -3    1    3    3    0  502 -0.28051747108E+03 -0.16263673880E+03 -0.37995665261E+03  0.49950758598E+03  0.10100000352E+00 0.  1.
</event>
<event>
 5   0  0.5031575E-03  0.1216001E+04  0.7818609E-02  0.9098965E-01
        2   -1    0    0  501    0  0.00000000000E+00  0.00000000000E+00  0.63334008930E+03  0.63334008931E+03  0.25500000920E-02 0. -1.
       -2   -1    0    0    0  501  0.00000000000E+00  0.00000000000E+00 -0.58367440277E+03  0.58367440278E+03  0.25500000920E-02 0.  1.
    10030    2    1    2    0    0  0.00000000000E+00  0.00000000000E+00  0.49665686531E+02  0.12170144921E+04  0.12160006552E+04 0.  0.
        5    1    3    3  502    0  0.58094588988E+02 -0.18091318578E+03 -0.55317593724E+03  0.58491902824E+03  0.46999998093E+01 0.  1.
       -5    1    3    3    0  502 -0.58094588988E+02  0.18091318578E+03  0.60284162377E+03  0.63209546384E+03  0.46999998093E+01 0. -1.
</event>
<event>
 5   0  0.5003526E-03  0.1192155E+04  0.7818609E-02  0.9119751E-01
        2   -1    0    0  501    0  0.00000000000E+00  0.00000000000E+00  0.13363018946E+04  0.13363018946E+04  0.25500000920E-02 0.  1.
       -2   -1    0    0    0  501  0.00000000000E+00  0.00000000000E+00 -0.26588944205E+03  0.26588944206E+03  0.25500000920E-02 0. -1.
    10030    2    1    2    0    0  0.00000000000E+00  0.00000000000E+00  0.10704124525E+04  0.16021913367E+04  0.11921553006E+04 0.  0.
        2    1    3    3  502    0  0.45939630229E+03 -0.11371243304E+03  0.48161754461E+02  0.47570477671E+03  0.25500000920E-02 0. -1.
       -2    1    3    3    0  502 -0.45939630229E+03  0.11371243304E+03  0.10222506981E+04  0.11264865599E+04  0.25500000920E-02 0.  1.
</event>
<event>
 5   0  0.1922125E-03  0.7784533E+03  0.7818609E-02  0.9591740E-01
        3   -1    0    0  501    0  0.00000000000E+00  0.00000000000E+00  0.15125510238E+03  0.15125513610E+03  0.10100000352E+00 0.  1.
       -3   -1    0    0    0  501  0.00000000000E+00  0.00000000000E+00 -0.10016017291E+04  0.10016017342E+04  0.10100000352E+00 0. -1.
    10030    2    1    2    0    0  0.00000000000E+00  0.00000000000E+00 -0.85034662675E+03  0.11528568703E+04  0.77845332412E+03 0.  0.
        3    1    3    3  502    0  0.18041062794E+03  0.16921756178E+03 -0.87023713435E+03  0.90470727757E+03  0.10100000352E+00 0. -1.
       -3    1    3    3    0  502 -0.18041062794E+03 -0.16921756178E+03  0.19890507600E+02  0.24814959276E+03  0.10100000352E+00 0.  1.
</event>
<event>
 5   0  0.1922125E-03  0.1012709E+04  0.7818609E-02  0.9294714E-01
       -4   -1    0    0    0  501  0.00000000000E+00  0.00000000000E+00  0.35486208653E+03  0.35486435910E+03  0.12699999809E+01 0.  1.
        4   -1    0    0  501    0  0.00000000000E+00  0.00000000000E+00 -0.72251534275E+03  0.72251645892E+03  0.12699999809E+01 0. -1.
    10030    2    1    2    0    0  0.00000000000E+00  0.00000000000E+00 -0.36765325622E+03  0.10773808180E+04  0.10127094895E+04 0.  0.
        3    1    3    3  502    0 -0.30682170526E+03 -0.21103971291E+03  0.18118392805E+03  0.41413155546E+03  0.10100000352E+00 0.  1.
       -3    1    3    3    0  502  0.30682170526E+03  0.21103971291E+03 -0.54883718427E+03  0.66324926256E+03  0.10100000352E+00 0. -1.
</event>
<event>
 5   0  0.5108045E-03  0.1295418E+04  0.7818609E-02  0.9033207E-01
        2   -1    0    0  501    0  0.00000000000E+00  0.00000000000E+00  0.70291357193E+03  0.70291357194E+03  0.25500000920E-02 0. -1.
       -2   -1    0    0    0  501  0.00000000000E+00  0.00000000000E+00 -0.59683974142E+03  0.59683974143E+03  0.25500000920E-02 0.  1.
    10030    2    1    2    0    0  0.00000000000E+00  0.00000000000E+00  0.10607383051E+03  0.12997533134E+04  0.12954177002E+04 0.  0.
        3    1    3    3  502    0 -0.18930159728E+03  0.42111309851E+03  0.50882087142E+03  0.68707352290E+03  0.10100000352E+00 0. -1.
       -3    1    3    3    0  502  0.18930159728E+03 -0.42111309851E+03 -0.40274704092E+03  0.61267979046E+03  0.10100000352E+00 0.  1.
</event>
<event>
 5   0  0.2938349E-03  0.1166419E+04  0.7818609E-02  0.9142769E-01
        1   -1    0    0  501    0  0.00000000000E+00  0.00000000000E+00  0.74793898036E+03  0.74793898038E+03  0.50400001928E-02 0. -1.
       -1   -1    0    0    0  501  0.00000000000E+00  0.00000000000E+00 -0.45476069736E+03  0.45476069738E+03  0.50400001928E-02 0.  1.
    10030    2    1    2    0    0  0.00000000000E+00  0.00000000000E+00  0.29317828301E+03  0.12026996778E+04  0.11664188824E+04 0.  0.
        4    1    3    3  502    0 -0.53802351796E+02  0.57373004343E+03  0.53957255800E+02  0.57876925812E+03  0.12699999809E+01 0.  1.
       -4    1    3    3    0  502  0.53802351796E+02 -0.57373004343E+03  0.23922102721E+03  0.62393041964E+03  0.12699999809E+01 0. -1.
</event>
<event>
 5   0  0.5467554E-03  0.1203488E+04  0.7818609E-02  0.9109809E-01
       -2   -1    0    0    0  501  0.00000000000E+00  0.00000000000E+00  0.24750066167E+03  0.24750066169E+03  0.25500000920E-02 0.  1.
        2   -1    0    0  501    0  0.00000000000E+00  0.00000000000E+00 -0.14630096069E+04  0.14630096069E+04  0.25500000920E-02 0. -1.
    10030    2    1    2    0    0  0.00000000000E+00  0.00000000000E+00 -0.12155089452E+04  0.17105102685E+04  0.12034880070E+04 0.  0.
        1    1    3    3  502    0  0.31434976467E+03 -0.46293041052E+03 -0.29321628097E+03  0.63174055354E+03  0.50400001928E-02 0.  1.
       -1    1    3    3    0  502 -0.31434976467E+03  0.46293041052E+03 -0.92229266421E+03  0.10787697150E+04  0.50400001928E-02 0. -1.
</event>
<event>
 5   0  0.5003526E-03  0.1117000E+04  0.7818609E-02  0.9188779E-01
       -2   -1    0    0    0  501  0.00000000000E+00  0.00000000000E+00  0.43248127072E+03  0.43248127073E+03  0.25500000920E-02 0. -1.
        2   -1    0    0  501    0  0.00000000000E+00  0.00000000000E+00 -0.72123851886E+03  0.72123851887E+03  0.25500000920E-02 0.  1.
    10030    2    1    2    0    0  0.00000000000E+00  0.00000000000E+00 -0.28875724814E+03  0.11537197896E+04  0.11169998230E+04 0.  0.
        2    1    3    3  502    0  0.53579520260E+03 -0.14742654166E+03 -0.86768089228E+02  0.56244091746E+03  0.25500000920E-02 0. -1.
       -2    1    3    3    0  502 -0.53579520260E+03  0.14742654166E+03 -0.20198915892E+03  0.59127887214E+03  0.25500000920E-02 0.  1.
</event>
<event>
 5   0  0.2792518E-03  0.1202339E+04  0.7818609E-02  0.9110811E-01
        1   -1    0    0  501    0  0.00000000000E+00  0.00000000000E+00  0.22363978103E+03  0.22363978109E+03  0.50400001928E-02 0.  1.
       -1   -1    0    0    0  501  0.00000000000E+00  0.00000000000E+00 -0.16160141667E+04  0.16160141667E+04  0.50400001928E-02 0. -1.
    10030    2    1    2    0    0  0.00000000000E+00  0.00000000000E+00 -0.13923743857E+04  0.18396539478E+04  0.12023394769E+04 0.  0.
        2    1    3    3  502    0 -0.51312371757E+03 -0.25272804534E+03 -0.41307345694E+03  0.70554737281E+03  0.25500000920E-02 0.  1.
       -2    1    3    3    0  502  0.51312371757E+03  0.25272804534E+03 -0.97930092874E+03  0.11341065750E+04  0.25500000920E-02 0. -1.
</event>
<event>
 5   0  0.5031575E-03  0.1210787E+04  0.7818609E-02  0.9103467E-01
        2   -1    0    0  501    0  0.00000000000E+00  0.00000000000E+00  0.11019347505E+04  0.11019347505E+04  0.25500000920E-02 0.  1.
       -2   -1    0    0    0  501  0.00000000000E+00  0.00000000000E+00 -0.33259809712E+03  0.33259809713E+03  0.25500000920E-02 0. -1.
    10030    2    1    2    0    0  0.00000000000E+00  0.00000000000E+00  0.76933665341E+03  0.14345328477E+04  0.12107871839E+04 0.  0.
        5    1    3    3  502    0 -0.21729452439E+03  0.37286645481E+03  0.88765890116E+03  0.98701910734E+03  0.46999998093E+01 0.  1.
       -5    1    3    3    0  502  0.21729452439E+03 -0.37286645481E+03 -0.11832224775E+03  0.44751374031E+03  0.46999998093E+01 0. -1.
</event>
<event>
 5   0  0.2930868E-03  0.1189246E+04  0.7818609E-02  0.9122322E-01
        1   -1    0    0  501    0  0.00000000000E+00  0.00000000000E+00  0.23253180393E+03  0.23253180399E+03  0.50400001928E-02 0. -1.
       -1   -1    0    0    0  501  0.00000000000E+00  0.00000000000E+00 -0.15205508715E+04  0.15205508715E+04  0.50400001928E-02 0.  1.
    10030    2    1    2    0    0  0.00000000000E+00  0.00000000000E+00 -0.12880190676E+04  0.17530826755E+04  0.11892458739E+04 0.  0.
        3    1    3    3  502    0  0.23432086683E+03 -0.14834501309E+03  0.13135691417E+03  0.30686668220E+03  0.10100000352E+00 0. -1.
       -3    1    3    3    0  502 -0.23432086683E+03  0.14834501309E+03 -0.14193759817E+04  0.14462159933E+04  0.10100000352E+00 0.  1.
</event>
<event>
 5   0  0.2930868E-03  0.1218237E+04  0.7818609E-02  0.9097041E-01
        1   -1    0    0  501    0  0.00000000000E+00  0.00000000000E+00  0.90210858241E+03  0.90210858243E+03  0.50400001928E-02 0. -1.
       -1   -1    0    0    0  501  0.00000000000E+00  0.00000000000E+00 -0.41128706149E+03  0.41128706152E+03  0.50400001928E-02 0.  1.
    10030    2    1    2    0    0  0.00000000000E+00  0.00000000000E+00  0.49082152092E+03  0.13133956439E+04  0.12182373956E+04 0.  0.
        3    1    3    3  502    0  0.17729707749E+03 -0.37452628947E+03 -0.23591664555E+03  0.47682372953E+03  0.10100000352E+00 0. -1.
       -3    1    3    3    0  502 -0.17729707749E+03  0.37452628947E+03  0.72673816647E+03  0.83657191442E+03  0.10100000352E+00 0.  1.
</event>
<event>
 5   0  0.2938349E-03  0.1112506E+04  0.7818609E-02  0.9193088E-01
       -1   -1    0    0    0  501  0.00000000000E+00  0.00000000000E+00  0.30314596131E+03  0.30314596135E+03  0.50400001928E-02 0.  1.
        1   -1    0    0  501    0  0.00000000000E+00  0.00000000000E+00 -0.10206870734E+04  0.10206870734E+04  0.50400001928E-02 0. -1.
    10030    2    1    2    0    0  0.00000000000E+00  0.00000000000E+00 -0.71754111208E+03  0.13238330348E+04  0.11125055759E+04 0.  0.
        4    1    3    3  502    0  0.16659865338E+03  0.12609242522E+03  0.25467603449E+03  0.32941752603E+03  0.12699999809E+01 0.  1.
       -4    1    3    3    0  502 -0.16659865338E+03 -0.12609242522E+03 -0.97221714658E+03  0.99441550873E+03  0.12699999809E+01 0. -1.
</event>
<event>
 5   0  0.5189537E-03  0.1198890E+04  0.7818609E-02  0.9113828E-01
       -2   -1    0    0    0  501  0.00000000000E+00  0.00000000000E+00  0.36415405147E+03  0.36415405148E+03  0.25500000920E-02 0. -1.
        2   -1    0    0  501    0  0.00000000000E+00  0.00000000000E+00 -0.98676515413E+03  0.98676515414E+03  0.25500000920E-02 0.  1.
    10030    2    1    2    0    0  0.00000000000E+00  0.00000000000E+00 -0.62261110266E+03  0.13509192056E+04  0.11988903682E+04 0.  0.
        4    1    3    3  502    0 -0.22568877009E+03  0.51304118946E+03 -0.71779380023E+02  0.56506687686E+03  0.12699999809E+01 0. -1.
       -4    1    3    3    0  502  0.22568877009E+03 -0.51304118946E+03 -0.55083172264E+03  0.78585232875E+03  0.12699999809E+01 0.  1.
</event>
<event>
 5   0  0.5003526E-03  0.1211033E+04  0.7818609E-02  0.9103254E-01
       -2   -1    0    0    0  501  0.00000000000E+00  0.00000000000E+00  0.27119185262E+03  0.27119185263E+03  0.25500000920E-02 0. -1.
        2   -1    0    0  501    0  0.00000000000E+00  0.00000000000E+00 -0.13519963405E+04  0.13519963406E+04  0.25500000920E-02 0.  1.
    10030    2    1    2    0    0  0.00000000000E+00  0.00000000000E+00 -0.10808044879E+04  0.16231881932E+04  0.12110332652E+04 0.  0.
        2    1    3    3  502    0  0.55855447542E+03  0.20340514319E+03 -0.38586444333E+03  0.70869466128E+03  0.25500000920E-02 0. -1.
       -2    1    3    3    0  502 -0.55855447542E+03 -0.20340514319E+03 -0.69494004460E+03  0.91449353190E+03  0.25500000920E-02 0.  1.
</event>
<event>
 5   0  0.5189537E-03  0.1213395E+04  0.7818609E-02  0.9101212E-01
       -2   -1    0    0    0  501  0.00000000000E+00  0.00000000000E+00  0.41483070244E+03  0.41483070245E+03  0.25500000920E-02 0.  1.
        2   -1    0    0  501    0  0.00000000000E+00  0.00000000000E+00 -0.88730576507E+03  0.88730576507E+03  0.25500000920E-02 0. -1.
    10030    2    1    2    0    0  0.00000000000E+00  0.00000000000E+00 -0.47247506262E+03  0.13021364675E+04  0.12133946989E+04 0.  0.
        4    1    3    3  502    0 -0.23680633830E+03 -0.55566445720E+03 -0.29731985132E+03  0.67323171178E+03  0.12699999809E+01 0. -1.
       -4    1    3    3    0  502  0.23680633830E+03  0.55566445720E+03 -0.17515521130E+03  0.62890475575E+03  0.12699999809E+01 0.  1.
</event>
<event>
 5   0  0.5467554E-03  0.1217213E+04  0.7818609E-02  0.9097922E-01
        2   -1    0    0  501    0  0.00000000000E+00  0.00000000000E+00  0.61585945720E+03  0.61585945720E+03  0.25500000920E-02 0. -1.
       -2   -1    0    0    0  501  0.00000000000E+00  0.00000000000E+00 -0.60143874970E+03  0.60143874970E+03  0.25500000920E-02 0.  1.
    10030    2    1    2    0    0  0.00000000000E+00  0.00000000000E+00  0.14420707498E+02  0.12172982069E+04  0.12172127865E+04 0.  0.
        1    1    3    3  502    0 -0.19778117413E+03 -0.74230108177E+02 -0.56359606303E+03  0.60188705260E+03  0.50400001928E-02 0.  1.
       -1    1    3    3    0  502  0.19778117413E+03  0.74230108177E+02  0.57801677053E+03  0.61541115430E+03  0.50400001928E-02 0. -1.
</event>
<event>
 5   0  0.5108045E-03  0.1186085E+04  0.7818609E-02  0.9125124E-01
        2   -1    0    0  501    0  0.00000000000E+00  0.00000000000E+00  0.17371631483E+04  0.17371631483E+04  0.25500000920E-02 0.  1.
       -2   -1    0    0    0  501  0.00000000000E+00  0.00000000000E+00 -0.20245609021E+03  0.20245609023E+03  0.25500000920E-02 0. -1.
    10030    2    1    2    0    0  0.00000000000E+00  0.00000000000E+00  0.15347070581E+04  0.19396192385E+04  0.11860847509E+04 0.  0.
        3    1    3    3  502    0  0.21412060462E+03 -0.69114815594E+02  0.16646540783E+04  0.16797909696E+04  0.10100000352E+00 0.  1.
       -3    1    3    3    0  502 -0.21412060462E+03  0.69114815594E+02 -0.12994702021E+03  0.25982826890E+03  0.10100000352E+00 0. -1.
</event>
<event>
 5   0  0.2875848E-03  0.1195965E+04  0.7818609E-02  0.9116395E-01
       -1   -1    0    0    0  501  0.00000000000E+00  0.00000000000E+00  0.19168349121E+03  0.19168349127E+03  0.50400001928E-02 0. -1.
        1   -1    0    0  501    0  0.00000000000E+00  0.00000000000E+00 -0.18654882279E+04  0.18654882280E+04  0.50400001928E-02 0.  1.
    10030    2    1    2    0    0  0.00000000000E+00  0.00000000000E+00 -0.16738047367E+04  0.20571717192E+04  0.11959653781E+04 0.  0.
        1    1    3    3  502    0 -0.66144284744E+02 -0.39055715441E+03 -0.66359551226E+02  0.40163857799E+03  0.50400001928E-02 0. -1.
       -1    1    3    3    0  502  0.66144284744E+02  0.39055715441E+03 -0.16074451855E+04  0.16555331412E+04  0.50400001928E-02 0.  1.
</event>
<event>
 5   0  0.5003526E-03  0.9462375E+03  0.7818609E-02  0.9369559E-01
       -2   -1    0    0    0  501  0.00000000000E+00  0.00000000000E+00  0.10386075337E+03  0.10386075340E+03  0.25500000920E-02 0.  1.
        2   -1    0    0  501    0  0.00000000000E+00  0.00000000000E+00 -0.21552062625E+04  0.21552062625E+04  0.25500000920E-02 0. -1.
    10030    2    1    2    0    0  0.00000000000E+00  0.00000000000E+00 -0.20513455091E+04  0.22590670159E+04  0.94623748844E+03 0.  0.
        2    1    3    3  502    0 -0.38402127681E+03  0.22813290448E+03 -0.13980214879E+04  0.14676447267E+04  0.25500000920E-02 0.  1.
       -2    1    3    3    0  502  0.38402127681E+03 -0.22813290448E+03 -0.65332402121E+03  0.79142228920E+03  0.25500000920E-02 0. -1.
</event>
<event>
 5   0  0.2792518E-03  0.1211270E+04  0.7818609E-02  0.9103049E-01
        1   -1    0    0  501    0  0.00000000000E+00  0.00000000000E+00  0.48704365622E+03  0.48704365625E+03  0.50400001928E-02 0. -1.
       -1   -1    0    0    0  501  0.00000000000E+00  0.00000000000E+00 -0.75310244240E+03  0.75310244242E+03  0.50400001928E-02 0.  1.
    10030    2    1    2    0    0  0.00000000000E+00  0.00000000000E+00 -0.26605878618E+03  0.12401460987E+04  0.12112700229E+04 0.  0.
        2    1    3    3  502    0  0.18749190547E+02 -0.33659991951E+03  0.38209795967E+03  0.50955852338E+03  0.25500000920E-02 0. -1.
       -2    1    3    3    0  502 -0.18749190547E+02  0.33659991951E+03 -0.64815674585E+03  0.73058757528E+03  0.25500000920E-02 0.  1.
</event>
<event>
 5   0  0.5003526E-03  0.1265153E+04  0.7818609E-02  0.9057665E-01
        2   -1    0    0  501    0  0.00000000000E+00  0.00000000000E+00  0.38315540803E+03  0.38315540803E+03  0.25500000920E-02 0.  1.
       -2   -1    0    0    0  501  0.00000000000E+00  0.00000000000E+00 -0.10443623907E+04  0.10443623907E+04  0.25500000920E-02 0. -1.
    10030    2    1    2    0    0  0.00000000000E+00  0.00000000000E+00 -0.66120698269E+03  0.14275177988E+04  0.12651531100E+04 0.  0.
        2    1    3    3  502    0 -0.45080570014E+03  0.18690110566E+03 -0.78474337616E+03  0.92411036625E+03  0.25500000920E-02 0. -1.
       -2    1    3    3    0  502  0.45080570014E+03 -0.18690110566E+03  0.12353639347E+03  0.50340743250E+03  0.25500000920E-02 0.  1.
</event>
<event>
 5   0  0.5189537E-03  0.9605526E+03  0.7818609E-02  0.9352901E-01
        2   -1    0    0  501    0  0.00000000000E+00  0.00000000000E+00  0.59538471823E+03  0.59538471824E+03  0.25500000920E-02 0. -1.
       -2   -1    0    0    0  501  0.00000000000E+00  0.00000000000E+00 -0.38742228818E+03  0.38742228819E+03  0.25500000920E-02 0.  1.
    10030    2    1    2    0    0  0.00000000000E+00  0.00000000000E+00  0.20796243006E+03  0.98280700643E+03  0.96055256991E+03 0.  0.
        4    1    3    3  502    0  0.35796172253E+03 -0.23979400899E+03  0.32109054038E+03  0.53734393973E+03  0.12699999809E+01 0. -1.
       -4    1    3    3    0  502 -0.35796172253E+03  0.23979400899E+03 -0.11312811032E+03  0.44546306670E+03  0.12699999809E+01 0.  1.
</event>
<event>
 5   0  0.2875848E-03  0.1312548E+04  0.7818609E-02  0.9019674E-01
        1   -1    0    0  501    0  0.00000000000E+00  0.00000000000E+00  0.10707227401E+04  0.10707227401E+04  0.50400001928E-02 0. -1.
       -1   -1    0    0    0  501  0.00000000000E+00  0.00000000000E+00 -0.40224731201E+03  0.40224731204E+03  0.50400001928E-02 0.  1.
    10030    2    1    2    0    0  0.00000000000E+00  0.00000000000E+00  0.66847542808E+03  0.14729700521E+04  0.13125476664E+04 0.  0.
        1    1    3    3  502    0 -0.39398536443E+02  0.47365563018E+03  0.84208935145E+03  0.96696244836E+03  0.50400001928E-02 0. -1.
       -1    1    3    3    0  502  0.39398536443E+02 -0.47365563018E+03 -0.17361392337E+03  0.50600760379E+03  0.50400001928E-02 0.  1.
</event>
<event>
 5   0  0.2930868E-03  0.1228587E+04  0.7818609E-02  0.9088196E-01
       -1   -1    0    0    0  501  0.00000000000E+00  0.00000000000E+00  0.35976747830E+03  0.35976747834E+03  0.50400001928E-02 0. -1.
        1   -1    0    0  501    0  0.00000000000E+00  0.00000000000E+00 -0.10488896343E+04  0.10488896344E+04  0.50400001928E-02 0.  1.
    10030    2    1    2    0    0  0.00000000000E+00  0.00000000000E+00 -0.68912215605E+03  0.14086571127E+04  0.12285867960E+04 0.  0.
        3    1    3    3  502    0  0.35753885351E+03 -0.45856975192E+03 -0.57167432851E+03  0.81543350264E+03  0.10100000352E+00 0.  1.
       -3    1    3    3    0  502 -0.35753885351E+03  0.45856975192E+03 -0.11744782753E+03  0.59322361006E+03  0.10100000352E+00 0. -1.
</event>
<event>
 5   0  0.5108045E-03  0.1197303E+04  0.7818609E-02  0.9115221E-01
        2   -1    0    0  501    0  0.00000000000E+00  0.00000000000E+00  0.25404655914E+03  0.25404655915E+03  0.25500000920E-02 0. -1.
       -2   -1    0    0    0  501  0.00000000000E+00  0.00000000000E+00 -0.14107002062E+04  0.14107002062E+04  0.25500000920E-02 0.  1.
    10030    2    1    2    0    0  0.00000000000E+00  0.00000000000E+00 -0.11566536471E+04  0.16647467654E+04  0.11973028579E+04 0.  0.
        3    1    3    3  502    0 -0.28720343399E+03 -0.23308194630E+03 -0.12328124996E+04  0.12871051533E+04  0.10100000352E+00 0.  1.
       -3    1    3    3    0  502  0.28720343399E+03  0.23308194630E+03  0.76158852518E+02  0.37764161212E+03  0.10100000352E+00 0. -1.
</event>
<event>
 5   0  0.2926844E-03  0.1190176E+04  0.7818609E-02  0.9121499E-01
       -1   -1    0    0    0  501  0.00000000000E+00  0.00000000000E+00  0.74598084408E+03  0.74598084410E+03  0.50400001928E-02 0. -1.
        1   -1    0    0  501    0  0.00000000000E+00  0.00000000000E+00 -0.47471670506E+03  0.47471670509E+03  0.50400001928E-02 0.  1.
    10030    2    1    2    0    0  0.00000000000E+00  0.00000000000E+00  0.27126413902E+03  0.12206975492E+04  0.11901757322E+04 0.  0.
        5    1    3    3  502    0 -0.13195871920E+03  0.14403364198E+03 -0.44087582379E+03  0.48223684595E+03  0.46999998093E+01 0.  1.
       -5    1    3    3    0  502  0.13195871920E+03 -0.14403364198E+03  0.71213996281E+03  0.73846070323E+03  0.46999998093E+01 0. -1.
</event>
<event>
 5   0  0.2938349E-03  0.1159344E+04  0.7818609E-02  0.9149206E-01
       -1   -1    0    0    0  501  0.00000000000E+00  0.00000000000E+00  0.17571210251E+03  0.17571210259E+03  0.50400001928E-02 0. -1.
        1   -1    0    0  501    0  0.00000000000E+00  0.00000000000E+00 -0.19123303197E+04  0.19123303197E+04  0.50400001928E-02 0.  1.
    10030    2    1    2    0    0  0.00000000000E+00  0.00000000000E+00 -0.17366182172E+04  0.20880424223E+04  0.11593439201E+04 0.  0.
        4    1    3    3  502    0  0.40104591139E+03  0.40772954817E+03 -0.10385708605E+04  0.11856273667E+04  0.12699999809E+01 0.  1.
       -4    1    3    3    0  502 -0.40104591139E+03 -0.40772954817E+03 -0.69804735669E+03  0.90241505560E+03  0.12699999809E+01 0. -1.
</event>
<event>
 5   0  0.5189537E-03  0.1150829E+04  0.7818609E-02  0.9157019E-01
        2   -1    0    0  501    0  0.00000000000E+00  0.00000000000E+00  0.11872046591E+04  0.11872046591E+04  0.25500000920E-02 0. -1.
       -2   -1    0    0    0  501  0.00000000000E+00  0.00000000000E+00 -0.27889206629E+03  0.27889206630E+03  0.25500000920E-02 0.  1.
    10030    2    1    2    0    0  0.00000000000E+00  0.00000000000E+00  0.90831259285E+03  0.14660967255E+04  0.11508291976E+04 0.  0.
        4    1    3    3  502    0  0.99690191690E+02 -0.41227757219E+03  0.94950661630E+03  0.10399400743E+04  0.12699999809E+01 0. -1.
       -4    1    3    3    0  502 -0.99690191690E+02  0.41227757219E+03 -0.41194023447E+02  0.42615665115E+03  0.12699999809E+01 0.  1.
</event>
<event>
 5   0  0.5467554E-03  0.1205782E+04  0.7818609E-02  0.9107811E-01
       -2   -1    0    0    0  501  0.00000000000E+00  0.00000000000E+00  0.13259712877E+04  0.13259712877E+04  0.25500000920E-02 0. -1.
        2   -1    0    0  501    0  0.00000000000E+00  0.00000000000E+00 -0.27412155523E+03  0.27412155524E+03  0.25500000920E-02 0.  1.
    10030    2    1    2    0    0  0.00000000000E+00  0.00000000000E+00  0.10518497325E+04  0.16000928430E+04  0.12057815915E+04 0.  0.
        1    1    3    3  502    0  0.32482840293E+03  0.48637944584E+03  0.72004554457E+03  0.92765513149E+03  0.50400001928E-02 0. -1.
       -1    1    3    3    0  502 -0.32482840293E+03 -0.48637944584E+03  0.33180418793E+03  0.67243771149E+03  0.50400001928E-02 0.  1.
</event>
<event>
 5   0  0.2792518E-03  0.1261336E+04  0.7818609E-02  0.9060801E-01
       -1   -1    0    0    0  501  0.00000000000E+00  0.00000000000E+00  0.43498160369E+03  0.43498160372E+03  0.50400001928E-02 0. -1.
        1   -1    0    0  501    0  0.00000000000E+00  0.00000000000E+00 -0.91438790290E+03  0.91438790292E+03  0.50400001928E-02 0.  1.
    10030    2    1    2    0    0  0.00000000000E+00  0.00000000000E+00 -0.47940629921E+03  0.13493695066E+04  0.12613356674E+04 0.  0.
        2    1    3    3  502    0  0.64550349079E+02 -0.18702897372E+03 -0.88032615543E+03  0.90228638719E+03  0.25500000920E-02 0.  1.
       -2    1    3    3    0  502 -0.64550349079E+02  0.18702897372E+03  0.40091985622E+03  0.44708311945E+03  0.25500000920E-02 0. -1.
</event>
<event>
 5   0  0.5003526E-03  0.1193893E+04  0.7818609E-02  0.9118219E-01
       -2   -1    0    0    0  501  0.00000000000E+00  0.00000000000E+00  0.27633600340E+03  0.27633600341E+03  0.25500000920E-02 0.  1.
        2   -1    0    0  501    0  0.00000000000E+00  0.00000000000E+00 -0.12895346701E+04  0.12895346701E+04  0.25500000920E-02 0. -1.
    10030    2    1    2    0    0  0.00000000000E+00  0.00000000000E+00 -0.10131986667E+04  0.15658706735E+04  0.11938925529E+04 0.  0.
        2    1    3    3  502    0  0.19635052619E+03 -0.53234541628E+03 -0.26334091202E+03  0.62553465717E+03  0.25500000920E-02 0.  1.
       -2    1    3    3    0  502 -0.19635052619E+03  0.53234541628E+03 -0.74985775465E+03  0.94033601631E+03  0.25500000920E-02 0. -1.
</event>
<event>
 5   0  0.5467554E-03  0.1343773E+04  0.7818609E-02  0.8995555E-01
        2   -1    0    0  501    0  0.00000000000E+00  0.00000000000E+00  0.81954596153E+03  0.81954596153E+03  0.25500000920E-02 0.  1.
       -2   -1    0    0    0  501  0.00000000000E+00  0.00000000000E+00 -0.55083111793E+03  0.55083111794E+03  0.25500000920E-02 0. -1.
    10030    2    1    2    0    0  0.00000000000E+00  0.00000000000E+00  0.26871484360E+03  0.13703770795E+04  0.13437729246E+04 0.  0.
        1    1    3    3  502    0  0.51962585955E+03 -0.19321975417E+03 -0.25274497668E+03  0.60928230778E+03  0.50400001928E-02 0. -1.
       -1    1    3    3    0  502 -0.51962585955E+03  0.19321975417E+03  0.52145982028E+03  0.76109477169E+03  0.50400001928E-02 0.  1.
</event>
<event>
 5   0  0.5108045E-03  0.1193792E+04  0.7818609E-02  0.9118308E-01
        2   -1    0    0  501    0  0.00000000000E+00  0.00000000000E+00  0.77376804060E+03  0.77376804061E+03  0.25500000920E-02 0. -1.
       -2   -1    0    0    0  501  0.00000000000E+00  0.00000000000E+00 -0.46045452319E+03  0.46045452320E+03  0.25500000920E-02 0.  1.
    10030    2    1    2    0    0  0.00000000000E+00  0.00000000000E+00  0.31331351742E+03  0.12342225638E+04  0.11937922670E+04 0.  0.
        3    1    3    3  502    0 -0.58211689008E+03 -0.12349184217E+03  0.10844400674E+03  0.60487223576E+03  0.10100000352E+00 0. -1.
       -3    1    3    3    0  502  0.58211689008E+03  0.12349184217E+03  0.20486951067E+03  0.62935032804E+03  0.10100000352E+00 0.  1.
</event>
<event>
 5   0  0.5003526E-03  0.1168554E+04  0.7818609E-02  0.9140835E-01
       -2   -1    0    0    0  501  0.00000000000E+00  0.00000000000E+00  0.14027735085E+04  0.14027735085E+04  0.25500000920E-02 0. -1.
        2   -1    0    0  501    0  0.00000000000E+00  0.00000000000E+00 -0.24336056997E+03  0.24336056998E+03  0.25500000920E-02 0.  1.
    10030    2    1    2    0    0  0.00000000000E+00  0.00000000000E+00  0.11594129385E+04  0.16461340785E+04  0.11685542531E+04 0.  0.
        2    1    3    3  502    0 -0.95762705540E+02 -0.35455175525E+03 -0.60439168793E+02  0.37219663628E+03  0.25500000920E-02 0.  1.
       -2    1    3    3    0  502  0.95762705540E+02  0.35455175525E+03  0.12198521073E+04  0.12739374422E+04  0.25500000920E-02 0. -1.
</event>
<event>
 5   0  0.2926844E-03  0.1169509E+04  0.7818609E-02  0.9139972E-01
       -1   -1    0    0    0  501  0.00000000000E+00  0.00000000000E+00  0.43887427966E+03  0.43887427969E+03  0.50400001928E-02 0. -1.
        1   -1    0    0  501    0  0.00000000000E+00  0.00000000000E+00 -0.77912496121E+03  0.77912496123E+03  0.50400001928E-02 0.  1.
    10030    2    1    2    0    0  0.00000000000E+00  0.00000000000E+00 -0.34025068155E+03  0.12179992409E+04  0.11695091383E+04 0.  0.
        5    1    3    3  502    0 -0.15997363250E+02  0.34899399555E+03  0.31821158316E+03  0.47258166089E+03  0.46999998093E+01 0. -1.
       -5    1    3    3    0  502  0.15997363250E+02 -0.34899399555E+03 -0.65846226471E+03  0.74541758002E+03  0.46999998093E+01 0.  1.
</event>
<event>
 5   0  0.5189537E-03  0.1152308E+04  0.7818609E-02  0.9155657E-01
       -2   -1    0    0    0  501  0.00000000000E+00  0.00000000000E+00  0.31864693367E+03  0.31864693368E+03  0.25500000920E-02 0.  1.
        2   -1    0    0  501    0  0.00000000000E+00  0.00000000000E+00 -0.10417601394E+04  0.10417601394E+04  0.25500000920E-02 0. -1.
    10030    2    1    2    0    0  0.00000000000E+00  0.00000000000E+00 -0.72311320576E+03  0.13604070731E+04  0.11523084206E+04 0.  0.
        4    1    3    3  502    0  0.29148828935E+03 -0.37439523255E+03  0.24291135938E+02  0.47510934022E+03  0.12699999809E+01 0.  1.
       -4    1    3    3    0  502 -0.29148828935E+03  0.37439523255E+03 -0.74740434169E+03  0.88529773289E+03  0.12699999809E+01 0. -1.
</event>
<event>
 5   0  0.2930868E-03  0.1196557E+04  0.7818609E-02  0.9115876E-01
       -1   -1    0    0    0  501  0.00000000000E+00  0.00000000000E+00  0.19118479494E+03  0.19118479501E+03  0.50400001928E-02 0.  1.
        1   -1    0    0  501    0  0.00000000000E+00  0.00000000000E+00 -0.18722044280E+04  0.18722044280E+04  0.50400001928E-02 0. -1.
    10030    2    1    2    0    0  0.00000000000E+00  0.00000000000E+00 -0.16810196331E+04  0.20633892230E+04  0.11965567596E+04 0.  0.
        3    1    3    3  502    0 -0.22801868754E+02 -0.42398407243E+03 -0.15673452155E+04  0.16238391095E+04  0.10100000352E+00 0. -1.
       -3    1    3    3    0  502  0.22801868754E+02  0.42398407243E+03 -0.11367441762E+03  0.43955011355E+03  0.10100000352E+00 0.  1.
</event>
<event>
 5   0  0.2930868E-03  0.1195327E+04  0.7818609E-02  0.9116957E-01
        1   -1    0    0  501    0  0.00000000000E+00  0.00000000000E+00  0.20758249595E+04  0.20758249595E+04  0.50400001928E-02 0.  1.
       -1   -1    0    0    0  501  0.00000000000E+00  0.00000000000E+00 -0.17207695912E+03  0.17207695919E+03  0.50400001928E-02 0. -1.
    10030    2    1    2    0    0  0.00000000000E+00  0.00000000000E+00  0.19037480003E+04  0.22479019187E+04  0.11953269791E+04 0.  0.
        3    1    3    3  502    0  0.23293643112E+03 -0.40173430498E+03  0.24433832901E+03  0.52473904178E+03  0.10100000352E+00 0. -1.
       -3    1    3    3    0  502 -0.23293643112E+03  0.40173430498E+03  0.16594096713E+04  0.17231628769E+04  0.10100000352E+00 0.  1.
</event>
<event>
 5   0  0.5108045E-03  0.1165616E+04  0.7818609E-02  0.9143497E-01
       -2   -1    0    0    0  501  0.00000000000E+00  0.00000000000E+00  0.32075730586E+03  0.32075730587E+03  0.25500000920E-02 0.  1.
        2   -1    0    0  501    0  0.00000000000E+00  0.00000000000E+00 -0.10589469725E+04  0.10589469725E+04  0.25500000920E-02 0. -1.
    10030    2    1    2    0    0  0.00000000000E+00  0.00000000000E+00 -0.73818966663E+03  0.13797042784E+04  0.11656156793E+04 0.  0.
        3    1    3    3  502    0  0.20738102682E+03 -0.54338642180E+03 -0.41321372519E+03  0.71345727733E+03  0.10100000352E+00 0.  1.
       -3    1    3    3    0  502 -0.20738102682E+03  0.54338642180E+03 -0.32497594144E+03  0.66624700104E+03  0.10100000352E+00 0. -1.
</event>
<event>
 5   0  0.1922125E-03  0.1213684E+04  0.7818609E-02  0.9100963E-01
        3   -1    0    0  501    0  0.00000000000E+00  0.00000000000E+00  0.43779536916E+03  0.43779538081E+03  0.10100000352E+00 0.  1.
       -3   -1    0    0    0  501  0.00000000000E+00  0.00000000000E+00 -0.84116270992E+03  0.84116271599E+03  0.10100000352E+00 0. -1.
    10030    2    1    2    0    0  0.00000000000E+00  0.00000000000E+00 -0.40336734077E+03  0.12789580968E+04  0.12136838970E+04 0.  0.
        1    1    3    3  502    0 -0.53798560049E+03 -0.28040617447E+03 -0.21662440223E+03  0.64419116781E+03  0.50400001928E-02 0.  1.
       -1    1    3    3    0  502  0.53798560049E+03  0.28040617447E+03 -0.18674293854E+03  0.63476692899E+03  0.50400001928E-02 0. -1.
</event>
<event>
 5   0  0.2930868E-03  0.1201289E+04  0.7818609E-02  0.9111729E-01
        1   -1    0    0  501    0  0.00000000000E+00  0.00000000000E+00  0.39882308744E+03  0.39882308747E+03  0.50400001928E-02 0. -1.
       -1   -1    0    0    0  501  0.00000000000E+00  0.00000000000E+00 -0.90459628886E+03  0.90459628888E+03  0.50400001928E-02 0.  1.
    10030    2    1    2    0    0  0.00000000000E+00  0.00000000000E+00 -0.50577320142E+03  0.13034193763E+04  0.12012891156E+04 0.  0.
        3    1    3    3  502    0 -0.32701178990E+03  0.44226133920E+03 -0.51473808392E+03  0.75331740198E+03  0.10100000352E+00 0.  1.
       -3    1    3    3    0  502  0.32701178990E+03 -0.44226133920E+03  0.89648825007E+01  0.55010197437E+03  0.10100000352E+00 0. -1.
</event>
<event>
 5   0  0.2938349E-03  0.1223957E+04  0.7818609E-02  0.9092142E-01
       -1   -1    0    0    0  501  0.00000000000E+00  0.00000000000E+00  0.29248697571E+03  0.29248697575E+03  0.50400001928E-02 0.  1.
        1   -1    0    0  501    0  0.00000000000E+00  0.00000000000E+00 -0.12804591388E+04  0.12804591389E+04  0.50400001928E-02 0. -1.
    10030    2    1    2    0    0  0.00000000000E+00  0.00000000000E+00 -0.98797216314E+03  0.15729461146E+04  0.12239568964E+04 0.  0.
        4    1    3    3  502    0  0.16042434329E+03 -0.48150548027E+03 -0.54530121769E+02  0.51044945345E+03  0.12699999809E+01 0.  1.
       -4    1    3    3    0  502 -0.16042434329E+03  0.48150548027E+03 -0.93344204137E+03  0.10624966611E+04  0.12699999809E+01 0. -1.
</event>
<event>
 5   0  0.2926844E-03  0.1203813E+04  0.7818609E-02  0.9109526E-01
       -1   -1    0    0    0  501  0.00000000000E+00  0.00000000000E+00  0.10530937322E+04  0.10530937322E+04  0.50400001928E-02 0. -1.
        1   -1    0    0  501    0  0.00000000000E+00  0.00000000000E+00 -0.34402578409E+03  0.34402578413E+03  0.50400001928E-02 0.  1.
    10030    2    1    2    0    0  0.00000000000E+00  0.00000000000E+00  0.70906794806E+03  0.13971195163E+04  0.12038129372E+04 0.  0.
        5    1    3    3  502    0  0.19365723485E+01  0.41109497587E+03 -0.15568055150E+03  0.43961500613E+03  0.46999998093E+01 0. -1.
       -5    1    3    3    0  502 -0.19365723485E+01 -0.41109497587E+03  0.86474849956E+03  0.95750451017E+03  0.46999998093E+01 0.  1.
</event>
<event>
 5   0  0.2938349E-03  0.1213478E+04  0.7818609E-02  0.9101140E-01
        1   -1    0    0  501    0  0.00000000000E+00  0.00000000000E+00  0.10410299905E+04  0.10410299905E+04  0.50400001928E-02 0.  1.
       -1   -1    0    0    0  501  0.00000000000E+00  0.00000000000E+00 -0.35362310078E+03  0.35362310081E+03  0.50400001928E-02 0. -1.
    10030    2    1    2    0    0  0.00000000000E+00  0.00000000000E+00  0.68740688970E+03  0.13946530913E+04  0.12134780645E+04 0.  0.
        4    1    3    3  502    0  0.44237783479E+03 -0.40659905221E+03  0.24679536806E+03  0.64956177887E+03  0.12699999809E+01 0. -1.
       -4    1    3    3    0  502 -0.44237783479E+03  0.40659905221E+03  0.44061152164E+03  0.74509131244E+03  0.12699999809E+01 0.  1.
</event>
<event>
 5   0  0.5108045E-03  0.1143559E+04  0.7818609E-02  0.9163746E-01
        2   -1    0    0  501    0  0.00000000000E+00  0.00000000000E+00  0.81151254176E+03  0.81151254176E+03  0.25500000920E-02 0.  1.
       -2   -1    0    0    0  501  0.00000000000E+00  0.00000000000E+00 -0.40286734194E+03  0.40286734194E+03  0.25500000920E-02 0. -1.
    10030    2    1    2    0    0  0.00000000000E+00  0.00000000000E+00  0.40864519982E+03  0.12143798837E+04  0.11435591819E+04 0.  0.
        3    1    3    3  502    0 -0.32546943577E+03 -0.58081018375E+02  0.69971967315E+03  0.77389365516E+03  0.10100000352E+00 0.  1.
       -3    1    3    3    0  502  0.32546943577E+03  0.58081018375E+02 -0.29107447332E+03  0.44048622854E+03  0.10100000352E+00 0. -1.
</event>
<event>
 5   0  0.2875848E-03  0.1193512E+04  0.7818609E-02  0.9118554E-01
        1   -1    0    0  501    0  0.00000000000E+00  0.00000000000E+00  0.64336937367E+03  0.64336937369E+03  0.50400001928E-02 0. -1.
       -1   -1    0    0    0  501  0.00000000000E+00  0.00000000000E+00 -0.55352012225E+03  0.55352012228E+03  0.50400001928E-02 0.  1.
    10030    2    1    2    0    0  0.00000000000E+00  0.00000000000E+00  0.89849251417E+02  0.11968894960E+04  0.11935122863E+04 0.  0.
        1    1    3    3  502    0 -0.34637919985E+03 -0.93986862151E+02 -0.43319044527E+03  0.56255314616E+03  0.50400001928E-02 0.  1.
       -1    1    3    3    0  502  0.34637919985E+03  0.93986862151E+02  0.52303969669E+03  0.63433634981E+03  0.50400001928E-02 0. -1.
</event>
<event>
 5   0  0.5108045E-03  0.1201471E+04  0.7818609E-02  0.9111570E-01
        2   -1    0    0  501    0  0.00000000000E+00  0.00000000000E+00  0.20816313613E+04  0.20816313613E+04  0.25500000920E-02 0. -1.
       -2   -1    0    0    0  501  0.00000000000E+00  0.00000000000E+00 -0.17336567503E+03  0.17336567505E+03  0.25500000920E-02 0.  1.
    10030    2    1    2    0    0  0.00000000000E+00  0.00000000000E+00  0.19082656863E+04  0.22549970364E+04  0.12014714747E+04 0.  0.
        3    1    3    3  502    0 -0.43165670856E+03  0.41049469986E+03  0.11001185430E+04  0.12510372623E+04  0.10100000352E+00 0. -1.
       -3    1    3    3    0  502  0.43165670856E+03 -0.41049469986E+03  0.80814714327E+03  0.10039597741E+04  0.10100000352E+00 0.  1.
</event>
<event>
 5   0  0.5189537E-03  0.1195555E+04  0.7818609E-02  0.9116756E-01
       -2   -1    0    0    0  501  0.00000000000E+00  0.00000000000E+00  0.12137384469E+04  0.12137384469E+04  0.25500000920E-02 0.  1.
        2   -1    0    0  501    0  0.00000000000E+00  0.00000000000E+00 -0.29441085935E+03  0.29441085936E+03  0.25500000920E-02 0. -1.
    10030    2    1    2    0    0  0.00000000000E+00  0.00000000000E+00  0.91932758752E+03  0.15081493062E+04  0.11955547318E+04 0.  0.
        4    1    3    3  502    0 -0.22054084469E+02  0.37816972522E+03 -0.12366948304E+03  0.39849024787E+03  0.12699999809E+01 0. -1.
       -4    1    3    3    0  502  0.22054084469E+02 -0.37816972522E+03  0.10429970706E+04  0.11096590584E+04  0.12699999809E+01 0.  1.
</event>
<event>
 5   0  0.2938349E-03  0.1215106E+04  0.7818609E-02  0.9099736E-01
        1   -1    0    0  501    0  0.00000000000E+00  0.00000000000E+00  0.89332109771E+03  0.89332109773E+03  0.50400001928E-02 0.  1.
       -1   -1    0    0    0  501  0.00000000000E+00  0.00000000000E+00 -0.41320071846E+03  0.41320071849E+03  0.50400001928E-02 0. -1.
    10030    2    1    2    0    0  0.00000000000E+00  0.00000000000E+00  0.48012037925E+03  0.13065218162E+04  0.12151064471E+04 0.  0.
        4    1    3    3  502    0  0.20506329491E+03  0.56700178909E+03  0.15976024794E+03  0.62375230138E+03  0.12699999809E+01 0. -1.
       -4    1    3    3    0  502 -0.20506329491E+03 -0.56700178909E+03  0.32036013132E+03  0.68276951484E+03  0.12699999809E+01 0.  1.
</event>
<event>
 5   0  0.2875848E-03  0.1282225E+04  0.7818609E-02  0.9043781E-01
        1   -1    0    0  501    0  0.00000000000E+00  0.00000000000E+00  0.74887238562E+03  0.74887238563E+03  0.50400001928E-02 0.  1.
       -1   -1    0    0    0  501  0.00000000000E+00  0.00000000000E+00 -0.54885842914E+03  0.54885842916E+03  0.50400001928E-02 0. -1.
    10030    2    1    2    0    0  0.00000000000E+00  0.00000000000E+00  0.20001395648E+03  0.12977308148E+04  0.12822245064E+04 0.  0.
        1    1    3    3  502    0  0.56024723103E+03 -0.22741765269E+03  0.31572575923E+03  0.68211326310E+03  0.50400001928E-02 0.  1.
       -1    1    3    3    0  502 -0.56024723103E+03  0.22741765269E+03 -0.11571180275E+03  0.61561755169E+03  0.50400001928E-02 0. -1.
</event>
<event>
 5   0  0.5003526E-03  0.1220206E+04  0.7818609E-02  0.9095351E-01
       -2   -1    0    0    0  501  0.00000000000E+00  0.00000000000E+00  0.98677730251E+03  0.98677730251E+03  0.25500000920E-02 0.  1.
        2   -1    0    0  501    0  0.00000000000E+00  0.00000000000E+00 -0.37721373805E+03  0.37721373806E+03  0.25500000920E-02 0. -1.
    10030    2    1    2    0    0  0.00000000000E+00  0.00000000000E+00  0.60956356446E+03  0.13639910406E+04  0.12202064660E+04 0.  0.
        2    1    3    3  502    0 -0.25961133087E+03 -0.48866938647E+03  0.17538875471E+02  0.55362751427E+03  0.25500000920E-02 0. -1.
       -2    1    3    3    0  502  0.25961133087E+03  0.48866938647E+03  0.59202468899E+03  0.81036352631E+03  0.25500000920E-02 0.  1.
</event>
<event>
 5   0  0.5108045E-03  0.1122909E+04  0.7818609E-02  0.9183146E-01
       -2   -1    0    0    0  501  0.00000000000E+00  0.00000000000E+00  0.28303042355E+03  0.28303042356E+03  0.25500000920E-02 0.  1.
        2   -1    0    0  501    0  0.00000000000E+00  0.00000000000E+00 -0.11137717801E+04  0.11137717801E+04  0.25500000920E-02 0. -1.
    10030    2    1    2    0    0  0.00000000000E+00  0.00000000000E+00 -0.83074135653E+03  0.13968022037E+04  0.11229092549E+04 0.  0.
        3    1    3    3  502    0  0.26355859253E+03 -0.46924978951E+03 -0.21645027920E+03  0.58009415634E+03  0.10100000352E+00 0.  1.
       -3    1    3    3    0  502 -0.26355859253E+03  0.46924978951E+03 -0.61429107733E+03  0.81670804731E+03  0.10100000352E+00 0. -1.
</event>
<event>
 5   0  0.2938349E-03  0.1226398E+04  0.7818609E-02  0.9090059E-01
        1   -1    0    0  501    0  0.00000000000E+00  0.00000000000E+00  0.67151698790E+03  0.67151698792E+03  0.50400001928E-02 0. -1.
       -1   -1    0    0    0  501  0.00000000000E+00  0.00000000000E+00 -0.55994581875E+03  0.55994581877E+03  0.50400001928E-02 0.  1.
    10030    2    1    2    0    0  0.00000000000E+00  0.00000000000E+00  0.11157116915E+03  0.12314628067E+04  0.12263981892E+04 0.  0.
        4    1    3    3  502    0 -0.32043484954E+03  0.96120437436E+02  0.57180848089E+03  0.66248334546E+03  0.12699999809E+01 0. -1.
       -4    1    3    3    0  502  0.32043484954E+03 -0.96120437436E+02 -0.46023731174E+03  0.56897946124E+03  0.12699999809E+01 0.  1.
</event>
<event>
 5   0  0.2792518E-03  0.1197974E+04  0.7818609E-02  0.9114632E-01
       -1   -1    0    0    0  501  0.00000000000E+00  0.00000000000E+00  0.10115558968E+04  0.10115558968E+04  0.50400001928E-02 0. -1.
        1   -1    0    0  501    0  0.00000000000E+00  0.00000000000E+00 -0.35468672131E+03  0.35468672135E+03  0.50400001928E-02 0.  1.
    10030    2    1    2    0    0  0.00000000000E+00  0.00000000000E+00  0.65686917548E+03  0.13662426181E+04  0.11979740306E+04 0.  0.
        2    1    3    3  502    0 -0.12135466637E+03  0.58607230248E+02  0.99404153221E+03  0.10031352502E+04  0.25500000920E-02 0. -1.
       -2    1    3    3    0  502  0.12135466637E+03 -0.58607230248E+02 -0.33717235673E+03  0.36310736792E+03  0.25500000920E-02 0.  1.
</event>
<event>
 5   0  0.2875848E-03  0.1188420E+04  0.7818609E-02  0.9123053E-01
        1   -1    0    0  501    0  0.00000000000E+00  0.00000000000E+00  0.45003822011E+03  0.45003822014E+03  0.50400001928E-02 0.  1.
       -1   -1    0    0    0  501  0.00000000000E+00  0.00000000000E+00 -0.78456773757E+03  0.78456773759E+03  0.50400001928E-02 0. -1.
    10030    2    1    2    0    0  0.00000000000E+00  0.00000000000E+00 -0.33452951746E+03  0.12346059577E+04  0.11884199059E+04 0.  0.
        1    1    3    3  502    0  0.13105350983E+03  0.21329233385E+03 -0.72711173658E+03  0.76899942758E+03  0.50400001928E-02 0. -1.
       -1    1    3    3    0  502 -0.13105350983E+03 -0.21329233385E+03  0.39258221912E+03  0.46560653015E+03  0.50400001928E-02 0.  1.
</event>
<event>
 5   0  0.5003526E-03  0.1252864E+04  0.7818609E-02  0.9067803E-01
       -2   -1    0    0    0  501  0.00000000000E+00  0.00000000000E+00  0.93025731900E+03  0.93025731900E+03  0.25500000920E-02 0.  1.
        2   -1    0    0  501    0  0.00000000000E+00  0.00000000000E+00 -0.42183714343E+03  0.42183714344E+03  0.25500000920E-02 0. -1.
    10030    2    1    2    0    0  0.00000000000E+00  0.00000000000E+00  0.50842017556E+03  0.13520944624E+04  0.12528640630E+04 0.  0.
        2    1    3    3  502    0  0.12441197557E+03  0.11142504279E+03 -0.39736680625E+03  0.43103858127E+03  0.25500000920E-02 0. -1.
       -2    1    3    3    0  502 -0.12441197557E+03 -0.11142504279E+03  0.90578698181E+03  0.92105588118E+03  0.25500000920E-02 0.  1.
</event>
<event>
 5   0  0.2926844E-03  0.1164329E+04  0.7818609E-02  0.9144665E-01
        1   -1    0    0  501    0  0.00000000000E+00  0.00000000000E+00  0.77197598754E+03  0.77197598755E+03  0.50400001928E-02 0. -1.
       -1   -1    0    0    0  501  0.00000000000E+00  0.00000000000E+00 -0.43902363557E+03  0.43902363559E+03  0.50400001928E-02 0.  1.
    10030    2    1    2    0    0  0.00000000000E+00  0.00000000000E+00  0.33295235197E+03  0.12109996231E+04  0.11643293428E+04 0.  0.
        5    1    3    3  502    0 -0.14527722825E+03 -0.34881529687E+03 -0.29412464998E+03  0.47886217652E+03  0.46999998093E+01 0.  1.
       -5    1    3    3    0  502  0.14527722825E+03  0.34881529687E+03  0.62707700195E+03  0.73213744663E+03  0.46999998093E+01 0. -1.
</event>
<event>
 5   0  0.2930868E-03  0.1232926E+04  0.7818609E-02  0.9084515E-01
       -1   -1    0    0    0  501  0.00000000000E+00  0.00000000000E+00  0.26515085585E+03  0.26515085589E+03  0.50400001928E-02 0. -1.
        1   -1    0    0  501    0  0.00000000000E+00  0.00000000000E+00 -0.14332460950E+04  0.14332460950E+04  0.50400001928E-02 0.  1.
    10030    2    1    2    0    0  0.00000000000E+00  0.00000000000E+00 -0.11680952391E+04  0.16983969509E+04  0.12329256730E+04 0.  0.
        3    1    3    3  502    0 -0.57380008002E+03 -0.68996186491E+02 -0.87955806935E+03  0.10524397432E+04  0.10100000352E+00 0.  1.
       -3    1    3    3    0  502  0.57380008002E+03  0.68996186491E+02 -0.28853716980E+03  0.64595720767E+03  0.10100000352E+00 0. -1.
</event>
<event>
 5   0  0.5108045E-03  0.1236096E+04  0.7818609E-02  0.9081836E-01
       -2   -1    0    0    0  501  0.00000000000E+00  0.00000000000E+00  0.16959064765E+03  0.16959064767E+03  0.25500000920E-02 0.  1.
        2   -1    0    0  501    0  0.00000000000E+00  0.00000000000E+00 -0.22523834212E+04  0.22523834213E+04  0.25500000920E-02 0. -1.
    10030    2    1    2    0    0  0.00000000000E+00  0.00000000000E+00 -0.20827927736E+04  0.24219740689E+04  0.12360957296E+04 0.  0.
        3    1    3    3  502    0 -0.36671288562E+03  0.58902570680E+02 -0.20093258478E+04  0.20433644379E+04  0.10100000352E+00 0. -1.
       -3    1    3    3    0  502  0.36671288562E+03 -0.58902570680E+02 -0.73466925823E+02  0.37860963102E+03  0.10100000352E+00 0.  1.
</event>
<event>
 5   0  0.5108045E-03  0.1229334E+04  0.7818609E-02  0.9087561E-01
       -2   -1    0    0    0  501  0.00000000000E+00  0.00000000000E+00  0.12137305133E+04  0.12137305133E+04  0.25500000920E-02 0.  1.
        2   -1    0    0  501    0  0.00000000000E+00  0.00000000000E+00 -0.31128471416E+03  0.31128471417E+03  0.25500000920E-02 0. -1.
    10030    2    1    2    0    0  0.00000000000E+00  0.00000000000E+00  0.90244579914E+03  0.15250152275E+04  0.12293343824E+04 0.  0.
        3    1    3    3  502    0  0.49506035503E+03 -0.20403723647E+03  0.82564619030E+03  0.98407702481E+03  0.10100000352E+00 0.  1.
       -3    1    3    3    0  502 -0.49506035503E+03  0.20403723647E+03  0.76799608839E+02  0.54093820267E+03  0.10100000352E+00 0. -1.
</event>
<event>
 5   0  0.2875848E-03  0.1200789E+04  0.7818609E-02  0.9112166E-01
       -1   -1    0    0    0  501  0.00000000000E+00  0.00000000000E+00  0.46138774583E+03  0.46138774586E+03  0.50400001928E-02 0. -1.
        1   -1    0    0  501    0  0.00000000000E+00  0.00000000000E+00 -0.78128087784E+03  0.78128087786E+03  0.50400001928E-02 0.  1.
    10030    2    1    2    0    0  0.00000000000E+00  0.00000000000E+00 -0.31989313201E+03  0.12426686237E+04  0.12007887793E+04 0.  0.
        1    1    3    3  502    0 -0.47174218078E+03 -0.36115116331E+03 -0.70308208371E+02  0.59825921812E+03  0.50400001928E-02 0. -1.
       -1    1    3    3    0  502  0.47174218078E+03  0.36115116331E+03 -0.24958492364E+03  0.64440940559E+03  0.50400001928E-02 0.  1.
</event>
<event>
 5   0  0.5467554E-03  0.1193535E+04  0.7818609E-02  0.9118534E-01
        2   -1    0    0  501    0  0.00000000000E+00  0.00000000000E+00  0.96725179526E+03  0.96725179527E+03  0.25500000920E-02 0.  1.
       -2   -1    0    0    0  501  0.00000000000E+00  0.00000000000E+00 -0.36818890436E+03  0.36818890437E+03  0.25500000920E-02 0. -1.
    10030    2    1    2    0    0  0.00000000000E+00  0.00000000000E+00  0.59906289091E+03  0.13354406996E+04  0.11935348822E+04 0.  0.
        1    1    3    3  502    0  0.55202862069E+03  0.12084007557E+03  0.51415371737E+03  0.76399736062E+03  0.50400001928E-02 0. -1.
       -1    1    3    3    0  502 -0.55202862069E+03 -0.12084007557E+03  0.84909173538E+02  0.57144333901E+03  0.50400001928E-02 0.  1.
</event>
<event>
 5   0  0.2792518E-03  0.1179436E+04  0.7818609E-02  0.9131049E-01
       -1   -1    0    0    0  501  0.00000000000E+00  0.00000000000E+00  0.40850185354E+03  0.40850185357E+03  0.50400001928E-02 0.  1.
        1   -1    0    0  501    0  0.00000000000E+00  0.00000000000E+00 -0.85132356988E+03  0.85132356989E+03  0.50400001928E-02 0. -1.
    10030    2    1    2    0    0  0.00000000000E+00  0.00000000000E+00 -0.44282171633E+03  0.12598254235E+04  0.11794358928E+04 0.  0.
        2    1    3    3  502    0 -0.35909434767E+02  0.32205114099E+03  0.30487940605E+03  0.44492457468E+03  0.25500000920E-02 0.  1.
       -2    1    3    3    0  502  0.35909434767E+02 -0.32205114099E+03 -0.74770112239E+03  0.81490084878E+03  0.25500000920E-02 0. -1.
</event>
<event>
 5   0  0.2875848E-03  0.1207461E+04  0.7818609E-02  0.9106351E-01
       -1   -1    0    0    0  501  0.00000000000E+00  0.00000000000E+00  0.76283587307E+03  0.76283587308E+03  0.50400001928E-02 0.  1.
        1   -1    0    0  501    0  0.00000000000E+00  0.00000000000E+00 -0.47780988240E+03  0.47780988243E+03  0.50400001928E-02 0. -1.
    10030    2    1    2    0    0  0.00000000000E+00  0.00000000000E+00  0.28502599067E+03  0.12406457555E+04  0.12074610036E+04 0.  0.
        1    1    3    3  502    0  0.15731687263E+03 -0.37012966962E+03 -0.32013509322E+03  0.51403409292E+03  0.50400001928E-02 0. -1.
       -1    1    3    3    0  502 -0.15731687263E+03  0.37012966962E+03  0.60516108389E+03  0.72661166260E+03  0.50400001928E-02 0.  1.
</event>
<event>
 5   0  0.1922125E-03  0.1144318E+04  0.7818609E-02  0.9163042E-01
        4   -1    0    0  501    0  0.00000000000E+00  0.00000000000E+00  0.40086268471E+03  0.40086469649E+03  0.12699999809E+01 0.  1.
       -4   -1    0    0    0  501  0.00000000000E+00  0.00000000000E+00 -0.81664864823E+03  0.81664963574E+03  0.12699999809E+01 0. -1.
    10030    2    1    2    0    0  0.00000000000E+00  0.00000000000E+00 -0.41578596352E+03  0.12175143322E+04  0.11443177800E+04 0.  0.
        5    1    3    3  502    0 -0.21432100626E+03  0.10317947041E+03  0.34574141469E+03  0.41968882838E+03  0.46999998093E+01 0.  1.
       -5    1    3    3    0  502  0.21432100626E+03 -0.10317947041E+03 -0.76152737820E+03  0.79782550385E+03  0.46999998093E+01 0. -1.
</event>
<event>
 5   0  0.5108045E-03  0.1192543E+04  0.7818609E-02  0.9119409E-01
       -2   -1    0    0    0  501  0.00000000000E+00  0.00000000000E+00  0.85827521693E+03  0.85827521693E+03  0.25500000920E-02 0.  1.
        2   -1    0    0  501    0  0.00000000000E+00  0.00000000000E+00 -0.41424918058E+03  0.41424918059E+03  0.25500000920E-02 0. -1.
    10030    2    1    2    0    0  0.00000000000E+00  0.00000000000E+00  0.44402603635E+03  0.12725243975E+04  0.11925431738E+04 0.  0.
        3    1    3    3  502    0 -0.39383314530E+03  0.44768931161E+03  0.22530696782E+03  0.63741156722E+03  0.10100000352E+00 0.  1.
       -3    1    3    3    0  502  0.39383314530E+03 -0.44768931161E+03  0.21871906852E+03  0.63511283030E+03  0.10100000352E+00 0. -1.
</event>
<event>
 5   0  0.2938349E-03  0.1137193E+04  0.7818609E-02  0.9169680E-01
       -1   -1    0    0    0  501  0.00000000000E+00  0.00000000000E+00  0.19536107210E+03  0.19536107216E+03  0.50400001928E-02 0.  1.
        1   -1    0    0  501    0  0.00000000000E+00  0.00000000000E+00 -0.16548948780E+04  0.16548948780E+04  0.50400001928E-02 0. -1.
    10030    2    1    2    0    0  0.00000000000E+00  0.00000000000E+00 -0.14595338059E+04  0.18502559502E+04  0.11371931017E+04 0.  0.
        4    1    3    3  502    0 -0.45760776121E+03  0.32859988909E+03 -0.85492908629E+03  0.10238594170E+04  0.12699999809E+01 0. -1.
       -4    1    3    3    0  502  0.45760776121E+03 -0.32859988909E+03 -0.60460471965E+03  0.82639653324E+03  0.12699999809E+01 0.  1.
</event>
<event>
 5   0  0.2792518E-03  0.1195472E+04  0.7818609E-02  0.9116829E-01
       -1   -1    0    0    0  501  0.00000000000E+00  0.00000000000E+00  0.36243767831E+03  0.36243767835E+03  0.50400001928E-02 0. -1.
        1   -1    0    0  501    0  0.00000000000E+00  0.00000000000E+00 -0.98579210135E+03  0.98579210136E+03  0.50400001928E-02 0.  1.
    10030    2    1    2    0    0  0.00000000000E+00  0.00000000000E+00 -0.62335442304E+03  0.13482297797E+04  0.11954717906E+04 0.  0.
        2    1    3    3  502    0  0.58676702364E+02  0.53490405042E+03 -0.18187850371E+02  0.53842000006E+03  0.25500000920E-02 0. -1.
       -2    1    3    3    0  502 -0.58676702364E+02 -0.53490405042E+03 -0.60516657267E+03  0.80980977966E+03  0.25500000920E-02 0.  1.
</event>
<event>
 5   0  0.5003526E-03  0.1268737E+04  0.7818609E-02  0.9054731E-01
        2   -1    0    0  501    0  0.00000000000E+00  0.00000000000E+00  0.93653153454E+03  0.93653153455E+03  0.25500000920E-02 0.  1.
       -2   -1    0    0    0  501  0.00000000000E+00  0.00000000000E+00 -0.42969552670E+03  0.42969552671E+03  0.25500000920E-02 0. -1.
    10030    2    1    2    0    0  0.00000000000E+00  0.00000000000E+00  0.50683600785E+03  0.13662270613E+04  0.12687370271E+04 0.  0.
        2    1    3    3  502    0 -0.31152907290E+03 -0.21889740521E+03  0.79980908135E+03  0.88581093010E+03  0.25500000920E-02 0.  1.
       -2    1    3    3    0  502  0.31152907290E+03  0.21889740521E+03 -0.29297307350E+03  0.48041613115E+03  0.25500000920E-02 0. -1.
</event>
<event>
 5   0  0.2930868E-03  0.1196492E+04  0.7818609E-02  0.9115933E-01
        1   -1    0    0  501    0  0.00000000000E+00  0.00000000000E+00  0.10343323868E+04  0.10343323869E+04  0.50400001928E-02 0. -1.
       -1   -1    0    0    0  501  0.00000000000E+00  0.00000000000E+00 -0.34601834998E+03  0.34601835002E+03  0.50400001928E-02 0.  1.
    10030    2    1    2    0    0  0.00000000000E+00  0.00000000000E+00  0.68831403687E+03  0.13803507369E+04  0.11964915142E+04 0.  0.
        3    1    3    3  502    0  0.44108980782E+03  0.37241183273E+03  0.52527579743E+03  0.78049052863E+03  0.10100000352E+00 0. -1.
       -3    1    3    3    0  502 -0.44108980782E+03 -0.37241183273E+03  0.16303823944E+03  0.59986020825E+03  0.10100000352E+00 0.  1.
</event>
<event>
 5   0  0.5031575E-03  0.1211437E+04  0.7818609E-02  0.9102904E-01
       -2   -1    0    0    0  501  0.00000000000E+00  0.00000000000E+00  0.83277587047E+03  0.83277587048E+03  0.25500000920E-02 0. -1.
        2   -1    0    0  501    0  0.00000000000E+00  0.00000000000E+00 -0.44056858276E+03  0.44056858277E+03  0.25500000920E-02 0.  1.
    10030    2    1    2    0    0  0.00000000000E+00  0.00000000000E+00  0.39220728772E+03  0.12733444532E+04  0.12114369732E+04 0.  0.
        5    1    3    3  502    0 -0.78251110169E+02  0.57237147824E+03  0.47554906333E+01  0.57773441133E+03  0.46999998093E+01 0.  1.
       -5    1    3    3    0  502  0.78251110169E+02 -0.57237147824E+03  0.38745179708E+03  0.69561004191E+03  0.46999998093E+01 0. -1.
</event>
<event>
 5   0  0.2930868E-03  0.1199441E+04  0.7818609E-02  0.9113346E-01
       -1   -1    0    0    0  501  0.00000000000E+00  0.00000000000E+00  0.79220509325E+03  0.79220509327E+03  0.50400001928E-02 0.  1.
        1   -1    0    0  501    0  0.00000000000E+00  0.00000000000E+00 -0.45400417808E+03  0.45400417811E+03  0.50400001928E-02 0. -1.
    10030    2    1    2    0    0  0.00000000000E+00  0.00000000000E+00  0.33820091517E+03  0.12462092714E+04  0.11994405734E+04 0.  0.
        3    1    3    3  502    0 -0.34022103796E+03 -0.18755838575E+03  0.64379127039E+03  0.75192799706E+03  0.10100000352E+00 0.  1.
       -3    1    3    3    0  502  0.34022103796E+03  0.18755838575E+03 -0.30559035522E+03  0.49428127431E+03  0.10100000352E+00 0. -1.
</event>
<event>
 5   0  0.5003526E-03  0.1220615E+04  0.7818609E-02  0.9095001E-01
       -2   -1    0    0    0  501  0.00000000000E+00  0.00000000000E+00  0.46080623425E+03  0.46080623426E+03  0.25500000920E-02 0.  1.
        2   -1    0    0  501    0  0.00000000000E+00  0.00000000000E+00 -0.80831261225E+03  0.80831261225E+03  0.25500000920E-02 0. -1.
    10030    2    1    2    0    0  0.00000000000E+00  0.00000000000E+00 -0.34750637800E+03  0.12691188465E+04  0.12206154037E+04 0.  0.
        2    1    3    3  502    0 -0.18673074501E+03 -0.32319521768E+02  0.42943989545E+03  0.46939487260E+03  0.25500000920E-02 0.  1.
       -2    1    3    3    0  502  0.18673074501E+03  0.32319521768E+02 -0.77694627344E+03  0.79972397391E+03  0.25500000920E-02 0. -1.
</event>
<event>
 5   0  0.5003526E-03  0.1207169E+04  0.7818609E-02  0.9106605E-01
       -2   -1    0    0    0  501  0.00000000000E+00  0.00000000000E+00  0.97069388038E+03  0.97069388039E+03  0.25500000920E-02 0. -1.
        2   -1    0    0  501    0  0.00000000000E+00  0.00000000000E+00 -0.37531303451E+03  0.37531303451E+03  0.25500000920E-02 0.  1.
    10030    2    1    2    0    0  0.00000000000E+00  0.00000000000E+00  0.59538084588E+03  0.13460069149E+04  0.12071686971E+04 0.  0.
        2    1    3    3  502    0 -0.16123990796E+03  0.12977593048E+03 -0.33450628445E+03  0.39336313299E+03  0.25500000920E-02 0.  1.
       -2    1    3    3    0  502  0.16123990796E+03 -0.12977593048E+03  0.92988713033E+03  0.95264378191E+03  0.25500000920E-02 0. -1.
</event>
<event>
 5   0  0.2875848E-03  0.1252362E+04  0.7818609E-02  0.9068219E-01
       -1   -1    0    0    0  501  0.00000000000E+00  0.00000000000E+00  0.12325817919E+04  0.12325817919E+04  0.50400001928E-02 0. -1.
        1   -1    0    0  501    0  0.00000000000E+00  0.00000000000E+00 -0.31811509359E+03  0.31811509363E+03  0.50400001928E-02 0.  1.
    10030    2    1    2    0    0  0.00000000000E+00  0.00000000000E+00  0.91446669834E+03  0.15506968856E+04  0.12523623631E+04 0.  0.
        1    1    3    3  502    0  0.54943888428E+02 -0.27528062685E+02  0.12288387876E+04  0.12303744922E+04  0.50400001928E-02 0. -1.
       -1    1    3    3    0  502 -0.54943888428E+02  0.27528062685E+02 -0.31437208930E+03  0.32032239333E+03  0.50400001928E-02 0.  1.
</event>
<event>
 5   0  0.5108045E-03  0.1201901E+04  0.7818609E-02  0.9111194E-01
        2   -1    0    0  501    0  0.00000000000E+00  0.00000000000E+00  0.21511320189E+04  0.21511320189E+04  0.25500000920E-02 0.  1.
       -2   -1    0    0    0  501  0.00000000000E+00  0.00000000000E+00 -0.16788449414E+03  0.16788449416E+03  0.25500000920E-02 0. -1.
    10030    2    1    2    0    0  0.00000000000E+00  0.00000000000E+00  0.19832475247E+04  0.23190165130E+04  0.12019013451E+04 0.  0.
        3    1    3    3  502    0  0.46991663429E+03  0.36063673595E+02  0.17110277362E+04  0.17747501672E+04  0.10100000352E+00 0. -1.
       -3    1    3    3    0  502 -0.46991663429E+03 -0.36063673595E+02  0.27221978853E+03  0.54426634583E+03  0.10100000352E+00 0.  1.
</event>
<event>
 5   0  0.5003526E-03  0.1074748E+04  0.7818609E-02  0.9230159E-01
        2   -1    0    0  501    0  0.00000000000E+00  0.00000000000E+00  0.59114048368E+03  0.59114048369E+03  0.25500000920E-02 0. -1.
       -2   -1    0    0    0  501  0.00000000000E+00  0.00000000000E+00 -0.48849808245E+03  0.48849808246E+03  0.25500000920E-02 0.  1.
    10030    2    1    2    0    0  0.00000000000E+00  0.00000000000E+00  0.10264240124E+03  0.10796385661E+04  0.10747483291E+04 0.  0.
        2    1    3    3  502    0 -0.32144582252E+03 -0.14660663235E+03 -0.35542866305E+03  0.50114913547E+03  0.25500000920E-02 0.  1.
       -2    1    3    3    0  502  0.32144582252E+03  0.14660663235E+03  0.45807106428E+03  0.57848943067E+03  0.25500000920E-02 0. -1.
</event>
<event>
 5   0  0.2930868E-03  0.1187026E+04  0.7818609E-02  0.9124289E-01
       -1   -1    0    0    0  501  0.00000000000E+00  0.00000000000E+00  0.86611927455E+03  0.86611927456E+03  0.50400001928E-02 0. -1.
        1   -1    0    0  501    0  0.00000000000E+00  0.00000000000E+00 -0.40670786290E+03  0.40670786293E+03  0.50400001928E-02 0.  1.
    10030    2    1    2    0    0  0.00000000000E+00  0.00000000000E+00  0.45941141164E+03  0.12728271375E+04  0.11870257271E+04 0.  0.
        3    1    3    3  502    0 -0.97567757345E+02 -0.21371178645E+03  0.81413942827E+03  0.84735778382E+03  0.10100000352E+00 0. -1.
       -3    1    3    3    0  502  0.97567757345E+02  0.21371178645E+03 -0.35472801662E+03  0.42546935368E+03  0.10100000352E+00 0.  1.
</event>
<event>
 5   0  0.2930868E-03  0.1212406E+04  0.7818609E-02  0.9102066E-01
       -1   -1    0    0    0  501  0.00000000000E+00  0.00000000000E+00  0.65870214388E+03  0.65870214390E+03  0.50400001928E-02 0. -1.
        1   -1    0    0  501    0  0.00000000000E+00  0.00000000000E+00 -0.55788818379E+03  0.55788818381E+03  0.50400001928E-02 0.  1.
    10030    2    1    2    0    0  0.00000000000E+00  0.00000000000E+00  0.10081396010E+03  0.12165903277E+04  0.12124061081E+04 0.  0.
        3    1    3    3  502    0  0.23475186384E+03 -0.97326986187E+02  0.60267094520E+03  0.65405906324E+03  0.10100000352E+00 0. -1.
       -3    1    3    3    0  502 -0.23475186384E+03  0.97326986187E+02 -0.50185698510E+03  0.56253126447E+03  0.10100000352E+00 0.  1.
</event>
<event>
 5   0  0.2938349E-03  0.1234823E+04  0.7818609E-02  0.9082911E-01
       -1   -1    0    0    0  501  0.00000000000E+00  0.00000000000E+00  0.10656163123E+04  0.10656163123E+04  0.50400001928E-02 0. -1.
        1   -1    0    0  501    0  0.00000000000E+00  0.00000000000E+00 -0.35772413388E+03  0.35772413391E+03  0.50400001928E-02 0.  1.
    10030    2    1    2    0    0  0.00000000000E+00  0.00000000000E+00  0.70789217844E+03  0.14233404462E+04  0.12348225337E+04 0.  0.
        4    1    3    3  502    0 -0.34792089432E+03 -0.24396752263E+03 -0.16234877746E+03  0.45489321741E+03  0.12699999809E+01 0.  1.
       -4    1    3    3    0  502  0.34792089432E+03  0.24396752263E+03  0.87024095591E+03  0.96844722884E+03  0.12699999809E+01 0. -1.
</event>
<event>
 5   0  0.5108045E-03  0.1159237E+04  0.7818609E-02  0.9149304E-01
       -2   -1    0    0    0  501  0.00000000000E+00  0.00000000000E+00  0.18735670660E+03  0.18735670662E+03  0.25500000920E-02 0.  1.
        2   -1    0    0  501    0  0.00000000000E+00  0.00000000000E+00 -0.17931457344E+04  0.17931457344E+04  0.25500000920E-02 0. -1.
    10030    2    1    2    0    0  0.00000000000E+00  0.00000000000E+00 -0.16057890278E+04  0.19805024411E+04  0.11592374723E+04 0.  0.
        3    1    3    3  502    0 -0.56326287111E+02 -0.57641226331E+03 -0.76341035764E+03  0.95823751349E+03  0.10100000352E+00 0. -1.
       -3    1    3    3    0  502  0.56326287111E+02  0.57641226331E+03 -0.84237867020E+03  0.10222649276E+04  0.10100000352E+00 0.  1.
</event>
<event>
 5   0  0.5003526E-03  0.1205364E+04  0.7818609E-02  0.9108175E-01
        2   -1    0    0  501    0  0.00000000000E+00  0.00000000000E+00  0.28735206436E+04  0.28735206436E+04  0.25500000920E-02 0. -1.
       -2   -1    0    0    0  501  0.00000000000E+00  0.00000000000E+00 -0.12640430024E+03  0.12640430026E+03  0.25500000920E-02 0.  1.
    10030    2    1    2    0    0  0.00000000000E+00  0.00000000000E+00  0.27471163433E+04  0.29999249438E+04  0.12053636235E+04 0.  0.
        2    1    3    3  502    0  0.25481450453E+03  0.53308104615E+03  0.16692929976E+04  0.17707752385E+04  0.25500000920E-02 0.  1.
       -2    1    3    3    0  502 -0.25481450453E+03 -0.53308104615E+03  0.10778233457E+04  0.12291497053E+04  0.25500000920E-02 0. -1.
</event>
<event>
 5   0  0.5189537E-03  0.9273508E+03  0.7818609E-02  0.9392023E-01
        2   -1    0    0  501    0  0.00000000000E+00  0.00000000000E+00  0.75761825189E+03  0.75761825190E+03  0.25500000920E-02 0. -1.
       -2   -1    0    0    0  501  0.00000000000E+00  0.00000000000E+00 -0.28377732300E+03  0.28377732301E+03  0.25500000920E-02 0.  1.
    10030    2    1    2    0    0  0.00000000000E+00  0.00000000000E+00  0.47384092889E+03  0.10413955749E+04  0.92735080609E+03 0.  0.
        4    1    3    3  502    0  0.27312491889E+03  0.37213664489E+03  0.28600329381E+03  0.54303075489E+03  0.12699999809E+01 0.  1.
       -4    1    3    3    0  502 -0.27312491889E+03 -0.37213664489E+03  0.18783763508E+03  0.49836482002E+03  0.12699999809E+01 0. -1.
</event>
<event>
 5   0  0.2792518E-03  0.1168248E+04  0.7818609E-02  0.9141112E-01
        1   -1    0    0  501    0  0.00000000000E+00  0.00000000000E+00  0.25496415745E+04  0.25496415745E+04  0.50400001928E-02 0. -1.
       -1   -1    0    0    0  501  0.00000000000E+00  0.00000000000E+00 -0.13382304020E+03  0.13382304030E+03  0.50400001928E-02 0.  1.
    10030    2    1    2    0    0  0.00000000000E+00  0.00000000000E+00  0.24158185343E+04  0.26834646148E+04  0.11682478967E+04 0.  0.
        2    1    3    3  502    0 -0.23163853628E+03  0.19677418169E+03  0.23537051514E+04  0.23732476546E+04  0.25500000920E-02 0. -1.
       -2    1    3    3    0  502  0.23163853628E+03 -0.19677418169E+03  0.62113382862E+02  0.31021696022E+03  0.25500000920E-02 0.  1.
</event>
<event>
 5   0  0.1922125E-03  0.1059740E+04  0.7818609E-02  0.9245346E-01
       -3   -1    0    0    0  501  0.00000000000E+00  0.00000000000E+00  0.32793124642E+03  0.32793126197E+03  0.10100000352E+00 0. -1.
        3   -1    0    0  501    0  0.00000000000E+00  0.00000000000E+00 -0.85616101265E+03  0.85616101861E+03  0.10100000352E+00 0.  1.
    10030    2    1    2    0    0  0.00000000000E+00  0.00000000000E+00 -0.52822976623E+03  0.11840922806E+04  0.10597395166E+04 0.  0.
        3    1    3    3  502    0 -0.26148154755E+03  0.25515702904E+02  0.25003072635E+03  0.36268309186E+03  0.10100000352E+00 0. -1.
       -3    1    3    3    0  502  0.26148154755E+03 -0.25515702904E+02 -0.77826049258E+03  0.82140918872E+03  0.10100000352E+00 0.  1.
</event>
<event>
 5   0  0.5108045E-03  0.1195824E+04  0.7818609E-02  0.9116520E-01
       -2   -1    0    0    0  501  0.00000000000E+00  0.00000000000E+00  0.58114621523E+03  0.58114621524E+03  0.25500000920E-02 0. -1.
        2   -1    0    0  501    0  0.00000000000E+00  0.00000000000E+00 -0.61516143170E+03  0.61516143170E+03  0.25500000920E-02 0.  1.
    10030    2    1    2    0    0  0.00000000000E+00  0.00000000000E+00 -0.34015216465E+02  0.11963076469E+04  0.11958239633E+04 0.  0.
        3    1    3    3  502    0 -0.16359352540E+03 -0.81210077070E+02  0.55255632817E+03  0.58195912586E+03  0.10100000352E+00 0. -1.
       -3    1    3    3    0  502  0.16359352540E+03  0.81210077070E+02 -0.58657154464E+03  0.61434852108E+03  0.10100000352E+00 0.  1.
</event>
<event>
 5   0  0.5003526E-03  0.1156868E+04  0.7818609E-02  0.9151471E-01
        2   -1    0    0  501    0  0.00000000000E+00  0.00000000000E+00  0.36638768105E+03  0.36638768106E+03  0.25500000920E-02 0.  1.
       -2   -1    0    0    0  501  0.00000000000E+00  0.00000000000E+00 -0.91320186930E+03  0.91320186930E+03  0.25500000920E-02 0. -1.
    10030    2    1    2    0    0  0.00000000000E+00  0.00000000000E+00 -0.54681418824E+03  0.12795895504E+04  0.11568680396E+04 0.  0.
        2    1    3    3  502    0  0.49615928140E+03  0.28944301165E+03 -0.34870695873E+03  0.67197308918E+03  0.25500000920E-02 0. -1.
       -2    1    3    3    0  502 -0.49615928140E+03 -0.28944301165E+03 -0.19810722951E+03  0.60761646118E+03  0.25500000920E-02 0.  1.
</event>
<event>
 5   0  0.2875848E-03  0.1254042E+04  0.7818609E-02  0.9066826E-01
        1   -1    0    0  501    0  0.00000000000E+00  0.00000000000E+00  0.92450554550E+03  0.92450554551E+03  0.50400001928E-02 0. -1.
       -1   -1    0    0    0  501  0.00000000000E+00  0.00000000000E+00 -0.42525990099E+03  0.42525990102E+03  0.50400001928E-02 0.  1.
    10030    2    1    2    0    0  0.00000000000E+00  0.00000000000E+00  0.49924564450E+03  0.13497654465E+04  0.12540416848E+04 0.  0.
        1    1    3    3  502    0  0.17484777595E+03  0.58342354787E+02 -0.39544019166E+03  0.43628949142E+03  0.50400001928E-02 0.  1.
       -1    1    3    3    0  502 -0.17484777595E+03 -0.58342354787E+02  0.89468583616E+03  0.91347595511E+03  0.50400001928E-02 0. -1.
</event>
<event>
 5   0  0.2930868E-03  0.1251645E+04  0.7818609E-02  0.9068816E-01
       -1   -1    0    0    0  501  0.00000000000E+00  0.00000000000E+00  0.12215843108E+04  0.12215843109E+04  0.50400001928E-02 0. -1.
        1   -1    0    0  501    0  0.00000000000E+00  0.00000000000E+00 -0.32061115777E+03  0.32061115781E+03  0.50400001928E-02 0.  1.
    10030    2    1    2    0    0  0.00000000000E+00  0.00000000000E+00  0.90097315307E+03  0.15421954687E+04  0.12516446145E+04 0.  0.
        3    1    3    3  502    0  0.15019507398E+03 -0.43964929024E+02 -0.29611223690E+03  0.33492378577E+03  0.10100000352E+00 0.  1.
       -3    1    3    3    0  502 -0.15019507398E+03  0.43964929024E+02  0.11970853900E+04  0.12072716829E+04  0.10100000352E+00 0. -1.
</event>
<event>
 5   0  0.2938349E-03  0.1157343E+04  0.7818609E-02  0.9151036E-01
       -1   -1    0    0    0  501  0.00000000000E+00  0.00000000000E+00  0.10583766001E+04  0.10583766001E+04  0.50400001928E-02 0. -1.
        1   -1    0    0  501    0  0.00000000000E+00  0.00000000000E+00 -0.31639081784E+03  0.31639081788E+03  0.50400001928E-02 0.  1.
    10030    2    1    2    0    0  0.00000000000E+00  0.00000000000E+00  0.74198578225E+03  0.13747674180E+04  0.11573428846E+04 0.  0.
        4    1    3    3  502    0 -0.27564726091E+03  0.45702249644E+03  0.63662902280E+03  0.83075212926E+03  0.12699999809E+01 0. -1.
       -4    1    3    3    0  502  0.27564726091E+03 -0.45702249644E+03  0.10535675944E+03  0.54401528872E+03  0.12699999809E+01 0.  1.
</event>
<event>
 5   0  0.2930868E-03  0.1348827E+04  0.7818609E-02  0.8991716E-01
        1   -1    0    0  501    0  0.00000000000E+00  0.00000000000E+00  0.84034437712E+03  0.84034437713E+03  0.50400001928E-02 0. -1.
       -1   -1    0    0    0  501  0.00000000000E+00  0.00000000000E+00 -0.54124702605E+03  0.54124702607E+03  0.50400001928E-02 0.  1.
    10030    2    1    2    0    0  0.00000000000E+00  0.00000000000E+00  0.29909735107E+03  0.13815914032E+04  0.13488274834E+04 0.  0.
        3    1    3    3  502    0  0.15549982706E+03  0.47455938830E+03 -0.31472407835E+03  0.59028642618E+03  0.10100000352E+00 0.  1.
       -3    1    3    3    0  502 -0.15549982706E+03 -0.47455938830E+03  0.61382142942E+03  0.79130497702E+03  0.10100000352E+00 0. -1.
</event>
<event>
 5   0  0.5031575E-03  0.1189831E+04  0.7818609E-02  0.9121804E-01
        2   -1    0    0  501    0  0.00000000000E+00  0.00000000000E+00  0.93062290214E+03  0.93062290215E+03  0.25500000920E-02 0.  1.
       -2   -1    0    0    0  501  0.00000000000E+00  0.00000000000E+00 -0.38030950682E+03  0.38030950683E+03  0.25500000920E-02 0. -1.
    10030    2    1    2    0    0  0.00000000000E+00  0.00000000000E+00  0.55031339533E+03  0.13109324090E+04  0.11898314787E+04 0.  0.
        5    1    3    3  502    0 -0.52768158151E+03  0.27462944335E+03  0.26878308069E+03  0.65279063802E+03  0.46999998093E+01 0. -1.
       -5    1    3    3    0  502  0.52768158151E+03 -0.27462944335E+03  0.28153031464E+03  0.65814177096E+03  0.46999998093E+01 0.  1.
</event>
<event>
 5   0  0.2792518E-03  0.1125462E+04  0.7818609E-02  0.9180724E-01
        1   -1    0    0  501    0  0.00000000000E+00  0.00000000000E+00  0.69137201548E+03  0.69137201550E+03  0.50400001928E-02 0. -1.
       -1   -1    0    0    0  501  0.00000000000E+00  0.00000000000E+00 -0.45802598638E+03  0.45802598641E+03  0.50400001928E-02 0.  1.
    10030    2    1    2    0    0  0.00000000000E+00  0.00000000000E+00  0.23334602910E+03  0.11493980019E+04  0.11254623039E+04 0.  0.
        2    1    3    3  502    0 -0.43305550364E+03 -0.35606793913E+03  0.16612707008E+03  0.58473895879E+03  0.25500000920E-02 0. -1.
       -2    1    3    3    0  502  0.43305550364E+03  0.35606793913E+03  0.67218959020E+02  0.56465904311E+03  0.25500000920E-02 0.  1.
</event>
<event>
 5   0  0.5467554E-03  0.1235693E+04  0.7818609E-02  0.9082176E-01
       -2   -1    0    0    0  501  0.00000000000E+00  0.00000000000E+00  0.18573836377E+03  0.18573836379E+03  0.25500000920E-02 0.  1.
        2   -1    0    0  501    0  0.00000000000E+00  0.00000000000E+00 -0.20552242566E+04  0.20552242566E+04  0.25500000920E-02 0. -1.
    10030    2    1    2    0    0  0.00000000000E+00  0.00000000000E+00 -0.18694858929E+04  0.22409626204E+04  0.12356925032E+04 0.  0.
        1    1    3    3  502    0  0.18832326051E+03  0.58480441463E+03 -0.10532779933E+04  0.12193672068E+04  0.50400001928E-02 0.  1.
       -1    1    3    3    0  502 -0.18832326051E+03 -0.58480441463E+03 -0.81620789959E+03  0.10215954137E+04  0.50400001928E-02 0. -1.
</event>
<event>
 5   0  0.2792518E-03  0.1177871E+04  0.7818609E-02  0.9132450E-01
       -1   -1    0    0    0  501  0.00000000000E+00  0.00000000000E+00  0.32639932432E+03  0.32639932435E+03  0.50400001928E-02 0. -1.
        1   -1    0    0  501    0  0.00000000000E+00  0.00000000000E+00 -0.10626392646E+04  0.10626392646E+04  0.50400001928E-02 0.  1.
    10030    2    1    2    0    0  0.00000000000E+00  0.00000000000E+00 -0.73623994032E+03  0.13890385890E+04  0.11778705158E+04 0.  0.
        2    1    3    3  502    0 -0.25234272245E+02 -0.31357494736E+01 -0.10619915877E+04  0.10622959728E+04  0.25500000920E-02 0.  1.
       -2    1    3    3    0  502  0.25234272245E+02  0.31357494736E+01  0.32575164743E+03  0.32674261618E+03  0.25500000920E-02 0. -1.
</event>
<event>
 5   0  0.2930868E-03  0.1223178E+04  0.7818609E-02  0.9092807E-01
       -1   -1    0    0    0  501  0.00000000000E+00  0.00000000000E+00  0.28539098338E+03  0.28539098343E+03  0.50400001928E-02 0.  1.
        1   -1    0    0  501    0  0.00000000000E+00  0.00000000000E+00 -0.13106272429E+04  0.13106272429E+04  0.50400001928E-02 0. -1.
    10030    2    1    2    0    0  0.00000000000E+00  0.00000000000E+00 -0.10252362595E+04  0.15960182263E+04  0.12231781518E+04 0.  0.
        3    1    3    3  502    0 -0.56492028367E+03  0.23185745960E+03 -0.55683528152E+03  0.82641294122E+03  0.10100000352E+00 0.  1.
       -3    1    3    3    0  502  0.56492028367E+03 -0.23185745960E+03 -0.46840097796E+03  0.76960528508E+03  0.10100000352E+00 0. -1.
</event>
<event>
 5   0  0.5467554E-03  0.1225555E+04  0.7818609E-02  0.9090777E-01
        2   -1    0    0  501    0  0.00000000000E+00  0.00000000000E+00  0.89556493936E+03  0.89556493936E+03  0.25500000920E-02 0. -1.
       -2   -1    0    0    0  501  0.00000000000E+00  0.00000000000E+00 -0.41928453777E+03  0.41928453777E+03  0.25500000920E-02 0.  1.
    10030    2    1    2    0    0  0.00000000000E+00  0.00000000000E+00  0.47628040159E+03  0.13148494771E+04  0.12255554360E+04 0.  0.
        1    1    3    3  502    0  0.60413781236E+03  0.53953481229E+02  0.33168878202E+03  0.69131101727E+03  0.50400001928E-02 0. -1.
       -1    1    3    3    0  502 -0.60413781236E+03 -0.53953481229E+02  0.14459161957E+03  0.62353845987E+03  0.50400001928E-02 0.  1.
</event>
<event>
 5   0  0.2938349E-03  0.1182410E+04  0.7818609E-02  0.9128394E-01
       -1   -1    0    0    0  501  0.00000000000E+00  0.00000000000E+00  0.41602985955E+03  0.41602985958E+03  0.50400001928E-02 0.  1.
        1   -1    0    0  501    0  0.00000000000E+00  0.00000000000E+00 -0.84014017311E+03  0.84014017313E+03  0.50400001928E-02 0. -1.
    10030    2    1    2    0    0  0.00000000000E+00  0.00000000000E+00 -0.42411031356E+03  0.12561700327E+04  0.11824100782E+04 0.  0.
        4    1    3    3  502    0 -0.37855320655E+03  0.29919799455E+03  0.15086859355E+03  0.50555406788E+03  0.12699999809E+01 0.  1.
       -4    1    3    3    0  502  0.37855320655E+03 -0.29919799455E+03 -0.57497890711E+03  0.75061596483E+03  0.12699999809E+01 0. -1.
</event>
<event>
 5   0  0.5003526E-03  0.9871475E+03  0.7818609E-02  0.9322755E-01
        2   -1    0    0  501    0  0.00000000000E+00  0.00000000000E+00  0.67410028763E+03  0.67410028763E+03  0.25500000920E-02 0.  1.
       -2   -1    0    0    0  501  0.00000000000E+00  0.00000000000E+00 -0.36139287703E+03  0.36139287704E+03  0.25500000920E-02 0. -1.
    10030    2    1    2    0    0  0.00000000000E+00  0.00000000000E+00  0.31270741060E+03  0.10354931647E+04  0.98714749123E+03 0.  0.
        2    1    3    3  502    0  0.73928799185E+02  0.48387022434E+03  0.22285559292E+03  0.53782941223E+03  0.25500000920E-02 0.  1.
       -2    1    3    3    0  502 -0.73928799185E+02 -0.48387022434E+03  0.89851817680E+02  0.49766375245E+03  0.25500000920E-02 0. -1.
</event>
<event>
 5   0  0.2926844E-03  0.1186187E+04  0.7818609E-02  0.9125034E-01
        1   -1    0    0  501    0  0.00000000000E+00  0.00000000000E+00  0.28456142501E+04  0.28456142501E+04  0.50400001928E-02 0.  1.
       -1   -1    0    0    0  501  0.00000000000E+00  0.00000000000E+00 -0.12361473573E+03  0.12361473583E+03  0.50400001928E-02 0. -1.
    10030    2    1    2    0    0  0.00000000000E+00  0.00000000000E+00  0.27219995144E+04  0.29692289860E+04  0.11861869223E+04 0.  0.
        5    1    3    3  502    0  0.27603485962E+03  0.12511061218E+02  0.47404766661E+02  0.28039449403E+03  0.46999998093E+01 0. -1.
       -5    1    3    3    0  502 -0.27603485962E+03 -0.12511061218E+02  0.26745947478E+04  0.26888344920E+04  0.46999998093E+01 0.  1.
</event>
<event>
 5   0  0.5108045E-03  0.1174965E+04  0.7818609E-02  0.9135057E-01
       -2   -1    0    0    0  501  0.00000000000E+00  0.00000000000E+00  0.82235399760E+03  0.82235399760E+03  0.25500000920E-02 0. -1.
        2   -1    0    0  501    0  0.00000000000E+00  0.00000000000E+00 -0.41969200118E+03  0.41969200119E+03  0.25500000920E-02 0.  1.
    10030    2    1    2    0    0  0.00000000000E+00  0.00000000000E+00  0.40266199641E+03  0.12420459988E+04  0.11749645015E+04 0.  0.
        3    1    3    3  502    0  0.20622769722E+03 -0.50332374970E+03 -0.33311897246E+02  0.54495353271E+03  0.10100000352E+00 0.  1.
       -3    1    3    3    0  502 -0.20622769722E+03  0.50332374970E+03  0.43597389366E+03  0.69709246608E+03  0.10100000352E+00 0. -1.
</event>
<event>
 5   0  0.2792518E-03  0.1192529E+04  0.7818609E-02  0.9119421E-01
       -1   -1    0    0    0  501  0.00000000000E+00  0.00000000000E+00  0.55588504856E+03  0.55588504858E+03  0.50400001928E-02 0.  1.
        1   -1    0    0  501    0  0.00000000000E+00  0.00000000000E+00 -0.63957719034E+03  0.63957719036E+03  0.50400001928E-02 0. -1.
    10030    2    1    2    0    0  0.00000000000E+00  0.00000000000E+00 -0.83692141782E+02  0.11954622389E+04  0.11925290731E+04 0.  0.
        2    1    3    3  502    0 -0.26839644376E+03 -0.46192849470E+03  0.22360101914E+03  0.57914765044E+03  0.25500000920E-02 0.  1.
       -2    1    3    3    0  502  0.26839644376E+03  0.46192849470E+03 -0.30729316093E+03  0.61631458850E+03  0.25500000920E-02 0. -1.
</event>
<event>
 5   0  0.5003526E-03  0.1177526E+04  0.7818609E-02  0.9132758E-01
       -2   -1    0    0    0  501  0.00000000000E+00  0.00000000000E+00  0.17650864979E+03  0.17650864980E+03  0.25500000920E-02 0. -1.
        2   -1    0    0  501    0  0.00000000000E+00  0.00000000000E+00 -0.19638808643E+04  0.19638808643E+04  0.25500000920E-02 0.  1.
    10030    2    1    2    0    0  0.00000000000E+00  0.00000000000E+00 -0.17873722146E+04  0.21403895141E+04  0.11775261521E+04 0.  0.
        2    1    3    3  502    0  0.31478393311E+03 -0.19611214366E+03 -0.62511886468E+02  0.37610720997E+03  0.25500000920E-02 0. -1.
       -2    1    3    3    0  502 -0.31478393311E+03  0.19611214366E+03 -0.17248603281E+04  0.17642823042E+04  0.25500000920E-02 0.  1.
</event>
<event>
 5   0  0.5108045E-03  0.1213646E+04  0.7818609E-02  0.9100995E-01
       -2   -1    0    0    0  501  0.00000000000E+00  0.00000000000E+00  0.31612307937E+03  0.31612307938E+03  0.25500000920E-02 0.  1.
        2   -1    0    0  501    0  0.00000000000E+00  0.00000000000E+00 -0.11648448739E+04  0.11648448739E+04  0.25500000920E-02 0. -1.
    10030    2    1    2    0    0  0.00000000000E+00  0.00000000000E+00 -0.84872179449E+03  0.14809679532E+04  0.12136463217E+04 0.  0.
        3    1    3    3  502    0  0.40414572255E+03 -0.45003141996E+03 -0.48379528601E+03  0.77454498448E+03  0.10100000352E+00 0.  1.
       -3    1    3    3    0  502 -0.40414572255E+03  0.45003141996E+03 -0.36492650847E+03  0.70642296876E+03  0.10100000352E+00 0. -1.
</event>
<event>
 5   0  0.2930868E-03  0.1237249E+04  0.7818609E-02  0.9080863E-01
        1   -1    0    0  501    0  0.00000000000E+00  0.00000000000E+00  0.97561474294E+03  0.97561474295E+03  0.50400001928E-02 0. -1.
       -1   -1    0    0    0  501  0.00000000000E+00  0.00000000000E+00 -0.39226147143E+03  0.39226147146E+03  0.50400001928E-02 0.  1.
    10030    2    1    2    0    0  0.00000000000E+00  0.00000000000E+00  0.58335327150E+03  0.13678762144E+04  0.12372486810E+04 0.  0.
        3    1    3    3  502    0  0.12600088005E+03  0.65509983087E+02  0.95734933583E+03  0.96782516018E+03  0.10100000352E+00 0. -1.
       -3    1    3    3    0  502 -0.12600088005E+03 -0.65509983087E+02 -0.37399606433E+03  0.40005105423E+03  0.10100000352E+00 0.  1.
</event>
<event>
 5   0  0.2938349E-03  0.1219753E+04  0.7818609E-02  0.9095741E-01
       -1   -1    0    0    0  501  0.00000000000E+00  0.00000000000E+00  0.24169373889E+03  0.24169373894E+03  0.50400001928E-02 0. -1.
        1   -1    0    0  501    0  0.00000000000E+00  0.00000000000E+00 -0.15389272344E+04  0.15389272344E+04  0.50400001928E-02 0.  1.
    10030    2    1    2    0    0  0.00000000000E+00  0.00000000000E+00 -0.12972334955E+04  0.17806209734E+04  0.12197525605E+04 0.  0.
        4    1    3    3  502    0 -0.25179390944E+03  0.31681462612E+03  0.17445549078E+02  0.40506498273E+03  0.12699999809E+01 0. -1.
       -4    1    3    3    0  502  0.25179390944E+03 -0.31681462612E+03 -0.13146790446E+04  0.13755559907E+04  0.12699999809E+01 0.  1.
</event>
<event>
 5   0  0.5003526E-03  0.1180009E+04  0.7818609E-02  0.9130537E-01
       -2   -1    0    0    0  501  0.00000000000E+00  0.00000000000E+00  0.36500805535E+03  0.36500805536E+03  0.25500000920E-02 0.  1.
        2   -1    0    0  501    0  0.00000000000E+00  0.00000000000E+00 -0.95369245264E+03  0.95369245264E+03  0.25500000920E-02 0. -1.
    10030    2    1    2    0    0  0.00000000000E+00  0.00000000000E+00 -0.58868439729E+03  0.13187005080E+04  0.11800091992E+04 0.  0.
        2    1    3    3  502    0  0.79050562637E+02 -0.28458996907E+03 -0.86512210456E+03  0.91415354168E+03  0.25500000920E-02 0. -1.
       -2    1    3    3    0  502 -0.79050562637E+02  0.28458996907E+03  0.27643770728E+03  0.40454696632E+03  0.25500000920E-02 0.  1.
</event>
<event>
 5   0  0.5189537E-03  0.1196923E+04  0.7818609E-02  0.9115554E-01
       -2   -1    0    0    0  501  0.00000000000E+00  0.00000000000E+00  0.25072107756E+03  0.25072107757E+03  0.25500000920E-02 0. -1.
        2   -1    0    0  501    0  0.00000000000E+00  0.00000000000E+00 -0.14285042708E+04  0.14285042708E+04  0.25500000920E-02 0.  1.
    10030    2    1    2    0    0  0.00000000000E+00  0.00000000000E+00 -0.11777831933E+04  0.16792253484E+04  0.11969229384E+04 0.  0.
        4    1    3    3  502    0 -0.57809580743E+01  0.37447851102E+03 -0.12437665699E+04  0.12989320490E+04  0.12699999809E+01 0.  1.
       -4    1    3    3    0  502  0.57809580743E+01 -0.37447851102E+03  0.65983376591E+02  0.38029329941E+03  0.12699999809E+01 0. -1.
</event>
<event>
 5   0  0.5108045E-03  0.1163587E+04  0.7818609E-02  0.9145340E-01
       -2   -1    0    0    0  501  0.00000000000E+00  0.00000000000E+00  0.32252533462E+03  0.32252533463E+03  0.25500000920E-02 0.  1.
        2   -1    0    0  501    0  0.00000000000E+00  0.00000000000E+00 -0.10494791125E+04  0.10494791125E+04  0.25500000920E-02 0. -1.
    10030    2    1    2    0    0  0.00000000000E+00  0.00000000000E+00 -0.72695377788E+03  0.13720044471E+04  0.11635868716E+04 0.  0.
        3    1    3    3  502    0  0.15135726152E+02  0.32429640167E+03 -0.93274272752E+03  0.98762657532E+03  0.10100000352E+00 0. -1.
       -3    1    3    3    0  502 -0.15135726152E+02 -0.32429640167E+03  0.20578894963E+03  0.38437787181E+03  0.10100000352E+00 0.  1.
</event>
<event>
 5   0  0.5031575E-03  0.1225382E+04  0.7818609E-02  0.9090926E-01
       -2   -1    0    0    0  501  0.00000000000E+00  0.00000000000E+00  0.14955867843E+04  0.14955867843E+04  0.25500000920E-02 0.  1.
        2   -1    0    0  501    0  0.00000000000E+00  0.00000000000E+00 -0.25099848300E+03  0.25099848302E+03  0.25500000920E-02 0. -1.
    10030    2    1    2    0    0  0.00000000000E+00  0.00000000000E+00  0.12445883013E+04  0.17465852673E+04  0.12253815962E+04 0.  0.
        5    1    3    3  502    0  0.59656457943E+02 -0.17522344105E+03 -0.21016508574E+03  0.28009569888E+03  0.46999998093E+01 0. -1.
       -5    1    3    3    0  502 -0.59656457943E+02  0.17522344105E+03  0.14547533871E+04  0.14664895685E+04  0.46999998093E+01 0.  1.
</event>
<event>
 5   0  0.2938349E-03  0.1454189E+04  0.7818609E-02  0.8915502E-01
       -1   -1    0    0    0  501  0.00000000000E+00  0.00000000000E+00  0.61159676619E+03  0.61159676621E+03  0.50400001928E-02 0.  1.
        1   -1    0    0  501    0  0.00000000000E+00  0.00000000000E+00 -0.86440309539E+03  0.86440309540E+03  0.50400001928E-02 0. -1.
    10030    2    1    2    0    0  0.00000000000E+00  0.00000000000E+00 -0.25280632920E+03  0.14759998616E+04  0.14541886230E+04 0.  0.
        4    1    3    3  502    0  0.50386820738E+03  0.26817536716E+03 -0.58356224037E+03  0.81630123070E+03  0.12699999809E+01 0. -1.
       -4    1    3    3    0  502 -0.50386820738E+03 -0.26817536716E+03  0.33075591116E+03  0.65969863091E+03  0.12699999809E+01 0.  1.
</event>
<event>
 5   0  0.2926844E-03  0.1212021E+04  0.7818609E-02  0.9102399E-01
       -1   -1    0    0    0  501  0.00000000000E+00  0.00000000000E+00  0.36677533726E+03  0.36677533730E+03  0.50400001928E-02 0.  1.
        1   -1    0    0  501    0  0.00000000000E+00  0.00000000000E+00 -0.10012911524E+04  0.10012911524E+04  0.50400001928E-02 0. -1.
    10030    2    1    2    0    0  0.00000000000E+00  0.00000000000E+00 -0.63451581513E+03  0.13680664897E+04  0.12120212872E+04 0.  0.
        5    1    3    3  502    0  0.11978806538E+03  0.17501189143E+03  0.32349765904E+03  0.38684773252E+03  0.46999998093E+01 0.  1.
       -5    1    3    3    0  502 -0.11978806538E+03 -0.17501189143E+03 -0.95801347417E+03  0.98121875718E+03  0.46999998093E+01 0. -1.
</event>
<event>
 5   0  0.2875848E-03  0.1207728E+04  0.7818609E-02  0.9106119E-01
        1   -1    0    0  501    0  0.00000000000E+00  0.00000000000E+00  0.15643286558E+04  0.15643286558E+04  0.50400001928E-02 0. -1.
       -1   -1    0    0    0  501  0.00000000000E+00  0.00000000000E+00 -0.23310412340E+03  0.23310412346E+03  0.50400001928E-02 0.  1.
    10030    2    1    2    0    0  0.00000000000E+00  0.00000000000E+00  0.13312245324E+04  0.17974327793E+04  0.12077275522E+04 0.  0.
        1    1    3    3  502    0  0.26674194121E+03  0.39570285030E+03  0.12163137647E+04  0.13065799566E+04  0.50400001928E-02 0. -1.
       -1    1    3    3    0  502 -0.26674194121E+03 -0.39570285030E+03  0.11491076775E+03  0.49085282265E+03  0.50400001928E-02 0.  1.
</event>
<event>
 5   0  0.5189537E-03  0.1213623E+04  0.7818609E-02  0.9101015E-01
        2   -1    0    0  501    0  0.00000000000E+00  0.00000000000E+00  0.73554481254E+03  0.73554481255E+03  0.25500000920E-02 0.  1.
       -2   -1    0    0    0  501  0.00000000000E+00  0.00000000000E+00 -0.50060870532E+03  0.50060870532E+03  0.25500000920E-02 0. -1.
    10030    2    1    2    0    0  0.00000000000E+00  0.00000000000E+00  0.23493610722E+03  0.12361535179E+04  0.12136229008E+04 0.  0.
        4    1    3    3  502    0  0.35058701652E+03  0.86462838682E+02 -0.37926525567E+03  0.52367053161E+03  0.12699999809E+01 0. -1.
       -4    1    3    3    0  502 -0.35058701652E+03 -0.86462838682E+02  0.61420136289E+03  0.71248298626E+03  0.12699999809E+01 0.  1.
</event>
<event>
 5   0  0.5189537E-03  0.1198737E+04  0.7818609E-02  0.9113963E-01
        2   -1    0    0  501    0  0.00000000000E+00  0.00000000000E+00  0.62025890275E+03  0.62025890276E+03  0.25500000920E-02 0. -1.
       -2   -1    0    0    0  501  0.00000000000E+00  0.00000000000E+00 -0.57918162431E+03  0.57918162432E+03  0.25500000920E-02 0.  1.
    10030    2    1    2    0    0  0.00000000000E+00  0.00000000000E+00  0.41077278438E+02  0.11994405271E+04  0.11987369333E+04 0.  0.
        4    1    3    3  502    0 -0.52399870605E+03 -0.69917584446E+01 -0.27052282872E+03  0.58975227205E+03  0.12699999809E+01 0.  1.
       -4    1    3    3    0  502  0.52399870605E+03  0.69917584446E+01  0.31160010716E+03  0.60968825502E+03  0.12699999809E+01 0. -1.
</event>
<event>
 5   0  0.1922125E-03  0.1193053E+04  0.7818609E-02  0.9118959E-01
       -3   -1    0    0    0  501  0.00000000000E+00  0.00000000000E+00  0.44269326780E+03  0.44269327933E+03  0.10100000352E+00 0.  1.
        3   -1    0    0  501    0  0.00000000000E+00  0.00000000000E+00 -0.80381526517E+03  0.80381527151E+03  0.10100000352E+00 0. -1.
    10030    2    1    2    0    0  0.00000000000E+00  0.00000000000E+00 -0.36112199737E+03  0.12465085508E+04  0.11930525849E+04 0.  0.
        4    1    3    3  502    0 -0.20404583944E+03  0.19350666348E+03  0.36909285341E+03  0.46401581950E+03  0.12699999809E+01 0.  1.
       -4    1    3    3    0  502  0.20404583944E+03 -0.19350666348E+03 -0.73021485078E+03  0.78249273134E+03  0.12699999809E+01 0. -1.
</event>
<event>
 5   0  0.5003526E-03  0.1198998E+04  0.7818609E-02  0.9113734E-01
        2   -1    0    0  501    0  0.00000000000E+00  0.00000000000E+00  0.37761044847E+03  0.37761044848E+03  0.25500000920E-02 0.  1.
       -2   -1    0    0    0  501  0.00000000000E+00  0.00000000000E+00 -0.95177188572E+03  0.95177188572E+03  0.25500000920E-02 0. -1.
    10030    2    1    2    0    0  0.00000000000E+00  0.00000000000E+00 -0.57416143725E+03  0.13293823342E+04  0.11989979293E+04 0.  0.
        2    1    3    3  502    0  0.26987562244E+03  0.53530157832E+03 -0.29183376340E+03  0.66674401145E+03  0.25500000920E-02 0.  1.
       -2    1    3    3    0  502 -0.26987562244E+03 -0.53530157832E+03 -0.28232767385E+03  0.66263832274E+03  0.25500000920E-02 0. -1.
</event>
<event>
 5   0  0.2792518E-03  0.8825895E+03  0.7818609E-02  0.9447611E-01
        1   -1    0    0  501    0  0.00000000000E+00  0.00000000000E+00  0.65325778338E+03  0.65325778340E+03  0.50400001928E-02 0.  1.
       -1   -1    0    0    0  501  0.00000000000E+00  0.00000000000E+00 -0.29810750853E+03  0.29810750857E+03  0.50400001928E-02 0. -1.
    10030    2    1    2    0    0  0.00000000000E+00  0.00000000000E+00  0.35515027485E+03  0.95136529197E+03  0.88258948613E+03 0.  0.
        2    1    3    3  502    0  0.10490757191E+03  0.39344451943E+03 -0.57889444856E+01  0.40723175269E+03  0.25500000920E-02 0. -1.
       -2    1    3    3    0  502 -0.10490757191E+03 -0.39344451943E+03  0.36093921934E+03  0.54413353928E+03  0.25500000920E-02 0.  1.
</event>
<event>
 5   0  0.2930868E-03  0.1201187E+04  0.7818609E-02  0.9111818E-01
        1   -1    0    0  501    0  0.00000000000E+00  0.00000000000E+00  0.18679683159E+04  0.18679683159E+04  0.50400001928E-02 0. -1.
       -1   -1    0    0    0  501  0.00000000000E+00  0.00000000000E+00 -0.19310419066E+03  0.19310419073E+03  0.50400001928E-02 0.  1.
    10030    2    1    2    0    0  0.00000000000E+00  0.00000000000E+00  0.16748641253E+04  0.20610725067E+04  0.12011869295E+04 0.  0.
        3    1    3    3  502    0 -0.29104696807E+03 -0.52023827858E+03  0.96301046100E+03  0.11325834902E+04  0.10100000352E+00 0.  1.
       -3    1    3    3    0  502  0.29104696807E+03  0.52023827858E+03  0.71185366426E+03  0.92848901643E+03  0.10100000352E+00 0. -1.
</event>
<event>
 5   0  0.5031575E-03  0.1236858E+04  0.7818609E-02  0.9081193E-01
       -2   -1    0    0    0  501  0.00000000000E+00  0.00000000000E+00  0.42027985499E+03  0.42027985500E+03  0.25500000920E-02 0. -1.
        2   -1    0    0  501    0  0.00000000000E+00  0.00000000000E+00 -0.90999874155E+03  0.90999874155E+03  0.25500000920E-02 0.  1.
    10030    2    1    2    0    0  0.00000000000E+00  0.00000000000E+00 -0.48971888656E+03  0.13302785965E+04  0.12368575329E+04 0.  0.
        5    1    3    3  502    0  0.17195186254E+03 -0.40388623842E+03 -0.71335228536E+03  0.83760677507E+03  0.46999998093E+01 0.  1.
       -5    1    3    3    0  502 -0.17195186254E+03  0.40388623842E+03  0.22363339880E+03  0.49267182148E+03  0.46999998093E+01 0. -1.
</event>
<event>
 5   0  0.5467554E-03  0.1094527E+04  0.7818609E-02  0.9210543E-01
        2   -1    0    0  501    0  0.00000000000E+00  0.00000000000E+00  0.15050001649E+04  0.15050001649E+04  0.25500000920E-02 0. -1.
       -2   -1    0    0    0  501  0.00000000000E+00  0.00000000000E+00 -0.19900156666E+03  0.19900156667E+03  0.25500000920E-02 0.  1.
    10030    2    1    2    0    0  0.00000000000E+00  0.00000000000E+00  0.13059985983E+04  0.17040017316E+04  0.10945270954E+04 0.  0.
        1    1    3    3  502    0  0.39428166665E+03 -0.27545624481E+03  0.24653861080E+03  0.54047706899E+03  0.50400001928E-02 0.  1.
       -1    1    3    3    0  502 -0.39428166665E+03  0.27545624481E+03  0.10594599875E+04  0.11635246626E+04  0.50400001928E-02 0. -1.
</event>
<event>
 5   0  0.2938349E-03  0.1182519E+04  0.7818609E-02  0.9128297E-01
        1   -1    0    0  501    0  0.00000000000E+00  0.00000000000E+00  0.14928101566E+04  0.14928101566E+04  0.50400001928E-02 0. -1.
       -1   -1    0    0    0  501  0.00000000000E+00  0.00000000000E+00 -0.23418090592E+03  0.23418090598E+03  0.50400001928E-02 0.  1.
    10030    2    1    2    0    0  0.00000000000E+00  0.00000000000E+00  0.12586292507E+04  0.17269910626E+04  0.11825187270E+04 0.  0.
        4    1    3    3  502    0 -0.53007175509E+03 -0.24956821085E+03  0.74546888560E+03  0.94814863271E+03  0.12699999809E+01 0.  1.
       -4    1    3    3    0  502  0.53007175509E+03  0.24956821085E+03  0.51316036512E+03  0.77884242991E+03  0.12699999809E+01 0. -1.
</event>
<event>
 5   0  0.2938349E-03  0.1184813E+04  0.7818609E-02  0.9126255E-01
        1   -1    0    0  501    0  0.00000000000E+00  0.00000000000E+00  0.68619698951E+03  0.68619698952E+03  0.50400001928E-02 0.  1.
       -1   -1    0    0    0  501  0.00000000000E+00  0.00000000000E+00 -0.51143534751E+03  0.51143534754E+03  0.50400001928E-02 0. -1.
    10030    2    1    2    0    0  0.00000000000E+00  0.00000000000E+00  0.17476164199E+03  0.11976323371E+04  0.11848128896E+04 0.  0.
        4    1    3    3  502    0 -0.70710914502E+02  0.48721213981E+03  0.42044261956E+03  0.64741741701E+03  0.12699999809E+01 0.  1.
       -4    1    3    3    0  502  0.70710914502E+02 -0.48721213981E+03 -0.24568097757E+03  0.55021492005E+03  0.12699999809E+01 0. -1.
</event>
<event>
 5   0  0.2926844E-03  0.1189407E+04  0.7818609E-02  0.9122179E-01
       -1   -1    0    0    0  501  0.00000000000E+00  0.00000000000E+00  0.38817134321E+03  0.38817134324E+03  0.50400001928E-02 0.  1.
        1   -1    0    0  501    0  0.00000000000E+00  0.00000000000E+00 -0.91112475279E+03  0.91112475280E+03  0.50400001928E-02 0. -1.
    10030    2    1    2    0    0  0.00000000000E+00  0.00000000000E+00 -0.52295340958E+03  0.12992960960E+04  0.11894074477E+04 0.  0.
        5    1    3    3  502    0  0.74305211399E+02  0.36342133507E+03  0.24628358596E+03  0.44527971651E+03  0.46999998093E+01 0.  1.
       -5    1    3    3    0  502 -0.74305211399E+02 -0.36342133507E+03 -0.76923699554E+03  0.85401637954E+03  0.46999998093E+01 0. -1.
</event>
<event>
 5   0  0.5189537E-03  0.1186855E+04  0.7818609E-02  0.9124441E-01
       -2   -1    0    0    0  501  0.00000000000E+00  0.00000000000E+00  0.36232988735E+03  0.36232988735E+03  0.25500000920E-02 0. -1.
        2   -1    0    0  501    0  0.00000000000E+00  0.00000000000E+00 -0.97192192266E+03  0.97192192266E+03  0.25500000920E-02 0.  1.
    10030    2    1    2    0    0  0.00000000000E+00  0.00000000000E+00 -0.60959203531E+03  0.13342518100E+04  0.11868552747E+04 0.  0.
        4    1    3    3  502    0  0.89245026430E+02  0.31988471258E+03  0.24807714824E+03  0.41452959902E+03  0.12699999809E+01 0. -1.
       -4    1    3    3    0  502 -0.89245026430E+02 -0.31988471258E+03 -0.85766918355E+03  0.91972221099E+03  0.12699999809E+01 0.  1.
</event>
<event>
 5   0  0.2926844E-03  0.1181338E+04  0.7818609E-02  0.9129350E-01
       -1   -1    0    0    0  501  0.00000000000E+00  0.00000000000E+00  0.10551236584E+04  0.10551236584E+04  0.50400001928E-02 0. -1.
        1   -1    0    0  501    0  0.00000000000E+00  0.00000000000E+00 -0.33066276916E+03  0.33066276920E+03  0.50400001928E-02 0.  1.
    10030    2    1    2    0    0  0.00000000000E+00  0.00000000000E+00  0.72446088919E+03  0.13857864276E+04  0.11813384117E+04 0.  0.
        5    1    3    3  502    0  0.30285244264E+03 -0.14178622548E+03 -0.20890281990E+03  0.39431638808E+03  0.46999998093E+01 0.  1.
       -5    1    3    3    0  502 -0.30285244264E+03  0.14178622548E+03  0.93336370909E+03  0.99147003948E+03  0.46999998093E+01 0. -1.
</event>
<event>
 5   0  0.5108045E-03  0.1187986E+04  0.7818609E-02  0.9123438E-01
        2   -1    0    0  501    0  0.00000000000E+00  0.00000000000E+00  0.58576919420E+03  0.58576919421E+03  0.25500000920E-02 0. -1.
       -2   -1    0    0    0  501  0.00000000000E+00  0.00000000000E+00 -0.60233261518E+03  0.60233261519E+03  0.25500000920E-02 0.  1.
    10030    2    1    2    0    0  0.00000000000E+00  0.00000000000E+00 -0.16563420979E+02  0.11881018094E+04  0.11879863478E+04 0.  0.
        3    1    3    3  502    0  0.13890730803E+03  0.14500761463E+03 -0.56735789520E+03  0.60184502986E+03  0.10100000352E+00 0.  1.
       -3    1    3    3    0  502 -0.13890730803E+03 -0.14500761463E+03  0.55079447422E+03  0.58625677954E+03  0.10100000352E+00 0. -1.
</event>
<event>
 5   0  0.5108045E-03  0.1215146E+04  0.7818609E-02  0.9099702E-01
       -2   -1    0    0    0  501  0.00000000000E+00  0.00000000000E+00  0.60804726111E+03  0.60804726111E+03  0.25500000920E-02 0.  1.
        2   -1    0    0  501    0  0.00000000000E+00  0.00000000000E+00 -0.60709912654E+03  0.60709912654E+03  0.25500000920E-02 0. -1.
    10030    2    1    2    0    0  0.00000000000E+00  0.00000000000E+00  0.94813457067E+00  0.12151463877E+04  0.12151460178E+04 0.  0.
        3    1    3    3  502    0  0.22754279567E+03 -0.42307937461E+03 -0.37151135458E+03  0.60728294712E+03  0.10100000352E+00 0. -1.
       -3    1    3    3    0  502 -0.22754279567E+03  0.42307937461E+03  0.37245948915E+03  0.60786344054E+03  0.10100000352E+00 0.  1.
</event>
<event>
 5   0  0.1922125E-03  0.1243206E+04  0.7818609E-02  0.9075857E-01
        3   -1    0    0  501    0  0.00000000000E+00  0.00000000000E+00  0.95217678556E+03  0.95217679091E+03  0.10100000352E+00 0.  1.
       -3   -1    0    0    0  501  0.00000000000E+00  0.00000000000E+00 -0.40579703115E+03  0.40579704371E+03  0.10100000352E+00 0. -1.
    10030    2    1    2    0    0  0.00000000000E+00  0.00000000000E+00  0.54637975441E+03  0.13579738346E+04  0.12432063785E+04 0.  0.
        1    1    3    3  502    0  0.13919350182E+03 -0.40163247251E+03  0.76860899476E+03  0.87831842789E+03  0.50400001928E-02 0.  1.
       -1    1    3    3    0  502 -0.13919350182E+03  0.40163247251E+03 -0.22222924035E+03  0.47965540674E+03  0.50400001928E-02 0. -1.
</event>
<event>
 5   0  0.2926844E-03  0.1181584E+04  0.7818609E-02  0.9129131E-01
       -1   -1    0    0    0  501  0.00000000000E+00  0.00000000000E+00  0.50372464013E+03  0.50372464015E+03  0.50400001928E-02 0.  1.
        1   -1    0    0  501    0  0.00000000000E+00  0.00000000000E+00 -0.69290827039E+03  0.69290827041E+03  0.50400001928E-02 0. -1.
    10030    2    1    2    0    0  0.00000000000E+00  0.00000000000E+00 -0.18918363026E+03  0.11966329106E+04  0.11815836308E+04 0.  0.
        5    1    3    3  502    0 -0.20712736699E+02  0.50450378097E+03  0.21600607048E+03  0.54921197635E+03  0.46999998093E+01 0.  1.
       -5    1    3    3    0  502  0.20712736699E+02 -0.50450378097E+03 -0.40518970075E+03  0.64742093422E+03  0.46999998093E+01 0. -1.
</event>
<event>
 5   0  0.5108045E-03  0.1204275E+04  0.7818609E-02  0.9109123E-01
        2   -1    0    0  501    0  0.00000000000E+00  0.00000000000E+00  0.24522351750E+04  0.24522351750E+04  0.25500000920E-02 0.  1.
       -2   -1    0    0    0  501  0.00000000000E+00  0.00000000000E+00 -0.14785260446E+03  0.14785260449E+03  0.25500000920E-02 0. -1.
    10030    2    1    2    0    0  0.00000000000E+00  0.00000000000E+00  0.23043825706E+04  0.26000877795E+04  0.12042746488E+04 0.  0.
        3    1    3    3  502    0 -0.12120660194E+02  0.37505928324E+03  0.13548106455E+03  0.39896303763E+03  0.10100000352E+00 0. -1.
       -3    1    3    3    0  502  0.12120660194E+02 -0.37505928324E+03  0.21689015060E+04  0.22011247419E+04  0.10100000352E+00 0.  1.
</event>
<event>
 5   0  0.1922125E-03  0.1162181E+04  0.7818609E-02  0.9146619E-01
       -3   -1    0    0    0  501  0.00000000000E+00  0.00000000000E+00  0.21704335853E+03  0.21704338203E+03  0.10100000352E+00 0. -1.
        3   -1    0    0  501    0  0.00000000000E+00  0.00000000000E+00 -0.15557543970E+04  0.15557544002E+04  0.10100000352E+00 0.  1.
    10030    2    1    2    0    0  0.00000000000E+00  0.00000000000E+00 -0.13387110384E+04  0.17727977823E+04  0.11621810239E+04 0.  0.
        5    1    3    3  502    0  0.37542098646E+03 -0.33419873409E+03 -0.11141215611E+04  0.12222596507E+04  0.46999998093E+01 0.  1.
       -5    1    3    3    0  502 -0.37542098646E+03  0.33419873409E+03 -0.22458947737E+03  0.55053813155E+03  0.46999998093E+01 0. -1.
</event>
<event>
 5   0  0.5003526E-03  0.1165203E+04  0.7818609E-02  0.9143871E-01
        2   -1    0    0  501    0  0.00000000000E+00  0.00000000000E+00  0.46329132457E+03  0.46329132457E+03  0.25500000920E-02 0. -1.
       -2   -1    0    0    0  501  0.00000000000E+00  0.00000000000E+00 -0.73263750583E+03  0.73263750584E+03  0.25500000920E-02 0.  1.
    10030    2    1    2    0    0  0.00000000000E+00  0.00000000000E+00 -0.26934618127E+03  0.11959288304E+04  0.11652031591E+04 0.  0.
        2    1    3    3  502    0  0.39208461620E+03 -0.41353549639E+03 -0.25904029381E+03  0.62597430208E+03  0.25500000920E-02 0.  1.
       -2    1    3    3    0  502 -0.39208461620E+03  0.41353549639E+03 -0.10305887460E+02  0.56995452833E+03  0.25500000920E-02 0. -1.
</event>
<event>
 5   0  0.5467554E-03  0.1227019E+04  0.7818609E-02  0.9089530E-01
        2   -1    0    0  501    0  0.00000000000E+00  0.00000000000E+00  0.37546903808E+03  0.37546903809E+03  0.25500000920E-02 0.  1.
       -2   -1    0    0    0  501  0.00000000000E+00  0.00000000000E+00 -0.10024633368E+04  0.10024633368E+04  0.25500000920E-02 0. -1.
    10030    2    1    2    0    0  0.00000000000E+00  0.00000000000E+00 -0.62699429872E+03  0.13779323749E+04  0.12270190622E+04 0.  0.
        1    1    3    3  502    0 -0.12189548328E+03 -0.59995313884E+03 -0.35829969754E+03  0.70935248708E+03  0.50400001928E-02 0.  1.
       -1    1    3    3    0  502  0.12189548328E+03  0.59995313884E+03 -0.26869460117E+03  0.66857988780E+03  0.50400001928E-02 0. -1.
</event>
<event>
 5   0  0.2875848E-03  0.1100576E+04  0.7818609E-02  0.9204631E-01
       -1   -1    0    0    0  501  0.00000000000E+00  0.00000000000E+00  0.66977013200E+03  0.66977013202E+03  0.50400001928E-02 0. -1.
        1   -1    0    0  501    0  0.00000000000E+00  0.00000000000E+00 -0.45212057636E+03  0.45212057638E+03  0.50400001928E-02 0.  1.
    10030    2    1    2    0    0  0.00000000000E+00  0.00000000000E+00  0.21764955565E+03  0.11218907084E+04  0.11005759549E+04 0.  0.
        1    1    3    3  502    0  0.37962045467E+02  0.33369061814E+03 -0.33553772217E+03  0.47473793672E+03  0.50400001928E-02 0.  1.
       -1    1    3    3    0  502 -0.37962045467E+02 -0.33369061814E+03  0.55318727782E+03  0.64715277169E+03  0.50400001928E-02 0. -1.
</event>
<event>
 5   0  0.5189537E-03  0.1174588E+04  0.7818609E-02  0.9135395E-01
       -2   -1    0    0    0  501  0.00000000000E+00  0.00000000000E+00  0.34040854404E+03  0.34040854405E+03  0.25500000920E-02 0. -1.
        2   -1    0    0  501    0  0.00000000000E+00  0.00000000000E+00 -0.10132365367E+04  0.10132365367E+04  0.25500000920E-02 0.  1.
    10030    2    1    2    0    0  0.00000000000E+00  0.00000000000E+00 -0.67282799268E+03  0.13536450808E+04  0.11745882244E+04 0.  0.
        4    1    3    3  502    0  0.24744286287E+03  0.53401491113E+02  0.27430761978E+03  0.37326394523E+03  0.12699999809E+01 0. -1.
       -4    1    3    3    0  502 -0.24744286287E+03 -0.53401491113E+02 -0.94713561246E+03  0.98038113554E+03  0.12699999809E+01 0.  1.
</event>
<event>
 5   0  0.5189537E-03  0.1251974E+04  0.7818609E-02  0.9068542E-01
        2   -1    0    0  501    0  0.00000000000E+00  0.00000000000E+00  0.13723808237E+04  0.13723808237E+04  0.25500000920E-02 0. -1.
       -2   -1    0    0    0  501  0.00000000000E+00  0.00000000000E+00 -0.28553292493E+03  0.28553292494E+03  0.25500000920E-02 0.  1.
    10030    2    1    2    0    0  0.00000000000E+00  0.00000000000E+00  0.10868478987E+04  0.16579137486E+04  0.12519742980E+04 0.  0.
        4    1    3    3  502    0  0.12151847446E+03  0.39600152772E+03  0.11649344666E+04  0.12363890464E+04  0.12699999809E+01 0. -1.
       -4    1    3    3    0  502 -0.12151847446E+03 -0.39600152772E+03 -0.78086567898E+02  0.42152470221E+03  0.12699999809E+01 0.  1.
</event>
<event>
 5   0  0.5031575E-03  0.1202267E+04  0.7818609E-02  0.9110874E-01
       -2   -1    0    0    0  501  0.00000000000E+00  0.00000000000E+00  0.25283593201E+03  0.25283593202E+03  0.25500000920E-02 0.  1.
        2   -1    0    0  501    0  0.00000000000E+00  0.00000000000E+00 -0.14292335101E+04  0.14292335101E+04  0.25500000920E-02 0. -1.
    10030    2    1    2    0    0  0.00000000000E+00  0.00000000000E+00 -0.11763975781E+04  0.16820694421E+04  0.12022671693E+04 0.  0.
        5    1    3    3  502    0  0.24273728774E+03 -0.43039271835E+03 -0.10671266212E+04  0.11759849483E+04  0.46999998093E+01 0.  1.
       -5    1    3    3    0  502 -0.24273728774E+03  0.43039271835E+03 -0.10927095684E+03  0.50608449381E+03  0.46999998093E+01 0. -1.
</event>
<event>
 5   0  0.2938349E-03  0.1199615E+04  0.7818609E-02  0.9113193E-01
        1   -1    0    0  501    0  0.00000000000E+00  0.00000000000E+00  0.58588094788E+03  0.58588094790E+03  0.50400001928E-02 0. -1.
       -1   -1    0    0    0  501  0.00000000000E+00  0.00000000000E+00 -0.61406532110E+03  0.61406532112E+03  0.50400001928E-02 0.  1.
    10030    2    1    2    0    0  0.00000000000E+00  0.00000000000E+00 -0.28184373226E+02  0.11999462690E+04  0.11996152257E+04 0.  0.
        4    1    3    3  502    0 -0.18461185827E+03  0.51916678394E+03 -0.25112144038E+03  0.60554048459E+03  0.12699999809E+01 0.  1.
       -4    1    3    3    0  502  0.18461185827E+03 -0.51916678394E+03  0.22293706715E+03  0.59440578443E+03  0.12699999809E+01 0. -1.
</event>
<event>
 5   0  0.2792518E-03  0.1213650E+04  0.7818609E-02  0.9100992E-01
       -1   -1    0    0    0  501  0.00000000000E+00  0.00000000000E+00  0.30420684909E+03  0.30420684913E+03  0.50400001928E-02 0.  1.
        1   -1    0    0  501    0  0.00000000000E+00  0.00000000000E+00 -0.12104809706E+04  0.12104809706E+04  0.50400001928E-02 0. -1.
    10030    2    1    2    0    0  0.00000000000E+00  0.00000000000E+00 -0.90627412148E+03  0.15146878197E+04  0.12136500352E+04 0.  0.
        2    1    3    3  502    0  0.22993119023E+03  0.45578178715E+02  0.24542265307E+03  0.33937884622E+03  0.25500000920E-02 0.  1.
       -2    1    3    3    0  502 -0.22993119023E+03 -0.45578178715E+02 -0.11516967745E+04  0.11753089735E+04  0.25500000920E-02 0. -1.
</event>
<event>
 5   0  0.5108045E-03  0.1198596E+04  0.7818609E-02  0.9114086E-01
        2   -1    0    0  501    0  0.00000000000E+00  0.00000000000E+00  0.12419613530E+04  0.12419613530E+04  0.25500000920E-02 0. -1.
       -2   -1    0    0    0  501  0.00000000000E+00  0.00000000000E+00 -0.28918613686E+03  0.28918613687E+03  0.25500000920E-02 0.  1.
    10030    2    1    2    0    0  0.00000000000E+00  0.00000000000E+00  0.95277521614E+03  0.15311474899E+04  0.11985958549E+04 0.  0.
        3    1    3    3  502    0  0.52200852806E+03  0.14128082364E+03  0.14645680265E+03  0.56027027384E+03  0.10100000352E+00 0.  1.
       -3    1    3    3    0  502 -0.52200852806E+03 -0.14128082364E+03  0.80631841349E+03  0.97087721604E+03  0.10100000352E+00 0. -1.
</event>
<event>
 5   0  0.5467554E-03  0.1241632E+04  0.7818609E-02  0.9077177E-01
       -2   -1    0    0    0  501  0.00000000000E+00  0.00000000000E+00  0.17147014044E+04  0.17147014044E+04  0.25500000920E-02 0. -1.
        2   -1    0    0  501    0  0.00000000000E+00  0.00000000000E+00 -0.22476943198E+03  0.22476943199E+03  0.25500000920E-02 0.  1.
    10030    2    1    2    0    0  0.00000000000E+00  0.00000000000E+00  0.14899319724E+04  0.19394708364E+04  0.12416319273E+04 0.  0.
        1    1    3    3  502    0 -0.22289085851E+02 -0.45219142977E+03  0.81444381808E+02  0.46000769544E+03  0.50400001928E-02 0.  1.
       -1    1    3    3    0  502  0.22289085851E+02  0.45219142977E+03  0.14084875906E+04  0.14794631410E+04  0.50400001928E-02 0. -1.
</event>
<event>
 5   0  0.5189537E-03  0.1212724E+04  0.7818609E-02  0.9101792E-01
       -2   -1    0    0    0  501  0.00000000000E+00  0.00000000000E+00  0.64675600870E+03  0.64675600870E+03  0.25500000920E-02 0. -1.
        2   -1    0    0  501    0  0.00000000000E+00  0.00000000000E+00 -0.56849075274E+03  0.56849075275E+03  0.25500000920E-02 0.  1.
    10030    2    1    2    0    0  0.00000000000E+00  0.00000000000E+00  0.78265255952E+02  0.12152467615E+04  0.12127238931E+04 0.  0.
        4    1    3    3  502    0 -0.32673111700E+03 -0.15355972131E+02  0.55076718121E+03  0.64057406246E+03  0.12699999809E+01 0. -1.
       -4    1    3    3    0  502  0.32673111700E+03  0.15355972131E+02 -0.47250192525E+03  0.57467269899E+03  0.12699999809E+01 0.  1.
</event>
<event>
 5   0  0.2930868E-03  0.1193502E+04  0.7818609E-02  0.9118563E-01
        1   -1    0    0  501    0  0.00000000000E+00  0.00000000000E+00  0.17971655280E+04  0.17971655280E+04  0.50400001928E-02 0.  1.
       -1   -1    0    0    0  501  0.00000000000E+00  0.00000000000E+00 -0.19815186618E+03  0.19815186624E+03  0.50400001928E-02 0. -1.
    10030    2    1    2    0    0  0.00000000000E+00  0.00000000000E+00  0.15990136618E+04  0.19953173943E+04  0.11935019116E+04 0.  0.
        3    1    3    3  502    0 -0.64214076291E+02 -0.66347713262E+01 -0.19229702279E+03  0.20284383885E+03  0.10100000352E+00 0. -1.
       -3    1    3    3    0  502  0.64214076291E+02  0.66347713262E+01  0.17913106846E+04  0.17924735554E+04  0.10100000352E+00 0.  1.
</event>
<event>
 5   0  0.2875848E-03  0.1112547E+04  0.7818609E-02  0.9193048E-01
        1   -1    0    0  501    0  0.00000000000E+00  0.00000000000E+00  0.22208273879E+03  0.22208273885E+03  0.50400001928E-02 0.  1.
       -1   -1    0    0    0  501  0.00000000000E+00  0.00000000000E+00 -0.13933556997E+04  0.13933556997E+04  0.50400001928E-02 0. -1.
    10030    2    1    2    0    0  0.00000000000E+00  0.00000000000E+00 -0.11712729609E+04  0.16154384386E+04  0.11125470776E+04 0.  0.
        1    1    3    3  502    0  0.37010843216E+01  0.23303461227E+03 -0.13190442022E+04  0.13394761797E+04  0.50400001928E-02 0. -1.
       -1    1    3    3    0  502 -0.37010843216E+01 -0.23303461227E+03  0.14777124130E+03  0.27596225887E+03  0.50400001928E-02 0.  1.
</event>
<event>
 5   0  0.2792518E-03  0.1218763E+04  0.7818609E-02  0.9096590E-01
        1   -1    0    0  501    0  0.00000000000E+00  0.00000000000E+00  0.23010217709E+04  0.23010217709E+04  0.50400001928E-02 0. -1.
       -1   -1    0    0    0  501  0.00000000000E+00  0.00000000000E+00 -0.16138297755E+03  0.16138297763E+03  0.50400001928E-02 0.  1.
    10030    2    1    2    0    0  0.00000000000E+00  0.00000000000E+00  0.21396387934E+04  0.24624047486E+04  0.12187628890E+04 0.  0.
        2    1    3    3  502    0  0.37381881850E+03 -0.35901634644E+03  0.42230136647E+03  0.66855941412E+03  0.25500000920E-02 0.  1.
       -2    1    3    3    0  502 -0.37381881850E+03  0.35901634644E+03  0.17173374269E+04  0.17938453344E+04  0.25500000920E-02 0. -1.
</event>
<event>
 5   0  0.5467554E-03  0.1197776E+04  0.7818609E-02  0.9114806E-01
        2   -1    0    0  501    0  0.00000000000E+00  0.00000000000E+00  0.66472538166E+03  0.66472538167E+03  0.25500000920E-02 0. -1.
       -2   -1    0    0    0  501  0.00000000000E+00  0.00000000000E+00 -0.53957116988E+03  0.53957116989E+03  0.25500000920E-02 0.  1.
    10030    2    1    2    0    0  0.00000000000E+00  0.00000000000E+00  0.12515421178E+03  0.12042965516E+04  0.11977756916E+04 0.  0.
        1    1    3    3  502    0 -0.25451444168E+03 -0.48621365917E+03 -0.17848916862E+03  0.57709592507E+03  0.50400001928E-02 0.  1.
       -1    1    3    3    0  502  0.25451444168E+03  0.48621365917E+03  0.30364338040E+03  0.62720062649E+03  0.50400001928E-02 0. -1.
</event>
<event>
 5   0  0.5189537E-03  0.1174823E+04  0.7818609E-02  0.9135184E-01
       -2   -1    0    0    0  501  0.00000000000E+00  0.00000000000E+00  0.61968757619E+03  0.61968757620E+03  0.25500000920E-02 0. -1.
        2   -1    0    0  501    0  0.00000000000E+00  0.00000000000E+00 -0.55681687821E+03  0.55681687821E+03  0.25500000920E-02 0.  1.
    10030    2    1    2    0    0  0.00000000000E+00  0.00000000000E+00  0.62870697987E+02  0.11765044544E+04  0.11748233938E+04 0.  0.
        4    1    3    3  502    0  0.29958216652E+03 -0.18662182044E+03 -0.43878280852E+03  0.56312444834E+03  0.12699999809E+01 0.  1.
       -4    1    3    3    0  502 -0.29958216652E+03  0.18662182044E+03  0.50165350650E+03  0.61338000607E+03  0.12699999809E+01 0. -1.
</event>
<event>
 5   0  0.2926844E-03  0.1218080E+04  0.7818609E-02  0.9097176E-01
       -1   -1    0    0    0  501  0.00000000000E+00  0.00000000000E+00  0.40291582427E+03  0.40291582430E+03  0.50400001928E-02 0.  1.
        1   -1    0    0  501    0  0.00000000000E+00  0.00000000000E+00 -0.92061402307E+03  0.92061402309E+03  0.50400001928E-02 0. -1.
    10030    2    1    2    0    0  0.00000000000E+00  0.00000000000E+00 -0.51769819880E+03  0.13235298474E+04  0.12180803881E+04 0.  0.
        5    1    3    3  502    0  0.25500886236E+03  0.87861911633E+02  0.33446064729E+03  0.42969204087E+03  0.46999998093E+01 0.  1.
       -5    1    3    3    0  502 -0.25500886236E+03 -0.87861911633E+02 -0.85215884609E+03  0.89383780653E+03  0.46999998093E+01 0. -1.
</event>
<event>
 5   0  0.5467554E-03  0.1226574E+04  0.7818609E-02  0.9089909E-01
       -2   -1    0    0    0  501  0.00000000000E+00  0.00000000000E+00  0.23395381781E+03  0.23395381783E+03  0.25500000920E-02 0.  1.
        2   -1    0    0  501    0  0.00000000000E+00  0.00000000000E+00 -0.16076713692E+04  0.16076713692E+04  0.25500000920E-02 0. -1.
    10030    2    1    2    0    0  0.00000000000E+00  0.00000000000E+00 -0.13737175514E+04  0.18416251870E+04  0.12265738537E+04 0.  0.
        1    1    3    3  502    0  0.26070213462E+03 -0.33341118179E+03 -0.20463211637E+02  0.42373029417E+03  0.50400001928E-02 0.  1.
       -1    1    3    3    0  502 -0.26070213462E+03  0.33341118179E+03 -0.13532543397E+04  0.14178948929E+04  0.50400001928E-02 0. -1.
</event>
<event>
 5   0  0.2930868E-03  0.1210675E+04  0.7818609E-02  0.9103564E-01
       -1   -1    0    0    0  501  0.00000000000E+00  0.00000000000E+00  0.67403576672E+03  0.67403576674E+03  0.50400001928E-02 0.  1.
        1   -1    0    0  501    0  0.00000000000E+00  0.00000000000E+00 -0.54364086705E+03  0.54364086708E+03  0.50400001928E-02 0. -1.
    10030    2    1    2    0    0  0.00000000000E+00  0.00000000000E+00  0.13039489966E+03  0.12176766338E+04  0.12106748344E+04 0.  0.
        3    1    3    3  502    0  0.74799286087E+02  0.58142717082E+02  0.66653301272E+03  0.67323233434E+03  0.10100000352E+00 0.  1.
       -3    1    3    3    0  502 -0.74799286087E+02 -0.58142717082E+02 -0.53613811306E+03  0.54444429947E+03  0.10100000352E+00 0. -1.
</event>
<event>
 5   0  0.1922125E-03  0.1175061E+04  0.7818609E-02  0.9134970E-01
       -3   -1    0    0    0  501  0.00000000000E+00  0.00000000000E+00  0.13346255580E+03  0.13346259402E+03  0.10100000352E+00 0. -1.
        3   -1    0    0  501    0  0.00000000000E+00  0.00000000000E+00 -0.25864347627E+04  0.25864347647E+04  0.10100000352E+00 0.  1.
    10030    2    1    2    0    0  0.00000000000E+00  0.00000000000E+00 -0.24529722069E+04  0.27198973587E+04  0.11750612724E+04 0.  0.
        2    1    3    3  502    0 -0.45464978308E+03 -0.36089405973E+03 -0.14366169874E+04  0.15494577491E+04  0.25500000920E-02 0. -1.
       -2    1    3    3    0  502  0.45464978308E+03  0.36089405973E+03 -0.10163552195E+04  0.11704396096E+04  0.25500000920E-02 0.  1.
</event>
<event>
 5   0  0.2926844E-03  0.1194868E+04  0.7818609E-02  0.9117360E-01
        1   -1    0    0  501    0  0.00000000000E+00  0.00000000000E+00  0.12936641250E+04  0.12936641250E+04  0.50400001928E-02 0. -1.
       -1   -1    0    0    0  501  0.00000000000E+00  0.00000000000E+00 -0.27590426881E+03  0.27590426886E+03  0.50400001928E-02 0.  1.
    10030    2    1    2    0    0  0.00000000000E+00  0.00000000000E+00  0.10177598562E+04  0.15695683939E+04  0.11948681175E+04 0.  0.
        5    1    3    3  502    0  0.20840566252E+02 -0.57601283261E+03  0.71524446475E+03  0.91859776121E+03  0.46999998093E+01 0. -1.
       -5    1    3    3    0  502 -0.20840566252E+02  0.57601283261E+03  0.30251539144E+03  0.65097063266E+03  0.46999998093E+01 0.  1.
</event>
<event>
 5   0  0.1922125E-03  0.1182546E+04  0.7818609E-02  0.9128273E-01
        4   -1    0    0  501    0  0.00000000000E+00  0.00000000000E+00  0.11008668203E+04  0.11008675528E+04  0.12699999809E+01 0. -1.
       -4   -1    0    0    0  501  0.00000000000E+00  0.00000000000E+00 -0.31756907080E+03  0.31757161024E+03  0.12699999809E+01 0.  1.
    10030    2    1    2    0    0  0.00000000000E+00  0.00000000000E+00  0.78329774947E+03  0.14184391631E+04  0.11825456841E+04 0.  0.
        3    1    3    3  502    0  0.21351029165E+03 -0.32102844663E+03 -0.14605734955E+03  0.41228469259E+03  0.10100000352E+00 0.  1.
       -3    1    3    3    0  502 -0.21351029165E+03  0.32102844663E+03  0.92935509902E+03  0.10061544705E+04  0.10100000352E+00 0. -1.
</event>
<event>
 5   0  0.5031575E-03  0.1194816E+04  0.7818609E-02  0.9117406E-01
       -2   -1    0    0    0  501  0.00000000000E+00  0.00000000000E+00  0.32990993519E+03  0.32990993520E+03  0.25500000920E-02 0.  1.
        2   -1    0    0  501    0  0.00000000000E+00  0.00000000000E+00 -0.10817998141E+04  0.10817998141E+04  0.25500000920E-02 0. -1.
    10030    2    1    2    0    0  0.00000000000E+00  0.00000000000E+00 -0.75188987888E+03  0.14117097493E+04  0.11948163148E+04 0.  0.
        5    1    3    3  502    0  0.16193915919E+03 -0.38372236736E+03  0.13005742143E+03  0.43635326212E+03  0.46999998093E+01 0.  1.
       -5    1    3    3    0  502 -0.16193915919E+03  0.38372236736E+03 -0.88194730032E+03  0.97535648715E+03  0.46999998093E+01 0. -1.
</event>
<event>
 5   0  0.5189537E-03  0.1182868E+04  0.7818609E-02  0.9127986E-01
       -2   -1    0    0    0  501  0.00000000000E+00  0.00000000000E+00  0.39072575094E+03  0.39072575095E+03  0.25500000920E-02 0.  1.
        2   -1    0    0  501    0  0.00000000000E+00  0.00000000000E+00 -0.89524149878E+03  0.89524149878E+03  0.25500000920E-02 0. -1.
    10030    2    1    2    0    0  0.00000000000E+00  0.00000000000E+00 -0.50451574784E+03  0.12859672497E+04  0.11828675444E+04 0.  0.
        4    1    3    3  502    0  0.17084904875E+03 -0.38603995848E+03 -0.70257879244E+03  0.81965530529E+03  0.12699999809E+01 0. -1.
       -4    1    3    3    0  502 -0.17084904875E+03  0.38603995848E+03  0.19806304460E+03  0.46631194445E+03  0.12699999809E+01 0.  1.
</event>
<event>
 5   0  0.2875848E-03  0.1194693E+04  0.7818609E-02  0.9117515E-01
        1   -1    0    0  501    0  0.00000000000E+00  0.00000000000E+00  0.73861406074E+03  0.73861406076E+03  0.50400001928E-02 0. -1.
       -1   -1    0    0    0  501  0.00000000000E+00  0.00000000000E+00 -0.48309753406E+03  0.48309753408E+03  0.50400001928E-02 0.  1.
    10030    2    1    2    0    0  0.00000000000E+00  0.00000000000E+00  0.25551652668E+03  0.12217115948E+04  0.11946926490E+04 0.  0.
        1    1    3    3  502    0  0.26165318628E+03 -0.61422676195E+02  0.67329049068E+03  0.72495187420E+03  0.50400001928E-02 0. -1.
       -1    1    3    3    0  502 -0.26165318628E+03  0.61422676195E+02 -0.41777396399E+03  0.49675972065E+03  0.50400001928E-02 0.  1.
</event>
<event>
 5   0  0.5031575E-03  0.1207702E+04  0.7818609E-02  0.9106142E-01
        2   -1    0    0  501    0  0.00000000000E+00  0.00000000000E+00  0.13263456453E+04  0.13263456453E+04  0.25500000920E-02 0.  1.
       -2   -1    0    0    0  501  0.00000000000E+00  0.00000000000E+00 -0.27491775015E+03  0.27491775016E+03  0.25500000920E-02 0. -1.
    10030    2    1    2    0    0  0.00000000000E+00  0.00000000000E+00  0.10514278951E+04  0.16012633955E+04  0.12077018850E+04 0.  0.
        5    1    3    3  502    0 -0.62267342797E+02 -0.34756015388E+03 -0.12374705902E+03  0.37418004644E+03  0.46999998093E+01 0. -1.
       -5    1    3    3    0  502  0.62267342797E+02  0.34756015388E+03  0.11751749542E+04  0.12270833490E+04  0.46999998093E+01 0.  1.
</event>
<event>
 5   0  0.2926844E-03  0.1209821E+04  0.7818609E-02  0.9104303E-01
       -1   -1    0    0    0  501  0.00000000000E+00  0.00000000000E+00  0.30224994338E+03  0.30224994342E+03  0.50400001928E-02 0.  1.
        1   -1    0    0  501    0  0.00000000000E+00  0.00000000000E+00 -0.12106434304E+04  0.12106434304E+04  0.50400001928E-02 0. -1.
    10030    2    1    2    0    0  0.00000000000E+00  0.00000000000E+00 -0.90839348705E+03  0.15128933739E+04  0.12098213229E+04 0.  0.
        5    1    3    3  502    0  0.55876111096E+03 -0.22724421137E+03 -0.51069027963E+03  0.79036735916E+03  0.46999998093E+01 0. -1.
       -5    1    3    3    0  502 -0.55876111096E+03  0.22724421137E+03 -0.39770320742E+03  0.72252601470E+03  0.46999998093E+01 0.  1.
</event>
<event>
 5   0  0.5108045E-03  0.1188807E+04  0.7818609E-02  0.9122710E-01
        2   -1    0    0  501    0  0.00000000000E+00  0.00000000000E+00  0.21263518894E+04  0.21263518894E+04  0.25500000920E-02 0. -1.
       -2   -1    0    0    0  501  0.00000000000E+00  0.00000000000E+00 -0.16616043901E+03  0.16616043903E+03  0.25500000920E-02 0.  1.
    10030    2    1    2    0    0  0.00000000000E+00  0.00000000000E+00  0.19601914504E+04  0.22925123284E+04  0.11888070717E+04 0.  0.
        3    1    3    3  502    0 -0.43365652481E+03  0.40041847222E+03  0.84479553563E+03  0.10305689893E+04  0.10100000352E+00 0.  1.
       -3    1    3    3    0  502  0.43365652481E+03 -0.40041847222E+03  0.11153959147E+04  0.12619433392E+04  0.10100000352E+00 0. -1.
</event>
<event>
 5   0  0.5031575E-03  0.1196269E+04  0.7818609E-02  0.9116128E-01
        2   -1    0    0  501    0  0.00000000000E+00  0.00000000000E+00  0.44229245150E+03  0.44229245151E+03  0.25500000920E-02 0.  1.
       -2   -1    0    0    0  501  0.00000000000E+00  0.00000000000E+00 -0.80888808686E+03  0.80888808686E+03  0.25500000920E-02 0. -1.
    10030    2    1    2    0    0  0.00000000000E+00  0.00000000000E+00 -0.36659563536E+03  0.12511805384E+04  0.11962693592E+04 0.  0.
        5    1    3    3  502    0  0.28676671857E+03  0.82888343441E+02 -0.72539134316E+03  0.78442355847E+03  0.46999998093E+01 0. -1.
       -5    1    3    3    0  502 -0.28676671857E+03 -0.82888343441E+02  0.35879570780E+03  0.46675697990E+03  0.46999998093E+01 0.  1.
</event>
<event>
 5   0  0.2938349E-03  0.1203659E+04  0.7818609E-02  0.9109659E-01
        1   -1    0    0  501    0  0.00000000000E+00  0.00000000000E+00  0.13377236452E+04  0.13377236452E+04  0.50400001928E-02 0.  1.
       -1   -1    0    0    0  501  0.00000000000E+00  0.00000000000E+00 -0.27075774938E+03  0.27075774942E+03  0.50400001928E-02 0. -1.
    10030    2    1    2    0    0  0.00000000000E+00  0.00000000000E+00  0.10669658959E+04  0.16084813947E+04  0.12036594926E+04 0.  0.
        4    1    3    3  502    0  0.21458584056E+03 -0.30030259337E+02 -0.21682393841E+03  0.30653406436E+03  0.12699999809E+01 0. -1.
       -4    1    3    3    0  502 -0.21458584056E+03  0.30030259337E+02  0.12837898343E+04  0.13019473303E+04  0.12699999809E+01 0.  1.
</event>
<event>
 5   0  0.5108045E-03  0.1187027E+04  0.7818609E-02  0.9124288E-01
        2   -1    0    0  501    0  0.00000000000E+00  0.00000000000E+00  0.24436869437E+03  0.24436869438E+03  0.25500000920E-02 0. -1.
       -2   -1    0    0    0  501  0.00000000000E+00  0.00000000000E+00 -0.14415041014E+04  0.14415041014E+04  0.25500000920E-02 0.  1.
    10030    2    1    2    0    0  0.00000000000E+00  0.00000000000E+00 -0.11971354071E+04  0.16858727958E+04  0.11870273379E+04 0.  0.
        3    1    3    3  502    0 -0.50493393952E+02  0.49835283892E+03 -0.10507182842E+04  0.11640077568E+04  0.10100000352E+00 0. -1.
       -3    1    3    3    0  502  0.50493393952E+02 -0.49835283892E+03 -0.14641712286E+03  0.52186503903E+03  0.10100000352E+00 0.  1.
</event>
<event>
 5   0  0.5003526E-03  0.1154485E+04  0.7818609E-02  0.9153656E-01
       -2   -1    0    0    0  501  0.00000000000E+00  0.00000000000E+00  0.23937921126E+03  0.23937921127E+03  0.25500000920E-02 0. -1.
        2   -1    0    0  501    0  0.00000000000E+00  0.00000000000E+00 -0.13919711244E+04  0.13919711244E+04  0.25500000920E-02 0.  1.
    10030    2    1    2    0    0  0.00000000000E+00  0.00000000000E+00 -0.11525919131E+04  0.16313503356E+04  0.11544850798E+04 0.  0.
        2    1    3    3  502    0  0.48551675661E+03  0.15969864079E+03 -0.95540237013E+03  0.10835238187E+04  0.25500000920E-02 0.  1.
       -2    1    3    3    0  502 -0.48551675661E+03 -0.15969864079E+03 -0.19718954299E+03  0.54782651696E+03  0.25500000920E-02 0. -1.
</event>
<event>
 5   0  0.5189537E-03  0.1144913E+04  0.7818609E-02  0.9162489E-01
        2   -1    0    0  501    0  0.00000000000E+00  0.00000000000E+00  0.12405807334E+04  0.12405807334E+04  0.25500000920E-02 0. -1.
       -2   -1    0    0    0  501  0.00000000000E+00  0.00000000000E+00 -0.26415582911E+03  0.26415582912E+03  0.25500000920E-02 0.  1.
    10030    2    1    2    0    0  0.00000000000E+00  0.00000000000E+00  0.97642490426E+03  0.15047365625E+04  0.11449133281E+04 0.  0.
        4    1    3    3  502    0 -0.25818083711E+03 -0.33941387916E+03 -0.13708083751E+02  0.42667159559E+03  0.12699999809E+01 0.  1.
       -4    1    3    3    0  502  0.25818083711E+03  0.33941387916E+03  0.99013298801E+03  0.10780649669E+04  0.12699999809E+01 0. -1.
</event>
<event>
 5   0  0.5031575E-03  0.1212086E+04  0.7818609E-02  0.9102343E-01
       -2   -1    0    0    0  501  0.00000000000E+00  0.00000000000E+00  0.16384024812E+03  0.16384024813E+03  0.25500000920E-02 0. -1.
        2   -1    0    0  501    0  0.00000000000E+00  0.00000000000E+00 -0.22417443581E+04  0.22417443581E+04  0.25500000920E-02 0.  1.
    10030    2    1    2    0    0  0.00000000000E+00  0.00000000000E+00 -0.20779041100E+04  0.24055846062E+04  0.12120857261E+04 0.  0.
        5    1    3    3  502    0  0.31749432587E+03  0.51619512884E+03 -0.10341707535E+04  0.11986622941E+04  0.46999998093E+01 0.  1.
       -5    1    3    3    0  502 -0.31749432587E+03 -0.51619512884E+03 -0.10437333565E+04  0.12069223121E+04  0.46999998093E+01 0. -1.
</event>
<event>
 5   0  0.5467554E-03  0.1133383E+04  0.7818609E-02  0.9173251E-01
        2   -1    0    0  501    0  0.00000000000E+00  0.00000000000E+00  0.12989847080E+04  0.12989847080E+04  0.25500000920E-02 0. -1.
       -2   -1    0    0    0  501  0.00000000000E+00  0.00000000000E+00 -0.24722343622E+03  0.24722343623E+03  0.25500000920E-02 0.  1.
    10030    2    1    2    0    0  0.00000000000E+00  0.00000000000E+00  0.10517612718E+04  0.15462081443E+04  0.11333833652E+04 0.  0.
        1    1    3    3  502    0 -0.35590613179E+03 -0.10598102501E+03 -0.58101096451E+02  0.37586818134E+03  0.50400001928E-02 0.  1.
       -1    1    3    3    0  502  0.35590613179E+03  0.10598102501E+03  0.11098623683E+04  0.11703399629E+04  0.50400001928E-02 0. -1.
</event>
<event>
 5   0  0.5467554E-03  0.1163030E+04  0.7818609E-02  0.9145846E-01
        2   -1    0    0  501    0  0.00000000000E+00  0.00000000000E+00  0.66165005204E+03  0.66165005204E+03  0.25500000920E-02 0.  1.
       -2   -1    0    0    0  501  0.00000000000E+00  0.00000000000E+00 -0.51108540865E+03  0.51108540866E+03  0.25500000920E-02 0. -1.
    10030    2    1    2    0    0  0.00000000000E+00  0.00000000000E+00  0.15056464338E+03  0.11727354607E+04  0.11630299863E+04 0.  0.
        1    1    3    3  502    0  0.42251589260E+03  0.21569739919E+03  0.41441415168E+03  0.62990803825E+03  0.50400001928E-02 0.  1.
       -1    1    3    3    0  502 -0.42251589260E+03 -0.21569739919E+03 -0.26384950829E+03  0.54282742245E+03  0.50400001928E-02 0. -1.
</event>
<event>
 5   0  0.2875848E-03  0.1036754E+04  0.7818609E-02  0.9269128E-01
        1   -1    0    0  501    0  0.00000000000E+00  0.00000000000E+00  0.54965775943E+03  0.54965775945E+03  0.50400001928E-02 0.  1.
       -1   -1    0    0    0  501  0.00000000000E+00  0.00000000000E+00 -0.48887636394E+03  0.48887636397E+03  0.50400001928E-02 0. -1.
    10030    2    1    2    0    0  0.00000000000E+00  0.00000000000E+00  0.60781395489E+02  0.10385341234E+04  0.10367539474E+04 0.  0.
        1    1    3    3  502    0  0.40388987189E+03  0.42556784169E+02 -0.29230616774E+03  0.50038085917E+03  0.50400001928E-02 0.  1.
       -1    1    3    3    0  502 -0.40388987189E+03 -0.42556784169E+02  0.35308756323E+03  0.53815326426E+03  0.50400001928E-02 0. -1.
</event>
<event>
 5   0  0.2792518E-03  0.1179594E+04  0.7818609E-02  0.9130908E-01
        1   -1    0    0  501    0  0.00000000000E+00  0.00000000000E+00  0.67314130123E+03  0.67314130125E+03  0.50400001928E-02 0. -1.
       -1   -1    0    0    0  501  0.00000000000E+00  0.00000000000E+00 -0.51677199041E+03  0.51677199044E+03  0.50400001928E-02 0.  1.
    10030    2    1    2    0    0  0.00000000000E+00  0.00000000000E+00  0.15636931082E+03  0.11899132917E+04  0.11795941168E+04 0.  0.
        2    1    3    3  502    0 -0.17682764445E+03  0.55625653406E+03 -0.72392294881E+01  0.58373089175E+03  0.25500000920E-02 0.  1.
       -2    1    3    3    0  502  0.17682764445E+03 -0.55625653406E+03  0.16360854031E+03  0.60618239994E+03  0.25500000920E-02 0. -1.
</event>
<event>
 5   0  0.5467554E-03  0.1144474E+04  0.7818609E-02  0.9162896E-01
       -2   -1    0    0    0  501  0.00000000000E+00  0.00000000000E+00  0.65320838914E+03  0.65320838915E+03  0.25500000920E-02 0. -1.
        2   -1    0    0  501    0  0.00000000000E+00  0.00000000000E+00 -0.50130298967E+03  0.50130298967E+03  0.25500000920E-02 0.  1.
    10030    2    1    2    0    0  0.00000000000E+00  0.00000000000E+00  0.15190539948E+03  0.11545113788E+04  0.11444742345E+04 0.  0.
        1    1    3    3  502    0  0.51681177354E+03  0.21563280956E+03 -0.42822859208E+02  0.56162773713E+03  0.50400001928E-02 0.  1.
       -1    1    3    3    0  502 -0.51681177354E+03 -0.21563280956E+03  0.19472825869E+03  0.59288364169E+03  0.50400001928E-02 0. -1.
</event>
<event>
 5   0  0.2926844E-03  0.1181428E+04  0.7818609E-02  0.9129270E-01
       -1   -1    0    0    0  501  0.00000000000E+00  0.00000000000E+00  0.45003538064E+03  0.45003538067E+03  0.50400001928E-02 0.  1.
        1   -1    0    0  501    0  0.00000000000E+00  0.00000000000E+00 -0.77536763414E+03  0.77536763416E+03  0.50400001928E-02 0. -1.
    10030    2    1    2    0    0  0.00000000000E+00  0.00000000000E+00 -0.32533225350E+03  0.12254030148E+04  0.11814277268E+04 0.  0.
        5    1    3    3  502    0 -0.22057747062E+03 -0.51073352749E+03 -0.36859488195E+03  0.66737353382E+03  0.46999998093E+01 0. -1.
       -5    1    3    3    0  502  0.22057747062E+03  0.51073352749E+03  0.43262628448E+02  0.55802948100E+03  0.46999998093E+01 0.  1.
</event>
<event>
 5   0  0.5031575E-03  0.1211691E+04  0.7818609E-02  0.9102685E-01
        2   -1    0    0  501    0  0.00000000000E+00  0.00000000000E+00  0.11287470423E+04  0.11287470423E+04  0.25500000920E-02 0.  1.
       -2   -1    0    0    0  501  0.00000000000E+00  0.00000000000E+00 -0.32518232411E+03  0.32518232412E+03  0.25500000920E-02 0. -1.
    10030    2    1    2    0    0  0.00000000000E+00  0.00000000000E+00  0.80356471823E+03  0.14539293665E+04  0.12116906974E+04 0.  0.
        5    1    3    3  502    0 -0.57426186455E+03 -0.28796251982E+02  0.17278789487E+03  0.60040291456E+03  0.46999998093E+01 0. -1.
       -5    1    3    3    0  502  0.57426186455E+03  0.28796251982E+02  0.63077682335E+03  0.85352645189E+03  0.46999998093E+01 0.  1.
</event>
<event>
 5   0  0.2930868E-03  0.1170150E+04  0.7818609E-02  0.9139393E-01
        1   -1    0    0  501    0  0.00000000000E+00  0.00000000000E+00  0.13577264135E+04  0.13577264135E+04  0.50400001928E-02 0. -1.
       -1   -1    0    0    0  501  0.00000000000E+00  0.00000000000E+00 -0.25212190123E+03  0.25212190128E+03  0.50400001928E-02 0.  1.
    10030    2    1    2    0    0  0.00000000000E+00  0.00000000000E+00  0.11056045123E+04  0.16098483148E+04  0.11701496738E+04 0.  0.
        3    1    3    3  502    0  0.96375237169E+02  0.27311002360E+03  0.12521922981E+04  0.12852481600E+04  0.10100000352E+00 0. -1.
       -3    1    3    3    0  502 -0.96375237169E+02 -0.27311002360E+03 -0.14658778578E+03  0.32460015476E+03  0.10100000352E+00 0.  1.
</event>
<event>
 5   0  0.5003526E-03  0.1218346E+04  0.7818609E-02  0.9096949E-01
        2   -1    0    0  501    0  0.00000000000E+00  0.00000000000E+00  0.19368480783E+04  0.19368480783E+04  0.25500000920E-02 0.  1.
       -2   -1    0    0    0  501  0.00000000000E+00  0.00000000000E+00 -0.19159553778E+03  0.19159553780E+03  0.25500000920E-02 0. -1.
    10030    2    1    2    0    0  0.00000000000E+00  0.00000000000E+00  0.17452525405E+04  0.21284436161E+04  0.12183455162E+04 0.  0.
        2    1    3    3  502    0  0.18500487033E+03 -0.17649329669E+03  0.18385656826E+04  0.18562598027E+04  0.25500000920E-02 0.  1.
       -2    1    3    3    0  502 -0.18500487033E+03  0.17649329669E+03 -0.93313142046E+02  0.27218381345E+03  0.25500000920E-02 0. -1.
</event>
<event>
 5   0  0.2938349E-03  0.1212346E+04  0.7818609E-02  0.9102118E-01
        1   -1    0    0  501    0  0.00000000000E+00  0.00000000000E+00  0.26235336694E+04  0.26235336694E+04  0.50400001928E-02 0.  1.
       -1   -1    0    0    0  501  0.00000000000E+00  0.00000000000E+00 -0.14005754878E+03  0.14005754887E+03  0.50400001928E-02 0. -1.
    10030    2    1    2    0    0  0.00000000000E+00  0.00000000000E+00  0.24834761206E+04  0.27635912182E+04  0.12123459820E+04 0.  0.
        4    1    3    3  502    0  0.40559802151E+03  0.25724892064E+03  0.20847282432E+04  0.21393410722E+04  0.12699999809E+01 0.  1.
       -4    1    3    3    0  502 -0.40559802151E+03 -0.25724892064E+03  0.39874787735E+03  0.62425014602E+03  0.12699999809E+01 0. -1.
</event>
<event>
 5   0  0.2926844E-03  0.1183632E+04  0.7818609E-02  0.9127306E-01
       -1   -1    0    0    0  501  0.00000000000E+00  0.00000000000E+00  0.44320098568E+03  0.44320098571E+03  0.50400001928E-02 0.  1.
        1   -1    0    0  501    0  0.00000000000E+00  0.00000000000E+00 -0.79026425233E+03  0.79026425235E+03  0.50400001928E-02 0. -1.
    10030    2    1    2    0    0  0.00000000000E+00  0.00000000000E+00 -0.34706326665E+03  0.12334652381E+04  0.11836315231E+04 0.  0.
        5    1    3    3  502    0 -0.21920273589E+03  0.29447204958E+03  0.31018820486E+03  0.48062713182E+03  0.46999998093E+01 0.  1.
       -5    1    3    3    0  502  0.21920273589E+03 -0.29447204958E+03 -0.65725147151E+03  0.75283810624E+03  0.46999998093E+01 0. -1.
</event>
<event>
 5   0  0.2875848E-03  0.1210095E+04  0.7818609E-02  0.9104066E-01
        1   -1    0    0  501    0  0.00000000000E+00  0.00000000000E+00  0.75322074852E+03  0.75322074854E+03  0.50400001928E-02 0. -1.
       -1   -1    0    0    0  501  0.00000000000E+00  0.00000000000E+00 -0.48602272994E+03  0.48602272997E+03  0.50400001928E-02 0.  1.
    10030    2    1    2    0    0  0.00000000000E+00  0.00000000000E+00  0.26719801858E+03  0.12392434785E+04  0.12100948797E+04 0.  0.
        1    1    3    3  502    0  0.29198272447E+03  0.17633871373E+03  0.64536959074E+03  0.72996654857E+03  0.50400001928E-02 0. -1.
       -1    1    3    3    0  502 -0.29198272447E+03 -0.17633871373E+03 -0.37817157216E+03  0.50927692994E+03  0.50400001928E-02 0.  1.
</event>
<event>
 5   0  0.2792518E-03  0.1184278E+04  0.7818609E-02  0.9126730E-01
        1   -1    0    0  501    0  0.00000000000E+00  0.00000000000E+00  0.39905822673E+03  0.39905822676E+03  0.50400001928E-02 0. -1.
       -1   -1    0    0    0  501  0.00000000000E+00  0.00000000000E+00 -0.87864074157E+03  0.87864074158E+03  0.50400001928E-02 0.  1.
    10030    2    1    2    0    0  0.00000000000E+00  0.00000000000E+00 -0.47958251484E+03  0.12776989683E+04  0.11842783732E+04 0.  0.
        2    1    3    3  502    0 -0.15696359842E+03  0.53114264743E+03 -0.46578779514E+03  0.72367696748E+03  0.25500000920E-02 0.  1.
       -2    1    3    3    0  502  0.15696359842E+03 -0.53114264743E+03 -0.13794719697E+02  0.55402200086E+03  0.25500000920E-02 0. -1.
</event>
<event>
 5   0  0.5108045E-03  0.1170439E+04  0.7818609E-02  0.9139132E-01
       -2   -1    0    0    0  501  0.00000000000E+00  0.00000000000E+00  0.91846227247E+03  0.91846227247E+03  0.25500000920E-02 0. -1.
        2   -1    0    0  501    0  0.00000000000E+00  0.00000000000E+00 -0.37288616702E+03  0.37288616703E+03  0.25500000920E-02 0.  1.
    10030    2    1    2    0    0  0.00000000000E+00  0.00000000000E+00  0.54557610545E+03  0.12913484395E+04  0.11704390225E+04 0.  0.
        3    1    3    3  502    0  0.57242464767E+03  0.83990218893E+02  0.36996347522E+03  0.68672943531E+03  0.10100000352E+00 0.  1.
       -3    1    3    3    0  502 -0.57242464767E+03 -0.83990218893E+02  0.17561263023E+03  0.60461900419E+03  0.10100000352E+00 0. -1.
</event>
<event>
 5   0  0.5467554E-03  0.1133254E+04  0.7818609E-02  0.9173373E-01
        2   -1    0    0  501    0  0.00000000000E+00  0.00000000000E+00  0.89115575543E+03  0.89115575543E+03  0.25500000920E-02 0.  1.
       -2   -1    0    0    0  501  0.00000000000E+00  0.00000000000E+00 -0.36028079034E+03  0.36028079034E+03  0.25500000920E-02 0. -1.
    10030    2    1    2    0    0  0.00000000000E+00  0.00000000000E+00  0.53087496509E+03  0.12514365458E+04  0.11332542519E+04 0.  0.
        1    1    3    3  502    0 -0.30869309905E+03 -0.71184788344E+02  0.78422571544E+03  0.84579470102E+03  0.50400001928E-02 0.  1.
       -1    1    3    3    0  502  0.30869309905E+03  0.71184788344E+02 -0.25335075035E+03  0.40564184476E+03  0.50400001928E-02 0. -1.
</event>
<event>
 5   0  0.2792518E-03  0.1209323E+04  0.7818609E-02  0.9104735E-01
       -1   -1    0    0    0  501  0.00000000000E+00  0.00000000000E+00  0.31955515864E+03  0.31955515868E+03  0.50400001928E-02 0.  1.
        1   -1    0    0  501    0  0.00000000000E+00  0.00000000000E+00 -0.11441392788E+04  0.11441392788E+04  0.50400001928E-02 0. -1.
    10030    2    1    2    0    0  0.00000000000E+00  0.00000000000E+00 -0.82458412013E+03  0.14636944375E+04  0.12093231310E+04 0.  0.
        2    1    3    3  502    0 -0.56775978073E+03 -0.12149362687E+03 -0.20794943075E+03  0.61672914293E+03  0.25500000920E-02 0. -1.
       -2    1    3    3    0  502  0.56775978073E+03  0.12149362687E+03 -0.61663468938E+03  0.84696529453E+03  0.25500000920E-02 0.  1.
</event>
<event>
 5   0  0.2938349E-03  0.1198765E+04  0.7818609E-02  0.9113938E-01
        1   -1    0    0  501    0  0.00000000000E+00  0.00000000000E+00  0.13238043167E+04  0.13238043167E+04  0.50400001928E-02 0.  1.
       -1   -1    0    0    0  501  0.00000000000E+00  0.00000000000E+00 -0.27138416923E+03  0.27138416928E+03  0.50400001928E-02 0. -1.
    10030    2    1    2    0    0  0.00000000000E+00  0.00000000000E+00  0.10524201475E+04  0.15951884860E+04  0.11987652560E+04 0.  0.
        4    1    3    3  502    0 -0.13554060868E+03 -0.57713290118E+03  0.40865421725E+03  0.72003716876E+03  0.12699999809E+01 0.  1.
       -4    1    3    3    0  502  0.13554060868E+03  0.57713290118E+03  0.64376593021E+03  0.87515131721E+03  0.12699999809E+01 0. -1.
</event>
<event>
 5   0  0.2930868E-03  0.1211007E+04  0.7818609E-02  0.9103276E-01
        1   -1    0    0  501    0  0.00000000000E+00  0.00000000000E+00  0.15412903871E+04  0.15412903871E+04  0.50400001928E-02 0. -1.
       -1   -1    0    0    0  501  0.00000000000E+00  0.00000000000E+00 -0.23787497229E+03  0.23787497235E+03  0.50400001928E-02 0.  1.
    10030    2    1    2    0    0  0.00000000000E+00  0.00000000000E+00  0.13034154148E+04  0.17791653595E+04  0.12110068673E+04 0.  0.
        3    1    3    3  502    0 -0.45881685975E+02  0.54670749473E+03  0.10281120311E+04  0.11653362487E+04  0.10100000352E+00 0. -1.
       -3    1    3    3    0  502  0.45881685975E+02 -0.54670749473E+03  0.27530338372E+03  0.61382911074E+03  0.10100000352E+00 0.  1.
</event>
<event>
 5   0  0.2938349E-03  0.1198572E+04  0.7818609E-02  0.9114107E-01
       -1   -1    0    0    0  501  0.00000000000E+00  0.00000000000E+00  0.49026397726E+03  0.49026397729E+03  0.50400001928E-02 0.  1.
        1   -1    0    0  501    0  0.00000000000E+00  0.00000000000E+00 -0.73255189714E+03  0.73255189715E+03  0.50400001928E-02 0. -1.
    10030    2    1    2    0    0  0.00000000000E+00  0.00000000000E+00 -0.24228791987E+03  0.12228158744E+04  0.11985721616E+04 0.  0.
        4    1    3    3  502    0 -0.49422106736E+03 -0.25491628891E+03 -0.34905781213E+03  0.65656663553E+03  0.12699999809E+01 0. -1.
       -4    1    3    3    0  502  0.49422106736E+03  0.25491628891E+03  0.10676989226E+03  0.56624923891E+03  0.12699999809E+01 0.  1.
</event>
<event>
 5   0  0.5003526E-03  0.1205520E+04  0.7818609E-02  0.9108038E-01
       -2   -1    0    0    0  501  0.00000000000E+00  0.00000000000E+00  0.19686156547E+03  0.19686156548E+03  0.25500000920E-02 0. -1.
        2   -1    0    0  501    0  0.00000000000E+00  0.00000000000E+00 -0.18455591974E+04  0.18455591974E+04  0.25500000920E-02 0.  1.
    10030    2    1    2    0    0  0.00000000000E+00  0.00000000000E+00 -0.16486976320E+04  0.20424207629E+04  0.12055200916E+04 0.  0.
        2    1    3    3  502    0  0.53498183503E+03 -0.16093249792E+03 -0.44093419115E+03  0.71170766023E+03  0.25500000920E-02 0. -1.
       -2    1    3    3    0  502 -0.53498183503E+03  0.16093249792E+03 -0.12077634408E+04  0.13307131027E+04  0.25500000920E-02 0.  1.
</event>
<event>
 5   0  0.5467554E-03  0.1193548E+04  0.7818609E-02  0.9118523E-01
        2   -1    0    0  501    0  0.00000000000E+00  0.00000000000E+00  0.23246793080E+03  0.23246793081E+03  0.25500000920E-02 0.  1.
       -2   -1    0    0    0  501  0.00000000000E+00  0.00000000000E+00 -0.15319921549E+04  0.15319921549E+04  0.25500000920E-02 0. -1.
    10030    2    1    2    0    0  0.00000000000E+00  0.00000000000E+00 -0.12995242241E+04  0.17644600857E+04  0.11935477305E+04 0.  0.
        1    1    3    3  502    0  0.19633434088E+03  0.31146303336E+03 -0.13440789920E+04  0.13935941774E+04  0.50400001928E-02 0. -1.
       -1    1    3    3    0  502 -0.19633434088E+03 -0.31146303336E+03  0.44554767912E+02  0.37086590828E+03  0.50400001928E-02 0.  1.
</event>
<event>
 5   0  0.2875848E-03  0.1071632E+04  0.7818609E-02  0.9233291E-01
        1   -1    0    0  501    0  0.00000000000E+00  0.00000000000E+00  0.11197869435E+04  0.11197869435E+04  0.50400001928E-02 0.  1.
       -1   -1    0    0    0  501  0.00000000000E+00  0.00000000000E+00 -0.25638715091E+03  0.25638715096E+03  0.50400001928E-02 0. -1.
    10030    2    1    2    0    0  0.00000000000E+00  0.00000000000E+00  0.86339979260E+03  0.13761740945E+04  0.10716323700E+04 0.  0.
        1    1    3    3  502    0  0.15406588732E+03 -0.46669675258E+03  0.15760289037E+03  0.51612094279E+03  0.50400001928E-02 0. -1.
       -1    1    3    3    0  502 -0.15406588732E+03  0.46669675258E+03  0.70579690222E+03  0.86005315168E+03  0.50400001928E-02 0.  1.
</event>
<event>
 5   0  0.5003526E-03  0.1199119E+04  0.7818609E-02  0.9113628E-01
        2   -1    0    0  501    0  0.00000000000E+00  0.00000000000E+00  0.11530771687E+04  0.11530771687E+04  0.25500000920E-02 0.  1.
       -2   -1    0    0    0  501  0.00000000000E+00  0.00000000000E+00 -0.31174980332E+03  0.31174980333E+03  0.25500000920E-02 0. -1.
    10030    2    1    2    0    0  0.00000000000E+00  0.00000000000E+00  0.84132736540E+03  0.14648269720E+04  0.11991189775E+04 0.  0.
        2    1    3    3  502    0 -0.28786795753E+03 -0.52188148163E+03  0.50023891256E+03  0.77811773627E+03  0.25500000920E-02 0. -1.
       -2    1    3    3    0  502  0.28786795753E+03  0.52188148163E+03  0.34108845284E+03  0.68670923578E+03  0.25500000920E-02 0.  1.
</event>
<event>
 5   0  0.2930868E-03  0.1202140E+04  0.7818609E-02  0.9110986E-01
        1   -1    0    0  501    0  0.00000000000E+00  0.00000000000E+00  0.60075435516E+03  0.60075435518E+03  0.50400001928E-02 0. -1.
       -1   -1    0    0    0  501  0.00000000000E+00  0.00000000000E+00 -0.60138557873E+03  0.60138557875E+03  0.50400001928E-02 0.  1.
    10030    2    1    2    0    0  0.00000000000E+00  0.00000000000E+00 -0.63122356592E+00  0.12021399339E+04  0.12021397682E+04 0.  0.
        3    1    3    3  502    0 -0.26200757755E+03 -0.45813265544E+02  0.53870038936E+03  0.60078693868E+03  0.10100000352E+00 0. -1.
       -3    1    3    3    0  502  0.26200757755E+03  0.45813265544E+02 -0.53933161292E+03  0.60135299525E+03  0.10100000352E+00 0.  1.
</event>
<event>
 5   0  0.5467554E-03  0.1088561E+04  0.7818609E-02  0.9216413E-01
       -2   -1    0    0    0  501  0.00000000000E+00  0.00000000000E+00  0.38330297548E+03  0.38330297549E+03  0.25500000920E-02 0. -1.
        2   -1    0    0  501    0  0.00000000000E+00  0.00000000000E+00 -0.77286503064E+03  0.77286503064E+03  0.25500000920E-02 0.  1.
    10030    2    1    2    0    0  0.00000000000E+00  0.00000000000E+00 -0.38956205515E+03  0.11561680061E+04  0.10885613734E+04 0.  0.
        1    1    3    3  502    0 -0.64189023670E+02  0.10038188818E+03 -0.75884324208E+03  0.76814049516E+03  0.50400001928E-02 0.  1.
       -1    1    3    3    0  502  0.64189023670E+02 -0.10038188818E+03  0.36928118692E+03  0.38802751098E+03  0.50400001928E-02 0. -1.
</event>
<event>
 5   0  0.2930868E-03  0.1295497E+04  0.7818609E-02  0.9033143E-01
       -1   -1    0    0    0  501  0.00000000000E+00  0.00000000000E+00  0.62690314113E+03  0.62690314115E+03  0.50400001928E-02 0.  1.
        1   -1    0    0  501    0  0.00000000000E+00  0.00000000000E+00 -0.66928746027E+03  0.66928746029E+03  0.50400001928E-02 0. -1.
    10030    2    1    2    0    0  0.00000000000E+00  0.00000000000E+00 -0.42384319135E+02  0.12961906014E+04  0.12954974507E+04 0.  0.
        3    1    3    3  502    0  0.11174334224E+03  0.23339264849E+03  0.57294346010E+03  0.62866757637E+03  0.10100000352E+00 0.  1.
       -3    1    3    3    0  502 -0.11174334224E+03 -0.23339264849E+03 -0.61532777923E+03  0.66752302507E+03  0.10100000352E+00 0. -1.
</event>
<event>
 5   0  0.1922125E-03  0.1114605E+04  0.7818609E-02  0.9191073E-01
       -4   -1    0    0    0  501  0.00000000000E+00  0.00000000000E+00  0.37495945695E+03  0.37496160771E+03  0.12699999809E+01 0. -1.
        4   -1    0    0  501    0  0.00000000000E+00  0.00000000000E+00 -0.82831386690E+03  0.82831484051E+03  0.12699999809E+01 0.  1.
    10030    2    1    2    0    0  0.00000000000E+00  0.00000000000E+00 -0.45335440996E+03  0.12032764482E+04  0.11146048581E+04 0.  0.
        4    1    3    3  502    0  0.71340150890E+02  0.49100432491E+03 -0.50065804408E+03  0.70486506099E+03  0.12699999809E+01 0.  1.
       -4    1    3    3    0  502 -0.71340150890E+02 -0.49100432491E+03  0.47303634126E+02  0.49841138722E+03  0.12699999809E+01 0. -1.
</event>
<event>
 5   0  0.5467554E-03  0.1232354E+04  0.7818609E-02  0.9084999E-01
       -2   -1    0    0    0  501  0.00000000000E+00  0.00000000000E+00  0.28153890816E+03  0.28153890817E+03  0.25500000920E-02 0. -1.
        2   -1    0    0  501    0  0.00000000000E+00  0.00000000000E+00 -0.13485673403E+04  0.13485673403E+04  0.25500000920E-02 0.  1.
    10030    2    1    2    0    0  0.00000000000E+00  0.00000000000E+00 -0.10670284322E+04  0.16301062485E+04  0.12323541319E+04 0.  0.
        1    1    3    3  502    0 -0.47841527653E+03  0.72852296400E+02 -0.10380480622E+04  0.11453088725E+04  0.50400001928E-02 0.  1.
       -1    1    3    3    0  502  0.47841527653E+03 -0.72852296400E+02 -0.28980369937E+02  0.48479737600E+03  0.50400001928E-02 0. -1.
</event>
<event>
 5   0  0.2792518E-03  0.1198026E+04  0.7818609E-02  0.9114586E-01
       -1   -1    0    0    0  501  0.00000000000E+00  0.00000000000E+00  0.29798767139E+03  0.29798767143E+03  0.50400001928E-02 0.  1.
        1   -1    0    0  501    0  0.00000000000E+00  0.00000000000E+00 -0.12041316270E+04  0.12041316270E+04  0.50400001928E-02 0. -1.
    10030    2    1    2    0    0  0.00000000000E+00  0.00000000000E+00 -0.90614395556E+03  0.15021192984E+04  0.11980256752E+04 0.  0.
        2    1    3    3  502    0  0.15637016533E+03 -0.19976999196E+03 -0.11334480337E+04  0.11614921969E+04  0.25500000920E-02 0. -1.
       -2    1    3    3    0  502 -0.15637016533E+03  0.19976999196E+03  0.22730407818E+03  0.34062710147E+03  0.25500000920E-02 0.  1.
</event>
<event>
 5   0  0.5003526E-03  0.1204918E+04  0.7818609E-02  0.9108562E-01
        2   -1    0    0  501    0  0.00000000000E+00  0.00000000000E+00  0.20424691157E+04  0.20424691157E+04  0.25500000920E-02 0. -1.
       -2   -1    0    0    0  501  0.00000000000E+00  0.00000000000E+00 -0.17770502055E+03  0.17770502057E+03  0.25500000920E-02 0.  1.
    10030    2    1    2    0    0  0.00000000000E+00  0.00000000000E+00  0.18647640951E+04  0.22201741362E+04  0.12049182814E+04 0.  0.
        2    1    3    3  502    0  0.16314850997E+03  0.55728059282E+03  0.12282196591E+04  0.13585663865E+04  0.25500000920E-02 0.  1.
       -2    1    3    3    0  502 -0.16314850997E+03 -0.55728059282E+03  0.63654443603E+03  0.86160774978E+03  0.25500000920E-02 0. -1.
</event>
<event>
 5   0  0.5467554E-03  0.1181282E+04  0.7818609E-02  0.9129400E-01
       -2   -1    0    0    0  501  0.00000000000E+00  0.00000000000E+00  0.82151191784E+03  0.82151191785E+03  0.25500000920E-02 0. -1.
        2   -1    0    0  501    0  0.00000000000E+00  0.00000000000E+00 -0.42465234268E+03  0.42465234269E+03  0.25500000920E-02 0.  1.
    10030    2    1    2    0    0  0.00000000000E+00  0.00000000000E+00  0.39685957517E+03  0.12461642605E+04  0.11812822871E+04 0.  0.
        1    1    3    3  502    0  0.37250693143E+03 -0.21329841176E+03 -0.22956219797E+03  0.48678170588E+03  0.50400001928E-02 0.  1.
       -1    1    3    3    0  502 -0.37250693143E+03  0.21329841176E+03  0.62642177313E+03  0.75938255465E+03  0.50400001928E-02 0. -1.
</event>
<event>
 5   0  0.2792518E-03  0.1203909E+04  0.7818609E-02  0.9109442E-01
       -1   -1    0    0    0  501  0.00000000000E+00  0.00000000000E+00  0.62027664934E+03  0.62027664937E+03  0.50400001928E-02 0. -1.
        1   -1    0    0  501    0  0.00000000000E+00  0.00000000000E+00 -0.58417373100E+03  0.58417373102E+03  0.50400001928E-02 0.  1.
    10030    2    1    2    0    0  0.00000000000E+00  0.00000000000E+00  0.36102918344E+02  0.12044503804E+04  0.12039091735E+04 0.  0.
        2    1    3    3  502    0  0.25200578882E+03 -0.33833638284E+03  0.44762881063E+03  0.61510159946E+03  0.25500000920E-02 0. -1.
       -2    1    3    3    0  502 -0.25200578882E+03  0.33833638284E+03 -0.41152589228E+03  0.58934878093E+03  0.25500000920E-02 0.  1.
</event>
<event>
 5   0  0.2938349E-03  0.1196153E+04  0.7818609E-02  0.9116230E-01
       -1   -1    0    0    0  501  0.00000000000E+00  0.00000000000E+00  0.21736133446E+03  0.21736133452E+03  0.50400001928E-02 0. -1.
        1   -1    0    0  501    0  0.00000000000E+00  0.00000000000E+00 -0.16456267631E+04  0.16456267631E+04  0.50400001928E-02 0.  1.
    10030    2    1    2    0    0  0.00000000000E+00  0.00000000000E+00 -0.14282654287E+04  0.18629880976E+04  0.11961532165E+04 0.  0.
        4    1    3    3  502    0  0.22277357291E+03  0.55221955632E+03 -0.80112218427E+03  0.99818478760E+03  0.12699999809E+01 0.  1.
       -4    1    3    3    0  502 -0.22277357291E+03 -0.55221955632E+03 -0.62714324439E+03  0.86480331004E+03  0.12699999809E+01 0. -1.
</event>
<event>
 5   0  0.5031575E-03  0.1225684E+04  0.7818609E-02  0.9090668E-01
       -2   -1    0    0    0  501  0.00000000000E+00  0.00000000000E+00  0.40521813274E+03  0.40521813275E+03  0.25500000920E-02 0. -1.
        2   -1    0    0  501    0  0.00000000000E+00  0.00000000000E+00 -0.92684678743E+03  0.92684678744E+03  0.25500000920E-02 0.  1.
    10030    2    1    2    0    0  0.00000000000E+00  0.00000000000E+00 -0.52162865470E+03  0.13320649202E+04  0.12256836860E+04 0.  0.
        5    1    3    3  502    0 -0.21731253649E+03 -0.10277544528E+03 -0.87344729000E+03  0.90593586366E+03  0.46999998093E+01 0.  1.
       -5    1    3    3    0  502  0.21731253649E+03  0.10277544528E+03  0.35181863530E+03  0.42612905652E+03  0.46999998093E+01 0. -1.
</event>
<event>
 5   0  0.2926844E-03  0.1147511E+04  0.7818609E-02  0.9160083E-01
       -1   -1    0    0    0  501  0.00000000000E+00  0.00000000000E+00  0.30071468840E+03  0.30071468844E+03  0.50400001928E-02 0. -1.
        1   -1    0    0  501    0  0.00000000000E+00  0.00000000000E+00 -0.10947091906E+04  0.10947091906E+04  0.50400001928E-02 0.  1.
    10030    2    1    2    0    0  0.00000000000E+00  0.00000000000E+00 -0.79399450222E+03  0.13954238791E+04  0.11475105807E+04 0.  0.
        5    1    3    3  502    0 -0.87098648276E+02 -0.51507785803E+03 -0.10850580875E+03  0.53356065718E+03  0.46999998093E+01 0. -1.
       -5    1    3    3    0  502  0.87098648276E+02  0.51507785803E+03 -0.68548869346E+03  0.86186322188E+03  0.46999998093E+01 0.  1.
</event>
<event>
 5   0  0.2930868E-03  0.1216179E+04  0.7818609E-02  0.9098812E-01
       -1   -1    0    0    0  501  0.00000000000E+00  0.00000000000E+00  0.77442709494E+03  0.77442709496E+03  0.50400001928E-02 0.  1.
        1   -1    0    0  501    0  0.00000000000E+00  0.00000000000E+00 -0.47747926323E+03  0.47747926326E+03  0.50400001928E-02 0. -1.
    10030    2    1    2    0    0  0.00000000000E+00  0.00000000000E+00  0.29694783171E+03  0.12519063582E+04  0.12161790637E+04 0.  0.
        3    1    3    3  502    0 -0.54909184376E+03 -0.17785357818E+03  0.34551048723E+03  0.67268956818E+03  0.10100000352E+00 0.  1.
       -3    1    3    3    0  502  0.54909184376E+03  0.17785357818E+03 -0.48562655521E+02  0.57921679004E+03  0.10100000352E+00 0. -1.
</event>
<event>
 5   0  0.5108045E-03  0.1222972E+04  0.7818609E-02  0.9092984E-01
        2   -1    0    0  501    0  0.00000000000E+00  0.00000000000E+00  0.42406907345E+03  0.42406907346E+03  0.25500000920E-02 0.  1.
       -2   -1    0    0    0  501  0.00000000000E+00  0.00000000000E+00 -0.88173145642E+03  0.88173145642E+03  0.25500000920E-02 0. -1.
    10030    2    1    2    0    0  0.00000000000E+00  0.00000000000E+00 -0.45766238297E+03  0.13058005299E+04  0.12229718587E+04 0.  0.
        3    1    3    3  502    0  0.20764685366E+03  0.56069160276E+03 -0.36566178671E+03  0.70085721919E+03  0.10100000352E+00 0.  1.
       -3    1    3    3    0  502 -0.20764685366E+03 -0.56069160276E+03 -0.92000596258E+02  0.60494331069E+03  0.10100000352E+00 0. -1.
</event>
<event>
 5   0  0.5031575E-03  0.1180654E+04  0.7818609E-02  0.9129961E-01
       -2   -1    0    0    0  501  0.00000000000E+00  0.00000000000E+00  0.70904424906E+03  0.70904424907E+03  0.25500000920E-02 0. -1.
        2   -1    0    0  501    0  0.00000000000E+00  0.00000000000E+00 -0.49148660497E+03  0.49148660498E+03  0.25500000920E-02 0.  1.
    10030    2    1    2    0    0  0.00000000000E+00  0.00000000000E+00  0.21755764409E+03  0.12005308541E+04  0.11806536338E+04 0.  0.
        5    1    3    3  502    0  0.35728327367E+03 -0.46252341313E+03  0.24409540230E+02  0.58497620549E+03  0.46999998093E+01 0.  1.
       -5    1    3    3    0  502 -0.35728327367E+03  0.46252341313E+03  0.19314810386E+03  0.61555464856E+03  0.46999998093E+01 0. -1.
</event>
<event>
 5   0  0.2926844E-03  0.1204446E+04  0.7818609E-02  0.9108974E-01
        1   -1    0    0  501    0  0.00000000000E+00  0.00000000000E+00  0.78788458526E+03  0.78788458527E+03  0.50400001928E-02 0. -1.
       -1   -1    0    0    0  501  0.00000000000E+00  0.00000000000E+00 -0.46031144124E+03  0.46031144126E+03  0.50400001928E-02 0.  1.
    10030    2    1    2    0    0  0.00000000000E+00  0.00000000000E+00  0.32757314402E+03  0.12481960265E+04  0.12044455803E+04 0.  0.
        5    1    3    3  502    0  0.22688078834E+03 -0.31348406149E+02  0.74096663191E+03  0.77557156619E+03  0.46999998093E+01 0. -1.
       -5    1    3    3    0  502 -0.22688078834E+03  0.31348406149E+02 -0.41339348789E+03  0.47262446034E+03  0.46999998093E+01 0.  1.
</event>
<event>
 5   0  0.2792518E-03  0.1177429E+04  0.7818609E-02  0.9132846E-01
       -1   -1    0    0    0  501  0.00000000000E+00  0.00000000000E+00  0.19340747861E+03  0.19340747868E+03  0.50400001928E-02 0.  1.
        1   -1    0    0  501    0  0.00000000000E+00  0.00000000000E+00 -0.17919911429E+04  0.17919911429E+04  0.50400001928E-02 0. -1.
    10030    2    1    2    0    0  0.00000000000E+00  0.00000000000E+00 -0.15985836643E+04  0.19853986216E+04  0.11774285349E+04 0.  0.
        2    1    3    3  502    0  0.23693869723E+03 -0.35643502813E+03 -0.11767965213E+03  0.44388554386E+03  0.25500000920E-02 0.  1.
       -2    1    3    3    0  502 -0.23693869723E+03  0.35643502813E+03 -0.14809040121E+04  0.15415130777E+04  0.25500000920E-02 0. -1.
</event>
<event>
 5   0  0.5189537E-03  0.1191264E+04  0.7818609E-02  0.9120538E-01
        2   -1    0    0  501    0  0.00000000000E+00  0.00000000000E+00  0.13594697953E+04  0.13594697953E+04  0.25500000920E-02 0. -1.
       -2   -1    0    0    0  501  0.00000000000E+00  0.00000000000E+00 -0.26096736986E+03  0.26096736987E+03  0.25500000920E-02 0.  1.
    10030    2    1    2    0    0  0.00000000000E+00  0.00000000000E+00  0.10985024255E+04  0.16204371652E+04  0.11912636264E+04 0.  0.
        4    1    3    3  502    0 -0.26121503753E+03 -0.18665531917E+03 -0.13319396274E+03  0.34758559898E+03  0.12699999809E+01 0.  1.
       -4    1    3    3    0  502  0.26121503753E+03  0.18665531917E+03  0.12316963882E+04  0.12728515662E+04  0.12699999809E+01 0. -1.
</event>
<event>
 5   0  0.1922125E-03  0.1217854E+04  0.7818609E-02  0.9097371E-01
       -4   -1    0    0    0  501  0.00000000000E+00  0.00000000000E+00  0.19225254406E+04  0.19225258600E+04  0.12699999809E+01 0. -1.
        4   -1    0    0  501    0  0.00000000000E+00  0.00000000000E+00 -0.19286461872E+03  0.19286880010E+03  0.12699999809E+01 0.  1.
    10030    2    1    2    0    0  0.00000000000E+00  0.00000000000E+00  0.17296608218E+04  0.21153946601E+04  0.12178538539E+04 0.  0.
        4    1    3    3  502    0  0.56535110882E+03 -0.14296073053E+03  0.11693272282E+04  0.13066703586E+04  0.12699999809E+01 0. -1.
       -4    1    3    3    0  502 -0.56535110882E+03  0.14296073053E+03  0.56033359367E+03  0.80872430148E+03  0.12699999809E+01 0.  1.
</event>
<event>
 5   0  0.2875848E-03  0.1207575E+04  0.7818609E-02  0.9106252E-01
        1   -1    0    0  501    0  0.00000000000E+00  0.00000000000E+00  0.42560253322E+03  0.42560253325E+03  0.50400001928E-02 0.  1.
       -1   -1    0    0    0  501  0.00000000000E+00  0.00000000000E+00 -0.85657222931E+03  0.85657222933E+03  0.50400001928E-02 0. -1.
    10030    2    1    2    0    0  0.00000000000E+00  0.00000000000E+00 -0.43096969609E+03  0.12821747626E+04  0.12075749430E+04 0.  0.
        1    1    3    3  502    0 -0.40980626662E+03  0.39890065233E+03 -0.42108713536E+03  0.71019524230E+03  0.50400001928E-02 0.  1.
       -1    1    3    3    0  502  0.40980626662E+03 -0.39890065233E+03 -0.98825607279E+01  0.57197952028E+03  0.50400001928E-02 0. -1.
</event>
<event>
 5   0  0.5003526E-03  0.1183109E+04  0.7818609E-02  0.9127771E-01
        2   -1    0    0  501    0  0.00000000000E+00  0.00000000000E+00  0.10108474585E+04  0.10108474585E+04  0.25500000920E-02 0. -1.
       -2   -1    0    0    0  501  0.00000000000E+00  0.00000000000E+00 -0.34618133690E+03  0.34618133691E+03  0.25500000920E-02 0.  1.
    10030    2    1    2    0    0  0.00000000000E+00  0.00000000000E+00  0.66466612161E+03  0.13570287954E+04  0.11831086587E+04 0.  0.
        2    1    3    3  502    0  0.35779383743E+03 -0.29430123141E+03  0.75424748188E+03  0.88516603462E+03  0.25500000920E-02 0. -1.
       -2    1    3    3    0  502 -0.35779383743E+03  0.29430123141E+03 -0.89581360276E+02  0.47186276080E+03  0.25500000920E-02 0.  1.
</event>
<event>
 5   0  0.2792518E-03  0.1229996E+04  0.7818609E-02  0.9086999E-01
       -1   -1    0    0    0  501  0.00000000000E+00  0.00000000000E+00  0.72582051927E+03  0.72582051928E+03  0.50400001928E-02 0. -1.
        1   -1    0    0  501    0  0.00000000000E+00  0.00000000000E+00 -0.52109641616E+03  0.52109641618E+03  0.50400001928E-02 0.  1.
    10030    2    1    2    0    0  0.00000000000E+00  0.00000000000E+00  0.20472410311E+03  0.12469169355E+04  0.12299958884E+04 0.  0.
        2    1    3    3  502    0 -0.50084873889E+03  0.29347481118E+03  0.30824595772E+03  0.65726135936E+03  0.25500000920E-02 0. -1.
       -2    1    3    3    0  502  0.50084873889E+03 -0.29347481118E+03 -0.10352185462E+03  0.58965557611E+03  0.25500000920E-02 0.  1.
</event>
<event>
 5   0  0.5467554E-03  0.1194922E+04  0.7818609E-02  0.9117313E-01
        2   -1    0    0  501    0  0.00000000000E+00  0.00000000000E+00  0.85380715061E+03  0.85380715062E+03  0.25500000920E-02 0.  1.
       -2   -1    0    0    0  501  0.00000000000E+00  0.00000000000E+00 -0.41807977151E+03  0.41807977152E+03  0.25500000920E-02 0. -1.
    10030    2    1    2    0    0  0.00000000000E+00  0.00000000000E+00  0.43572737910E+03  0.12718869221E+04  0.11949217522E+04 0.  0.
        1    1    3    3  502    0  0.58251037271E+03  0.74124965252E+02  0.10055306188E+03  0.59575478435E+03  0.50400001928E-02 0. -1.
       -1    1    3    3    0  502 -0.58251037271E+03 -0.74124965252E+02  0.33517431723E+03  0.67613213779E+03  0.50400001928E-02 0.  1.
</event>
<event>
 5   0  0.2930868E-03  0.1230617E+04  0.7818609E-02  0.9086472E-01
        1   -1    0    0  501    0  0.00000000000E+00  0.00000000000E+00  0.11960635525E+04  0.11960635525E+04  0.50400001928E-02 0.  1.
       -1   -1    0    0    0  501  0.00000000000E+00  0.00000000000E+00 -0.31654217714E+03  0.31654217718E+03  0.50400001928E-02 0. -1.
    10030    2    1    2    0    0  0.00000000000E+00  0.00000000000E+00  0.87952137537E+03  0.15126057297E+04  0.12306170175E+04 0.  0.
        3    1    3    3  502    0  0.19810995786E+03 -0.21901266844E+03 -0.22373862779E+03  0.37050383009E+03  0.10100000352E+00 0. -1.
       -3    1    3    3    0  502 -0.19810995786E+03  0.21901266844E+03  0.11032600032E+04  0.11421018996E+04  0.10100000352E+00 0.  1.
</event>
<event>
 5   0  0.2930868E-03  0.1216401E+04  0.7818609E-02  0.9098621E-01
       -1   -1    0    0    0  501  0.00000000000E+00  0.00000000000E+00  0.89453023657E+03  0.89453023658E+03  0.50400001928E-02 0.  1.
        1   -1    0    0  501    0  0.00000000000E+00  0.00000000000E+00 -0.41352189252E+03  0.41352189255E+03  0.50400001928E-02 0. -1.
    10030    2    1    2    0    0  0.00000000000E+00  0.00000000000E+00  0.48100834405E+03  0.13080521291E+04  0.12164009805E+04 0.  0.
        3    1    3    3  502    0  0.58570369956E+03  0.71542941815E+02  0.81947634681E+02  0.59572027096E+03  0.10100000352E+00 0. -1.
       -3    1    3    3    0  502 -0.58570369956E+03 -0.71542941815E+02  0.39906070937E+03  0.71233185817E+03  0.10100000352E+00 0.  1.
</event>
<event>
 5   0  0.5189537E-03  0.1200361E+04  0.7818609E-02  0.9112541E-01
        2   -1    0    0  501    0  0.00000000000E+00  0.00000000000E+00  0.76876686095E+03  0.76876686096E+03  0.25500000920E-02 0. -1.
       -2   -1    0    0    0  501  0.00000000000E+00  0.00000000000E+00 -0.46856386344E+03  0.46856386345E+03  0.25500000920E-02 0.  1.
    10030    2    1    2    0    0  0.00000000000E+00  0.00000000000E+00  0.30020299751E+03  0.12373307244E+04  0.12003605633E+04 0.  0.
        4    1    3    3  502    0  0.72033213011E+02 -0.53470917337E+03  0.42109011078E+03  0.68441301723E+03  0.12699999809E+01 0. -1.
       -4    1    3    3    0  502 -0.72033213011E+02  0.53470917337E+03 -0.12088711326E+03  0.55291770718E+03  0.12699999809E+01 0.  1.
</event>
<event>
 5   0  0.5467554E-03  0.1214762E+04  0.7818609E-02  0.9100033E-01
        2   -1    0    0  501    0  0.00000000000E+00  0.00000000000E+00  0.31284174901E+03  0.31284174902E+03  0.25500000920E-02 0. -1.
       -2   -1    0    0    0  501  0.00000000000E+00  0.00000000000E+00 -0.11792280342E+04  0.11792280342E+04  0.25500000920E-02 0.  1.
    10030    2    1    2    0    0  0.00000000000E+00  0.00000000000E+00 -0.86638628515E+03  0.14920697832E+04  0.12147621343E+04 0.  0.
        1    1    3    3  502    0  0.11710314038E+03  0.46577453079E+03  0.23510739052E+02  0.48084489588E+03  0.50400001928E-02 0. -1.
       -1    1    3    3    0  502 -0.11710314038E+03 -0.46577453079E+03 -0.88989702420E+03  0.10112248873E+04  0.50400001928E-02 0.  1.
</event>
<event>
 5   0  0.1922125E-03  0.1173454E+04  0.7818609E-02  0.9136415E-01
        4   -1    0    0  501    0  0.00000000000E+00  0.00000000000E+00  0.52956127062E+03  0.52956279348E+03  0.12699999809E+01 0. -1.
       -4   -1    0    0    0  501  0.00000000000E+00  0.00000000000E+00 -0.65006102241E+03  0.65006226298E+03  0.12699999809E+01 0.  1.
    10030    2    1    2    0    0  0.00000000000E+00  0.00000000000E+00 -0.12049975179E+03  0.11796250565E+04  0.11734543381E+04 0.  0.
        5    1    3    3  502    0 -0.29244659400E+03  0.40040020147E+03  0.25505753702E+03  0.55760359474E+03  0.46999998093E+01 0. -1.
       -5    1    3    3    0  502  0.29244659400E+03 -0.40040020147E+03 -0.37555728880E+03  0.62202146173E+03  0.46999998093E+01 0.  1.
</event>
<event>
 5   0  0.2938349E-03  0.1151631E+04  0.7818609E-02  0.9156281E-01
        1   -1    0    0  501    0  0.00000000000E+00  0.00000000000E+00  0.54445947143E+03  0.54445947146E+03  0.50400001928E-02 0.  1.
       -1   -1    0    0    0  501  0.00000000000E+00  0.00000000000E+00 -0.60897696857E+03  0.60897696859E+03  0.50400001928E-02 0. -1.
    10030    2    1    2    0    0  0.00000000000E+00  0.00000000000E+00 -0.64517497139E+02  0.11534364401E+04  0.11516306325E+04 0.  0.
        4    1    3    3  502    0  0.22630555501E+03 -0.93790002568E+02 -0.55418132131E+03  0.60591197265E+03  0.12699999809E+01 0. -1.
       -4    1    3    3    0  502 -0.22630555501E+03  0.93790002568E+02  0.48966382417E+03  0.54752446741E+03  0.12699999809E+01 0.  1.
</event>
<event>
 5   0  0.2926844E-03  0.1206180E+04  0.7818609E-02  0.9107465E-01
       -1   -1    0    0    0  501  0.00000000000E+00  0.00000000000E+00  0.30633988864E+03  0.30633988868E+03  0.50400001928E-02 0. -1.
        1   -1    0    0  501    0  0.00000000000E+00  0.00000000000E+00 -0.11873002530E+04  0.11873002530E+04  0.50400001928E-02 0.  1.
    10030    2    1    2    0    0  0.00000000000E+00  0.00000000000E+00 -0.88096036438E+03  0.14936401417E+04  0.12061797997E+04 0.  0.
        5    1    3    3  502    0 -0.16292005163E+03 -0.42029863896E+03  0.55624588715E+02  0.45421368760E+03  0.46999998093E+01 0. -1.
       -5    1    3    3    0  502  0.16292005163E+03  0.42029863896E+03 -0.93658495309E+03  0.10394264541E+04  0.46999998093E+01 0.  1.
</event>
<event>
 5   0  0.5003526E-03  0.1241924E+04  0.7818609E-02  0.9076932E-01
        2   -1    0    0  501    0  0.00000000000E+00  0.00000000000E+00  0.48818751687E+03  0.48818751687E+03  0.25500000920E-02 0. -1.
       -2   -1    0    0    0  501  0.00000000000E+00  0.00000000000E+00 -0.78984781092E+03  0.78984781093E+03  0.25500000920E-02 0.  1.
    10030    2    1    2    0    0  0.00000000000E+00  0.00000000000E+00 -0.30166029406E+03  0.12780353278E+04  0.12419240581E+04 0.  0.
        2    1    3    3  502    0 -0.21808386512E+03  0.32882540848E+03  0.34259812457E+03  0.52255162085E+03  0.25500000920E-02 0. -1.
       -2    1    3    3    0  502  0.21808386512E+03 -0.32882540848E+03 -0.64425841862E+03  0.75548370695E+03  0.25500000920E-02 0.  1.
</event>
<event>
 5   0  0.2938349E-03  0.7985396E+03  0.7818609E-02  0.9562133E-01
       -1   -1    0    0    0  501  0.00000000000E+00  0.00000000000E+00  0.35624018610E+03  0.35624018614E+03  0.50400001928E-02 0. -1.
        1   -1    0    0  501    0  0.00000000000E+00  0.00000000000E+00 -0.44749685938E+03  0.44749685941E+03  0.50400001928E-02 0.  1.
    10030    2    1    2    0    0  0.00000000000E+00  0.00000000000E+00 -0.91256673281E+02  0.80373704554E+03  0.79853957821E+03 0.  0.
        4    1    3    3  502    0 -0.29306040105E+03 -0.79710723219E+02 -0.30649969493E+03  0.43148797660E+03  0.12699999809E+01 0.  1.
       -4    1    3    3    0  502  0.29306040105E+03  0.79710723219E+02  0.21524302165E+03  0.37224906894E+03  0.12699999809E+01 0. -1.
</event>
<event>
 5   0  0.5031575E-03  0.1220159E+04  0.7818609E-02  0.9095392E-01
       -2   -1    0    0    0  501  0.00000000000E+00  0.00000000000E+00  0.84923538395E+03  0.84923538396E+03  0.25500000920E-02 0.  1.
        2   -1    0    0  501    0  0.00000000000E+00  0.00000000000E+00 -0.43827316196E+03  0.43827316196E+03  0.25500000920E-02 0. -1.
    10030    2    1    2    0    0  0.00000000000E+00  0.00000000000E+00  0.41096222200E+03  0.12875085459E+04  0.12201591322E+04 0.  0.
        5    1    3    3  502    0  0.59948570149E+02  0.35488775121E+03  0.72525100563E+03  0.80966058209E+03  0.46999998093E+01 0.  1.
       -5    1    3    3    0  502 -0.59948570149E+02 -0.35488775121E+03 -0.31428878364E+03  0.47784796383E+03  0.46999998093E+01 0. -1.
</event>
<event>
 5   0  0.2926844E-03  0.1192640E+04  0.7818609E-02  0.9119323E-01
       -1   -1    0    0    0  501  0.00000000000E+00  0.00000000000E+00  0.33526966572E+03  0.33526966575E+03  0.50400001928E-02 0. -1.
        1   -1    0    0  501    0  0.00000000000E+00  0.00000000000E+00 -0.10606309546E+04  0.10606309546E+04  0.50400001928E-02 0.  1.
    10030    2    1    2    0    0  0.00000000000E+00  0.00000000000E+00 -0.72536128886E+03  0.13959006203E+04  0.11926397371E+04 0.  0.
        5    1    3    3  502    0  0.19232536419E+03  0.37301466905E+03  0.13312616480E+03  0.44031086154E+03  0.46999998093E+01 0. -1.
       -5    1    3    3    0  502 -0.19232536419E+03 -0.37301466905E+03 -0.85848745366E+03  0.95558975880E+03  0.46999998093E+01 0.  1.
</event>
<event>
 5   0  0.2875848E-03  0.1114337E+04  0.7818609E-02  0.9191330E-01
        1   -1    0    0  501    0  0.00000000000E+00  0.00000000000E+00  0.42678745885E+03  0.42678745888E+03  0.50400001928E-02 0. -1.
       -1   -1    0    0    0  501  0.00000000000E+00  0.00000000000E+00 -0.72737972362E+03  0.72737972364E+03  0.50400001928E-02 0.  1.
    10030    2    1    2    0    0  0.00000000000E+00  0.00000000000E+00 -0.30059226477E+03  0.11541671825E+04  0.11143366527E+04 0.  0.
        1    1    3    3  502    0 -0.39565720263E+03  0.26700044951E+03 -0.44797594232E+03  0.65461156953E+03  0.50400001928E-02 0.  1.
       -1    1    3    3    0  502  0.39565720263E+03 -0.26700044951E+03  0.14738367755E+03  0.49955561299E+03  0.50400001928E-02 0. -1.
</event>
<event>
 5   0  0.5003526E-03  0.1217790E+04  0.7818609E-02  0.9097426E-01
       -2   -1    0    0    0  501  0.00000000000E+00  0.00000000000E+00  0.62304657910E+03  0.62304657910E+03  0.25500000920E-02 0.  1.
        2   -1    0    0  501    0  0.00000000000E+00  0.00000000000E+00 -0.59506512358E+03  0.59506512359E+03  0.25500000920E-02 0. -1.
    10030    2    1    2    0    0  0.00000000000E+00  0.00000000000E+00  0.27981455517E+02  0.12181117027E+04  0.12177902768E+04 0.  0.
        2    1    3    3  502    0  0.55987300361E+03  0.23618430820E+03  0.52891633859E+02  0.60994945082E+03  0.25500000920E-02 0.  1.
       -2    1    3    3    0  502 -0.55987300361E+03 -0.23618430820E+03 -0.24910178342E+02  0.60816225187E+03  0.25500000920E-02 0. -1.
</event>
<event>
 5   0  0.2926844E-03  0.1192405E+04  0.7818609E-02  0.9119531E-01
        1   -1    0    0  501    0  0.00000000000E+00  0.00000000000E+00  0.13677760763E+04  0.13677760763E+04  0.50400001928E-02 0.  1.
       -1   -1    0    0    0  501  0.00000000000E+00  0.00000000000E+00 -0.25987983417E+03  0.25987983422E+03  0.50400001928E-02 0. -1.
    10030    2    1    2    0    0  0.00000000000E+00  0.00000000000E+00  0.11078962421E+04  0.16276559105E+04  0.11924049982E+04 0.  0.
        5    1    3    3  502    0  0.34605120083E+03 -0.37645980103E+03  0.13552590000E+03  0.52902058084E+03  0.46999998093E+01 0. -1.
       -5    1    3    3    0  502 -0.34605120083E+03  0.37645980103E+03  0.97237034210E+03  0.10986353297E+04  0.46999998093E+01 0.  1.
</event>
<event>
 5   0  0.5467554E-03  0.1366298E+04  0.7818609E-02  0.8978582E-01
       -2   -1    0    0    0  501  0.00000000000E+00  0.00000000000E+00  0.34657563446E+03  0.34657563447E+03  0.25500000920E-02 0. -1.
        2   -1    0    0  501    0  0.00000000000E+00  0.00000000000E+00 -0.13465819334E+04  0.13465819334E+04  0.25500000920E-02 0.  1.
    10030    2    1    2    0    0  0.00000000000E+00  0.00000000000E+00 -0.10000062990E+04  0.16931575679E+04  0.13662979001E+04 0.  0.
        1    1    3    3  502    0 -0.24447188289E+03 -0.35867922207E+03  0.15371302210E+03  0.46048341887E+03  0.50400001928E-02 0.  1.
       -1    1    3    3    0  502  0.24447188289E+03  0.35867922207E+03 -0.11537193211E+04  0.12326741490E+04  0.50400001928E-02 0. -1.
</event>
<event>
 5   0  0.2875848E-03  0.1276311E+04  0.7818609E-02  0.9048565E-01
        1   -1    0    0  501    0  0.00000000000E+00  0.00000000000E+00  0.42707541643E+03  0.42707541646E+03  0.50400001928E-02 0. -1.
       -1   -1    0    0    0  501  0.00000000000E+00  0.00000000000E+00 -0.95356033574E+03  0.95356033576E+03  0.50400001928E-02 0.  1.
    10030    2    1    2    0    0  0.00000000000E+00  0.00000000000E+00 -0.52648491932E+03  0.13806357522E+04  0.12763105853E+04 0.  0.
        1    1    3    3  502    0  0.35908316597E+03  0.25599041455E+03  0.23573199672E+03  0.50004138502E+03  0.50400001928E-02 0. -1.
       -1    1    3    3    0  502 -0.35908316597E+03 -0.25599041455E+03 -0.76221691604E+03  0.88059436720E+03  0.50400001928E-02 0.  1.
</event>
<event>
 5   0  0.2792518E-03  0.1123777E+04  0.7818609E-02  0.9182322E-01
       -1   -1    0    0    0  501  0.00000000000E+00  0.00000000000E+00  0.12334125106E+04  0.12334125106E+04  0.50400001928E-02 0.  1.
        1   -1    0    0  501    0  0.00000000000E+00  0.00000000000E+00 -0.25597158936E+03  0.25597158941E+03  0.50400001928E-02 0. -1.
    10030    2    1    2    0    0  0.00000000000E+00  0.00000000000E+00  0.97744092127E+03  0.14893841001E+04  0.11237767763E+04 0.  0.
        2    1    3    3  502    0 -0.23192391065E+03  0.17591280823E+03  0.11256892031E+04  0.11627167318E+04  0.25500000920E-02 0.  1.
       -2    1    3    3    0  502  0.23192391065E+03 -0.17591280823E+03 -0.14824828181E+03  0.32666736828E+03  0.25500000920E-02 0. -1.
</event>
<event>
 5   0  0.5189537E-03  0.1216963E+04  0.7818609E-02  0.9098137E-01
       -2   -1    0    0    0  501  0.00000000000E+00  0.00000000000E+00  0.31654743233E+03  0.31654743234E+03  0.25500000920E-02 0.  1.
        2   -1    0    0  501    0  0.00000000000E+00  0.00000000000E+00 -0.11696502658E+04  0.11696502658E+04  0.25500000920E-02 0. -1.
    10030    2    1    2    0    0  0.00000000000E+00  0.00000000000E+00 -0.85310283348E+03  0.14861976982E+04  0.12169630863E+04 0.  0.
        4    1    3    3  502    0 -0.48308423448E+03 -0.17182486375E+03 -0.82668805865E+03  0.97278410793E+03  0.12699999809E+01 0. -1.
       -4    1    3    3    0  502  0.48308423448E+03  0.17182486375E+03 -0.26414774828E+02  0.51341359024E+03  0.12699999809E+01 0.  1.
</event>
<event>
 5   0  0.5003526E-03  0.1188029E+04  0.7818609E-02  0.9123400E-01
        2   -1    0    0  501    0  0.00000000000E+00  0.00000000000E+00  0.17755808307E+04  0.17755808307E+04  0.25500000920E-02 0. -1.
       -2   -1    0    0    0  501  0.00000000000E+00  0.00000000000E+00 -0.19872537179E+03  0.19872537181E+03  0.25500000920E-02 0.  1.
    10030    2    1    2    0    0  0.00000000000E+00  0.00000000000E+00  0.15768554589E+04  0.19743062025E+04  0.11880285531E+04 0.  0.
        2    1    3    3  502    0 -0.52453436169E+01 -0.43533892501E+03  0.11686282224E+03  0.45078200107E+03  0.25500000920E-02 0.  1.
       -2    1    3    3    0  502  0.52453436169E+01  0.43533892501E+03  0.14599926366E+04  0.15235242014E+04  0.25500000920E-02 0. -1.
</event>
<event>
 5   0  0.5189537E-03  0.1201837E+04  0.7818609E-02  0.9111250E-01
       -2   -1    0    0    0  501  0.00000000000E+00  0.00000000000E+00  0.11555286866E+04  0.11555286866E+04  0.25500000920E-02 0. -1.
        2   -1    0    0  501    0  0.00000000000E+00  0.00000000000E+00 -0.31250051692E+03  0.31250051693E+03  0.25500000920E-02 0.  1.
    10030    2    1    2    0    0  0.00000000000E+00  0.00000000000E+00  0.84302816963E+03  0.14680292035E+04  0.12018374464E+04 0.  0.
        4    1    3    3  502    0  0.12394994565E+03 -0.53295896276E+03  0.11812049939E+03  0.55978827274E+03  0.12699999809E+01 0.  1.
       -4    1    3    3    0  502 -0.12394994565E+03  0.53295896276E+03  0.72490767024E+03  0.90824093075E+03  0.12699999809E+01 0. -1.
</event>
<event>
 5   0  0.2792518E-03  0.1124026E+04  0.7818609E-02  0.9182086E-01
        1   -1    0    0  501    0  0.00000000000E+00  0.00000000000E+00  0.11748003752E+04  0.11748003753E+04  0.50400001928E-02 0.  1.
       -1   -1    0    0    0  501  0.00000000000E+00  0.00000000000E+00 -0.26886163444E+03  0.26886163449E+03  0.50400001928E-02 0. -1.
    10030    2    1    2    0    0  0.00000000000E+00  0.00000000000E+00  0.90593874081E+03  0.14436620097E+04  0.11240262436E+04 0.  0.
        2    1    3    3  502    0  0.31763820683E+03  0.40663307035E+03  0.16688616929E+03  0.54230570516E+03  0.25500000920E-02 0.  1.
       -2    1    3    3    0  502 -0.31763820683E+03 -0.40663307035E+03  0.73905257151E+03  0.90135630458E+03  0.25500000920E-02 0. -1.
</event>
<event>
 5   0  0.5467554E-03  0.1276011E+04  0.7818609E-02  0.9048808E-01
        2   -1    0    0  501    0  0.00000000000E+00  0.00000000000E+00  0.16630101964E+04  0.16630101964E+04  0.25500000920E-02 0.  1.
       -2   -1    0    0    0  501  0.00000000000E+00  0.00000000000E+00 -0.24476768216E+03  0.24476768217E+03  0.25500000920E-02 0. -1.
    10030    2    1    2    0    0  0.00000000000E+00  0.00000000000E+00  0.14182425142E+04  0.19077778786E+04  0.12760112087E+04 0.  0.
        1    1    3    3  502    0  0.36859945853E+03  0.48329725661E+03  0.99907001006E+03  0.11694369090E+04  0.50400001928E-02 0.  1.
       -1    1    3    3    0  502 -0.36859945853E+03 -0.48329725661E+03  0.41917250417E+03  0.73834096957E+03  0.50400001928E-02 0. -1.
</event>
<event>
 5   0  0.2938349E-03  0.1194053E+04  0.7818609E-02  0.9118078E-01
       -1   -1    0    0    0  501  0.00000000000E+00  0.00000000000E+00  0.51484623577E+03  0.51484623579E+03  0.50400001928E-02 0. -1.
        1   -1    0    0  501    0  0.00000000000E+00  0.00000000000E+00 -0.69232492808E+03  0.69232492810E+03  0.50400001928E-02 0.  1.
    10030    2    1    2    0    0  0.00000000000E+00  0.00000000000E+00 -0.17747869231E+03  0.12071711639E+04  0.11940534045E+04 0.  0.
        4    1    3    3  502    0  0.25186174044E+03  0.19837400676E+03  0.42043303170E+03  0.52872689539E+03  0.12699999809E+01 0. -1.
       -4    1    3    3    0  502 -0.25186174044E+03 -0.19837400676E+03 -0.59791172402E+03  0.67844426851E+03  0.12699999809E+01 0.  1.
</event>
<event>
 5   0  0.2792518E-03  0.1231670E+04  0.7818609E-02  0.9085579E-01
        1   -1    0    0  501    0  0.00000000000E+00  0.00000000000E+00  0.53122448181E+03  0.53122448184E+03  0.50400001928E-02 0.  1.
       -1   -1    0    0    0  501  0.00000000000E+00  0.00000000000E+00 -0.71392195930E+03  0.71392195932E+03  0.50400001928E-02 0. -1.
    10030    2    1    2    0    0  0.00000000000E+00  0.00000000000E+00 -0.18269747749E+03  0.12451464412E+04  0.12316701229E+04 0.  0.
        2    1    3    3  502    0  0.56394342836E+03  0.22464354209E+03 -0.19619420011E+03  0.63795695432E+03  0.25500000920E-02 0. -1.
       -2    1    3    3    0  502 -0.56394342836E+03 -0.22464354209E+03  0.13496722622E+02  0.60718948684E+03  0.25500000920E-02 0.  1.
</event>
<event>
 5   0  0.2875848E-03  0.1197023E+04  0.7818609E-02  0.9115466E-01
       -1   -1    0    0    0  501  0.00000000000E+00  0.00000000000E+00  0.44195972863E+03  0.44195972865E+03  0.50400001928E-02 0.  1.
        1   -1    0    0  501    0  0.00000000000E+00  0.00000000000E+00 -0.81051770794E+03  0.81051770796E+03  0.50400001928E-02 0. -1.
    10030    2    1    2    0    0  0.00000000000E+00  0.00000000000E+00 -0.36855797932E+03  0.12524774366E+04  0.11970232851E+04 0.  0.
        1    1    3    3  502    0  0.39659581991E+03 -0.13961302820E+03  0.26140724025E+03  0.49508967601E+03  0.50400001928E-02 0.  1.
       -1    1    3    3    0  502 -0.39659581991E+03  0.13961302820E+03 -0.62996521956E+03  0.75738776060E+03  0.50400001928E-02 0. -1.
</event>
<event>
 5   0  0.5467554E-03  0.1279616E+04  0.7818609E-02  0.9045888E-01
       -2   -1    0    0    0  501  0.00000000000E+00  0.00000000000E+00  0.26238818472E+03  0.26238818473E+03  0.25500000920E-02 0. -1.
        2   -1    0    0  501    0  0.00000000000E+00  0.00000000000E+00 -0.15601097221E+04  0.15601097221E+04  0.25500000920E-02 0.  1.
    10030    2    1    2    0    0  0.00000000000E+00  0.00000000000E+00 -0.12977215373E+04  0.18224979068E+04  0.12796161267E+04 0.  0.
        1    1    3    3  502    0 -0.49985781708E+03  0.38137165521E+03 -0.48002704294E+03  0.79102979633E+03  0.50400001928E-02 0. -1.
       -1    1    3    3    0  502  0.49985781708E+03 -0.38137165521E+03 -0.81769449440E+03  0.10314681105E+04  0.50400001928E-02 0.  1.
</event>
<event>
 5   0  0.2930868E-03  0.1239795E+04  0.7818609E-02  0.9078720E-01
       -1   -1    0    0    0  501  0.00000000000E+00  0.00000000000E+00  0.74474869007E+03  0.74474869009E+03  0.50400001928E-02 0. -1.
        1   -1    0    0  501    0  0.00000000000E+00  0.00000000000E+00 -0.51597674253E+03  0.51597674255E+03  0.50400001928E-02 0.  1.
    10030    2    1    2    0    0  0.00000000000E+00  0.00000000000E+00  0.22877194754E+03  0.12607254326E+04  0.12397951494E+04 0.  0.
        3    1    3    3  502    0  0.46147351986E+03 -0.25017478674E+03 -0.22091962138E+03  0.56951797405E+03  0.10100000352E+00 0.  1.
       -3    1    3    3    0  502 -0.46147351986E+03  0.25017478674E+03  0.44969156892E+03  0.69120745859E+03  0.10100000352E+00 0. -1.
</event>
<event>
 5   0  0.2926844E-03  0.1203196E+04  0.7818609E-02  0.9110063E-01
        1   -1    0    0  501    0  0.00000000000E+00  0.00000000000E+00  0.35521397823E+03  0.35521397827E+03  0.50400001928E-02 0.  1.
       -1   -1    0    0    0  501  0.00000000000E+00  0.00000000000E+00 -0.10188798625E+04  0.10188798625E+04  0.50400001928E-02 0. -1.
    10030    2    1    2    0    0  0.00000000000E+00  0.00000000000E+00 -0.66366588430E+03  0.13740938408E+04  0.12031963586E+04 0.  0.
        5    1    3    3  502    0 -0.78656164582E+02  0.59092687229E+03 -0.23963928639E+03  0.64251882323E+03  0.46999998093E+01 0. -1.
       -5    1    3    3    0  502  0.78656164582E+02 -0.59092687229E+03 -0.42402659791E+03  0.73157501758E+03  0.46999998093E+01 0.  1.
</event>
<event>
 5   0  0.2930868E-03  0.1217726E+04  0.7818609E-02  0.9097481E-01
       -1   -1    0    0    0  501  0.00000000000E+00  0.00000000000E+00  0.51156251575E+03  0.51156251577E+03  0.50400001928E-02 0.  1.
        1   -1    0    0  501    0  0.00000000000E+00  0.00000000000E+00 -0.72467031587E+03  0.72467031589E+03  0.50400001928E-02 0. -1.
    10030    2    1    2    0    0  0.00000000000E+00  0.00000000000E+00 -0.21310780012E+03  0.12362328317E+04  0.12177260281E+04 0.  0.
        3    1    3    3  502    0 -0.44470434423E+01  0.54812469232E+03 -0.37563630549E+03  0.66450214351E+03  0.10100000352E+00 0. -1.
       -3    1    3    3    0  502  0.44470434423E+01 -0.54812469232E+03  0.16252850537E+03  0.57173068816E+03  0.10100000352E+00 0.  1.
</event>
<event>
 5   0  0.5003526E-03  0.1189028E+04  0.7818609E-02  0.9122515E-01
        2   -1    0    0  501    0  0.00000000000E+00  0.00000000000E+00  0.15001229381E+04  0.15001229381E+04  0.25500000920E-02 0.  1.
       -2   -1    0    0    0  501  0.00000000000E+00  0.00000000000E+00 -0.23561183149E+03  0.23561183151E+03  0.25500000920E-02 0. -1.
    10030    2    1    2    0    0  0.00000000000E+00  0.00000000000E+00  0.12645111066E+04  0.17357347696E+04  0.11890276917E+04 0.  0.
        2    1    3    3  502    0 -0.34975158027E+03 -0.36334708127E+03  0.17271165724E+03  0.53308215682E+03  0.25500000920E-02 0. -1.
       -2    1    3    3    0  502  0.34975158027E+03  0.36334708127E+03  0.10917994493E+04  0.12026526127E+04  0.25500000920E-02 0.  1.
</event>
<event>
 5   0  0.5003526E-03  0.1200999E+04  0.7818609E-02  0.9111982E-01
        2   -1    0    0  501    0  0.00000000000E+00  0.00000000000E+00  0.43763153031E+03  0.43763153031E+03  0.25500000920E-02 0. -1.
       -2   -1    0    0    0  501  0.00000000000E+00  0.00000000000E+00 -0.82398043567E+03  0.82398043567E+03  0.25500000920E-02 0.  1.
    10030    2    1    2    0    0  0.00000000000E+00  0.00000000000E+00 -0.38634890536E+03  0.12616119660E+04  0.12009992823E+04 0.  0.
        2    1    3    3  502    0  0.51998204293E+03  0.26443759339E+03 -0.34281093395E+03  0.67662981179E+03  0.25500000920E-02 0.  1.
       -2    1    3    3    0  502 -0.51998204293E+03 -0.26443759339E+03 -0.43537971415E+02  0.58498215420E+03  0.25500000920E-02 0. -1.
</event>
<event>
 5   0  0.5189537E-03  0.1210755E+04  0.7818609E-02  0.9103494E-01
       -2   -1    0    0    0  501  0.00000000000E+00  0.00000000000E+00  0.44598058436E+03  0.44598058436E+03  0.25500000920E-02 0.  1.
        2   -1    0    0  501    0  0.00000000000E+00  0.00000000000E+00 -0.82174438267E+03  0.82174438268E+03  0.25500000920E-02 0. -1.
    10030    2    1    2    0    0  0.00000000000E+00  0.00000000000E+00 -0.37576379832E+03  0.12677249670E+04  0.12107552023E+04 0.  0.
        4    1    3    3  502    0  0.13012518451E+03  0.41821347090E+03 -0.62545157877E+03  0.76356162893E+03  0.12699999809E+01 0. -1.
       -4    1    3    3    0  502 -0.13012518451E+03 -0.41821347090E+03  0.24968778045E+03  0.50416333811E+03  0.12699999809E+01 0.  1.
</event>
<event>
 5   0  0.1922125E-03  0.1182501E+04  0.7818609E-02  0.9128313E-01
        3   -1    0    0  501    0  0.00000000000E+00  0.00000000000E+00  0.23913249445E+03  0.23913251578E+03  0.10100000352E+00 0. -1.
       -3   -1    0    0    0  501  0.00000000000E+00  0.00000000000E+00 -0.14618542886E+04  0.14618542921E+04  0.10100000352E+00 0.  1.
    10030    2    1    2    0    0  0.00000000000E+00  0.00000000000E+00 -0.12227217942E+04  0.17009868079E+04  0.11825005432E+04 0.  0.
        1    1    3    3  502    0 -0.42059947169E+03 -0.11273954801E+03 -0.36041463568E+02  0.43693604611E+03  0.50400001928E-02 0. -1.
       -1    1    3    3    0  502  0.42059947169E+03  0.11273954801E+03 -0.11866803306E+04  0.12640507618E+04  0.50400001928E-02 0.  1.
</event>
<event>
 5   0  0.2930868E-03  0.1188261E+04  0.7818609E-02  0.9123194E-01
       -1   -1    0    0    0  501  0.00000000000E+00  0.00000000000E+00  0.28585464227E+03  0.28585464232E+03  0.50400001928E-02 0. -1.
        1   -1    0    0  501    0  0.00000000000E+00  0.00000000000E+00 -0.12348614748E+04  0.12348614748E+04  0.50400001928E-02 0.  1.
    10030    2    1    2    0    0  0.00000000000E+00  0.00000000000E+00 -0.94900683253E+03  0.15207161171E+04  0.11882607208E+04 0.  0.
        3    1    3    3  502    0 -0.46143256376E+02  0.41054596420E+03 -0.10209478966E+04  0.11013681522E+04  0.10100000352E+00 0.  1.
       -3    1    3    3    0  502  0.46143256376E+02 -0.41054596420E+03  0.71941064058E+02  0.41934796498E+03  0.10100000352E+00 0. -1.
</event>
<event>
 5   0  0.2938349E-03  0.1386229E+04  0.7818609E-02  0.8963847E-01
       -1   -1    0    0    0  501  0.00000000000E+00  0.00000000000E+00  0.11031310728E+04  0.11031310728E+04  0.50400001928E-02 0. -1.
        1   -1    0    0  501    0  0.00000000000E+00  0.00000000000E+00 -0.43549478988E+03  0.43549478991E+03  0.50400001928E-02 0.  1.
    10030    2    1    2    0    0  0.00000000000E+00  0.00000000000E+00  0.66763628289E+03  0.15386258627E+04  0.13862291799E+04 0.  0.
        4    1    3    3  502    0  0.57078442968E+03 -0.37606834979E+03  0.46126255845E+03  0.82461326062E+03  0.12699999809E+01 0. -1.
       -4    1    3    3    0  502 -0.57078442968E+03  0.37606834979E+03  0.20637372445E+03  0.71401260207E+03  0.12699999809E+01 0.  1.
</event>
<event>
 5   0  0.5031575E-03  0.1193833E+04  0.7818609E-02  0.9118272E-01
       -2   -1    0    0    0  501  0.00000000000E+00  0.00000000000E+00  0.31586580404E+03  0.31586580405E+03  0.25500000920E-02 0.  1.
        2   -1    0    0  501    0  0.00000000000E+00  0.00000000000E+00 -0.11280402606E+04  0.11280402606E+04  0.25500000920E-02 0. -1.
    10030    2    1    2    0    0  0.00000000000E+00  0.00000000000E+00 -0.81217445656E+03  0.14439060646E+04  0.11938330602E+04 0.  0.
        5    1    3    3  502    0 -0.45865695538E+03  0.36215779731E+03 -0.25913389944E+03  0.63929409563E+03  0.46999998093E+01 0. -1.
       -5    1    3    3    0  502  0.45865695538E+03 -0.36215779731E+03 -0.55304055712E+03  0.80461196902E+03  0.46999998093E+01 0.  1.
</event>
<event>
 5   0  0.2926844E-03  0.1229817E+04  0.7818609E-02  0.9087150E-01
       -1   -1    0    0    0  501  0.00000000000E+00  0.00000000000E+00  0.66276207152E+03  0.66276207154E+03  0.50400001928E-02 0.  1.
        1   -1    0    0  501    0  0.00000000000E+00  0.00000000000E+00 -0.57051052138E+03  0.57051052140E+03  0.50400001928E-02 0. -1.
    10030    2    1    2    0    0  0.00000000000E+00  0.00000000000E+00  0.92251550138E+02  0.12332725929E+04  0.12298174417E+04 0.  0.
        5    1    3    3  502    0 -0.49656876765E+03 -0.35986354908E+03  0.11854743598E+01  0.61327466140E+03  0.46999998093E+01 0. -1.
       -5    1    3    3    0  502  0.49656876765E+03  0.35986354908E+03  0.91066075779E+02  0.61999793154E+03  0.46999998093E+01 0.  1.
</event>
<event>
 5   0  0.2792518E-03  0.1169671E+04  0.7818609E-02  0.9139825E-01
       -1   -1    0    0    0  501  0.00000000000E+00  0.00000000000E+00  0.29556090348E+03  0.29556090352E+03  0.50400001928E-02 0.  1.
        1   -1    0    0  501    0  0.00000000000E+00  0.00000000000E+00 -0.11572326726E+04  0.11572326726E+04  0.50400001928E-02 0. -1.
    10030    2    1    2    0    0  0.00000000000E+00  0.00000000000E+00 -0.86167176916E+03  0.14527935762E+04  0.11696712945E+04 0.  0.
        2    1    3    3  502    0  0.99284794578E+02 -0.57324808728E+03 -0.50496359598E+03  0.77036294905E+03  0.25500000920E-02 0.  1.
       -2    1    3    3    0  502 -0.99284794578E+02  0.57324808728E+03 -0.35670817318E+03  0.68243062711E+03  0.25500000920E-02 0. -1.
</event>
<event>
 5   0  0.5031575E-03  0.1266781E+04  0.7818609E-02  0.9056331E-01
        2   -1    0    0  501    0  0.00000000000E+00  0.00000000000E+00  0.12219029554E+04  0.12219029554E+04  0.25500000920E-02 0. -1.
       -2   -1    0    0    0  501  0.00000000000E+00  0.00000000000E+00 -0.32832670148E+03  0.32832670149E+03  0.25500000920E-02 0.  1.
    10030    2    1    2    0    0  0.00000000000E+00  0.00000000000E+00  0.89357625391E+03  0.15502296569E+04  0.12667807496E+04 0.  0.
        5    1    3    3  502    0 -0.38933195932E+03  0.16091178800E+02  0.10578367042E+04  0.11273326409E+04  0.46999998093E+01 0.  1.
       -5    1    3    3    0  502  0.38933195932E+03 -0.16091178800E+02 -0.16426045027E+03  0.42289701596E+03  0.46999998093E+01 0. -1.
</event>
<event>
 5   0  0.2930868E-03  0.1201692E+04  0.7818609E-02  0.9111377E-01
        1   -1    0    0  501    0  0.00000000000E+00  0.00000000000E+00  0.12858821540E+04  0.12858821541E+04  0.50400001928E-02 0. -1.
       -1   -1    0    0    0  501  0.00000000000E+00  0.00000000000E+00 -0.28075328017E+03  0.28075328022E+03  0.50400001928E-02 0.  1.
    10030    2    1    2    0    0  0.00000000000E+00  0.00000000000E+00  0.10051288739E+04  0.15666354343E+04  0.12016915290E+04 0.  0.
        3    1    3    3  502    0  0.24424590267E+03 -0.93742649546E+02 -0.20260135236E+03  0.33089433887E+03  0.10100000352E+00 0.  1.
       -3    1    3    3    0  502 -0.24424590267E+03  0.93742649546E+02  0.12077302262E+04  0.12357410954E+04  0.10100000352E+00 0. -1.
</event>
<event>
 5   0  0.2930868E-03  0.1176672E+04  0.7818609E-02  0.9133524E-01
       -1   -1    0    0    0  501  0.00000000000E+00  0.00000000000E+00  0.80661697499E+03  0.80661697501E+03  0.50400001928E-02 0.  1.
        1   -1    0    0  501    0  0.00000000000E+00  0.00000000000E+00 -0.42912446129E+03  0.42912446132E+03  0.50400001928E-02 0. -1.
    10030    2    1    2    0    0  0.00000000000E+00  0.00000000000E+00  0.37749251370E+03  0.12357414363E+04  0.11766717042E+04 0.  0.
        3    1    3    3  502    0  0.15183186980E+02  0.18321384426E+03 -0.39818461383E+03  0.43857592135E+03  0.10100000352E+00 0. -1.
       -3    1    3    3    0  502 -0.15183186980E+02 -0.18321384426E+03  0.77567712753E+03  0.79716551498E+03  0.10100000352E+00 0.  1.
</event>
<event>
 5   0  0.2930868E-03  0.1214746E+04  0.7818609E-02  0.9100046E-01
        1   -1    0    0  501    0  0.00000000000E+00  0.00000000000E+00  0.13233392116E+04  0.13233392116E+04  0.50400001928E-02 0. -1.
       -1   -1    0    0    0  501  0.00000000000E+00  0.00000000000E+00 -0.27876616467E+03  0.27876616471E+03  0.50400001928E-02 0.  1.
    10030    2    1    2    0    0  0.00000000000E+00  0.00000000000E+00  0.10445730469E+04  0.16021053763E+04  0.12147463877E+04 0.  0.
        3    1    3    3  502    0 -0.64650395490E+02  0.37382433977E+03  0.11478557371E+04  0.12089239488E+04  0.10100000352E+00 0. -1.
       -3    1    3    3    0  502  0.64650395490E+02 -0.37382433977E+03 -0.10328269016E+03  0.39318142750E+03  0.10100000352E+00 0.  1.
</event>
<event>
 5   0  0.1922125E-03  0.1211329E+04  0.7818609E-02  0.9102998E-01
       -4   -1    0    0    0  501  0.00000000000E+00  0.00000000000E+00  0.60878353759E+03  0.60878486228E+03  0.12699999809E+01 0. -1.
        4   -1    0    0  501    0  0.00000000000E+00  0.00000000000E+00 -0.60255840246E+03  0.60255974083E+03  0.12699999809E+01 0.  1.
    10030    2    1    2    0    0  0.00000000000E+00  0.00000000000E+00  0.62251351319E+01  0.12113446031E+04  0.12113286074E+04 0.  0.
        5    1    3    3  502    0  0.31376034166E+03  0.74231107594E+02 -0.50958450815E+03  0.60303753638E+03  0.46999998093E+01 0.  1.
       -5    1    3    3    0  502 -0.31376034166E+03 -0.74231107594E+02  0.51580964329E+03  0.60830706674E+03  0.46999998093E+01 0. -1.
</event>
<event>
 5   0  0.2938349E-03  0.1176603E+04  0.7818609E-02  0.9133586E-01
        1   -1    0    0  501    0  0.00000000000E+00  0.00000000000E+00  0.84568548782E+03  0.84568548783E+03  0.50400001928E-02 0. -1.
       -1   -1    0    0    0  501  0.00000000000E+00  0.00000000000E+00 -0.40925228850E+03  0.40925228854E+03  0.50400001928E-02 0.  1.
    10030    2    1    2    0    0  0.00000000000E+00  0.00000000000E+00  0.43643319931E+03  0.12549377764E+04  0.11766031128E+04 0.  0.
        4    1    3    3  502    0  0.40907310033E+03 -0.20787111143E+03  0.61089354620E+03  0.76403124156E+03  0.12699999809E+01 0. -1.
       -4    1    3    3    0  502 -0.40907310033E+03  0.20787111143E+03 -0.17446034689E+03  0.49090653481E+03  0.12699999809E+01 0.  1.
</event>
<event>
 5   0  0.2938349E-03  0.1201923E+04  0.7818609E-02  0.9111175E-01
       -1   -1    0    0    0  501  0.00000000000E+00  0.00000000000E+00  0.56082780221E+03  0.56082780223E+03  0.50400001928E-02 0. -1.
        1   -1    0    0  501    0  0.00000000000E+00  0.00000000000E+00 -0.64396764772E+03  0.64396764774E+03  0.50400001928E-02 0.  1.
    10030    2    1    2    0    0  0.00000000000E+00  0.00000000000E+00 -0.83139845514E+02  0.12047954500E+04  0.12019233929E+04 0.  0.
        4    1    3    3  502    0  0.24816605286E+02  0.17833155897E+03  0.53315459870E+03  0.56273745906E+03  0.12699999809E+01 0. -1.
       -4    1    3    3    0  502 -0.24816605286E+02 -0.17833155897E+03 -0.61629444421E+03  0.64205799091E+03  0.12699999809E+01 0.  1.
</event>
<event>
 5   0  0.5108045E-03  0.1135571E+04  0.7818609E-02  0.9171199E-01
        2   -1    0    0  501    0  0.00000000000E+00  0.00000000000E+00  0.41844139684E+03  0.41844139685E+03  0.25500000920E-02 0. -1.
       -2   -1    0    0    0  501  0.00000000000E+00  0.00000000000E+00 -0.77043127648E+03  0.77043127648E+03  0.25500000920E-02 0.  1.
    10030    2    1    2    0    0  0.00000000000E+00  0.00000000000E+00 -0.35198987964E+03  0.11888726733E+04  0.11355709392E+04 0.  0.
        3    1    3    3  502    0  0.31789488715E+03  0.26180478482E+03  0.23322459059E+03  0.47327859077E+03  0.10100000352E+00 0. -1.
       -3    1    3    3    0  502 -0.31789488715E+03 -0.26180478482E+03 -0.58521447023E+03  0.71559408256E+03  0.10100000352E+00 0.  1.
</event>
<event>
 5   0  0.5189537E-03  0.1219247E+04  0.7818609E-02  0.9096175E-01
       -2   -1    0    0    0  501  0.00000000000E+00  0.00000000000E+00  0.95975998409E+03  0.95975998410E+03  0.25500000920E-02 0. -1.
        2   -1    0    0  501    0  0.00000000000E+00  0.00000000000E+00 -0.38722235433E+03  0.38722235434E+03  0.25500000920E-02 0.  1.
    10030    2    1    2    0    0  0.00000000000E+00  0.00000000000E+00  0.57253762976E+03  0.13469823384E+04  0.12192465225E+04 0.  0.
        4    1    3    3  502    0  0.53315954885E+03  0.19427599567E+03  0.40134839221E+02  0.56887141363E+03  0.12699999809E+01 0. -1.
       -4    1    3    3    0  502 -0.53315954885E+03 -0.19427599567E+03  0.53240279054E+03  0.77811092481E+03  0.12699999809E+01 0.  1.
</event>
<event>
 5   0  0.5189537E-03  0.1238019E+04  0.7818609E-02  0.9080214E-01
       -2   -1    0    0    0  501  0.00000000000E+00  0.00000000000E+00  0.65474710552E+03  0.65474710552E+03  0.25500000920E-02 0. -1.
        2   -1    0    0  501    0  0.00000000000E+00  0.00000000000E+00 -0.58522273574E+03  0.58522273574E+03  0.25500000920E-02 0.  1.
    10030    2    1    2    0    0  0.00000000000E+00  0.00000000000E+00  0.69524369784E+02  0.12399698413E+04  0.12380192120E+04 0.  0.
        4    1    3    3  502    0 -0.52795109779E+03 -0.22737246144E+03 -0.19525305248E+03  0.60708810340E+03  0.12699999809E+01 0.  1.
       -4    1    3    3    0  502  0.52795109779E+03  0.22737246144E+03  0.26477742226E+03  0.63288173787E+03  0.12699999809E+01 0. -1.
</event>
<event>
 5   0  0.2926844E-03  0.1195325E+04  0.7818609E-02  0.9116958E-01
       -1   -1    0    0    0  501  0.00000000000E+00  0.00000000000E+00  0.60778980801E+03  0.60778980803E+03  0.50400001928E-02 0.  1.
        1   -1    0    0  501    0  0.00000000000E+00  0.00000000000E+00 -0.58770419788E+03  0.58770419790E+03  0.50400001928E-02 0. -1.
    10030    2    1    2    0    0  0.00000000000E+00  0.00000000000E+00  0.20085610129E+02  0.11954940059E+04  0.11953252639E+04 0.  0.
        5    1    3    3  502    0  0.23941739561E+03 -0.44781856882E+03 -0.30514668452E+03  0.59245147394E+03  0.46999998093E+01 0. -1.
       -5    1    3    3    0  502 -0.23941739561E+03  0.44781856882E+03  0.32523229465E+03  0.60304253199E+03  0.46999998093E+01 0.  1.
</event>
<event>
 5   0  0.2930868E-03  0.1204278E+04  0.7818609E-02  0.9109120E-01
        1   -1    0    0  501    0  0.00000000000E+00  0.00000000000E+00  0.11575089995E+04  0.11575089995E+04  0.50400001928E-02 0.  1.
       -1   -1    0    0    0  501  0.00000000000E+00  0.00000000000E+00 -0.31323442720E+03  0.31323442724E+03  0.50400001928E-02 0. -1.
    10030    2    1    2    0    0  0.00000000000E+00  0.00000000000E+00  0.84427457229E+03  0.14707434267E+04  0.12042784868E+04 0.  0.
        3    1    3    3  502    0 -0.31259212566E+03  0.35509709663E+03  0.87707107564E+03  0.99652469462E+03  0.10100000352E+00 0.  1.
       -3    1    3    3    0  502  0.31259212566E+03 -0.35509709663E+03 -0.32796503348E+02  0.47421873212E+03  0.10100000352E+00 0. -1.
</event>
<event>
 5   0  0.5189537E-03  0.1038277E+04  0.7818609E-02  0.9267532E-01
       -2   -1    0    0    0  501  0.00000000000E+00  0.00000000000E+00  0.66092669160E+03  0.66092669160E+03  0.25500000920E-02 0. -1.
        2   -1    0    0  501    0  0.00000000000E+00  0.00000000000E+00 -0.40776805227E+03  0.40776805227E+03  0.25500000920E-02 0.  1.
    10030    2    1    2    0    0  0.00000000000E+00  0.00000000000E+00  0.25315863933E+03  0.10686947439E+04  0.10382770145E+04 0.  0.
        4    1    3    3  502    0 -0.20556476669E+03 -0.57400141041E+02  0.61367855530E+03  0.64973427771E+03  0.12699999809E+01 0. -1.
       -4    1    3    3    0  502  0.20556476669E+03  0.57400141041E+02 -0.36051991597E+03  0.41896046616E+03  0.12699999809E+01 0.  1.
</event>
<event>
 5   0  0.5031575E-03  0.1191700E+04  0.7818609E-02  0.9120152E-01
        2   -1    0    0  501    0  0.00000000000E+00  0.00000000000E+00  0.81164978893E+03  0.81164978893E+03  0.25500000920E-02 0.  1.
       -2   -1    0    0    0  501  0.00000000000E+00  0.00000000000E+00 -0.43742694652E+03  0.43742694652E+03  0.25500000920E-02 0. -1.
    10030    2    1    2    0    0  0.00000000000E+00  0.00000000000E+00  0.37422284241E+03  0.12490767355E+04  0.11917004470E+04 0.  0.
        5    1    3    3  502    0  0.41331841934E+03 -0.36381289520E+03  0.42571954255E+03  0.69602525629E+03  0.46999998093E+01 0. -1.
       -5    1    3    3    0  502 -0.41331841934E+03  0.36381289520E+03 -0.51496700139E+02  0.55305147917E+03  0.46999998093E+01 0.  1.
</event>
<event>
 5   0  0.2926844E-03  0.1194373E+04  0.7818609E-02  0.9117797E-01
        1   -1    0    0  501    0  0.00000000000E+00  0.00000000000E+00  0.11247318722E+04  0.11247318722E+04  0.50400001928E-02 0.  1.
       -1   -1    0    0    0  501  0.00000000000E+00  0.00000000000E+00 -0.31708130385E+03  0.31708130389E+03  0.50400001928E-02 0. -1.
    10030    2    1    2    0    0  0.00000000000E+00  0.00000000000E+00  0.80765056830E+03  0.14418131761E+04  0.11943725525E+04 0.  0.
        5    1    3    3  502    0 -0.90987803968E+02  0.53749436864E+03  0.69811388187E+03  0.88575620734E+03  0.46999998093E+01 0.  1.
       -5    1    3    3    0  502  0.90987803968E+02 -0.53749436864E+03  0.10953668643E+03  0.55605696872E+03  0.46999998093E+01 0. -1.
</event>
<event>
 5   0  0.2930868E-03  0.1234330E+04  0.7818609E-02  0.9083327E-01
        1   -1    0    0  501    0  0.00000000000E+00  0.00000000000E+00  0.11267881334E+04  0.11267881334E+04  0.50400001928E-02 0. -1.
       -1   -1    0    0    0  501  0.00000000000E+00  0.00000000000E+00 -0.33803379465E+03  0.33803379469E+03  0.50400001928E-02 0.  1.
    10030    2    1    2    0    0  0.00000000000E+00  0.00000000000E+00  0.78875433871E+03  0.14648219281E+04  0.12343297267E+04 0.  0.
        3    1    3    3  502    0 -0.31559779906E+03  0.26119953501E+03  0.94216199497E+03  0.10273735459E+04  0.10100000352E+00 0. -1.
       -3    1    3    3    0  502  0.31559779906E+03 -0.26119953501E+03 -0.15340765626E+03  0.43744838216E+03  0.10100000352E+00 0.  1.
</event>
<event>
 5   0  0.5003526E-03  0.1237620E+04  0.7818609E-02  0.9080551E-01
       -2   -1    0    0    0  501  0.00000000000E+00  0.00000000000E+00  0.43913173762E+03  0.43913173763E+03  0.25500000920E-02 0. -1.
        2   -1    0    0  501    0  0.00000000000E+00  0.00000000000E+00 -0.87200644130E+03  0.87200644131E+03  0.25500000920E-02 0.  1.
    10030    2    1    2    0    0  0.00000000000E+00  0.00000000000E+00 -0.43287470368E+03  0.13111381789E+04  0.12376198185E+04 0.  0.
        2    1    3    3  502    0 -0.87850595526E+02  0.28259272440E+03 -0.79218106261E+03  0.84565194435E+03  0.25500000920E-02 0.  1.
       -2    1    3    3    0  502  0.87850595526E+02 -0.28259272440E+03  0.35930635893E+03  0.46548623459E+03  0.25500000920E-02 0. -1.
</event>
<event>
 5   0  0.5031575E-03  0.1194862E+04  0.7818609E-02  0.9117366E-01
       -2   -1    0    0    0  501  0.00000000000E+00  0.00000000000E+00  0.68513214366E+03  0.68513214366E+03  0.25500000920E-02 0. -1.
        2   -1    0    0  501    0  0.00000000000E+00  0.00000000000E+00 -0.52095605249E+03  0.52095605250E+03  0.25500000920E-02 0.  1.
    10030    2    1    2    0    0  0.00000000000E+00  0.00000000000E+00  0.16417609116E+03  0.12060881962E+04  0.11948618950E+04 0.  0.
        5    1    3    3  502    0  0.41204349922E+03  0.30496725233E+03 -0.22757891995E+03  0.56089136653E+03  0.46999998093E+01 0.  1.
       -5    1    3    3    0  502 -0.41204349922E+03 -0.30496725233E+03  0.39175501111E+03  0.64519682963E+03  0.46999998093E+01 0. -1.
</event>
<event>
 5   0  0.5467554E-03  0.1230546E+04  0.7818609E-02  0.9086532E-01
        2   -1    0    0  501    0  0.00000000000E+00  0.00000000000E+00  0.11800460152E+04  0.11800460152E+04  0.25500000920E-02 0. -1.
       -2   -1    0    0    0  501  0.00000000000E+00  0.00000000000E+00 -0.32080192040E+03  0.32080192041E+03  0.25500000920E-02 0.  1.
    10030    2    1    2    0    0  0.00000000000E+00  0.00000000000E+00  0.85924409475E+03  0.15008479356E+04  0.12305462654E+04 0.  0.
        1    1    3    3  502    0 -0.37273193608E+02 -0.22440338132E+03  0.11268738451E+04  0.11496046413E+04  0.50400001928E-02 0. -1.
       -1    1    3    3    0  502  0.37273193608E+02  0.22440338132E+03 -0.26762975032E+03  0.35124329430E+03  0.50400001928E-02 0.  1.
</event>
<event>
 5   0  0.5189537E-03  0.1194868E+04  0.7818609E-02  0.9117360E-01
        2   -1    0    0  501    0  0.00000000000E+00  0.00000000000E+00  0.84003855746E+03  0.84003855747E+03  0.25500000920E-02 0.  1.
       -2   -1    0    0    0  501  0.00000000000E+00  0.00000000000E+00 -0.42489407204E+03  0.42489407205E+03  0.25500000920E-02 0. -1.
    10030    2    1    2    0    0  0.00000000000E+00  0.00000000000E+00  0.41514448542E+03  0.12649326295E+04  0.11948680318E+04 0.  0.
        4    1    3    3  502    0  0.10008277921E+03 -0.22038582077E+03  0.78580501151E+03  0.82223938223E+03  0.12699999809E+01 0.  1.
       -4    1    3    3    0  502 -0.10008277921E+03  0.22038582077E+03 -0.37066052608E+03  0.44269324728E+03  0.12699999809E+01 0. -1.
</event>
<event>
 5   0  0.5031575E-03  0.1212172E+04  0.7818609E-02  0.9102269E-01
        2   -1    0    0  501    0  0.00000000000E+00  0.00000000000E+00  0.30067360473E+03  0.30067360474E+03  0.25500000920E-02 0. -1.
       -2   -1    0    0    0  501  0.00000000000E+00  0.00000000000E+00 -0.12217236908E+04  0.12217236908E+04  0.25500000920E-02 0.  1.
    10030    2    1    2    0    0  0.00000000000E+00  0.00000000000E+00 -0.92105008605E+03  0.15223972955E+04  0.12121717141E+04 0.  0.
        5    1    3    3  502    0 -0.27613593679E+03  0.21298257032E+03  0.16202054622E+03  0.38455867984E+03  0.46999998093E+01 0. -1.
       -5    1    3    3    0  502  0.27613593679E+03 -0.21298257032E+03 -0.10830706323E+04  0.11378386157E+04  0.46999998093E+01 0.  1.
</event>
<event>
 5   0  0.5108045E-03  0.1232000E+04  0.7818609E-02  0.9085299E-01
       -2   -1    0    0    0  501  0.00000000000E+00  0.00000000000E+00  0.23457963103E+03  0.23457963105E+03  0.25500000920E-02 0. -1.
        2   -1    0    0  501    0  0.00000000000E+00  0.00000000000E+00 -0.16175989489E+04  0.16175989489E+04  0.25500000920E-02 0.  1.
    10030    2    1    2    0    0  0.00000000000E+00  0.00000000000E+00 -0.13830193178E+04  0.18521785799E+04  0.12319996178E+04 0.  0.
        3    1    3    3  502    0 -0.31341269277E+03 -0.28585487659E+03 -0.13630317567E+04  0.14275139602E+04  0.10100000352E+00 0.  1.
       -3    1    3    3    0  502  0.31341269277E+03  0.28585487659E+03 -0.19987561117E+02  0.42466461974E+03  0.10100000352E+00 0. -1.
</event>
<event>
 5   0  0.2938349E-03  0.1213731E+04  0.7818609E-02  0.9100922E-01
       -1   -1    0    0    0  501  0.00000000000E+00  0.00000000000E+00  0.52476919773E+03  0.52476919776E+03  0.50400001928E-02 0. -1.
        1   -1    0    0  501    0  0.00000000000E+00  0.00000000000E+00 -0.70180541074E+03  0.70180541076E+03  0.50400001928E-02 0.  1.
    10030    2    1    2    0    0  0.00000000000E+00  0.00000000000E+00 -0.17703621301E+03  0.12265746085E+04  0.12137312098E+04 0.  0.
        4    1    3    3  502    0 -0.20991567167E+03  0.27397328418E+03 -0.59295765690E+03  0.68609499739E+03  0.12699999809E+01 0.  1.
       -4    1    3    3    0  502  0.20991567167E+03 -0.27397328418E+03  0.41592144389E+03  0.54047961113E+03  0.12699999809E+01 0. -1.
</event>
<event>
 5   0  0.1922125E-03  0.1242379E+04  0.7818609E-02  0.9076551E-01
        4   -1    0    0  501    0  0.00000000000E+00  0.00000000000E+00  0.48966036899E+03  0.48966201595E+03  0.12699999809E+01 0.  1.
       -4   -1    0    0    0  501  0.00000000000E+00  0.00000000000E+00 -0.78804497508E+03  0.78804599844E+03  0.12699999809E+01 0. -1.
    10030    2    1    2    0    0  0.00000000000E+00  0.00000000000E+00 -0.29838460609E+03  0.12777080144E+04  0.12423785240E+04 0.  0.
        2    1    3    3  502    0  0.77302029579E+01 -0.59388605867E+03  0.37959753595E+02  0.59514817450E+03  0.25500000920E-02 0. -1.
       -2    1    3    3    0  502 -0.77302029579E+01  0.59388605867E+03 -0.33634435969E+03  0.68255983988E+03  0.25500000920E-02 0.  1.
</event>
<event>
 5   0  0.2926844E-03  0.1142158E+04  0.7818609E-02  0.9165049E-01
        1   -1    0    0  501    0  0.00000000000E+00  0.00000000000E+00  0.42775453349E+03  0.42775453352E+03  0.50400001928E-02 0. -1.
       -1   -1    0    0    0  501  0.00000000000E+00  0.00000000000E+00 -0.76242625833E+03  0.76242625834E+03  0.50400001928E-02 0.  1.
    10030    2    1    2    0    0  0.00000000000E+00  0.00000000000E+00 -0.33467172484E+03  0.11901807919E+04  0.11421581125E+04 0.  0.
        5    1    3    3  502    0  0.23295145276E+02  0.46740178095E+03  0.17368874788E+03  0.49919631385E+03  0.46999998093E+01 0. -1.
       -5    1    3    3    0  502 -0.23295145276E+02 -0.46740178095E+03 -0.50836047272E+03  0.69098447801E+03  0.46999998093E+01 0.  1.
</event>
<event>
 5   0  0.2926844E-03  0.1159465E+04  0.7818609E-02  0.9149096E-01
        1   -1    0    0  501    0  0.00000000000E+00  0.00000000000E+00  0.93558936292E+03  0.93558936294E+03  0.50400001928E-02 0.  1.
       -1   -1    0    0    0  501  0.00000000000E+00  0.00000000000E+00 -0.35922792742E+03  0.35922792746E+03  0.50400001928E-02 0. -1.
    10030    2    1    2    0    0  0.00000000000E+00  0.00000000000E+00  0.57636143550E+03  0.12948172904E+04  0.11594650970E+04 0.  0.
        5    1    3    3  502    0 -0.41613208805E+02  0.18743219682E+02 -0.35719726041E+03  0.36013183735E+03  0.46999998093E+01 0. -1.
       -5    1    3    3    0  502  0.41613208805E+02 -0.18743219682E+02  0.93355869591E+03  0.93468545304E+03  0.46999998093E+01 0.  1.
</event>
<event>
 5   0  0.2926844E-03  0.1227125E+04  0.7818609E-02  0.9089440E-01
       -1   -1    0    0    0  501  0.00000000000E+00  0.00000000000E+00  0.32509519838E+03  0.32509519842E+03  0.50400001928E-02 0.  1.
        1   -1    0    0  501    0  0.00000000000E+00  0.00000000000E+00 -0.11579955225E+04  0.11579955225E+04  0.50400001928E-02 0. -1.
    10030    2    1    2    0    0  0.00000000000E+00  0.00000000000E+00 -0.83290032409E+03  0.14830907209E+04  0.12271247437E+04 0.  0.
        5    1    3    3  502    0 -0.98719163892E+01 -0.12098248527E+03  0.31041649330E+03  0.33333872530E+03  0.46999998093E+01 0.  1.
       -5    1    3    3    0  502  0.98719163892E+01  0.12098248527E+03 -0.11433168174E+04  0.11497519956E+04  0.46999998093E+01 0. -1.
</event>
<event>
 5   0  0.2875848E-03  0.1203637E+04  0.7818609E-02  0.9109679E-01
        1   -1    0    0  501    0  0.00000000000E+00  0.00000000000E+00  0.13533613258E+04  0.13533613258E+04  0.50400001928E-02 0.  1.
       -1   -1    0    0    0  501  0.00000000000E+00  0.00000000000E+00 -0.26761940785E+03  0.26761940790E+03  0.50400001928E-02 0. -1.
    10030    2    1    2    0    0  0.00000000000E+00  0.00000000000E+00  0.10857419179E+04  0.16209807337E+04  0.12036374149E+04 0.  0.
        1    1    3    3  502    0  0.24112503992E+03 -0.54790090301E+03  0.45931831352E+03  0.75452633987E+03  0.50400001928E-02 0. -1.
       -1    1    3    3    0  502 -0.24112503992E+03  0.54790090301E+03  0.62642360439E+03  0.86645439381E+03  0.50400001928E-02 0.  1.
</event>
<event>
 5   0  0.5108045E-03  0.9860431E+03  0.7818609E-02  0.9323986E-01
       -2   -1    0    0    0  501  0.00000000000E+00  0.00000000000E+00  0.58247858009E+03  0.58247858010E+03  0.25500000920E-02 0. -1.
        2   -1    0    0  501    0  0.00000000000E+00  0.00000000000E+00 -0.41730336088E+03  0.41730336089E+03  0.25500000920E-02 0.  1.
    10030    2    1    2    0    0  0.00000000000E+00  0.00000000000E+00  0.16517521921E+03  0.99978194098E+03  0.98604314128E+03 0.  0.
        3    1    3    3  502    0  0.38463200574E+03  0.28400912882E+03 -0.39368348442E+02  0.47974247483E+03  0.10100000352E+00 0.  1.
       -3    1    3    3    0  502 -0.38463200574E+03 -0.28400912882E+03  0.20454356766E+03  0.52003946616E+03  0.10100000352E+00 0. -1.
</event>
<event>
 5   0  0.1922125E-03  0.1200615E+04  0.7818609E-02  0.9112319E-01
        4   -1    0    0  501    0  0.00000000000E+00  0.00000000000E+00  0.14283570788E+04  0.14283576434E+04  0.12699999809E+01 0.  1.
       -4   -1    0    0    0  501  0.00000000000E+00  0.00000000000E+00 -0.25229389386E+03  0.25229709031E+03  0.12699999809E+01 0. -1.
    10030    2    1    2    0    0  0.00000000000E+00  0.00000000000E+00  0.11760631850E+04  0.16806547337E+04  0.12006147255E+04 0.  0.
        5    1    3    3  502    0  0.75529423258E+02 -0.59551113724E+03  0.59214418289E+03  0.84320521327E+03  0.46999998093E+01 0. -1.
       -5    1    3    3    0  502 -0.75529423258E+02  0.59551113724E+03  0.58391900208E+03  0.83744952047E+03  0.46999998093E+01 0.  1.
</event>
<event>
 5   0  0.2938349E-03  0.1152567E+04  0.7818609E-02  0.9155419E-01
       -1   -1    0    0    0  501  0.00000000000E+00  0.00000000000E+00  0.39927927799E+03  0.39927927802E+03  0.50400001928E-02 0.  1.
        1   -1    0    0  501    0  0.00000000000E+00  0.00000000000E+00 -0.83175516422E+03  0.83175516424E+03  0.50400001928E-02 0. -1.
    10030    2    1    2    0    0  0.00000000000E+00  0.00000000000E+00 -0.43247588623E+03  0.12310344423E+04  0.11525668770E+04 0.  0.
        4    1    3    3  502    0 -0.32460583755E+03  0.34462170056E+03  0.13471706283E+03  0.49222288263E+03  0.12699999809E+01 0.  1.
       -4    1    3    3    0  502  0.32460583755E+03 -0.34462170056E+03 -0.56719294907E+03  0.73881155963E+03  0.12699999809E+01 0. -1.
</event>
<event>
 5   0  0.5003526E-03  0.1206545E+04  0.7818609E-02  0.9107147E-01
       -2   -1    0    0    0  501  0.00000000000E+00  0.00000000000E+00  0.46716745268E+03  0.46716745269E+03  0.25500000920E-02 0. -1.
        2   -1    0    0  501    0  0.00000000000E+00  0.00000000000E+00 -0.77902990367E+03  0.77902990367E+03  0.25500000920E-02 0.  1.
    10030    2    1    2    0    0  0.00000000000E+00  0.00000000000E+00 -0.31186245099E+03  0.12461973564E+04  0.12065445133E+04 0.  0.
        2    1    3    3  502    0 -0.48753326786E+03 -0.31129854592E+03  0.20993249778E+02  0.57882310640E+03  0.25500000920E-02 0. -1.
       -2    1    3    3    0  502  0.48753326786E+03  0.31129854592E+03 -0.33285570077E+03  0.66737424996E+03  0.25500000920E-02 0.  1.
</event>
<event>
 5   0  0.5003526E-03  0.1209357E+04  0.7818609E-02  0.9104705E-01
       -2   -1    0    0    0  501  0.00000000000E+00  0.00000000000E+00  0.22508944919E+03  0.22508944920E+03  0.25500000920E-02 0. -1.
        2   -1    0    0  501    0  0.00000000000E+00  0.00000000000E+00 -0.16244039967E+04  0.16244039967E+04  0.25500000920E-02 0.  1.
    10030    2    1    2    0    0  0.00000000000E+00  0.00000000000E+00 -0.13993145475E+04  0.18494934459E+04  0.12093571861E+04 0.  0.
        2    1    3    3  502    0 -0.21816688041E+03 -0.39852982368E+03 -0.89435070438E+02  0.46305662710E+03  0.25500000920E-02 0. -1.
       -2    1    3    3    0  502  0.21816688041E+03  0.39852982368E+03 -0.13098794771E+04  0.13864368188E+04  0.25500000920E-02 0.  1.
</event>
<event>
 5   0  0.2875848E-03  0.1200724E+04  0.7818609E-02  0.9112223E-01
       -1   -1    0    0    0  501  0.00000000000E+00  0.00000000000E+00  0.45931943422E+03  0.45931943424E+03  0.50400001928E-02 0. -1.
        1   -1    0    0  501    0  0.00000000000E+00  0.00000000000E+00 -0.78471487236E+03  0.78471487237E+03  0.50400001928E-02 0.  1.
    10030    2    1    2    0    0  0.00000000000E+00  0.00000000000E+00 -0.32539543814E+03  0.12440343066E+04  0.12007244334E+04 0.  0.
        1    1    3    3  502    0 -0.44281502822E+03 -0.14615827241E+03 -0.55447378025E+03  0.72449193427E+03  0.50400001928E-02 0.  1.
       -1    1    3    3    0  502  0.44281502822E+03  0.14615827241E+03  0.22907834211E+03  0.51954237235E+03  0.50400001928E-02 0. -1.
</event>
<event>
 5   0  0.5031575E-03  0.1129234E+04  0.7818609E-02  0.9177158E-01
        2   -1    0    0  501    0  0.00000000000E+00  0.00000000000E+00  0.94610305004E+03  0.94610305005E+03  0.25500000920E-02 0. -1.
       -2   -1    0    0    0  501  0.00000000000E+00  0.00000000000E+00 -0.33695319550E+03  0.33695319551E+03  0.25500000920E-02 0.  1.
    10030    2    1    2    0    0  0.00000000000E+00  0.00000000000E+00  0.60914985454E+03  0.12830562456E+04  0.11292341582E+04 0.  0.
        5    1    3    3  502    0 -0.27376844741E+03  0.17182036455E+03  0.83055793669E+03  0.89124630527E+03  0.46999998093E+01 0. -1.
       -5    1    3    3    0  502  0.27376844741E+03 -0.17182036455E+03 -0.22140808215E+03  0.39180994029E+03  0.46999998093E+01 0.  1.
</event>
<event>
 5   0  0.2930868E-03  0.1135006E+04  0.7818609E-02  0.9171729E-01
       -1   -1    0    0    0  501  0.00000000000E+00  0.00000000000E+00  0.30492594867E+03  0.30492594871E+03  0.50400001928E-02 0. -1.
        1   -1    0    0  501    0  0.00000000000E+00  0.00000000000E+00 -0.10561899739E+04  0.10561899739E+04  0.50400001928E-02 0.  1.
    10030    2    1    2    0    0  0.00000000000E+00  0.00000000000E+00 -0.75126402525E+03  0.13611159226E+04  0.11350061318E+04 0.  0.
        3    1    3    3  502    0 -0.18674376693E+03 -0.32529909887E+03 -0.88634396170E+03  0.96244395517E+03  0.10100000352E+00 0. -1.
       -3    1    3    3    0  502  0.18674376693E+03  0.32529909887E+03  0.13507993645E+03  0.39867196747E+03  0.10100000352E+00 0.  1.
</event>
<event>
 5   0  0.5189537E-03  0.1199546E+04  0.7818609E-02  0.9113254E-01
        2   -1    0    0  501    0  0.00000000000E+00  0.00000000000E+00  0.21083601879E+04  0.21083601879E+04  0.25500000920E-02 0. -1.
       -2   -1    0    0    0  501  0.00000000000E+00  0.00000000000E+00 -0.17061954715E+03  0.17061954717E+03  0.25500000920E-02 0.  1.
    10030    2    1    2    0    0  0.00000000000E+00  0.00000000000E+00  0.19377406408E+04  0.22789797351E+04  0.11995456815E+04 0.  0.
        4    1    3    3  502    0  0.10299732575E+03 -0.25560763757E+03 -0.43212835700E+02  0.27894923474E+03  0.12699999809E+01 0.  1.
       -4    1    3    3    0  502 -0.10299732575E+03  0.25560763757E+03  0.19809534765E+04  0.20000305004E+04  0.12699999809E+01 0. -1.
</event>
<event>
 5   0  0.1922125E-03  0.1194124E+04  0.7818609E-02  0.9118016E-01
       -4   -1    0    0    0  501  0.00000000000E+00  0.00000000000E+00  0.55437389850E+03  0.55437535320E+03  0.12699999809E+01 0.  1.
        4   -1    0    0  501    0  0.00000000000E+00  0.00000000000E+00 -0.64303380334E+03  0.64303505747E+03  0.12699999809E+01 0. -1.
    10030    2    1    2    0    0  0.00000000000E+00  0.00000000000E+00 -0.88659904837E+02  0.11974104107E+04  0.11941235752E+04 0.  0.
        5    1    3    3  502    0 -0.24217461241E+03  0.49749348216E+03 -0.26925156597E+03  0.61535908497E+03  0.46999998093E+01 0. -1.
       -5    1    3    3    0  502  0.24217461241E+03 -0.49749348216E+03  0.18059166113E+03  0.58205132570E+03  0.46999998093E+01 0.  1.
</event>
<event>
 5   0  0.2875848E-03  0.1204850E+04  0.7818609E-02  0.9108622E-01
        1   -1    0    0  501    0  0.00000000000E+00  0.00000000000E+00  0.58976975418E+03  0.58976975421E+03  0.50400001928E-02 0.  1.
       -1   -1    0    0    0  501  0.00000000000E+00  0.00000000000E+00 -0.61535130918E+03  0.61535130920E+03  0.50400001928E-02 0. -1.
    10030    2    1    2    0    0  0.00000000000E+00  0.00000000000E+00 -0.25581554992E+02  0.12051210634E+04  0.12048495182E+04 0.  0.
        1    1    3    3  502    0 -0.34111741280E+03 -0.38627644613E+03  0.29928115615E+03  0.59593606419E+03  0.50400001928E-02 0.  1.
       -1    1    3    3    0  502  0.34111741280E+03  0.38627644613E+03 -0.32486271114E+03  0.60918499921E+03  0.50400001928E-02 0. -1.
</event>
<event>
 5   0  0.2875848E-03  0.1189137E+04  0.7818609E-02  0.9122418E-01
        1   -1    0    0  501    0  0.00000000000E+00  0.00000000000E+00  0.10330024525E+04  0.10330024525E+04  0.50400001928E-02 0.  1.
       -1   -1    0    0    0  501  0.00000000000E+00  0.00000000000E+00 -0.34221770356E+03  0.34221770360E+03  0.50400001928E-02 0. -1.
    10030    2    1    2    0    0  0.00000000000E+00  0.00000000000E+00  0.69078474895E+03  0.13752201561E+04  0.11891370436E+04 0.  0.
        1    1    3    3  502    0  0.26412590645E+03 -0.82684362942E+02  0.95396389332E+03  0.99330071384E+03  0.50400001928E-02 0.  1.
       -1    1    3    3    0  502 -0.26412590645E+03  0.82684362942E+02 -0.26317914437E+03  0.38191944228E+03  0.50400001928E-02 0. -1.
</event>
<event>
 5   0  0.2930868E-03  0.1192066E+04  0.7818609E-02  0.9119830E-01
        1   -1    0    0  501    0  0.00000000000E+00  0.00000000000E+00  0.65029904468E+03  0.65029904470E+03  0.50400001928E-02 0.  1.
       -1   -1    0    0    0  501  0.00000000000E+00  0.00000000000E+00 -0.54629526333E+03  0.54629526335E+03  0.50400001928E-02 0. -1.
    10030    2    1    2    0    0  0.00000000000E+00  0.00000000000E+00  0.10400378135E+03  0.11965943081E+04  0.11920659174E+04 0.  0.
        3    1    3    3  502    0 -0.38768382798E+02 -0.55797581030E+03  0.25873396284E+03  0.61626558083E+03  0.10100000352E+00 0.  1.
       -3    1    3    3    0  502  0.38768382798E+02  0.55797581030E+03 -0.15473018149E+03  0.58032872723E+03  0.10100000352E+00 0. -1.
</event>
<event>
 5   0  0.5189537E-03  0.1145277E+04  0.7818609E-02  0.9162152E-01
        2   -1    0    0  501    0  0.00000000000E+00  0.00000000000E+00  0.10469418539E+04  0.10469418539E+04  0.25500000920E-02 0. -1.
       -2   -1    0    0    0  501  0.00000000000E+00  0.00000000000E+00 -0.31321226044E+03  0.31321226045E+03  0.25500000920E-02 0.  1.
    10030    2    1    2    0    0  0.00000000000E+00  0.00000000000E+00  0.73372959349E+03  0.13601541144E+04  0.11452773020E+04 0.  0.
        4    1    3    3  502    0  0.62438609065E+02  0.54115505008E+03  0.15720348293E+03  0.56697611596E+03  0.12699999809E+01 0. -1.
       -4    1    3    3    0  502 -0.62438609065E+02 -0.54115505008E+03  0.57652611056E+03  0.79317799843E+03  0.12699999809E+01 0.  1.
</event>
<event>
 5   0  0.5467554E-03  0.1224257E+04  0.7818609E-02  0.9091885E-01
       -2   -1    0    0    0  501  0.00000000000E+00  0.00000000000E+00  0.43896111128E+03  0.43896111129E+03  0.25500000920E-02 0.  1.
        2   -1    0    0  501    0  0.00000000000E+00  0.00000000000E+00 -0.85360962862E+03  0.85360962863E+03  0.25500000920E-02 0. -1.
    10030    2    1    2    0    0  0.00000000000E+00  0.00000000000E+00 -0.41464851734E+03  0.12925707399E+04  0.12242572135E+04 0.  0.
        1    1    3    3  502    0  0.27335785886E+03  0.52887185619E+03 -0.35764686277E+03  0.69450791050E+03  0.50400001928E-02 0.  1.
       -1    1    3    3    0  502 -0.27335785886E+03 -0.52887185619E+03 -0.57001654571E+02  0.59806282941E+03  0.50400001928E-02 0. -1.
</event>
<event>
 5   0  0.1922125E-03  0.9284274E+03  0.7818609E-02  0.9390727E-01
        4   -1    0    0  501    0  0.00000000000E+00  0.00000000000E+00  0.71766633345E+03  0.71766745717E+03  0.12699999809E+01 0.  1.
       -4   -1    0    0    0  501  0.00000000000E+00  0.00000000000E+00 -0.30026826035E+03  0.30027094611E+03  0.12699999809E+01 0. -1.
    10030    2    1    2    0    0  0.00000000000E+00  0.00000000000E+00  0.41739807310E+03  0.10179384033E+04  0.92842740235E+03 0.  0.
        5    1    3    3  502    0 -0.21289457593E+03 -0.18528548704E+03 -0.19536607009E+03  0.34328530920E+03  0.46999998093E+01 0. -1.
       -5    1    3    3    0  502  0.21289457593E+03  0.18528548704E+03  0.61276414319E+03  0.67465309408E+03  0.46999998093E+01 0.  1.
</event>
<event>
 5   0  0.2792518E-03  0.1187011E+04  0.7818609E-02  0.9124302E-01
       -1   -1    0    0    0  501  0.00000000000E+00  0.00000000000E+00  0.30754311706E+03  0.30754311710E+03  0.50400001928E-02 0.  1.
        1   -1    0    0  501    0  0.00000000000E+00  0.00000000000E+00 -0.11453646222E+04  0.11453646222E+04  0.50400001928E-02 0. -1.
    10030    2    1    2    0    0  0.00000000000E+00  0.00000000000E+00 -0.83782150513E+03  0.14529077393E+04  0.11870113834E+04 0.  0.
        2    1    3    3  502    0  0.50585808755E+03  0.25668584503E+03 -0.20525622557E+03  0.60324965472E+03  0.25500000920E-02 0. -1.
       -2    1    3    3    0  502 -0.50585808755E+03 -0.25668584503E+03 -0.63256527956E+03  0.84965808457E+03  0.25500000920E-02 0.  1.
</event>
<event>
 5   0  0.1922125E-03  0.1170501E+04  0.7818609E-02  0.9139077E-01
       -3   -1    0    0    0  501  0.00000000000E+00  0.00000000000E+00  0.37938558964E+03  0.37938560309E+03  0.10100000352E+00 0.  1.
        3   -1    0    0  501    0  0.00000000000E+00  0.00000000000E+00 -0.90282257000E+03  0.90282257565E+03  0.10100000352E+00 0. -1.
    10030    2    1    2    0    0  0.00000000000E+00  0.00000000000E+00 -0.52343698036E+03  0.12822081787E+04  0.11705005516E+04 0.  0.
        4    1    3    3  502    0  0.11696031600E+03  0.50644731504E+03 -0.55636357891E+03  0.76138731488E+03  0.12699999809E+01 0. -1.
       -4    1    3    3    0  502 -0.11696031600E+03 -0.50644731504E+03  0.32926598550E+02  0.52082086385E+03  0.12699999809E+01 0.  1.
</event>
<event>
 5   0  0.5189537E-03  0.1211609E+04  0.7818609E-02  0.9102755E-01
        2   -1    0    0  501    0  0.00000000000E+00  0.00000000000E+00  0.14967809443E+04  0.14967809443E+04  0.25500000920E-02 0. -1.
       -2   -1    0    0    0  501  0.00000000000E+00  0.00000000000E+00 -0.24519227872E+03  0.24519227873E+03  0.25500000920E-02 0.  1.
    10030    2    1    2    0    0  0.00000000000E+00  0.00000000000E+00  0.12515886656E+04  0.17419732231E+04  0.12116090632E+04 0.  0.
        4    1    3    3  502    0  0.56693362296E+03 -0.17501810017E+03  0.44998775026E+03  0.74467150913E+03  0.12699999809E+01 0. -1.
       -4    1    3    3    0  502 -0.56693362296E+03  0.17501810017E+03  0.80160091536E+03  0.99730171395E+03  0.12699999809E+01 0.  1.
</event>
<event>
 5   0  0.2930868E-03  0.1185869E+04  0.7818609E-02  0.9125316E-01
        1   -1    0    0  501    0  0.00000000000E+00  0.00000000000E+00  0.39012197636E+03  0.39012197639E+03  0.50400001928E-02 0.  1.
       -1   -1    0    0    0  501  0.00000000000E+00  0.00000000000E+00 -0.90118256452E+03  0.90118256454E+03  0.50400001928E-02 0. -1.
    10030    2    1    2    0    0  0.00000000000E+00  0.00000000000E+00 -0.51106058816E+03  0.12913045409E+04  0.11858686658E+04 0.  0.
        3    1    3    3  502    0  0.28405438921E+01  0.45407388377E+03 -0.67071786643E+03  0.80997137428E+03  0.10100000352E+00 0. -1.
       -3    1    3    3    0  502 -0.28405438921E+01 -0.45407388377E+03  0.15965727826E+03  0.48133316665E+03  0.10100000352E+00 0.  1.
</event>
<event>
 5   0  0.5189537E-03  0.1197182E+04  0.7818609E-02  0.9115327E-01
       -2   -1    0    0    0  501  0.00000000000E+00  0.00000000000E+00  0.48993317319E+03  0.48993317320E+03  0.25500000920E-02 0. -1.
        2   -1    0    0  501    0  0.00000000000E+00  0.00000000000E+00 -0.73134718370E+03  0.73134718370E+03  0.25500000920E-02 0.  1.
    10030    2    1    2    0    0  0.00000000000E+00  0.00000000000E+00 -0.24141401051E+03  0.12212803569E+04  0.11971821021E+04 0.  0.
        4    1    3    3  502    0  0.11449001935E+03 -0.45849496119E+03  0.25409021984E+03  0.53655292999E+03  0.12699999809E+01 0. -1.
       -4    1    3    3    0  502 -0.11449001935E+03  0.45849496119E+03 -0.49550423035E+03  0.68472742691E+03  0.12699999809E+01 0.  1.
</event>
<event>
 5   0  0.2930868E-03  0.1235943E+04  0.7818609E-02  0.9081965E-01
        1   -1    0    0  501    0  0.00000000000E+00  0.00000000000E+00  0.12279563915E+04  0.12279563915E+04  0.50400001928E-02 0.  1.
       -1   -1    0    0    0  501  0.00000000000E+00  0.00000000000E+00 -0.31099540933E+03  0.31099540937E+03  0.50400001928E-02 0. -1.
    10030    2    1    2    0    0  0.00000000000E+00  0.00000000000E+00  0.91696098213E+03  0.15389518008E+04  0.12359430418E+04 0.  0.
        3    1    3    3  502    0 -0.32567318891E+02 -0.57140028754E+03  0.74871289605E+03  0.94240645677E+03  0.10100000352E+00 0.  1.
       -3    1    3    3    0  502  0.32567318891E+02  0.57140028754E+03  0.16824808609E+03  0.59654534407E+03  0.10100000352E+00 0. -1.
</event>
<event>
 5   0  0.2930868E-03  0.1212557E+04  0.7818609E-02  0.9101936E-01
        1   -1    0    0  501    0  0.00000000000E+00  0.00000000000E+00  0.10333198116E+04  0.10333198116E+04  0.50400001928E-02 0.  1.
       -1   -1    0    0    0  501  0.00000000000E+00  0.00000000000E+00 -0.35572127522E+03  0.35572127526E+03  0.50400001928E-02 0. -1.
    10030    2    1    2    0    0  0.00000000000E+00  0.00000000000E+00  0.67759853639E+03  0.13890410869E+04  0.12125573655E+04 0.  0.
        3    1    3    3  502    0  0.90555122677E+00 -0.60131193305E+03  0.25008800999E+03  0.65124564014E+03  0.10100000352E+00 0.  1.
       -3    1    3    3    0  502 -0.90555122677E+00  0.60131193305E+03  0.42751052639E+03  0.73779544674E+03  0.10100000352E+00 0. -1.
</event>
<event>
 5   0  0.5467554E-03  0.1197688E+04  0.7818609E-02  0.9114882E-01
       -2   -1    0    0    0  501  0.00000000000E+00  0.00000000000E+00  0.44060745023E+03  0.44060745024E+03  0.25500000920E-02 0. -1.
        2   -1    0    0  501    0  0.00000000000E+00  0.00000000000E+00 -0.81390885706E+03  0.81390885707E+03  0.25500000920E-02 0.  1.
    10030    2    1    2    0    0  0.00000000000E+00  0.00000000000E+00 -0.37330140683E+03  0.12545163073E+04  0.11976882837E+04 0.  0.
        1    1    3    3  502    0 -0.62311354985E+02 -0.24698435058E+02 -0.80996733029E+03  0.81273599269E+03  0.50400001928E-02 0.  1.
       -1    1    3    3    0  502  0.62311354985E+02  0.24698435058E+02  0.43666592345E+03  0.44178031462E+03  0.50400001928E-02 0. -1.
</event>
<event>
 5   0  0.5467554E-03  0.1136339E+04  0.7818609E-02  0.9170480E-01
        2   -1    0    0  501    0  0.00000000000E+00  0.00000000000E+00  0.41145625298E+03  0.41145625299E+03  0.25500000920E-02 0. -1.
       -2   -1    0    0    0  501  0.00000000000E+00  0.00000000000E+00 -0.78457052307E+03  0.78457052307E+03  0.25500000920E-02 0.  1.
    10030    2    1    2    0    0  0.00000000000E+00  0.00000000000E+00 -0.37311427009E+03  0.11960267761E+04  0.11363387657E+04 0.  0.
        1    1    3    3  502    0 -0.17052930205E+03 -0.53767777543E+03 -0.25824350430E+03  0.62037677310E+03  0.50400001928E-02 0. -1.
       -1    1    3    3    0  502  0.17052930205E+03  0.53767777543E+03 -0.11487076578E+03  0.57565000296E+03  0.50400001928E-02 0.  1.
</event>
<event>
 5   0  0.5003526E-03  0.1200279E+04  0.7818609E-02  0.9112612E-01
       -2   -1    0    0    0  501  0.00000000000E+00  0.00000000000E+00  0.63262839943E+03  0.63262839944E+03  0.25500000920E-02 0. -1.
        2   -1    0    0  501    0  0.00000000000E+00  0.00000000000E+00 -0.56931939241E+03  0.56931939242E+03  0.25500000920E-02 0.  1.
    10030    2    1    2    0    0  0.00000000000E+00  0.00000000000E+00  0.63309007024E+02  0.12019477919E+04  0.12002793275E+04 0.  0.
        2    1    3    3  502    0  0.16861235127E+03  0.57345489505E+03  0.85459764049E+02  0.60380792719E+03  0.25500000920E-02 0. -1.
       -2    1    3    3    0  502 -0.16861235127E+03 -0.57345489505E+03 -0.22150757025E+02  0.59813986467E+03  0.25500000920E-02 0.  1.
</event>
<event>
 5   0  0.5189537E-03  0.1176046E+04  0.7818609E-02  0.9134086E-01
       -2   -1    0    0    0  501  0.00000000000E+00  0.00000000000E+00  0.30635194991E+03  0.30635194992E+03  0.25500000920E-02 0. -1.
        2   -1    0    0  501    0  0.00000000000E+00  0.00000000000E+00 -0.11286722613E+04  0.11286722613E+04  0.25500000920E-02 0.  1.
    10030    2    1    2    0    0  0.00000000000E+00  0.00000000000E+00 -0.82232031141E+03  0.14350242112E+04  0.11760458292E+04 0.  0.
        4    1    3    3  502    0  0.23875364688E+03  0.32287259657E+03  0.11299022109E+03  0.41715515157E+03  0.12699999809E+01 0. -1.
       -4    1    3    3    0  502 -0.23875364688E+03 -0.32287259657E+03 -0.93531053250E+03  0.10178690597E+04  0.12699999809E+01 0.  1.
</event>
<event>
 5   0  0.2875848E-03  0.1198521E+04  0.7818609E-02  0.9114152E-01
        1   -1    0    0  501    0  0.00000000000E+00  0.00000000000E+00  0.28613460509E+03  0.28613460513E+03  0.50400001928E-02 0. -1.
       -1   -1    0    0    0  501  0.00000000000E+00  0.00000000000E+00 -0.12550504590E+04  0.12550504590E+04  0.50400001928E-02 0.  1.
    10030    2    1    2    0    0  0.00000000000E+00  0.00000000000E+00 -0.96891585393E+03  0.15411850642E+04  0.11985213682E+04 0.  0.
        1    1    3    3  502    0 -0.38993919513E+02  0.55748520508E+03 -0.76265096895E+03  0.94548758855E+03  0.50400001928E-02 0.  1.
       -1    1    3    3    0  502  0.38993919513E+02 -0.55748520508E+03 -0.20626488499E+03  0.59569747561E+03  0.50400001928E-02 0. -1.
</event>
<event>
 5   0  0.2930868E-03  0.1138656E+04  0.7818609E-02  0.9168313E-01
        1   -1    0    0  501    0  0.00000000000E+00  0.00000000000E+00  0.17816697989E+04  0.17816697989E+04  0.50400001928E-02 0. -1.
       -1   -1    0    0    0  501  0.00000000000E+00  0.00000000000E+00 -0.18192727973E+03  0.18192727980E+03  0.50400001928E-02 0.  1.
    10030    2    1    2    0    0  0.00000000000E+00  0.00000000000E+00  0.15997425192E+04  0.19635970787E+04  0.11386559445E+04 0.  0.
        3    1    3    3  502    0 -0.36079252883E+03 -0.18603272485E+02  0.15586787372E+04  0.15999989833E+04  0.10100000352E+00 0. -1.
       -3    1    3    3    0  502  0.36079252883E+03  0.18603272485E+02  0.41063782010E+02  0.36359809543E+03  0.10100000352E+00 0.  1.
</event>
<event>
 5   0  0.5003526E-03  0.1209542E+04  0.7818609E-02  0.9104546E-01
       -2   -1    0    0    0  501  0.00000000000E+00  0.00000000000E+00  0.57706153237E+03  0.57706153237E+03  0.25500000920E-02 0. -1.
        2   -1    0    0  501    0  0.00000000000E+00  0.00000000000E+00 -0.63381067354E+03  0.63381067354E+03  0.25500000920E-02 0.  1.
    10030    2    1    2    0    0  0.00000000000E+00  0.00000000000E+00 -0.56749141173E+02  0.12108722059E+04  0.12095416628E+04 0.  0.
        2    1    3    3  502    0  0.37258880634E+03  0.12991285343E+03 -0.48718865776E+03  0.62693903719E+03  0.25500000920E-02 0.  1.
       -2    1    3    3    0  502 -0.37258880634E+03 -0.12991285343E+03  0.43043951658E+03  0.58393316873E+03  0.25500000920E-02 0. -1.
</event>
<event>
 5   0  0.2792518E-03  0.1150800E+04  0.7818609E-02  0.9157046E-01
        1   -1    0    0  501    0  0.00000000000E+00  0.00000000000E+00  0.24956705316E+03  0.24956705321E+03  0.50400001928E-02 0.  1.
       -1   -1    0    0    0  501  0.00000000000E+00  0.00000000000E+00 -0.13266387997E+04  0.13266387997E+04  0.50400001928E-02 0. -1.
    10030    2    1    2    0    0  0.00000000000E+00  0.00000000000E+00 -0.10770717465E+04  0.15762058529E+04  0.11508003057E+04 0.  0.
        2    1    3    3  502    0 -0.16872972473E+03  0.24147669378E+03 -0.12155205040E+04  0.12507081231E+04  0.25500000920E-02 0. -1.
       -2    1    3    3    0  502  0.16872972473E+03 -0.24147669378E+03  0.13844875745E+03  0.32549772978E+03  0.25500000920E-02 0.  1.
</event>
<event>
 5   0  0.2938349E-03  0.1152032E+04  0.7818609E-02  0.9155911E-01
        1   -1    0    0  501    0  0.00000000000E+00  0.00000000000E+00  0.14277156173E+04  0.14277156173E+04  0.50400001928E-02 0. -1.
       -1   -1    0    0    0  501  0.00000000000E+00  0.00000000000E+00 -0.23239523239E+03  0.23239523244E+03  0.50400001928E-02 0.  1.
    10030    2    1    2    0    0  0.00000000000E+00  0.00000000000E+00  0.11953203849E+04  0.16601108497E+04  0.11520317751E+04 0.  0.
        4    1    3    3  502    0 -0.50442226793E+03  0.13500541893E+03  0.24726671618E+03  0.57776355835E+03  0.12699999809E+01 0.  1.
       -4    1    3    3    0  502  0.50442226793E+03 -0.13500541893E+03  0.94805366872E+03  0.10823472914E+04  0.12699999809E+01 0. -1.
</event>
<event>
 5   0  0.2938349E-03  0.1199641E+04  0.7818609E-02  0.9113170E-01
       -1   -1    0    0    0  501  0.00000000000E+00  0.00000000000E+00  0.40089350779E+03  0.40089350782E+03  0.50400001928E-02 0. -1.
        1   -1    0    0  501    0  0.00000000000E+00  0.00000000000E+00 -0.89745752697E+03  0.89745752698E+03  0.50400001928E-02 0.  1.
    10030    2    1    2    0    0  0.00000000000E+00  0.00000000000E+00 -0.49656401918E+03  0.12983510348E+04  0.11996414399E+04 0.  0.
        4    1    3    3  502    0 -0.12731315110E+03  0.21280731049E+03 -0.83937844025E+03  0.87524474788E+03  0.12699999809E+01 0.  1.
       -4    1    3    3    0  502  0.12731315110E+03 -0.21280731049E+03  0.34281442106E+03  0.42310628692E+03  0.12699999809E+01 0. -1.
</event>
<event>
 5   0  0.5003526E-03  0.1230338E+04  0.7818609E-02  0.9086708E-01
        2   -1    0    0  501    0  0.00000000000E+00  0.00000000000E+00  0.84299141201E+03  0.84299141201E+03  0.25500000920E-02 0. -1.
       -2   -1    0    0    0  501  0.00000000000E+00  0.00000000000E+00 -0.44891674932E+03  0.44891674933E+03  0.25500000920E-02 0.  1.
    10030    2    1    2    0    0  0.00000000000E+00  0.00000000000E+00  0.39407466268E+03  0.12919081613E+04  0.12303381070E+04 0.  0.
        2    1    3    3  502    0 -0.30646256375E+03  0.13408758786E+03 -0.34506792909E+03  0.48059406977E+03  0.25500000920E-02 0.  1.
       -2    1    3    3    0  502  0.30646256375E+03 -0.13408758786E+03  0.73914259178E+03  0.81131409158E+03  0.25500000920E-02 0. -1.
</event>
<event>
 5   0  0.2875848E-03  0.1183582E+04  0.7818609E-02  0.9127349E-01
       -1   -1    0    0    0  501  0.00000000000E+00  0.00000000000E+00  0.56108953144E+03  0.56108953146E+03  0.50400001928E-02 0. -1.
        1   -1    0    0  501    0  0.00000000000E+00  0.00000000000E+00 -0.62417282787E+03  0.62417282789E+03  0.50400001928E-02 0.  1.
    10030    2    1    2    0    0  0.00000000000E+00  0.00000000000E+00 -0.63083296432E+02  0.11852623594E+04  0.11835824256E+04 0.  0.
        1    1    3    3  502    0  0.52230772330E+03  0.24826487897E+02 -0.30905431878E+03  0.60740125478E+03  0.50400001928E-02 0.  1.
       -1    1    3    3    0  502 -0.52230772330E+03 -0.24826487897E+02  0.24597102235E+03  0.57786110458E+03  0.50400001928E-02 0. -1.
</event>
<event>
 5   0  0.5003526E-03  0.1235067E+04  0.7818609E-02  0.9082704E-01
        2   -1    0    0  501    0  0.00000000000E+00  0.00000000000E+00  0.60494242989E+03  0.60494242989E+03  0.25500000920E-02 0.  1.
       -2   -1    0    0    0  501  0.00000000000E+00  0.00000000000E+00 -0.63038666987E+03  0.63038666988E+03  0.25500000920E-02 0. -1.
    10030    2    1    2    0    0  0.00000000000E+00  0.00000000000E+00 -0.25444239988E+02  0.12353290998E+04  0.12350670328E+04 0.  0.
        2    1    3    3  502    0  0.35607806132E+03 -0.47576078981E+03  0.15526508471E+03  0.61420449479E+03  0.25500000920E-02 0.  1.
       -2    1    3    3    0  502 -0.35607806132E+03  0.47576078981E+03 -0.18070932470E+03  0.62112460499E+03  0.25500000920E-02 0. -1.
</event>
<event>
 5   0  0.5003526E-03  0.1194520E+04  0.7818609E-02  0.9117666E-01
        2   -1    0    0  501    0  0.00000000000E+00  0.00000000000E+00  0.10808279146E+04  0.10808279146E+04  0.25500000920E-02 0.  1.
       -2   -1    0    0    0  501  0.00000000000E+00  0.00000000000E+00 -0.33004302304E+03  0.33004302305E+03  0.25500000920E-02 0. -1.
    10030    2    1    2    0    0  0.00000000000E+00  0.00000000000E+00  0.75078489152E+03  0.14108709376E+04  0.11945203428E+04 0.  0.
        2    1    3    3  502    0  0.43301606029E+03 -0.35736012698E+03  0.13474960423E+03  0.57737909962E+03  0.25500000920E-02 0. -1.
       -2    1    3    3    0  502 -0.43301606029E+03  0.35736012698E+03  0.61603528729E+03  0.83349183800E+03  0.25500000920E-02 0.  1.
</event>
<event>
 5   0  0.5003526E-03  0.1194942E+04  0.7818609E-02  0.9117296E-01
        2   -1    0    0  501    0  0.00000000000E+00  0.00000000000E+00  0.23655606778E+04  0.23655606778E+04  0.25500000920E-02 0. -1.
       -2   -1    0    0    0  501  0.00000000000E+00  0.00000000000E+00 -0.15090353943E+03  0.15090353945E+03  0.25500000920E-02 0.  1.
    10030    2    1    2    0    0  0.00000000000E+00  0.00000000000E+00  0.22146571383E+04  0.25164642172E+04  0.11949418045E+04 0.  0.
        2    1    3    3  502    0 -0.42271825662E+02 -0.15831559332E+03  0.23173147559E+04  0.23231010336E+04  0.25500000920E-02 0. -1.
       -2    1    3    3    0  502  0.42271825662E+02  0.15831559332E+03 -0.10265761756E+03  0.19336318363E+03  0.25500000920E-02 0.  1.
</event>
<event>
 5   0  0.5467554E-03  0.1328135E+04  0.7818609E-02  0.9007547E-01
       -2   -1    0    0    0  501  0.00000000000E+00  0.00000000000E+00  0.89299740875E+03  0.89299740876E+03  0.25500000920E-02 0.  1.
        2   -1    0    0  501    0  0.00000000000E+00  0.00000000000E+00 -0.49382614378E+03  0.49382614379E+03  0.25500000920E-02 0. -1.
    10030    2    1    2    0    0  0.00000000000E+00  0.00000000000E+00  0.39917126497E+03  0.13868235525E+04  0.13281347323E+04 0.  0.
        1    1    3    3  502    0  0.39510507737E+03  0.48830328539E+03  0.42460130613E+03  0.75817833646E+03  0.50400001928E-02 0.  1.
       -1    1    3    3    0  502 -0.39510507737E+03 -0.48830328539E+03 -0.25430041155E+02  0.62864521608E+03  0.50400001928E-02 0. -1.
</event>
<event>
 5   0  0.2792518E-03  0.1202321E+04  0.7818609E-02  0.9110827E-01
       -1   -1    0    0    0  501  0.00000000000E+00  0.00000000000E+00  0.52995204653E+03  0.52995204655E+03  0.50400001928E-02 0. -1.
        1   -1    0    0  501    0  0.00000000000E+00  0.00000000000E+00 -0.68193758977E+03  0.68193758979E+03  0.50400001928E-02 0.  1.
    10030    2    1    2    0    0  0.00000000000E+00  0.00000000000E+00 -0.15198554324E+03  0.12118896363E+04  0.12023214567E+04 0.  0.
        2    1    3    3  502    0 -0.20491700463E+03 -0.43445417650E+03 -0.44032857622E+03  0.65163691217E+03  0.25500000920E-02 0.  1.
       -2    1    3    3    0  502  0.20491700463E+03  0.43445417650E+03  0.28834303297E+03  0.56025272417E+03  0.25500000920E-02 0. -1.
</event>
<event>
 5   0  0.5189537E-03  0.1196725E+04  0.7818609E-02  0.9115728E-01
        2   -1    0    0  501    0  0.00000000000E+00  0.00000000000E+00  0.22537136509E+04  0.22537136509E+04  0.25500000920E-02 0. -1.
       -2   -1    0    0    0  501  0.00000000000E+00  0.00000000000E+00 -0.15886555500E+03  0.15886555502E+03  0.25500000920E-02 0.  1.
    10030    2    1    2    0    0  0.00000000000E+00  0.00000000000E+00  0.20948480959E+04  0.24125792059E+04  0.11967246467E+04 0.  0.
        4    1    3    3  502    0 -0.49103958331E+02  0.31007504369E+03  0.20743466697E+04  0.20979688870E+04  0.12699999809E+01 0. -1.
       -4    1    3    3    0  502  0.49103958331E+02 -0.31007504369E+03  0.20501426181E+02  0.31461031899E+03  0.12699999809E+01 0.  1.
</event>
<event>
 5   0  0.5031575E-03  0.1196659E+04  0.7818609E-02  0.9115786E-01
       -2   -1    0    0    0  501  0.00000000000E+00  0.00000000000E+00  0.78475833200E+03  0.78475833200E+03  0.25500000920E-02 0.  1.
        2   -1    0    0  501    0  0.00000000000E+00  0.00000000000E+00 -0.45618945826E+03  0.45618945826E+03  0.25500000920E-02 0. -1.
    10030    2    1    2    0    0  0.00000000000E+00  0.00000000000E+00  0.32856887374E+03  0.12409477903E+04  0.11966594810E+04 0.  0.
        5    1    3    3  502    0 -0.29418579505E+03 -0.49591103229E+03 -0.13236640291E+01  0.57662542091E+03  0.46999998093E+01 0. -1.
       -5    1    3    3    0  502  0.29418579505E+03  0.49591103229E+03  0.32989253777E+03  0.66432236936E+03  0.46999998093E+01 0.  1.
</event>
<event>
 5   0  0.2930868E-03  0.1199023E+04  0.7818609E-02  0.9113712E-01
        1   -1    0    0  501    0  0.00000000000E+00  0.00000000000E+00  0.71989743493E+03  0.71989743495E+03  0.50400001928E-02 0. -1.
       -1   -1    0    0    0  501  0.00000000000E+00  0.00000000000E+00 -0.49925748410E+03  0.49925748413E+03  0.50400001928E-02 0.  1.
    10030    2    1    2    0    0  0.00000000000E+00  0.00000000000E+00  0.22063995083E+03  0.12191549191E+04  0.11990232395E+04 0.  0.
        3    1    3    3  502    0  0.42827262535E+02 -0.32747269426E+02 -0.49678766626E+03  0.49970446628E+03  0.10100000352E+00 0.  1.
       -3    1    3    3    0  502 -0.42827262535E+02  0.32747269426E+02  0.71742761709E+03  0.71945045280E+03  0.10100000352E+00 0. -1.
</event>
<event>
 5   0  0.5031575E-03  0.1206522E+04  0.7818609E-02  0.9107167E-01
       -2   -1    0    0    0  501  0.00000000000E+00  0.00000000000E+00  0.28194325014E+03  0.28194325015E+03  0.25500000920E-02 0.  1.
        2   -1    0    0  501    0  0.00000000000E+00  0.00000000000E+00 -0.12907708225E+04  0.12907708225E+04  0.25500000920E-02 0. -1.
    10030    2    1    2    0    0  0.00000000000E+00  0.00000000000E+00 -0.10088275723E+04  0.15727140726E+04  0.12065224754E+04 0.  0.
        5    1    3    3  502    0  0.58376694965E+03  0.12817380444E+02 -0.30692495310E+03  0.65967655224E+03  0.46999998093E+01 0.  1.
       -5    1    3    3    0  502 -0.58376694965E+03 -0.12817380444E+02 -0.70190261925E+03  0.91303752040E+03  0.46999998093E+01 0. -1.
</event>
<event>
 5   0  0.2926844E-03  0.1204749E+04  0.7818609E-02  0.9108710E-01
        1   -1    0    0  501    0  0.00000000000E+00  0.00000000000E+00  0.89980406923E+03  0.89980406924E+03  0.50400001928E-02 0. -1.
       -1   -1    0    0    0  501  0.00000000000E+00  0.00000000000E+00 -0.40325974336E+03  0.40325974339E+03  0.50400001928E-02 0.  1.
    10030    2    1    2    0    0  0.00000000000E+00  0.00000000000E+00  0.49654432587E+03  0.13030638126E+04  0.12047485349E+04 0.  0.
        5    1    3    3  502    0 -0.27129938618E+03  0.10337177915E+03 -0.32256975797E+03  0.43400739673E+03  0.46999998093E+01 0.  1.
       -5    1    3    3    0  502  0.27129938618E+03 -0.10337177915E+03  0.81911408384E+03  0.86905641589E+03  0.46999998093E+01 0. -1.
</event>
<event>
 5   0  0.5031575E-03  0.9140181E+03  0.7818609E-02  0.9408226E-01
       -2   -1    0    0    0  501  0.00000000000E+00  0.00000000000E+00  0.34464400173E+03  0.34464400174E+03  0.25500000920E-02 0.  1.
        2   -1    0    0  501    0  0.00000000000E+00  0.00000000000E+00 -0.60600877536E+03  0.60600877537E+03  0.25500000920E-02 0. -1.
    10030    2    1    2    0    0  0.00000000000E+00  0.00000000000E+00 -0.26136477363E+03  0.95065277711E+03  0.91401813862E+03 0.  0.
        5    1    3    3  502    0 -0.34968813043E+03 -0.18484542563E+03 -0.36873501637E+03  0.54077465014E+03  0.46999998093E+01 0. -1.
       -5    1    3    3    0  502  0.34968813043E+03  0.18484542563E+03  0.10737024273E+03  0.40987812697E+03  0.46999998093E+01 0.  1.
</event>
<event>
 5   0  0.5003526E-03  0.1195961E+04  0.7818609E-02  0.9116399E-01
        2   -1    0    0  501    0  0.00000000000E+00  0.00000000000E+00  0.65633467970E+03  0.65633467970E+03  0.25500000920E-02 0. -1.
       -2   -1    0    0    0  501  0.00000000000E+00  0.00000000000E+00 -0.54481486487E+03  0.54481486487E+03  0.25500000920E-02 0.  1.
    10030    2    1    2    0    0  0.00000000000E+00  0.00000000000E+00  0.11151981483E+03  0.12011495446E+04  0.11959613536E+04 0.  0.
        2    1    3    3  502    0  0.43372491866E+03 -0.16749834294E+03  0.43343361850E+03  0.63563960041E+03  0.25500000920E-02 0. -1.
       -2    1    3    3    0  502 -0.43372491866E+03  0.16749834294E+03 -0.32191380367E+03  0.56550994417E+03  0.25500000920E-02 0.  1.
</event>
<event>
 5   0  0.2875848E-03  0.1186155E+04  0.7818609E-02  0.9125062E-01
       -1   -1    0    0    0  501  0.00000000000E+00  0.00000000000E+00  0.47009774069E+03  0.47009774072E+03  0.50400001928E-02 0. -1.
        1   -1    0    0  501    0  0.00000000000E+00  0.00000000000E+00 -0.74822954495E+03  0.74822954497E+03  0.50400001928E-02 0.  1.
    10030    2    1    2    0    0  0.00000000000E+00  0.00000000000E+00 -0.27813180426E+03  0.12183272857E+04  0.11861551646E+04 0.  0.
        1    1    3    3  502    0  0.47208077512E+03  0.15085524490E+03 -0.47366761348E+03  0.68554983133E+03  0.50400001928E-02 0.  1.
       -1    1    3    3    0  502 -0.47208077512E+03 -0.15085524490E+03  0.19553580922E+03  0.53277745436E+03  0.50400001928E-02 0. -1.
</event>
<event>
 5   0  0.2930868E-03  0.1196738E+04  0.7818609E-02  0.9115716E-01
        1   -1    0    0  501    0  0.00000000000E+00  0.00000000000E+00  0.43128162748E+03  0.43128162751E+03  0.50400001928E-02 0. -1.
       -1   -1    0    0    0  501  0.00000000000E+00  0.00000000000E+00 -0.83018983596E+03  0.83018983598E+03  0.50400001928E-02 0.  1.
    10030    2    1    2    0    0  0.00000000000E+00  0.00000000000E+00 -0.39890820848E+03  0.12614714635E+04  0.11967382731E+04 0.  0.
        3    1    3    3  502    0  0.24448706633E+03 -0.88936864795E+02 -0.76745377132E+03  0.81035115403E+03  0.10100000352E+00 0.  1.
       -3    1    3    3    0  502 -0.24448706633E+03  0.88936864795E+02  0.36854556284E+03  0.45112030946E+03  0.10100000352E+00 0. -1.
</event>
<event>
 5   0  0.5189537E-03  0.1182698E+04  0.7818609E-02  0.9128137E-01
        2   -1    0    0  501    0  0.00000000000E+00  0.00000000000E+00  0.66293323599E+03  0.66293323600E+03  0.25500000920E-02 0. -1.
       -2   -1    0    0    0  501  0.00000000000E+00  0.00000000000E+00 -0.52749436214E+03  0.52749436214E+03  0.25500000920E-02 0.  1.
    10030    2    1    2    0    0  0.00000000000E+00  0.00000000000E+00  0.13543887385E+03  0.11904275981E+04  0.11826978388E+04 0.  0.
        4    1    3    3  502    0 -0.33988019770E+03  0.27242351132E+03 -0.33484302020E+03  0.54941294068E+03  0.12699999809E+01 0.  1.
       -4    1    3    3    0  502  0.33988019770E+03 -0.27242351132E+03  0.47028189405E+03  0.64101465746E+03  0.12699999809E+01 0. -1.
</event>
<event>
 5   0  0.5189537E-03  0.1212874E+04  0.7818609E-02  0.9101662E-01
        2   -1    0    0  501    0  0.00000000000E+00  0.00000000000E+00  0.84218462419E+03  0.84218462420E+03  0.25500000920E-02 0. -1.
       -2   -1    0    0    0  501  0.00000000000E+00  0.00000000000E+00 -0.43668110798E+03  0.43668110799E+03  0.25500000920E-02 0.  1.
    10030    2    1    2    0    0  0.00000000000E+00  0.00000000000E+00  0.40550351621E+03  0.12788657322E+04  0.12128744615E+04 0.  0.
        4    1    3    3  502    0  0.27745761989E+03 -0.51887603553E+03  0.35753609143E+03  0.68851197568E+03  0.12699999809E+01 0. -1.
       -4    1    3    3    0  502 -0.27745761989E+03  0.51887603553E+03  0.47967424780E+02  0.59035375650E+03  0.12699999809E+01 0.  1.
</event>
<event>
 5   0  0.5467554E-03  0.9515202E+03  0.7818609E-02  0.9363375E-01
        2   -1    0    0  501    0  0.00000000000E+00  0.00000000000E+00  0.71564512759E+03  0.71564512760E+03  0.25500000920E-02 0. -1.
       -2   -1    0    0    0  501  0.00000000000E+00  0.00000000000E+00 -0.31628482155E+03  0.31628482156E+03  0.25500000920E-02 0.  1.
    10030    2    1    2    0    0  0.00000000000E+00  0.00000000000E+00  0.39936030604E+03  0.10319299492E+04  0.95152023937E+03 0.  0.
        1    1    3    3  502    0  0.32971292515E+03  0.12944436140E+03  0.54413903154E+03  0.64927170073E+03  0.50400001928E-02 0. -1.
       -1    1    3    3    0  502 -0.32971292515E+03 -0.12944436140E+03 -0.14477872550E+03  0.38265824843E+03  0.50400001928E-02 0.  1.
</event>
<event>
 5   0  0.1922125E-03  0.1189558E+04  0.7818609E-02  0.9122046E-01
        4   -1    0    0  501    0  0.00000000000E+00  0.00000000000E+00  0.27577834651E+03  0.27578127077E+03  0.12699999809E+01 0. -1.
       -4   -1    0    0    0  501  0.00000000000E+00  0.00000000000E+00 -0.12827673080E+04  0.12827679367E+04  0.12699999809E+01 0.  1.
    10030    2    1    2    0    0  0.00000000000E+00  0.00000000000E+00 -0.10069889615E+04  0.15585492075E+04  0.11895582640E+04 0.  0.
        1    1    3    3  502    0  0.19652500502E+02  0.49141685475E+03 -0.94174419883E+03  0.10624306481E+04  0.50400001928E-02 0.  1.
       -1    1    3    3    0  502 -0.19652500502E+02 -0.49141685475E+03 -0.65244762685E+02  0.49611855941E+03  0.50400001928E-02 0. -1.
</event>
<event>
 5   0  0.2930868E-03  0.1136566E+04  0.7818609E-02  0.9170267E-01
       -1   -1    0    0    0  501  0.00000000000E+00  0.00000000000E+00  0.17995389038E+03  0.17995389046E+03  0.50400001928E-02 0. -1.
        1   -1    0    0  501    0  0.00000000000E+00  0.00000000000E+00 -0.17946012975E+04  0.17946012975E+04  0.50400001928E-02 0.  1.
    10030    2    1    2    0    0  0.00000000000E+00  0.00000000000E+00 -0.16146474071E+04  0.19745551880E+04  0.11365658542E+04 0.  0.
        3    1    3    3  502    0  0.32565011257E+03 -0.23872296101E+03 -0.11260196102E+03  0.41918475611E+03  0.10100000352E+00 0. -1.
       -3    1    3    3    0  502 -0.32565011257E+03  0.23872296101E+03 -0.15020454461E+04  0.15553704319E+04  0.10100000352E+00 0.  1.
</event>
<event>
 5   0  0.2875848E-03  0.1207636E+04  0.7818609E-02  0.9106199E-01
        1   -1    0    0  501    0  0.00000000000E+00  0.00000000000E+00  0.10456632866E+04  0.10456632866E+04  0.50400001928E-02 0.  1.
       -1   -1    0    0    0  501  0.00000000000E+00  0.00000000000E+00 -0.34867466222E+03  0.34867466226E+03  0.50400001928E-02 0. -1.
    10030    2    1    2    0    0  0.00000000000E+00  0.00000000000E+00  0.69698862436E+03  0.13943379489E+04  0.12076361924E+04 0.  0.
        1    1    3    3  502    0  0.74354547709E+01 -0.22551136348E+03  0.99515914085E+03  0.10204177462E+04  0.50400001928E-02 0.  1.
       -1    1    3    3    0  502 -0.74354547709E+01  0.22551136348E+03 -0.29817051649E+03  0.37392020269E+03  0.50400001928E-02 0. -1.
</event>
<event>
 5   0  0.5003526E-03  0.1200526E+04  0.7818609E-02  0.9112397E-01
       -2   -1    0    0    0  501  0.00000000000E+00  0.00000000000E+00  0.34133944507E+03  0.34133944508E+03  0.25500000920E-02 0.  1.
        2   -1    0    0  501    0  0.00000000000E+00  0.00000000000E+00 -0.10555926920E+04  0.10555926920E+04  0.25500000920E-02 0. -1.
    10030    2    1    2    0    0  0.00000000000E+00  0.00000000000E+00 -0.71425324690E+03  0.13969321371E+04  0.12005255911E+04 0.  0.
        2    1    3    3  502    0 -0.22735758105E+03 -0.55504258909E+03 -0.38445707775E+03  0.71244016591E+03  0.25500000920E-02 0.  1.
       -2    1    3    3    0  502  0.22735758105E+03  0.55504258909E+03 -0.32979616915E+03  0.68449197115E+03  0.25500000920E-02 0. -1.
</event>
<event>
 5   0  0.2926844E-03  0.1191926E+04  0.7818609E-02  0.9119953E-01
        1   -1    0    0  501    0  0.00000000000E+00  0.00000000000E+00  0.15139042264E+04  0.15139042264E+04  0.50400001928E-02 0. -1.
       -1   -1    0    0    0  501  0.00000000000E+00  0.00000000000E+00 -0.23460659963E+03  0.23460659969E+03  0.50400001928E-02 0.  1.
    10030    2    1    2    0    0  0.00000000000E+00  0.00000000000E+00  0.12792976268E+04  0.17485108261E+04  0.11919260426E+04 0.  0.
        5    1    3    3  502    0  0.29112794612E+03 -0.27195098963E+03 -0.10526799019E+02  0.39855454491E+03  0.46999998093E+01 0.  1.
       -5    1    3    3    0  502 -0.29112794612E+03  0.27195098963E+03  0.12898244258E+04  0.13499562812E+04  0.46999998093E+01 0. -1.
</event>
<event>
 5   0  0.2930868E-03  0.1123228E+04  0.7818609E-02  0.9182843E-01
        1   -1    0    0  501    0  0.00000000000E+00  0.00000000000E+00  0.17498780795E+04  0.17498780795E+04  0.50400001928E-02 0.  1.
       -1   -1    0    0    0  501  0.00000000000E+00  0.00000000000E+00 -0.18024709419E+03  0.18024709426E+03  0.50400001928E-02 0. -1.
    10030    2    1    2    0    0  0.00000000000E+00  0.00000000000E+00  0.15696309853E+04  0.19301251738E+04  0.11232282744E+04 0.  0.
        3    1    3    3  502    0  0.10781582496E+03 -0.21431022603E+03  0.16573993343E+04  0.16746718152E+04  0.10100000352E+00 0.  1.
       -3    1    3    3    0  502 -0.10781582496E+03  0.21431022603E+03 -0.87768349026E+02  0.25545335853E+03  0.10100000352E+00 0. -1.
</event>
<event>
 5   0  0.2792518E-03  0.1178524E+04  0.7818609E-02  0.9131865E-01
        1   -1    0    0  501    0  0.00000000000E+00  0.00000000000E+00  0.15065340105E+04  0.15065340105E+04  0.50400001928E-02 0. -1.
       -1   -1    0    0    0  501  0.00000000000E+00  0.00000000000E+00 -0.23048229517E+03  0.23048229522E+03  0.50400001928E-02 0.  1.
    10030    2    1    2    0    0  0.00000000000E+00  0.00000000000E+00  0.12760517153E+04  0.17370163057E+04  0.11785235111E+04 0.  0.
        2    1    3    3  502    0 -0.28313675051E+03  0.48569128577E+03  0.89822924717E+03  0.10596594854E+04  0.25500000920E-02 0. -1.
       -2    1    3    3    0  502  0.28313675051E+03 -0.48569128577E+03  0.37782246816E+03  0.67735682030E+03  0.25500000920E-02 0.  1.
</event>
<event>
 5   0  0.5003526E-03  0.1194031E+04  0.7818609E-02  0.9118098E-01
       -2   -1    0    0    0  501  0.00000000000E+00  0.00000000000E+00  0.13201904221E+04  0.13201904221E+04  0.25500000920E-02 0.  1.
        2   -1    0    0  501    0  0.00000000000E+00  0.00000000000E+00 -0.26998171904E+03  0.26998171905E+03  0.25500000920E-02 0. -1.
    10030    2    1    2    0    0  0.00000000000E+00  0.00000000000E+00  0.10502087030E+04  0.15901721411E+04  0.11940306187E+04 0.  0.
        2    1    3    3  502    0 -0.77524696545E+02 -0.34720203156E+03  0.11636146240E+04  0.12167819535E+04  0.25500000920E-02 0.  1.
       -2    1    3    3    0  502  0.77524696545E+02  0.34720203156E+03 -0.11340592093E+03  0.37339018761E+03  0.25500000920E-02 0. -1.
</event>
<event>
 5   0  0.5031575E-03  0.1202492E+04  0.7818609E-02  0.9110678E-01
       -2   -1    0    0    0  501  0.00000000000E+00  0.00000000000E+00  0.28673768049E+03  0.28673768051E+03  0.25500000920E-02 0. -1.
        2   -1    0    0  501    0  0.00000000000E+00  0.00000000000E+00 -0.12607230569E+04  0.12607230569E+04  0.25500000920E-02 0.  1.
    10030    2    1    2    0    0  0.00000000000E+00  0.00000000000E+00 -0.97398537644E+03  0.15474607374E+04  0.12024920875E+04 0.  0.
        5    1    3    3  502    0 -0.58016944724E+03  0.15412006634E+03 -0.53015843857E+03  0.80089927103E+03  0.46999998093E+01 0.  1.
       -5    1    3    3    0  502  0.58016944724E+03 -0.15412006634E+03 -0.44382693787E+03  0.74656146641E+03  0.46999998093E+01 0. -1.
</event>
<event>
 5   0  0.2926844E-03  0.1225791E+04  0.7818609E-02  0.9090576E-01
       -1   -1    0    0    0  501  0.00000000000E+00  0.00000000000E+00  0.51765091444E+03  0.51765091446E+03  0.50400001928E-02 0. -1.
        1   -1    0    0  501    0  0.00000000000E+00  0.00000000000E+00 -0.72566466237E+03  0.72566466239E+03  0.50400001928E-02 0.  1.
    10030    2    1    2    0    0  0.00000000000E+00  0.00000000000E+00 -0.20801374794E+03  0.12433155769E+04  0.12257911340E+04 0.  0.
        5    1    3    3  502    0  0.32432632465E+03 -0.35742878725E+03  0.27911798852E+03  0.55755882589E+03  0.46999998093E+01 0. -1.
       -5    1    3    3    0  502 -0.32432632465E+03  0.35742878725E+03 -0.48713173646E+03  0.68575675096E+03  0.46999998093E+01 0.  1.
</event>
<event>
 5   0  0.2875848E-03  0.1193113E+04  0.7818609E-02  0.9118906E-01
       -1   -1    0    0    0  501  0.00000000000E+00  0.00000000000E+00  0.24915255450E+03  0.24915255455E+03  0.50400001928E-02 0.  1.
        1   -1    0    0  501    0  0.00000000000E+00  0.00000000000E+00 -0.14283603598E+04  0.14283603598E+04  0.50400001928E-02 0. -1.
    10030    2    1    2    0    0  0.00000000000E+00  0.00000000000E+00 -0.11792078053E+04  0.16775129144E+04  0.11931129577E+04 0.  0.
        1    1    3    3  502    0  0.42221217708E+03 -0.14197731993E+03 -0.11475188363E+04  0.12309427937E+04  0.50400001928E-02 0. -1.
       -1    1    3    3    0  502 -0.42221217708E+03  0.14197731993E+03 -0.31688969026E+02  0.44657012062E+03  0.50400001928E-02 0.  1.
</event>
<event>
 5   0  0.2926844E-03  0.1198832E+04  0.7818609E-02  0.9113879E-01
       -1   -1    0    0    0  501  0.00000000000E+00  0.00000000000E+00  0.76001150342E+03  0.76001150344E+03  0.50400001928E-02 0.  1.
        1   -1    0    0  501    0  0.00000000000E+00  0.00000000000E+00 -0.47275545904E+03  0.47275545906E+03  0.50400001928E-02 0. -1.
    10030    2    1    2    0    0  0.00000000000E+00  0.00000000000E+00  0.28725604438E+03  0.12327669625E+04  0.11988320770E+04 0.  0.
        5    1    3    3  502    0 -0.19378348140E+03 -0.34277629801E+03  0.60833828285E+03  0.72466901722E+03  0.46999998093E+01 0.  1.
       -5    1    3    3    0  502  0.19378348140E+03  0.34277629801E+03 -0.32108223847E+03  0.50809794528E+03  0.46999998093E+01 0. -1.
</event>
<event>
 5   0  0.5031575E-03  0.1200116E+04  0.7818609E-02  0.9112755E-01
        2   -1    0    0  501    0  0.00000000000E+00  0.00000000000E+00  0.22076782179E+04  0.22076782179E+04  0.25500000920E-02 0. -1.
       -2   -1    0    0    0  501  0.00000000000E+00  0.00000000000E+00 -0.16309864959E+03  0.16309864961E+03  0.25500000920E-02 0.  1.
    10030    2    1    2    0    0  0.00000000000E+00  0.00000000000E+00  0.20445795683E+04  0.23707768675E+04  0.12001155546E+04 0.  0.
        5    1    3    3  502    0 -0.72135642433E+02  0.37814521622E+03  0.11304307380E+03  0.40124578751E+03  0.46999998093E+01 0.  1.
       -5    1    3    3    0  502  0.72135642433E+02 -0.37814521622E+03  0.19315364945E+04  0.19695310800E+04  0.46999998093E+01 0. -1.
</event>
<event>
 5   0  0.1922125E-03  0.1229120E+04  0.7818609E-02  0.9087743E-01
        3   -1    0    0  501    0  0.00000000000E+00  0.00000000000E+00  0.36586405550E+03  0.36586406944E+03  0.10100000352E+00 0.  1.
       -3   -1    0    0    0  501  0.00000000000E+00  0.00000000000E+00 -0.10323075102E+04  0.10323075152E+04  0.10100000352E+00 0. -1.
    10030    2    1    2    0    0  0.00000000000E+00  0.00000000000E+00 -0.66644345474E+03  0.13981715846E+04  0.12291203772E+04 0.  0.
        1    1    3    3  502    0  0.27111778058E+03 -0.25623835668E+03 -0.88877999831E+03  0.96389461654E+03  0.50400001928E-02 0. -1.
       -1    1    3    3    0  502 -0.27111778058E+03  0.25623835668E+03  0.22233654357E+03  0.43427696809E+03  0.50400001928E-02 0.  1.
</event>
<event>
 5   0  0.5003526E-03  0.1185427E+04  0.7818609E-02  0.9125709E-01
        2   -1    0    0  501    0  0.00000000000E+00  0.00000000000E+00  0.16755966559E+04  0.16755966559E+04  0.25500000920E-02 0.  1.
       -2   -1    0    0    0  501  0.00000000000E+00  0.00000000000E+00 -0.20966222326E+03  0.20966222328E+03  0.25500000920E-02 0. -1.
    10030    2    1    2    0    0  0.00000000000E+00  0.00000000000E+00  0.14659344327E+04  0.18852588792E+04  0.11854270457E+04 0.  0.
        2    1    3    3  502    0 -0.42865661397E+02 -0.25486023257E+03  0.15812704576E+04  0.16022507491E+04  0.25500000920E-02 0.  1.
       -2    1    3    3    0  502  0.42865661397E+02  0.25486023257E+03 -0.11533602487E+03  0.28300813012E+03  0.25500000920E-02 0. -1.
</event>
<event>
 5   0  0.5003526E-03  0.1186924E+04  0.7818609E-02  0.9124379E-01
        2   -1    0    0  501    0  0.00000000000E+00  0.00000000000E+00  0.31199263470E+03  0.31199263471E+03  0.25500000920E-02 0. -1.
       -2   -1    0    0    0  501  0.00000000000E+00  0.00000000000E+00 -0.11288642735E+04  0.11288642735E+04  0.25500000920E-02 0.  1.
    10030    2    1    2    0    0  0.00000000000E+00  0.00000000000E+00 -0.81687163876E+03  0.14408569082E+04  0.11869243260E+04 0.  0.
        2    1    3    3  502    0  0.30312335038E+03  0.50577361221E+03 -0.48992943892E+03  0.76663000690E+03  0.25500000920E-02 0. -1.
       -2    1    3    3    0  502 -0.30312335038E+03 -0.50577361221E+03 -0.32694219984E+03  0.67422690128E+03  0.25500000920E-02 0.  1.
</event>
<event>
 5   0  0.5031575E-03  0.1135849E+04  0.7818609E-02  0.9170939E-01
       -2   -1    0    0    0  501  0.00000000000E+00  0.00000000000E+00  0.44096424919E+03  0.44096424919E+03  0.25500000920E-02 0.  1.
        2   -1    0    0  501    0  0.00000000000E+00  0.00000000000E+00 -0.73143853980E+03  0.73143853980E+03  0.25500000920E-02 0. -1.
    10030    2    1    2    0    0  0.00000000000E+00  0.00000000000E+00 -0.29047429061E+03  0.11724027890E+04  0.11358490156E+04 0.  0.
        5    1    3    3  502    0 -0.47264181202E+03  0.19960911933E+03 -0.39655186705E+03  0.64846708186E+03  0.46999998093E+01 0. -1.
       -5    1    3    3    0  502  0.47264181202E+03 -0.19960911933E+03  0.10607757644E+03  0.52393570714E+03  0.46999998093E+01 0.  1.
</event>
<event>
 5   0  0.5467554E-03  0.1177979E+04  0.7818609E-02  0.9132353E-01
       -2   -1    0    0    0  501  0.00000000000E+00  0.00000000000E+00  0.54097264030E+03  0.54097264030E+03  0.25500000920E-02 0.  1.
        2   -1    0    0  501    0  0.00000000000E+00  0.00000000000E+00 -0.64126832440E+03  0.64126832440E+03  0.25500000920E-02 0. -1.
    10030    2    1    2    0    0  0.00000000000E+00  0.00000000000E+00 -0.10029568410E+03  0.11822409647E+04  0.11779789787E+04 0.  0.
        1    1    3    3  502    0 -0.29161054304E+03 -0.14483937400E+03 -0.54273260399E+03  0.63290902390E+03  0.50400001928E-02 0. -1.
       -1    1    3    3    0  502  0.29161054304E+03  0.14483937400E+03  0.44243691989E+03  0.54933194080E+03  0.50400001928E-02 0.  1.
</event>
<event>
 5   0  0.5003526E-03  0.1174613E+04  0.7818609E-02  0.9135373E-01
       -2   -1    0    0    0  501  0.00000000000E+00  0.00000000000E+00  0.22453893693E+03  0.22453893695E+03  0.25500000920E-02 0. -1.
        2   -1    0    0  501    0  0.00000000000E+00  0.00000000000E+00 -0.15361652281E+04  0.15361652281E+04  0.25500000920E-02 0.  1.
    10030    2    1    2    0    0  0.00000000000E+00  0.00000000000E+00 -0.13116262912E+04  0.17607041650E+04  0.11746129699E+04 0.  0.
        2    1    3    3  502    0 -0.28344085613E+03 -0.14407470621E+02  0.11492711418E+03  0.30619362454E+03  0.25500000920E-02 0. -1.
       -2    1    3    3    0  502  0.28344085613E+03  0.14407470621E+02 -0.14265534053E+04  0.14545105405E+04  0.25500000920E-02 0.  1.
</event>
<event>
 5   0  0.5467554E-03  0.1201433E+04  0.7818609E-02  0.9111603E-01
        2   -1    0    0  501    0  0.00000000000E+00  0.00000000000E+00  0.61408895741E+03  0.61408895742E+03  0.25500000920E-02 0. -1.
       -2   -1    0    0    0  501  0.00000000000E+00  0.00000000000E+00 -0.58763522763E+03  0.58763522764E+03  0.25500000920E-02 0.  1.
    10030    2    1    2    0    0  0.00000000000E+00  0.00000000000E+00  0.26453729783E+02  0.12017241851E+04  0.12014329849E+04 0.  0.
        1    1    3    3  502    0 -0.28482349306E+03 -0.11514490962E+03  0.52956660165E+03  0.61222835447E+03  0.50400001928E-02 0. -1.
       -1    1    3    3    0  502  0.28482349306E+03  0.11514490962E+03 -0.50311287187E+03  0.58949583058E+03  0.50400001928E-02 0.  1.
</event>
<event>
 5   0  0.2938349E-03  0.1203266E+04  0.7818609E-02  0.9110002E-01
       -1   -1    0    0    0  501  0.00000000000E+00  0.00000000000E+00  0.19279010513E+03  0.19279010520E+03  0.50400001928E-02 0.  1.
        1   -1    0    0  501    0  0.00000000000E+00  0.00000000000E+00 -0.18774950704E+04  0.18774950704E+04  0.50400001928E-02 0. -1.
    10030    2    1    2    0    0  0.00000000000E+00  0.00000000000E+00 -0.16847049653E+04  0.20702851756E+04  0.12032663414E+04 0.  0.
        4    1    3    3  502    0 -0.49319308714E+03 -0.86728815588E+01 -0.24970648550E+03  0.55287392946E+03  0.12699999809E+01 0.  1.
       -4    1    3    3    0  502  0.49319308714E+03  0.86728815588E+01 -0.14349984798E+04  0.15174112462E+04  0.12699999809E+01 0. -1.
</event>
<event>
 5   0  0.2938349E-03  0.1191640E+04  0.7818609E-02  0.9120206E-01
       -1   -1    0    0    0  501  0.00000000000E+00  0.00000000000E+00  0.31013993062E+03  0.31013993066E+03  0.50400001928E-02 0.  1.
        1   -1    0    0  501    0  0.00000000000E+00  0.00000000000E+00 -0.11446488415E+04  0.11446488415E+04  0.50400001928E-02 0. -1.
    10030    2    1    2    0    0  0.00000000000E+00  0.00000000000E+00 -0.83450891084E+03  0.14547887721E+04  0.11916397313E+04 0.  0.
        4    1    3    3  502    0  0.57913375853E+03 -0.19552813540E+02 -0.58651211823E+03  0.82448547623E+03  0.12699999809E+01 0. -1.
       -4    1    3    3    0  502 -0.57913375853E+03  0.19552813540E+02 -0.24799679261E+03  0.63030329591E+03  0.12699999809E+01 0.  1.
</event>
<event>
 5   0  0.2938349E-03  0.1221539E+04  0.7818609E-02  0.9094210E-01
       -1   -1    0    0    0  501  0.00000000000E+00  0.00000000000E+00  0.59764733737E+03  0.59764733739E+03  0.50400001928E-02 0. -1.
        1   -1    0    0  501    0  0.00000000000E+00  0.00000000000E+00 -0.62417981813E+03  0.62417981815E+03  0.50400001928E-02 0.  1.
    10030    2    1    2    0    0  0.00000000000E+00  0.00000000000E+00 -0.26532480765E+02  0.12218271555E+04  0.12215390397E+04 0.  0.
        4    1    3    3  502    0  0.23870716821E+03 -0.84703385012E+02  0.54263639744E+03  0.59884192264E+03  0.12699999809E+01 0. -1.
       -4    1    3    3    0  502 -0.23870716821E+03  0.84703385012E+02 -0.56916887820E+03  0.62298523289E+03  0.12699999809E+01 0.  1.
</event>
<event>
 5   0  0.5189537E-03  0.1165637E+04  0.7818609E-02  0.9143478E-01
       -2   -1    0    0    0  501  0.00000000000E+00  0.00000000000E+00  0.27596433796E+03  0.27596433797E+03  0.25500000920E-02 0.  1.
        2   -1    0    0  501    0  0.00000000000E+00  0.00000000000E+00 -0.12308742885E+04  0.12308742885E+04  0.25500000920E-02 0. -1.
    10030    2    1    2    0    0  0.00000000000E+00  0.00000000000E+00 -0.95490995057E+03  0.15068386265E+04  0.11656370072E+04 0.  0.
        4    1    3    3  502    0  0.50159838782E+03 -0.10715450005E+03 -0.11969043517E+03  0.52669767677E+03  0.12699999809E+01 0.  1.
       -4    1    3    3    0  502 -0.50159838782E+03  0.10715450005E+03 -0.83521951540E+03  0.98014094973E+03  0.12699999809E+01 0. -1.
</event>
<event>
 5   0  0.2926844E-03  0.1205293E+04  0.7818609E-02  0.9108236E-01
        1   -1    0    0  501    0  0.00000000000E+00  0.00000000000E+00  0.14767334720E+04  0.14767334720E+04  0.50400001928E-02 0.  1.
       -1   -1    0    0    0  501  0.00000000000E+00  0.00000000000E+00 -0.24593672687E+03  0.24593672692E+03  0.50400001928E-02 0. -1.
    10030    2    1    2    0    0  0.00000000000E+00  0.00000000000E+00  0.12307967452E+04  0.17226701990E+04  0.12052933197E+04 0.  0.
        5    1    3    3  502    0 -0.44940838963E+03 -0.40446446458E+02  0.11863081043E+04  0.12692331638E+04  0.46999998093E+01 0.  1.
       -5    1    3    3    0  502  0.44940838963E+03  0.40446446458E+02  0.44488640846E+02  0.45343703517E+03  0.46999998093E+01 0. -1.
</event>
<event>
 5   0  0.2792518E-03  0.1194895E+04  0.7818609E-02  0.9117336E-01
       -1   -1    0    0    0  501  0.00000000000E+00  0.00000000000E+00  0.28831731465E+03  0.28831731469E+03  0.50400001928E-02 0. -1.
        1   -1    0    0  501    0  0.00000000000E+00  0.00000000000E+00 -0.12380237922E+04  0.12380237922E+04  0.50400001928E-02 0.  1.
    10030    2    1    2    0    0  0.00000000000E+00  0.00000000000E+00 -0.94970647754E+03  0.15263411069E+04  0.11948953013E+04 0.  0.
        2    1    3    3  502    0  0.19401777375E+03  0.42679838381E+03 -0.94790651616E+03  0.10575095840E+04  0.25500000920E-02 0.  1.
       -2    1    3    3    0  502 -0.19401777375E+03 -0.42679838381E+03 -0.17999613780E+01  0.46883152285E+03  0.25500000920E-02 0. -1.
</event>
<event>
 5   0  0.2938349E-03  0.1196201E+04  0.7818609E-02  0.9116188E-01
       -1   -1    0    0    0  501  0.00000000000E+00  0.00000000000E+00  0.29802227605E+03  0.29802227609E+03  0.50400001928E-02 0.  1.
        1   -1    0    0  501    0  0.00000000000E+00  0.00000000000E+00 -0.12003267513E+04  0.12003267513E+04  0.50400001928E-02 0. -1.
    10030    2    1    2    0    0  0.00000000000E+00  0.00000000000E+00 -0.90230447523E+03  0.14983490274E+04  0.11962008367E+04 0.  0.
        4    1    3    3  502    0 -0.37969822140E+03  0.45455133339E+03 -0.34684193106E+03  0.68635893821E+03  0.12699999809E+01 0. -1.
       -4    1    3    3    0  502  0.37969822140E+03 -0.45455133339E+03 -0.55546254417E+03  0.81199008917E+03  0.12699999809E+01 0.  1.
</event>
<event>
 5   0  0.2938349E-03  0.1179300E+04  0.7818609E-02  0.9131171E-01
        1   -1    0    0  501    0  0.00000000000E+00  0.00000000000E+00  0.11276559688E+04  0.11276559688E+04  0.50400001928E-02 0.  1.
       -1   -1    0    0    0  501  0.00000000000E+00  0.00000000000E+00 -0.30832711354E+03  0.30832711358E+03  0.50400001928E-02 0. -1.
    10030    2    1    2    0    0  0.00000000000E+00  0.00000000000E+00  0.81932885524E+03  0.14359830824E+04  0.11792996395E+04 0.  0.
        4    1    3    3  502    0 -0.28186656586E+03 -0.28875055889E+03 -0.11387117617E+03  0.41927783613E+03  0.12699999809E+01 0. -1.
       -4    1    3    3    0  502  0.28186656586E+03  0.28875055889E+03  0.93320003141E+03  0.10167052462E+04  0.12699999809E+01 0.  1.
</event>
<event>
 5   0  0.5108045E-03  0.1207629E+04  0.7818609E-02  0.9106205E-01
       -2   -1    0    0    0  501  0.00000000000E+00  0.00000000000E+00  0.65437933699E+03  0.65437933699E+03  0.25500000920E-02 0.  1.
        2   -1    0    0  501    0  0.00000000000E+00  0.00000000000E+00 -0.55715726011E+03  0.55715726012E+03  0.25500000920E-02 0. -1.
    10030    2    1    2    0    0  0.00000000000E+00  0.00000000000E+00  0.97222076874E+02  0.12115365971E+04  0.12076294108E+04 0.  0.
        3    1    3    3  502    0  0.36503455255E+03  0.16470272119E+03 -0.40475256487E+03  0.56938726706E+03  0.10100000352E+00 0. -1.
       -3    1    3    3    0  502 -0.36503455255E+03 -0.16470272119E+03  0.50197464174E+03  0.64214933005E+03  0.10100000352E+00 0.  1.
</event>
<event>
 5   0  0.2792518E-03  0.1222366E+04  0.7818609E-02  0.9093502E-01
        1   -1    0    0  501    0  0.00000000000E+00  0.00000000000E+00  0.90407061485E+03  0.90407061486E+03  0.50400001928E-02 0. -1.
       -1   -1    0    0    0  501  0.00000000000E+00  0.00000000000E+00 -0.41318079580E+03  0.41318079583E+03  0.50400001928E-02 0.  1.
    10030    2    1    2    0    0  0.00000000000E+00  0.00000000000E+00  0.49088981905E+03  0.13172514107E+04  0.12223659291E+04 0.  0.
        2    1    3    3  502    0  0.53177441806E+02  0.80443308968E+02  0.89582108357E+03  0.90099632632E+03  0.25500000920E-02 0. -1.
       -2    1    3    3    0  502 -0.53177441806E+02 -0.80443308968E+02 -0.40493126452E+03  0.41625508438E+03  0.25500000920E-02 0.  1.
</event>
<event>
 5   0  0.5108045E-03  0.1159396E+04  0.7818609E-02  0.9149159E-01
       -2   -1    0    0    0  501  0.00000000000E+00  0.00000000000E+00  0.50373572353E+03  0.50373572354E+03  0.25500000920E-02 0. -1.
        2   -1    0    0  501    0  0.00000000000E+00  0.00000000000E+00 -0.66711486497E+03  0.66711486497E+03  0.25500000920E-02 0.  1.
    10030    2    1    2    0    0  0.00000000000E+00  0.00000000000E+00 -0.16337914143E+03  0.11708505885E+04  0.11593956860E+04 0.  0.
        3    1    3    3  502    0  0.14149643392E+03 -0.35661676033E+03 -0.52055517092E+03  0.64666409421E+03  0.10100000352E+00 0.  1.
       -3    1    3    3    0  502 -0.14149643392E+03  0.35661676033E+03  0.35717602949E+03  0.52418649430E+03  0.10100000352E+00 0. -1.
</event>
<event>
 5   0  0.2926844E-03  0.1223340E+04  0.7818609E-02  0.9092669E-01
        1   -1    0    0  501    0  0.00000000000E+00  0.00000000000E+00  0.51091323409E+03  0.51091323412E+03  0.50400001928E-02 0.  1.
       -1   -1    0    0    0  501  0.00000000000E+00  0.00000000000E+00 -0.73229664428E+03  0.73229664430E+03  0.50400001928E-02 0. -1.
    10030    2    1    2    0    0  0.00000000000E+00  0.00000000000E+00 -0.22138341019E+03  0.12432098784E+04  0.12233397678E+04 0.  0.
        5    1    3    3  502    0 -0.32769936706E+03 -0.30994599732E+03 -0.53051741572E+03  0.69636500114E+03  0.46999998093E+01 0. -1.
       -5    1    3    3    0  502  0.32769936706E+03  0.30994599732E+03  0.30913400553E+03  0.54684487728E+03  0.46999998093E+01 0.  1.
</event>
<event>
 5   0  0.5031575E-03  0.1194426E+04  0.7818609E-02  0.9117750E-01
       -2   -1    0    0    0  501  0.00000000000E+00  0.00000000000E+00  0.37555868216E+03  0.37555868217E+03  0.25500000920E-02 0.  1.
        2   -1    0    0  501    0  0.00000000000E+00  0.00000000000E+00 -0.94968726153E+03  0.94968726154E+03  0.25500000920E-02 0. -1.
    10030    2    1    2    0    0  0.00000000000E+00  0.00000000000E+00 -0.57412857937E+03  0.13252459437E+04  0.11944258812E+04 0.  0.
        5    1    3    3  502    0  0.33784454257E+03  0.67035046333E+02  0.25423016699E+03  0.42812112794E+03  0.46999998093E+01 0.  1.
       -5    1    3    3    0  502 -0.33784454257E+03 -0.67035046333E+02 -0.82835874636E+03  0.89712481576E+03  0.46999998093E+01 0. -1.
</event>
<event>
 5   0  0.2930868E-03  0.1221654E+04  0.7818609E-02  0.9094111E-01
        1   -1    0    0  501    0  0.00000000000E+00  0.00000000000E+00  0.94349438237E+03  0.94349438238E+03  0.50400001928E-02 0.  1.
       -1   -1    0    0    0  501  0.00000000000E+00  0.00000000000E+00 -0.39545487499E+03  0.39545487502E+03  0.50400001928E-02 0. -1.
    10030    2    1    2    0    0  0.00000000000E+00  0.00000000000E+00  0.54803950738E+03  0.13389492574E+04  0.12216537203E+04 0.  0.
        3    1    3    3  502    0  0.50630304311E+03 -0.35600117547E+02 -0.98462579159E+02  0.51701550221E+03  0.10100000352E+00 0. -1.
       -3    1    3    3    0  502 -0.50630304311E+03  0.35600117547E+02  0.64650208654E+03  0.82193375520E+03  0.10100000352E+00 0.  1.
</event>
<event>
 5   0  0.2926844E-03  0.1198542E+04  0.7818609E-02  0.9114134E-01
        1   -1    0    0  501    0  0.00000000000E+00  0.00000000000E+00  0.34162655014E+03  0.34162655018E+03  0.50400001928E-02 0. -1.
       -1   -1    0    0    0  501  0.00000000000E+00  0.00000000000E+00 -0.10512229924E+04  0.10512229924E+04  0.50400001928E-02 0.  1.
    10030    2    1    2    0    0  0.00000000000E+00  0.00000000000E+00 -0.70959644224E+03  0.13928495426E+04  0.11985419214E+04 0.  0.
        5    1    3    3  502    0 -0.24315912809E+02  0.56889210122E+03 -0.13777683628E+03  0.58586178666E+03  0.46999998093E+01 0. -1.
       -5    1    3    3    0  502  0.24315912809E+02 -0.56889210122E+03 -0.57181960595E+03  0.80698775592E+03  0.46999998093E+01 0.  1.
</event>
<event>
 5   0  0.5031575E-03  0.9211361E+03  0.7818609E-02  0.9399539E-01
        2   -1    0    0  501    0  0.00000000000E+00  0.00000000000E+00  0.20975966244E+04  0.20975966244E+04  0.25500000920E-02 0.  1.
       -2   -1    0    0    0  501  0.00000000000E+00  0.00000000000E+00 -0.10112666422E+03  0.10112666426E+03  0.25500000920E-02 0. -1.
    10030    2    1    2    0    0  0.00000000000E+00  0.00000000000E+00  0.19964699602E+04  0.21987232887E+04  0.92113614532E+03 0.  0.
        5    1    3    3  502    0 -0.41054983682E+03 -0.98357231193E+02  0.55890594685E+03  0.70044504486E+03  0.46999998093E+01 0. -1.
       -5    1    3    3    0  502  0.41054983682E+03  0.98357231193E+02  0.14375640133E+04  0.14982782438E+04  0.46999998093E+01 0.  1.
</event>
<event>
 5   0  0.2930868E-03  0.1200043E+04  0.7818609E-02  0.9112819E-01
       -1   -1    0    0    0  501  0.00000000000E+00  0.00000000000E+00  0.21067820471E+03  0.21067820477E+03  0.50400001928E-02 0.  1.
        1   -1    0    0  501    0  0.00000000000E+00  0.00000000000E+00 -0.17088896473E+04  0.17088896473E+04  0.50400001928E-02 0. -1.
    10030    2    1    2    0    0  0.00000000000E+00  0.00000000000E+00 -0.14982114426E+04  0.19195678520E+04  0.12000430042E+04 0.  0.
        3    1    3    3  502    0  0.27645614497E+03  0.50349045414E+03 -0.47161085509E+03  0.74320081158E+03  0.10100000352E+00 0.  1.
       -3    1    3    3    0  502 -0.27645614497E+03 -0.50349045414E+03 -0.10266005875E+04  0.11763670405E+04  0.10100000352E+00 0. -1.
</event>
<event>
 5   0  0.2792518E-03  0.1235506E+04  0.7818609E-02  0.9082334E-01
       -1   -1    0    0    0  501  0.00000000000E+00  0.00000000000E+00  0.47783771392E+03  0.47783771394E+03  0.50400001928E-02 0. -1.
        1   -1    0    0  501    0  0.00000000000E+00  0.00000000000E+00 -0.79863677977E+03  0.79863677979E+03  0.50400001928E-02 0.  1.
    10030    2    1    2    0    0  0.00000000000E+00  0.00000000000E+00 -0.32079906585E+03  0.12764744937E+04  0.12355060067E+04 0.  0.
        2    1    3    3  502    0 -0.47843069201E+03  0.35242190851E+03 -0.33488311198E+03  0.68208784430E+03  0.25500000920E-02 0.  1.
       -2    1    3    3    0  502  0.47843069201E+03 -0.35242190851E+03  0.14084046122E+02  0.59438664942E+03  0.25500000920E-02 0. -1.
</event>
<event>
 5   0  0.5003526E-03  0.1098428E+04  0.7818609E-02  0.9206725E-01
        2   -1    0    0  501    0  0.00000000000E+00  0.00000000000E+00  0.10415799938E+04  0.10415799938E+04  0.25500000920E-02 0.  1.
       -2   -1    0    0    0  501  0.00000000000E+00  0.00000000000E+00 -0.28959481146E+03  0.28959481148E+03  0.25500000920E-02 0. -1.
    10030    2    1    2    0    0  0.00000000000E+00  0.00000000000E+00  0.75198518230E+03  0.13311748052E+04  0.10984282624E+04 0.  0.
        2    1    3    3  502    0  0.15863512184E+03  0.52218152310E+03  0.30131105335E+03  0.62339954750E+03  0.25500000920E-02 0. -1.
       -2    1    3    3    0  502 -0.15863512184E+03 -0.52218152310E+03  0.45067412896E+03  0.70777525774E+03  0.25500000920E-02 0.  1.
</event>
<event>
 5   0  0.5003526E-03  0.1172503E+04  0.7818609E-02  0.9137271E-01
        2   -1    0    0  501    0  0.00000000000E+00  0.00000000000E+00  0.14327698639E+04  0.14327698639E+04  0.25500000920E-02 0. -1.
       -2   -1    0    0    0  501  0.00000000000E+00  0.00000000000E+00 -0.23987870692E+03  0.23987870693E+03  0.25500000920E-02 0.  1.
    10030    2    1    2    0    0  0.00000000000E+00  0.00000000000E+00  0.11928911570E+04  0.16726485708E+04  0.11725032747E+04 0.  0.
        2    1    3    3  502    0 -0.49870870323E+03  0.28672467685E+03  0.75765068603E+03  0.95129173918E+03  0.25500000920E-02 0. -1.
       -2    1    3    3    0  502  0.49870870323E+03 -0.28672467685E+03  0.43524047094E+03  0.72135683163E+03  0.25500000920E-02 0.  1.
</event>
<event>
 5   0  0.5189537E-03  0.1168096E+04  0.7818609E-02  0.9141250E-01
       -2   -1    0    0    0  501  0.00000000000E+00  0.00000000000E+00  0.39328781575E+03  0.39328781576E+03  0.25500000920E-02 0. -1.
        2   -1    0    0  501    0  0.00000000000E+00  0.00000000000E+00 -0.86733405469E+03  0.86733405469E+03  0.25500000920E-02 0.  1.
    10030    2    1    2    0    0  0.00000000000E+00  0.00000000000E+00 -0.47404623894E+03  0.12606218705E+04  0.11680957425E+04 0.  0.
        4    1    3    3  502    0 -0.49373086011E+03  0.77918546717E+02 -0.56306070164E+03  0.75291462251E+03  0.12699999809E+01 0.  1.
       -4    1    3    3    0  502  0.49373086011E+03 -0.77918546717E+02  0.89014462705E+02  0.50770724795E+03  0.12699999809E+01 0. -1.
</event>
<event>
 5   0  0.5467554E-03  0.1199345E+04  0.7818609E-02  0.9113430E-01
       -2   -1    0    0    0  501  0.00000000000E+00  0.00000000000E+00  0.53067510796E+03  0.53067510796E+03  0.25500000920E-02 0.  1.
        2   -1    0    0  501    0  0.00000000000E+00  0.00000000000E+00 -0.67764056739E+03  0.67764056739E+03  0.25500000920E-02 0. -1.
    10030    2    1    2    0    0  0.00000000000E+00  0.00000000000E+00 -0.14696545943E+03  0.12083156754E+04  0.11993447899E+04 0.  0.
        1    1    3    3  502    0 -0.31339773427E+03  0.47872491648E+03 -0.25430022718E+03  0.62615037417E+03  0.50400001928E-02 0.  1.
       -1    1    3    3    0  502  0.31339773427E+03 -0.47872491648E+03  0.10733476775E+03  0.58216530118E+03  0.50400001928E-02 0. -1.
</event>
<event>
 5   0  0.1922125E-03  0.1186729E+04  0.7818609E-02  0.9124552E-01
        4   -1    0    0  501    0  0.00000000000E+00  0.00000000000E+00  0.13416620853E+04  0.13416626863E+04  0.12699999809E+01 0. -1.
       -4   -1    0    0    0  501  0.00000000000E+00  0.00000000000E+00 -0.26241983388E+03  0.26242290700E+03  0.12699999809E+01 0.  1.
    10030    2    1    2    0    0  0.00000000000E+00  0.00000000000E+00  0.10792422514E+04  0.16040855933E+04  0.11867294357E+04 0.  0.
        5    1    3    3  502    0 -0.14439442164E+03 -0.34740997441E+03  0.11598022476E+04  0.12193058611E+04  0.46999998093E+01 0. -1.
       -5    1    3    3    0  502  0.14439442164E+03  0.34740997441E+03 -0.80559996273E+02  0.38477973221E+03  0.46999998093E+01 0.  1.
</event>
<event>
 5   0  0.5189537E-03  0.1189213E+04  0.7818609E-02  0.9122351E-01
       -2   -1    0    0    0  501  0.00000000000E+00  0.00000000000E+00  0.20628084369E+03  0.20628084370E+03  0.25500000920E-02 0. -1.
        2   -1    0    0  501    0  0.00000000000E+00  0.00000000000E+00 -0.17139589507E+04  0.17139589507E+04  0.25500000920E-02 0.  1.
    10030    2    1    2    0    0  0.00000000000E+00  0.00000000000E+00 -0.15076781070E+04  0.19202397944E+04  0.11892130144E+04 0.  0.
        4    1    3    3  502    0 -0.16485961054E+03  0.37729586443E+03 -0.14465204869E+04  0.15039793856E+04  0.12699999809E+01 0.  1.
       -4    1    3    3    0  502  0.16485961054E+03 -0.37729586443E+03 -0.61157620106E+02  0.41626040876E+03  0.12699999809E+01 0. -1.
</event>
<event>
 5   0  0.5108045E-03  0.1201384E+04  0.7818609E-02  0.9111646E-01
       -2   -1    0    0    0  501  0.00000000000E+00  0.00000000000E+00  0.33233347497E+03  0.33233347498E+03  0.25500000920E-02 0.  1.
        2   -1    0    0  501    0  0.00000000000E+00  0.00000000000E+00 -0.10857502278E+04  0.10857502279E+04  0.25500000920E-02 0. -1.
    10030    2    1    2    0    0  0.00000000000E+00  0.00000000000E+00 -0.75341675287E+03  0.14180837028E+04  0.12013844450E+04 0.  0.
        3    1    3    3  502    0 -0.60157575287E+02  0.35450861808E+03 -0.94468305720E+03  0.10108023461E+04  0.10100000352E+00 0. -1.
       -3    1    3    3    0  502  0.60157575287E+02 -0.35450861808E+03  0.19126630433E+03  0.40728135671E+03  0.10100000352E+00 0.  1.
</event>
<event>
 5   0  0.1922125E-03  0.1206825E+04  0.7818609E-02  0.9106904E-01
       -3   -1    0    0    0  501  0.00000000000E+00  0.00000000000E+00  0.42464235195E+03  0.42464236396E+03  0.10100000352E+00 0.  1.
        3   -1    0    0  501    0  0.00000000000E+00  0.00000000000E+00 -0.85744295656E+03  0.85744296251E+03  0.10100000352E+00 0. -1.
    10030    2    1    2    0    0  0.00000000000E+00  0.00000000000E+00 -0.43280060462E+03  0.12820853265E+04  0.12068249339E+04 0.  0.
        3    1    3    3  502    0  0.30547962619E+03  0.47234891590E+03  0.15563034957E+02  0.56273752196E+03  0.10100000352E+00 0.  1.
       -3    1    3    3    0  502 -0.30547962619E+03 -0.47234891590E+03 -0.44836363957E+03  0.71934780451E+03  0.10100000352E+00 0. -1.
</event>
<event>
 5   0  0.1922125E-03  0.1222618E+04  0.7818609E-02  0.9093286E-01
        3   -1    0    0  501    0  0.00000000000E+00  0.00000000000E+00  0.24147721182E+03  0.24147723294E+03  0.10100000352E+00 0.  1.
       -3   -1    0    0    0  501  0.00000000000E+00  0.00000000000E+00 -0.15475531523E+04  0.15475531556E+04  0.10100000352E+00 0. -1.
    10030    2    1    2    0    0  0.00000000000E+00  0.00000000000E+00 -0.13060759405E+04  0.17890303886E+04  0.12226182433E+04 0.  0.
        3    1    3    3  502    0  0.21940267720E+03  0.15343220247E+03  0.15112596871E+03  0.30743787037E+03  0.10100000352E+00 0.  1.
       -3    1    3    3    0  502 -0.21940267720E+03 -0.15343220247E+03 -0.14572019092E+04  0.14815925182E+04  0.10100000352E+00 0. -1.
</event>
<event>
 5   0  0.2930868E-03  0.1195149E+04  0.7818609E-02  0.9117113E-01
       -1   -1    0    0    0  501  0.00000000000E+00  0.00000000000E+00  0.41151196367E+03  0.41151196370E+03  0.50400001928E-02 0.  1.
        1   -1    0    0  501    0  0.00000000000E+00  0.00000000000E+00 -0.86776418297E+03  0.86776418299E+03  0.50400001928E-02 0. -1.
    10030    2    1    2    0    0  0.00000000000E+00  0.00000000000E+00 -0.45625221930E+03  0.12792761467E+04  0.11951491003E+04 0.  0.
        3    1    3    3  502    0  0.57000076347E+03  0.10961395944E+03 -0.38017898630E+03  0.69386753944E+03  0.10100000352E+00 0. -1.
       -3    1    3    3    0  502 -0.57000076347E+03 -0.10961395944E+03 -0.76073233006E+02  0.58540860725E+03  0.10100000352E+00 0.  1.
</event>
<event>
 5   0  0.5031575E-03  0.1201213E+04  0.7818609E-02  0.9111795E-01
       -2   -1    0    0    0  501  0.00000000000E+00  0.00000000000E+00  0.68611415045E+03  0.68611415046E+03  0.25500000920E-02 0. -1.
        2   -1    0    0  501    0  0.00000000000E+00  0.00000000000E+00 -0.52575549517E+03  0.52575549518E+03  0.25500000920E-02 0.  1.
    10030    2    1    2    0    0  0.00000000000E+00  0.00000000000E+00  0.16035865528E+03  0.12118696456E+04  0.12012131949E+04 0.  0.
        5    1    3    3  502    0  0.40138392602E+03 -0.14699574301E+03  0.50580995507E+03  0.66225569471E+03  0.46999998093E+01 0. -1.
       -5    1    3    3    0  502 -0.40138392602E+03  0.14699574301E+03 -0.34545129979E+03  0.54961395093E+03  0.46999998093E+01 0.  1.
</event>
<event>
 5   0  0.2938349E-03  0.1190328E+04  0.7818609E-02  0.9121365E-01
       -1   -1    0    0    0  501  0.00000000000E+00  0.00000000000E+00  0.67887219613E+03  0.67887219615E+03  0.50400001928E-02 0. -1.
        1   -1    0    0  501    0  0.00000000000E+00  0.00000000000E+00 -0.52177719782E+03  0.52177719785E+03  0.50400001928E-02 0.  1.
    10030    2    1    2    0    0  0.00000000000E+00  0.00000000000E+00  0.15709499831E+03  0.12006493940E+04  0.11903277401E+04 0.  0.
        4    1    3    3  502    0  0.19668304162E+03 -0.28688466595E+03 -0.40858056484E+03  0.53658803684E+03  0.12699999809E+01 0.  1.
       -4    1    3    3    0  502 -0.19668304162E+03  0.28688466595E+03  0.56567556315E+03  0.66406135715E+03  0.12699999809E+01 0. -1.
</event>
<event>
 5   0  0.5108045E-03  0.1173011E+04  0.7818609E-02  0.9136814E-01
       -2   -1    0    0    0  501  0.00000000000E+00  0.00000000000E+00  0.11577537037E+04  0.11577537037E+04  0.25500000920E-02 0. -1.
        2   -1    0    0  501    0  0.00000000000E+00  0.00000000000E+00 -0.29711727337E+03  0.29711727338E+03  0.25500000920E-02 0.  1.
    10030    2    1    2    0    0  0.00000000000E+00  0.00000000000E+00  0.86063643034E+03  0.14548709771E+04  0.11730108673E+04 0.  0.
        3    1    3    3  502    0 -0.47238723474E+03 -0.13564388144E+03  0.82728712130E+03  0.96226449243E+03  0.10100000352E+00 0. -1.
       -3    1    3    3    0  502  0.47238723474E+03  0.13564388144E+03  0.33349309037E+02  0.49260648466E+03  0.10100000352E+00 0.  1.
</event>
<event>
 5   0  0.5003526E-03  0.1237427E+04  0.7818609E-02  0.9080714E-01
        2   -1    0    0  501    0  0.00000000000E+00  0.00000000000E+00  0.92982347321E+03  0.92982347321E+03  0.25500000920E-02 0.  1.
       -2   -1    0    0    0  501  0.00000000000E+00  0.00000000000E+00 -0.41169759333E+03  0.41169759334E+03  0.25500000920E-02 0. -1.
    10030    2    1    2    0    0  0.00000000000E+00  0.00000000000E+00  0.51812587988E+03  0.13415210666E+04  0.12374265007E+04 0.  0.
        2    1    3    3  502    0 -0.35194210064E+03  0.13567224114E+03  0.79076461020E+03  0.87611578457E+03  0.25500000920E-02 0.  1.
       -2    1    3    3    0  502  0.35194210064E+03 -0.13567224114E+03 -0.27263873033E+03  0.46540528198E+03  0.25500000920E-02 0. -1.
</event>
<event>
 5   0  0.2926844E-03  0.1186425E+04  0.7818609E-02  0.9124823E-01
       -1   -1    0    0    0  501  0.00000000000E+00  0.00000000000E+00  0.26599926130E+03  0.26599926135E+03  0.50400001928E-02 0.  1.
        1   -1    0    0  501    0  0.00000000000E+00  0.00000000000E+00 -0.13229395270E+04  0.13229395270E+04  0.50400001928E-02 0. -1.
    10030    2    1    2    0    0  0.00000000000E+00  0.00000000000E+00 -0.10569402657E+04  0.15889387883E+04  0.11864247755E+04 0.  0.
        5    1    3    3  502    0 -0.23896847684E+02  0.37423651244E+03 -0.11440299662E+04  0.12039313436E+04  0.46999998093E+01 0. -1.
       -5    1    3    3    0  502  0.23896847684E+02 -0.37423651244E+03  0.87089700502E+02  0.38500744474E+03  0.46999998093E+01 0.  1.
</event>
<event>
 5   0  0.5189537E-03  0.1236845E+04  0.7818609E-02  0.9081204E-01
       -2   -1    0    0    0  501  0.00000000000E+00  0.00000000000E+00  0.20811103224E+03  0.20811103225E+03  0.25500000920E-02 0. -1.
        2   -1    0    0  501    0  0.00000000000E+00  0.00000000000E+00 -0.18377033126E+04  0.18377033126E+04  0.25500000920E-02 0.  1.
    10030    2    1    2    0    0  0.00000000000E+00  0.00000000000E+00 -0.16295922804E+04  0.20458143449E+04  0.12368449108E+04 0.  0.
        4    1    3    3  502    0 -0.83053753823E+01  0.42624278347E+03 -0.73798367862E+02  0.43266580836E+03  0.12699999809E+01 0. -1.
       -4    1    3    3    0  502  0.83053753823E+01 -0.42624278347E+03 -0.15557939125E+04  0.16131485365E+04  0.12699999809E+01 0.  1.
</event>
<event>
 5   0  0.5031575E-03  0.8657499E+03  0.7818609E-02  0.9469438E-01
       -2   -1    0    0    0  501  0.00000000000E+00  0.00000000000E+00  0.20070761645E+03  0.20070761647E+03  0.25500000920E-02 0.  1.
        2   -1    0    0  501    0  0.00000000000E+00  0.00000000000E+00 -0.93360042737E+03  0.93360042738E+03  0.25500000920E-02 0. -1.
    10030    2    1    2    0    0  0.00000000000E+00  0.00000000000E+00 -0.73289281092E+03  0.11343080438E+04  0.86574988653E+03 0.  0.
        5    1    3    3  502    0 -0.22010218558E+03  0.29771117609E+03 -0.72651954908E+02  0.37732918389E+03  0.46999998093E+01 0.  1.
       -5    1    3    3    0  502  0.22010218558E+03 -0.29771117609E+03 -0.66024085602E+03  0.75697885995E+03  0.46999998093E+01 0. -1.
</event>
<event>
 5   0  0.2938349E-03  0.1206547E+04  0.7818609E-02  0.9107146E-01
        1   -1    0    0  501    0  0.00000000000E+00  0.00000000000E+00  0.44904234736E+03  0.44904234739E+03  0.50400001928E-02 0. -1.
       -1   -1    0    0    0  501  0.00000000000E+00  0.00000000000E+00 -0.81047731602E+03  0.81047731603E+03  0.50400001928E-02 0.  1.
    10030    2    1    2    0    0  0.00000000000E+00  0.00000000000E+00 -0.36143496866E+03  0.12595196634E+04  0.12065465370E+04 0.  0.
        4    1    3    3  502    0 -0.23017564716E+02  0.35343669309E+03 -0.69051264172E+03  0.77605194773E+03  0.12699999809E+01 0.  1.
       -4    1    3    3    0  502  0.23017564716E+02 -0.35343669309E+03  0.32907767305E+03  0.48346771569E+03  0.12699999809E+01 0. -1.
</event>
<event>
 5   0  0.5108045E-03  0.1169986E+04  0.7818609E-02  0.9139541E-01
       -2   -1    0    0    0  501  0.00000000000E+00  0.00000000000E+00  0.54697957368E+03  0.54697957369E+03  0.25500000920E-02 0. -1.
        2   -1    0    0  501    0  0.00000000000E+00  0.00000000000E+00 -0.62564810341E+03  0.62564810342E+03  0.25500000920E-02 0.  1.
    10030    2    1    2    0    0  0.00000000000E+00  0.00000000000E+00 -0.78668529733E+02  0.11726276771E+04  0.11699858681E+04 0.  0.
        3    1    3    3  502    0  0.92268393814E+02  0.32430604613E+03 -0.51846060378E+03  0.61845717388E+03  0.10100000352E+00 0.  1.
       -3    1    3    3    0  502 -0.92268393814E+02 -0.32430604613E+03  0.43979207404E+03  0.55417050323E+03  0.10100000352E+00 0. -1.
</event>
<event>
 5   0  0.1922125E-03  0.1236590E+04  0.7818609E-02  0.9081419E-01
        3   -1    0    0  501    0  0.00000000000E+00  0.00000000000E+00  0.20573939441E+04  0.20573939466E+04  0.10100000352E+00 0.  1.
       -3   -1    0    0    0  501  0.00000000000E+00  0.00000000000E+00 -0.18581218785E+03  0.18581221530E+03  0.10100000352E+00 0. -1.
    10030    2    1    2    0    0  0.00000000000E+00  0.00000000000E+00  0.18715817563E+04  0.22432061619E+04  0.12365903179E+04 0.  0.
        2    1    3    3  502    0 -0.41009017787E+02 -0.47477795419E+03  0.22116375875E+03  0.52536582827E+03  0.25500000920E-02 0. -1.
       -2    1    3    3    0  502  0.41009017787E+02  0.47477795419E+03  0.16504179975E+04  0.17178403336E+04  0.25500000920E-02 0.  1.
</event>
<event>
 5   0  0.2930868E-03  0.1219599E+04  0.7818609E-02  0.9095873E-01
       -1   -1    0    0    0  501  0.00000000000E+00  0.00000000000E+00  0.11376748314E+04  0.11376748314E+04  0.50400001928E-02 0. -1.
        1   -1    0    0  501    0  0.00000000000E+00  0.00000000000E+00 -0.32685555229E+03  0.32685555233E+03  0.50400001928E-02 0.  1.
    10030    2    1    2    0    0  0.00000000000E+00  0.00000000000E+00  0.81081927907E+03  0.14645303837E+04  0.12195988445E+04 0.  0.
        3    1    3    3  502    0  0.15685291394E+02 -0.54162196205E+03  0.74133073881E+03  0.91824378715E+03  0.10100000352E+00 0.  1.
       -3    1    3    3    0  502 -0.15685291394E+02  0.54162196205E+03  0.69488540268E+02  0.54628659655E+03  0.10100000352E+00 0. -1.
</event>
<event>
 5   0  0.2930868E-03  0.1401169E+04  0.7818609E-02  0.8952973E-01
        1   -1    0    0  501    0  0.00000000000E+00  0.00000000000E+00  0.67172977515E+03  0.67172977517E+03  0.50400001928E-02 0.  1.
       -1   -1    0    0    0  501  0.00000000000E+00  0.00000000000E+00 -0.73067838090E+03  0.73067838091E+03  0.50400001928E-02 0. -1.
    10030    2    1    2    0    0  0.00000000000E+00  0.00000000000E+00 -0.58948605743E+02  0.14024081561E+04  0.14011686901E+04 0.  0.
        3    1    3    3  502    0 -0.21746630903E+03  0.87329249516E+02  0.63133728312E+03  0.67342762688E+03  0.10100000352E+00 0.  1.
       -3    1    3    3    0  502  0.21746630903E+03 -0.87329249516E+02 -0.69028588887E+03  0.72898052920E+03  0.10100000352E+00 0. -1.
</event>
<event>
 5   0  0.2875848E-03  0.1201576E+04  0.7818609E-02  0.9111478E-01
       -1   -1    0    0    0  501  0.00000000000E+00  0.00000000000E+00  0.17831497128E+03  0.17831497135E+03  0.50400001928E-02 0.  1.
        1   -1    0    0  501    0  0.00000000000E+00  0.00000000000E+00 -0.20242057267E+04  0.20242057267E+04  0.50400001928E-02 0. -1.
    10030    2    1    2    0    0  0.00000000000E+00  0.00000000000E+00 -0.18458907555E+04  0.22025206981E+04  0.12015759420E+04 0.  0.
        1    1    3    3  502    0 -0.54889264748E+03  0.29862777808E+02 -0.47856867436E+03  0.72883667584E+03  0.50400001928E-02 0.  1.
       -1    1    3    3    0  502  0.54889264748E+03 -0.29862777808E+02 -0.13673220811E+04  0.14736840223E+04  0.50400001928E-02 0. -1.
</event>
<event>
 5   0  0.5108045E-03  0.1198557E+04  0.7818609E-02  0.9114121E-01
        2   -1    0    0  501    0  0.00000000000E+00  0.00000000000E+00  0.91669595291E+03  0.91669595291E+03  0.25500000920E-02 0.  1.
       -2   -1    0    0    0  501  0.00000000000E+00  0.00000000000E+00 -0.39177068482E+03  0.39177068483E+03  0.25500000920E-02 0. -1.
    10030    2    1    2    0    0  0.00000000000E+00  0.00000000000E+00  0.52492526809E+03  0.13084666377E+04  0.11985568009E+04 0.  0.
        3    1    3    3  502    0 -0.20761326537E+02  0.56606077450E+03  0.47605363551E+03  0.73992087900E+03  0.10100000352E+00 0.  1.
       -3    1    3    3    0  502  0.20761326537E+02 -0.56606077450E+03  0.48871632582E+02  0.56854575873E+03  0.10100000352E+00 0. -1.
</event>
<event>
 5   0  0.1922125E-03  0.1204985E+04  0.7818609E-02  0.9108504E-01
       -3   -1    0    0    0  501  0.00000000000E+00  0.00000000000E+00  0.12738867258E+04  0.12738867298E+04  0.10100000352E+00 0. -1.
        3   -1    0    0  501    0  0.00000000000E+00  0.00000000000E+00 -0.28495249267E+03  0.28495251057E+03  0.10100000352E+00 0.  1.
    10030    2    1    2    0    0  0.00000000000E+00  0.00000000000E+00  0.98893423316E+03  0.15588392404E+04  0.12049850040E+04 0.  0.
        1    1    3    3  502    0  0.32192980571E+03 -0.75668161761E+02 -0.15704477655E+03  0.36609770878E+03  0.50400001928E-02 0.  1.
       -1    1    3    3    0  502 -0.32192980571E+03  0.75668161761E+02  0.11459790097E+04  0.11927415316E+04  0.50400001928E-02 0. -1.
</event>
<event>
 5   0  0.5108045E-03  0.1172752E+04  0.7818609E-02  0.9137046E-01
        2   -1    0    0  501    0  0.00000000000E+00  0.00000000000E+00  0.11264632658E+04  0.11264632658E+04  0.25500000920E-02 0. -1.
       -2   -1    0    0    0  501  0.00000000000E+00  0.00000000000E+00 -0.30523593413E+03  0.30523593414E+03  0.25500000920E-02 0.  1.
    10030    2    1    2    0    0  0.00000000000E+00  0.00000000000E+00  0.82122733164E+03  0.14316991999E+04  0.11727524329E+04 0.  0.
        3    1    3    3  502    0 -0.27613837703E+03  0.18570600254E+03 -0.17879246939E+03  0.37776431801E+03  0.10100000352E+00 0.  1.
       -3    1    3    3    0  502  0.27613837703E+03 -0.18570600254E+03  0.10000198010E+04  0.10539348819E+04  0.10100000352E+00 0. -1.
</event>
<event>
 5   0  0.5031575E-03  0.1191033E+04  0.7818609E-02  0.9120742E-01
       -2   -1    0    0    0  501  0.00000000000E+00  0.00000000000E+00  0.34332976904E+03  0.34332976905E+03  0.25500000920E-02 0. -1.
        2   -1    0    0  501    0  0.00000000000E+00  0.00000000000E+00 -0.10329424186E+04  0.10329424186E+04  0.25500000920E-02 0.  1.
    10030    2    1    2    0    0  0.00000000000E+00  0.00000000000E+00 -0.68961264953E+03  0.13762721876E+04  0.11910329668E+04 0.  0.
        5    1    3    3  502    0  0.25457639808E+03  0.38461291014E+03  0.90448432679E+02  0.47004174504E+03  0.46999998093E+01 0. -1.
       -5    1    3    3    0  502 -0.25457639808E+03 -0.38461291014E+03 -0.78006108221E+03  0.90623044259E+03  0.46999998093E+01 0.  1.
</event>
<event>
 5   0  0.2792518E-03  0.1211879E+04  0.7818609E-02  0.9102522E-01
        1   -1    0    0  501    0  0.00000000000E+00  0.00000000000E+00  0.72494210016E+03  0.72494210018E+03  0.50400001928E-02 0. -1.
       -1   -1    0    0    0  501  0.00000000000E+00  0.00000000000E+00 -0.50647170165E+03  0.50647170168E+03  0.50400001928E-02 0.  1.
    10030    2    1    2    0    0  0.00000000000E+00  0.00000000000E+00  0.21847039851E+03  0.12314138019E+04  0.12118789694E+04 0.  0.
        2    1    3    3  502    0 -0.21988887807E+03 -0.56461687778E+03  0.11370170248E+03  0.61649932240E+03  0.25500000920E-02 0.  1.
       -2    1    3    3    0  502  0.21988887807E+03  0.56461687778E+03  0.10476869603E+03  0.61491447946E+03  0.25500000920E-02 0. -1.
</event>
<event>
 5   0  0.2938349E-03  0.1190532E+04  0.7818609E-02  0.9121184E-01
        1   -1    0    0  501    0  0.00000000000E+00  0.00000000000E+00  0.65869911976E+03  0.65869911978E+03  0.50400001928E-02 0.  1.
       -1   -1    0    0    0  501  0.00000000000E+00  0.00000000000E+00 -0.53794184183E+03  0.53794184185E+03  0.50400001928E-02 0. -1.
    10030    2    1    2    0    0  0.00000000000E+00  0.00000000000E+00  0.12075727793E+03  0.11966409616E+04  0.11905323477E+04 0.  0.
        4    1    3    3  502    0 -0.20337530498E+02 -0.24219755559E+02 -0.53709543250E+03  0.53802725602E+03  0.12699999809E+01 0. -1.
       -4    1    3    3    0  502  0.20337530498E+02  0.24219755559E+02  0.65785271043E+03  0.65861370562E+03  0.12699999809E+01 0.  1.
</event>
<event>
 5   0  0.5003526E-03  0.1173789E+04  0.7818609E-02  0.9136114E-01
       -2   -1    0    0    0  501  0.00000000000E+00  0.00000000000E+00  0.74109864064E+03  0.74109864064E+03  0.25500000920E-02 0.  1.
        2   -1    0    0  501    0  0.00000000000E+00  0.00000000000E+00 -0.46477627075E+03  0.46477627076E+03  0.25500000920E-02 0. -1.
    10030    2    1    2    0    0  0.00000000000E+00  0.00000000000E+00  0.27632236989E+03  0.12058749114E+04  0.11737888438E+04 0.  0.
        2    1    3    3  502    0 -0.36811882288E+03  0.14895294013E+03 -0.30579350978E+03  0.50120666074E+03  0.25500000920E-02 0. -1.
       -2    1    3    3    0  502  0.36811882288E+03 -0.14895294013E+03  0.58211587967E+03  0.70466825067E+03  0.25500000920E-02 0.  1.
</event>
<event>
 5   0  0.5108045E-03  0.1182530E+04  0.7818609E-02  0.9128287E-01
       -2   -1    0    0    0  501  0.00000000000E+00  0.00000000000E+00  0.58448984994E+03  0.58448984994E+03  0.25500000920E-02 0.  1.
        2   -1    0    0  501    0  0.00000000000E+00  0.00000000000E+00 -0.59811905362E+03  0.59811905362E+03  0.25500000920E-02 0. -1.
    10030    2    1    2    0    0  0.00000000000E+00  0.00000000000E+00 -0.13629203682E+02  0.11826089036E+04  0.11825303648E+04 0.  0.
        3    1    3    3  502    0 -0.34489722632E+03 -0.34422109928E+03  0.32809903130E+03  0.58744467522E+03  0.10100000352E+00 0. -1.
       -3    1    3    3    0  502  0.34489722632E+03  0.34422109928E+03 -0.34172823498E+03  0.59516422834E+03  0.10100000352E+00 0.  1.
</event>
<event>
 5   0  0.2875848E-03  0.9314913E+03  0.7818609E-02  0.9387050E-01
        1   -1    0    0  501    0  0.00000000000E+00  0.00000000000E+00  0.37862663683E+03  0.37862663686E+03  0.50400001928E-02 0. -1.
       -1   -1    0    0    0  501  0.00000000000E+00  0.00000000000E+00 -0.57291003278E+03  0.57291003280E+03  0.50400001928E-02 0.  1.
    10030    2    1    2    0    0  0.00000000000E+00  0.00000000000E+00 -0.19428339596E+03  0.95153666966E+03  0.93149127520E+03 0.  0.
        1    1    3    3  502    0 -0.44743944618E+03 -0.59931961542E+02  0.19888533354E+02  0.45187326962E+03  0.50400001928E-02 0. -1.
       -1    1    3    3    0  502  0.44743944618E+03  0.59931961542E+02 -0.21417192931E+03  0.49966340004E+03  0.50400001928E-02 0.  1.
</event>
<event>
 5   0  0.5031575E-03  0.1203069E+04  0.7818609E-02  0.9110174E-01
       -2   -1    0    0    0  501  0.00000000000E+00  0.00000000000E+00  0.16122506902E+04  0.16122506902E+04  0.25500000920E-02 0. -1.
        2   -1    0    0  501    0  0.00000000000E+00  0.00000000000E+00 -0.22443408484E+03  0.22443408486E+03  0.25500000920E-02 0.  1.
    10030    2    1    2    0    0  0.00000000000E+00  0.00000000000E+00  0.13878166054E+04  0.18366847751E+04  0.12030694215E+04 0.  0.
        5    1    3    3  502    0  0.26193229385E+03 -0.39330940258E+03  0.12621091958E+04  0.13476804238E+04  0.46999998093E+01 0. -1.
       -5    1    3    3    0  502 -0.26193229385E+03  0.39330940258E+03  0.12570740960E+03  0.48900435125E+03  0.46999998093E+01 0.  1.
</event>
<event>
 5   0  0.2938349E-03  0.1064450E+04  0.7818609E-02  0.9240552E-01
        1   -1    0    0  501    0  0.00000000000E+00  0.00000000000E+00  0.73746360583E+03  0.73746360585E+03  0.50400001928E-02 0. -1.
       -1   -1    0    0    0  501  0.00000000000E+00  0.00000000000E+00 -0.38410474557E+03  0.38410474561E+03  0.50400001928E-02 0.  1.
    10030    2    1    2    0    0  0.00000000000E+00  0.00000000000E+00  0.35335886026E+03  0.11215683515E+04  0.10644496620E+04 0.  0.
        4    1    3    3  502    0  0.29728949698E+03  0.40216318473E+03  0.36850749940E+03  0.62122110571E+03  0.12699999809E+01 0. -1.
       -4    1    3    3    0  502 -0.29728949698E+03 -0.40216318473E+03 -0.15148639139E+02  0.50034724575E+03  0.12699999809E+01 0.  1.
</event>
<event>
 5   0  0.2926844E-03  0.1204735E+04  0.7818609E-02  0.9108722E-01
        1   -1    0    0  501    0  0.00000000000E+00  0.00000000000E+00  0.81830911758E+03  0.81830911759E+03  0.50400001928E-02 0.  1.
       -1   -1    0    0    0  501  0.00000000000E+00  0.00000000000E+00 -0.44341022152E+03  0.44341022155E+03  0.50400001928E-02 0. -1.
    10030    2    1    2    0    0  0.00000000000E+00  0.00000000000E+00  0.37489889606E+03  0.12617193391E+04  0.12047350366E+04 0.  0.
        5    1    3    3  502    0  0.44234068778E+03  0.37317768449E+03  0.12523121322E+02  0.57888322383E+03  0.46999998093E+01 0. -1.
       -5    1    3    3    0  502 -0.44234068778E+03 -0.37317768449E+03  0.36237577473E+03  0.68283611531E+03  0.46999998093E+01 0.  1.
</event>
<event>
 5   0  0.5003526E-03  0.1215303E+04  0.7818609E-02  0.9099567E-01
       -2   -1    0    0    0  501  0.00000000000E+00  0.00000000000E+00  0.53692720749E+03  0.53692720750E+03  0.25500000920E-02 0. -1.
        2   -1    0    0  501    0  0.00000000000E+00  0.00000000000E+00 -0.68769117064E+03  0.68769117064E+03  0.25500000920E-02 0.  1.
    10030    2    1    2    0    0  0.00000000000E+00  0.00000000000E+00 -0.15076396314E+03  0.12246183781E+04  0.12153025959E+04 0.  0.
        2    1    3    3  502    0  0.46047331737E+03  0.39028212037E+03 -0.49585659995E+01  0.60363929368E+03  0.25500000920E-02 0. -1.
       -2    1    3    3    0  502 -0.46047331737E+03 -0.39028212037E+03 -0.14580539714E+03  0.62097908446E+03  0.25500000920E-02 0.  1.
</event>
<event>
 5   0  0.2875848E-03  0.1240429E+04  0.7818609E-02  0.9078187E-01
        1   -1    0    0  501    0  0.00000000000E+00  0.00000000000E+00  0.75494640488E+03  0.75494640490E+03  0.50400001928E-02 0.  1.
       -1   -1    0    0    0  501  0.00000000000E+00  0.00000000000E+00 -0.50952729664E+03  0.50952729667E+03  0.50400001928E-02 0. -1.
    10030    2    1    2    0    0  0.00000000000E+00  0.00000000000E+00  0.24541910824E+03  0.12644737016E+04  0.12404286369E+04 0.  0.
        1    1    3    3  502    0 -0.14353681953E+03  0.51751819618E+03  0.43894539073E+03  0.69361441595E+03  0.50400001928E-02 0.  1.
       -1    1    3    3    0  502  0.14353681953E+03 -0.51751819618E+03 -0.19352628249E+03  0.57085928562E+03  0.50400001928E-02 0. -1.
</event>
<event>
 5   0  0.2792518E-03  0.1155493E+04  0.7818609E-02  0.9152731E-01
        1   -1    0    0  501    0  0.00000000000E+00  0.00000000000E+00  0.10738624349E+04  0.10738624349E+04  0.50400001928E-02 0. -1.
       -1   -1    0    0    0  501  0.00000000000E+00  0.00000000000E+00 -0.31083217530E+03  0.31083217534E+03  0.50400001928E-02 0.  1.
    10030    2    1    2    0    0  0.00000000000E+00  0.00000000000E+00  0.76303025957E+03  0.13846946102E+04  0.11554929626E+04 0.  0.
        2    1    3    3  502    0  0.45965885982E+02  0.11225861875E+03 -0.29539943607E+03  0.31933632270E+03  0.25500000920E-02 0.  1.
       -2    1    3    3    0  502 -0.45965885982E+02 -0.11225861875E+03  0.10584296956E+04  0.10653582875E+04  0.25500000920E-02 0. -1.
</event>
<event>
 5   0  0.5031575E-03  0.1210224E+04  0.7818609E-02  0.9103954E-01
       -2   -1    0    0    0  501  0.00000000000E+00  0.00000000000E+00  0.30528018413E+03  0.30528018414E+03  0.25500000920E-02 0. -1.
        2   -1    0    0  501    0  0.00000000000E+00  0.00000000000E+00 -0.11994245862E+04  0.11994245862E+04  0.25500000920E-02 0.  1.
    10030    2    1    2    0    0  0.00000000000E+00  0.00000000000E+00 -0.89414440206E+03  0.15047047703E+04  0.12102240429E+04 0.  0.
        5    1    3    3  502    0  0.45626761552E+03  0.27913123928E+03 -0.79883518566E+03  0.96138136531E+03  0.46999998093E+01 0.  1.
       -5    1    3    3    0  502 -0.45626761552E+03 -0.27913123928E+03 -0.95309216399E+02  0.54332340502E+03  0.46999998093E+01 0. -1.
</event>
<event>
 5   0  0.5189537E-03  0.1179442E+04  0.7818609E-02  0.9131044E-01
        2   -1    0    0  501    0  0.00000000000E+00  0.00000000000E+00  0.15556663549E+04  0.15556663549E+04  0.25500000920E-02 0. -1.
       -2   -1    0    0    0  501  0.00000000000E+00  0.00000000000E+00 -0.22355110015E+03  0.22355110016E+03  0.25500000920E-02 0.  1.
    10030    2    1    2    0    0  0.00000000000E+00  0.00000000000E+00  0.13321152547E+04  0.17792174550E+04  0.11794421141E+04 0.  0.
        4    1    3    3  502    0  0.28395187053E+03  0.39973650970E+03  0.17179679558E+03  0.51955143522E+03  0.12699999809E+01 0.  1.
       -4    1    3    3    0  502 -0.28395187053E+03 -0.39973650970E+03  0.11603184591E+04  0.12596660198E+04  0.12699999809E+01 0. -1.
</event>
<event>
 5   0  0.2792518E-03  0.1025985E+04  0.7818609E-02  0.9280496E-01
        1   -1    0    0  501    0  0.00000000000E+00  0.00000000000E+00  0.11149898868E+04  0.11149898868E+04  0.50400001928E-02 0. -1.
       -1   -1    0    0    0  501  0.00000000000E+00  0.00000000000E+00 -0.23602109384E+03  0.23602109389E+03  0.50400001928E-02 0.  1.
    10030    2    1    2    0    0  0.00000000000E+00  0.00000000000E+00  0.87896879294E+03  0.13510109807E+04  0.10259846641E+04 0.  0.
        2    1    3    3  502    0 -0.45702256851E+03 -0.22066778092E+03  0.34096884729E+03  0.61141119755E+03  0.25500000920E-02 0.  1.
       -2    1    3    3    0  502  0.45702256851E+03  0.22066778092E+03  0.53799994565E+03  0.73959978312E+03  0.25500000920E-02 0. -1.
</event>
<event>
 5   0  0.2930868E-03  0.1176633E+04  0.7818609E-02  0.9133559E-01
       -1   -1    0    0    0  501  0.00000000000E+00  0.00000000000E+00  0.22005077125E+03  0.22005077131E+03  0.50400001928E-02 0.  1.
        1   -1    0    0  501    0  0.00000000000E+00  0.00000000000E+00 -0.15728935602E+04  0.15728935602E+04  0.50400001928E-02 0. -1.
    10030    2    1    2    0    0  0.00000000000E+00  0.00000000000E+00 -0.13528427890E+04  0.17929443315E+04  0.11766332327E+04 0.  0.
        3    1    3    3  502    0  0.53505024909E+02 -0.25388349558E+03  0.12815928255E+03  0.28938629705E+03  0.10100000352E+00 0.  1.
       -3    1    3    3    0  502 -0.53505024909E+02  0.25388349558E+03 -0.14810020715E+04  0.15035580345E+04  0.10100000352E+00 0. -1.
</event>
<event>
 5   0  0.2792518E-03  0.1182722E+04  0.7818609E-02  0.9128115E-01
       -1   -1    0    0    0  501  0.00000000000E+00  0.00000000000E+00  0.38926489372E+03  0.38926489375E+03  0.50400001928E-02 0. -1.
        1   -1    0    0  501    0  0.00000000000E+00  0.00000000000E+00 -0.89838084398E+03  0.89838084400E+03  0.50400001928E-02 0.  1.
    10030    2    1    2    0    0  0.00000000000E+00  0.00000000000E+00 -0.50911595026E+03  0.12876457377E+04  0.11827224929E+04 0.  0.
        2    1    3    3  502    0 -0.18626542960E+03  0.50511678154E+03 -0.52094890805E+03  0.74914987690E+03  0.25500000920E-02 0.  1.
       -2    1    3    3    0  502  0.18626542960E+03 -0.50511678154E+03  0.11832957782E+02  0.53849586085E+03  0.25500000920E-02 0. -1.
</event>
<event>
 5   0  0.5108045E-03  0.1196645E+04  0.7818609E-02  0.9115798E-01
        2   -1    0    0  501    0  0.00000000000E+00  0.00000000000E+00  0.14662664621E+04  0.14662664621E+04  0.25500000920E-02 0. -1.
       -2   -1    0    0    0  501  0.00000000000E+00  0.00000000000E+00 -0.24415056410E+03  0.24415056411E+03  0.25500000920E-02 0.  1.
    10030    2    1    2    0    0  0.00000000000E+00  0.00000000000E+00  0.12221158980E+04  0.17104170262E+04  0.11966449496E+04 0.  0.
        3    1    3    3  502    0 -0.68881166240E+02  0.15092352230E+03  0.14327345343E+04  0.14423074501E+04  0.10100000352E+00 0. -1.
       -3    1    3    3    0  502  0.68881166240E+02 -0.15092352230E+03 -0.21061863630E+03  0.26810957611E+03  0.10100000352E+00 0.  1.
</event>
<event>
 5   0  0.1922125E-03  0.1237658E+04  0.7818609E-02  0.9080518E-01
       -3   -1    0    0    0  501  0.00000000000E+00  0.00000000000E+00  0.79633385889E+03  0.79633386530E+03  0.10100000352E+00 0. -1.
        3   -1    0    0  501    0  0.00000000000E+00  0.00000000000E+00 -0.48089039060E+03  0.48089040121E+03  0.10100000352E+00 0.  1.
    10030    2    1    2    0    0  0.00000000000E+00  0.00000000000E+00  0.31544346829E+03  0.12772242665E+04  0.12376579678E+04 0.  0.
        4    1    3    3  502    0 -0.42234308777E+03 -0.13220161348E+03 -0.28865303510E+03  0.52836837336E+03  0.12699999809E+01 0.  1.
       -4    1    3    3    0  502  0.42234308777E+03  0.13220161348E+03  0.60409650339E+03  0.74885589315E+03  0.12699999809E+01 0. -1.
</event>
<event>
 5   0  0.2938349E-03  0.1234086E+04  0.7818609E-02  0.9083533E-01
        1   -1    0    0  501    0  0.00000000000E+00  0.00000000000E+00  0.61999269414E+03  0.61999269416E+03  0.50400001928E-02 0.  1.
       -1   -1    0    0    0  501  0.00000000000E+00  0.00000000000E+00 -0.61410775245E+03  0.61410775247E+03  0.50400001928E-02 0. -1.
    10030    2    1    2    0    0  0.00000000000E+00  0.00000000000E+00  0.58849416903E+01  0.12341004466E+04  0.12340864151E+04 0.  0.
        4    1    3    3  502    0  0.88608626557E+02 -0.31444077444E+03  0.52641400674E+03  0.61954645405E+03  0.12699999809E+01 0.  1.
       -4    1    3    3    0  502 -0.88608626557E+02  0.31444077444E+03 -0.52052906505E+03  0.61455399258E+03  0.12699999809E+01 0. -1.
</event>
<event>
 5   0  0.2930868E-03  0.1187278E+04  0.7818609E-02  0.9124066E-01
       -1   -1    0    0    0  501  0.00000000000E+00  0.00000000000E+00  0.26711937056E+03  0.26711937060E+03  0.50400001928E-02 0.  1.
        1   -1    0    0  501    0  0.00000000000E+00  0.00000000000E+00 -0.13192866485E+04  0.13192866485E+04  0.50400001928E-02 0. -1.
    10030    2    1    2    0    0  0.00000000000E+00  0.00000000000E+00 -0.10521672779E+04  0.15864060191E+04  0.11872775904E+04 0.  0.
        3    1    3    3  502    0 -0.36327777106E+03  0.43795924298E+03 -0.75216115172E+03  0.94314656645E+03  0.10100000352E+00 0. -1.
       -3    1    3    3    0  502  0.36327777106E+03 -0.43795924298E+03 -0.30000612621E+03  0.64325945265E+03  0.10100000352E+00 0.  1.
</event>
<event>
 5   0  0.5467554E-03  0.1191165E+04  0.7818609E-02  0.9120625E-01
        2   -1    0    0  501    0  0.00000000000E+00  0.00000000000E+00  0.60944433592E+03  0.60944433593E+03  0.25500000920E-02 0. -1.
       -2   -1    0    0    0  501  0.00000000000E+00  0.00000000000E+00 -0.58203632642E+03  0.58203632643E+03  0.25500000920E-02 0.  1.
    10030    2    1    2    0    0  0.00000000000E+00  0.00000000000E+00  0.27408009499E+02  0.11914806624E+04  0.11911653830E+04 0.  0.
        1    1    3    3  502    0  0.45250328893E+03 -0.30239478559E+03  0.25567071805E+03  0.60130636862E+03  0.50400001928E-02 0. -1.
       -1    1    3    3    0  502 -0.45250328893E+03  0.30239478559E+03 -0.22826270855E+03  0.59017429374E+03  0.50400001928E-02 0.  1.
</event>
<event>
 5   0  0.2875848E-03  0.1288432E+04  0.7818609E-02  0.9038789E-01
        1   -1    0    0  501    0  0.00000000000E+00  0.00000000000E+00  0.84194785372E+03  0.84194785374E+03  0.50400001928E-02 0. -1.
       -1   -1    0    0    0  501  0.00000000000E+00  0.00000000000E+00 -0.49292146834E+03  0.49292146837E+03  0.50400001928E-02 0.  1.
    10030    2    1    2    0    0  0.00000000000E+00  0.00000000000E+00  0.34902638538E+03  0.13348693221E+04  0.12884318722E+04 0.  0.
        1    1    3    3  502    0  0.11347927365E+03 -0.48106975054E+03  0.60257343570E+03  0.77935896470E+03  0.50400001928E-02 0. -1.
       -1    1    3    3    0  502 -0.11347927365E+03  0.48106975054E+03 -0.25354705031E+03  0.55551035740E+03  0.50400001928E-02 0.  1.
</event>
<event>
 5   0  0.5108045E-03  0.1197733E+04  0.7818609E-02  0.9114843E-01
        2   -1    0    0  501    0  0.00000000000E+00  0.00000000000E+00  0.34568752610E+03  0.34568752611E+03  0.25500000920E-02 0.  1.
       -2   -1    0    0    0  501  0.00000000000E+00  0.00000000000E+00 -0.10374716826E+04  0.10374716826E+04  0.25500000920E-02 0. -1.
    10030    2    1    2    0    0  0.00000000000E+00  0.00000000000E+00 -0.69178415653E+03  0.13831592087E+04  0.11977328907E+04 0.  0.
        3    1    3    3  502    0 -0.40612620438E+03  0.12254946556E+03  0.14226006948E+03  0.44743133883E+03  0.10100000352E+00 0.  1.
       -3    1    3    3    0  502  0.40612620438E+03 -0.12254946556E+03 -0.83404422602E+03  0.93572786992E+03  0.10100000352E+00 0. -1.
</event>
<event>
 5   0  0.5031575E-03  0.1193040E+04  0.7818609E-02  0.9118970E-01
        2   -1    0    0  501    0  0.00000000000E+00  0.00000000000E+00  0.40178318348E+03  0.40178318349E+03  0.25500000920E-02 0. -1.
       -2   -1    0    0    0  501  0.00000000000E+00  0.00000000000E+00 -0.88564251403E+03  0.88564251404E+03  0.25500000920E-02 0.  1.
    10030    2    1    2    0    0  0.00000000000E+00  0.00000000000E+00 -0.48385933055E+03  0.12874256975E+04  0.11930402654E+04 0.  0.
        5    1    3    3  502    0  0.35865427672E+03 -0.18286586062E+03  0.23305353611E+03  0.46519765034E+03  0.46999998093E+01 0. -1.
       -5    1    3    3    0  502 -0.35865427672E+03  0.18286586062E+03 -0.71691286666E+03  0.82222804719E+03  0.46999998093E+01 0.  1.
</event>
<event>
 5   0  0.5189537E-03  0.1186288E+04  0.7818609E-02  0.9124944E-01
        2   -1    0    0  501    0  0.00000000000E+00  0.00000000000E+00  0.21040610225E+03  0.21040610227E+03  0.25500000920E-02 0.  1.
       -2   -1    0    0    0  501  0.00000000000E+00  0.00000000000E+00 -0.16720980682E+04  0.16720980683E+04  0.25500000920E-02 0. -1.
    10030    2    1    2    0    0  0.00000000000E+00  0.00000000000E+00 -0.14616919660E+04  0.18825041705E+04  0.11862877174E+04 0.  0.
        4    1    3    3  502    0  0.12733459017E+03 -0.50963085381E+03 -0.11679758571E+04  0.12806665923E+04  0.12699999809E+01 0. -1.
       -4    1    3    3    0  502 -0.12733459017E+03  0.50963085381E+03 -0.29371610890E+03  0.60183757820E+03  0.12699999809E+01 0.  1.
</event>
<event>
 5   0  0.2930868E-03  0.1220013E+04  0.7818609E-02  0.9095518E-01
       -1   -1    0    0    0  501  0.00000000000E+00  0.00000000000E+00  0.64500430564E+03  0.64500430566E+03  0.50400001928E-02 0. -1.
        1   -1    0    0  501    0  0.00000000000E+00  0.00000000000E+00 -0.57690736241E+03  0.57690736243E+03  0.50400001928E-02 0.  1.
    10030    2    1    2    0    0  0.00000000000E+00  0.00000000000E+00  0.68096943226E+02  0.12219116681E+04  0.12200126766E+04 0.  0.
        3    1    3    3  502    0  0.24618935663E+03 -0.64208271370E+02 -0.52122933977E+03  0.58001028980E+03  0.10100000352E+00 0.  1.
       -3    1    3    3    0  502 -0.24618935663E+03  0.64208271370E+02  0.58932628300E+03  0.64190137830E+03  0.10100000352E+00 0. -1.
</event>
<event>
 5   0  0.5189537E-03  0.1205491E+04  0.7818609E-02  0.9108064E-01
       -2   -1    0    0    0  501  0.00000000000E+00  0.00000000000E+00  0.59696466233E+03  0.59696466233E+03  0.25500000920E-02 0. -1.
        2   -1    0    0  501    0  0.00000000000E+00  0.00000000000E+00 -0.60858235816E+03  0.60858235816E+03  0.25500000920E-02 0.  1.
    10030    2    1    2    0    0  0.00000000000E+00  0.00000000000E+00 -0.11617695831E+02  0.12055470205E+04  0.12054910401E+04 0.  0.
        4    1    3    3  502    0  0.45212786064E+03 -0.36830815445E+02  0.39110306705E+03  0.59894852307E+03  0.12699999809E+01 0. -1.
       -4    1    3    3    0  502 -0.45212786064E+03  0.36830815445E+02 -0.40272076288E+03  0.60659849743E+03  0.12699999809E+01 0.  1.
</event>
<event>
 5   0  0.2926844E-03  0.1199876E+04  0.7818609E-02  0.9112965E-01
       -1   -1    0    0    0  501  0.00000000000E+00  0.00000000000E+00  0.73979648905E+03  0.73979648907E+03  0.50400001928E-02 0. -1.
        1   -1    0    0  501    0  0.00000000000E+00  0.00000000000E+00 -0.48651940083E+03  0.48651940085E+03  0.50400001928E-02 0.  1.
    10030    2    1    2    0    0  0.00000000000E+00  0.00000000000E+00  0.25327708823E+03  0.12263158899E+04  0.11998755679E+04 0.  0.
        5    1    3    3  502    0  0.26850732064E+03  0.51952582723E+03 -0.10100493208E+02  0.58491655504E+03  0.46999998093E+01 0.  1.
       -5    1    3    3    0  502 -0.26850732064E+03 -0.51952582723E+03  0.26337758144E+03  0.64139933489E+03  0.46999998093E+01 0. -1.
</event>
<event>
 5   0  0.5467554E-03  0.1210576E+04  0.7818609E-02  0.9103649E-01
       -2   -1    0    0    0  501  0.00000000000E+00  0.00000000000E+00  0.30369346256E+03  0.30369346257E+03  0.25500000920E-02 0.  1.
        2   -1    0    0  501    0  0.00000000000E+00  0.00000000000E+00 -0.12063935480E+04  0.12063935480E+04  0.25500000920E-02 0. -1.
    10030    2    1    2    0    0  0.00000000000E+00  0.00000000000E+00 -0.90270008543E+03  0.15100870106E+04  0.12105764475E+04 0.  0.
        1    1    3    3  502    0 -0.23956446502E+03  0.54828092836E+03 -0.56547779798E+03  0.82326681540E+03  0.50400001928E-02 0. -1.
       -1    1    3    3    0  502  0.23956446502E+03 -0.54828092836E+03 -0.33722228745E+03  0.68682019516E+03  0.50400001928E-02 0.  1.
</event>
<event>
 5   0  0.2792518E-03  0.1198182E+04  0.7818609E-02  0.9114450E-01
        1   -1    0    0  501    0  0.00000000000E+00  0.00000000000E+00  0.10021381979E+04  0.10021381979E+04  0.50400001928E-02 0. -1.
       -1   -1    0    0    0  501  0.00000000000E+00  0.00000000000E+00 -0.35814406259E+03  0.35814406263E+03  0.50400001928E-02 0.  1.
    10030    2    1    2    0    0  0.00000000000E+00  0.00000000000E+00  0.64399413534E+03  0.13602822606E+04  0.11981816983E+04 0.  0.
        2    1    3    3  502    0 -0.28587028816E+03 -0.25913786835E+03  0.84229583547E+03  0.92646453301E+03  0.25500000920E-02 0. -1.
       -2    1    3    3    0  502  0.28587028816E+03  0.25913786835E+03 -0.19830170014E+03  0.43381772756E+03  0.25500000920E-02 0.  1.
</event>
<event>
 5   0  0.1922125E-03  0.1175251E+04  0.7818609E-02  0.9134799E-01
        4   -1    0    0  501    0  0.00000000000E+00  0.00000000000E+00  0.28467339366E+03  0.28467622654E+03  0.12699999809E+01 0.  1.
       -4   -1    0    0    0  501  0.00000000000E+00  0.00000000000E+00 -0.12129727818E+04  0.12129734466E+04  0.12699999809E+01 0. -1.
    10030    2    1    2    0    0  0.00000000000E+00  0.00000000000E+00 -0.92829938811E+03  0.14976496732E+04  0.11752509475E+04 0.  0.
        2    1    3    3  502    0 -0.35885443691E+03 -0.22134291658E+01  0.12881786382E+03  0.38128132422E+03  0.25500000920E-02 0.  1.
       -2    1    3    3    0  502  0.35885443691E+03  0.22134291658E+01 -0.10571172519E+04  0.11163683489E+04  0.25500000920E-02 0. -1.
</event>
<event>
 5   0  0.2930868E-03  0.1244102E+04  0.7818609E-02  0.9075106E-01
        1   -1    0    0  501    0  0.00000000000E+00  0.00000000000E+00  0.46367965057E+03  0.46367965060E+03  0.50400001928E-02 0.  1.
       -1   -1    0    0    0  501  0.00000000000E+00  0.00000000000E+00 -0.83451467511E+03  0.83451467513E+03  0.50400001928E-02 0. -1.
    10030    2    1    2    0    0  0.00000000000E+00  0.00000000000E+00 -0.37083502454E+03  0.12981943257E+04  0.12441020424E+04 0.  0.
        3    1    3    3  502    0 -0.16048546053E+03  0.30455719149E+03  0.35521819670E+03  0.49466215076E+03  0.10100000352E+00 0.  1.
       -3    1    3    3    0  502  0.16048546053E+03 -0.30455719149E+03 -0.72605322123E+03  0.80353217496E+03  0.10100000352E+00 0. -1.
</event>
<event>
 5   0  0.2930868E-03  0.1058953E+04  0.7818609E-02  0.9246149E-01
       -1   -1    0    0    0  501  0.00000000000E+00  0.00000000000E+00  0.30684723712E+03  0.30684723716E+03  0.50400001928E-02 0.  1.
        1   -1    0    0  501    0  0.00000000000E+00  0.00000000000E+00 -0.91363160518E+03  0.91363160519E+03  0.50400001928E-02 0. -1.
    10030    2    1    2    0    0  0.00000000000E+00  0.00000000000E+00 -0.60678436806E+03  0.12204788424E+04  0.10589529429E+04 0.  0.
        3    1    3    3  502    0  0.48050477438E+03 -0.19633106156E+03 -0.42380078196E+03  0.67010285548E+03  0.10100000352E+00 0.  1.
       -3    1    3    3    0  502 -0.48050477438E+03  0.19633106156E+03 -0.18298358610E+03  0.55037598687E+03  0.10100000352E+00 0. -1.
</event>
<event>
 5   0  0.1922125E-03  0.1069874E+04  0.7818609E-02  0.9235062E-01
       -3   -1    0    0    0  501  0.00000000000E+00  0.00000000000E+00  0.98546934477E+03  0.98546934994E+03  0.10100000352E+00 0. -1.
        3   -1    0    0  501    0  0.00000000000E+00  0.00000000000E+00 -0.29037707866E+03  0.29037709623E+03  0.10100000352E+00 0.  1.
    10030    2    1    2    0    0  0.00000000000E+00  0.00000000000E+00  0.69509226611E+03  0.12758464462E+04  0.10698742430E+04 0.  0.
        3    1    3    3  502    0  0.30708043790E+03 -0.43108237060E+03  0.44012830702E+03  0.68836279855E+03  0.10100000352E+00 0.  1.
       -3    1    3    3    0  502 -0.30708043790E+03  0.43108237060E+03  0.25496395908E+03  0.58748364762E+03  0.10100000352E+00 0. -1.
</event>
<event>
 5   0  0.2930868E-03  0.1011610E+04  0.7818609E-02  0.9295902E-01
        1   -1    0    0  501    0  0.00000000000E+00  0.00000000000E+00  0.23212761177E+04  0.23212761177E+04  0.50400001928E-02 0. -1.
       -1   -1    0    0    0  501  0.00000000000E+00  0.00000000000E+00 -0.11021471563E+03  0.11021471575E+03  0.50400001928E-02 0.  1.
    10030    2    1    2    0    0  0.00000000000E+00  0.00000000000E+00  0.22110614021E+04  0.24314908335E+04  0.10116101766E+04 0.  0.
        3    1    3    3  502    0  0.49848194492E+03 -0.56957148907E+02  0.95143090331E+03  0.10756157028E+04  0.10100000352E+00 0. -1.
       -3    1    3    3    0  502 -0.49848194492E+03  0.56957148907E+02  0.12596304988E+04  0.13558751306E+04  0.10100000352E+00 0.  1.
</event>
<event>
 5   0  0.2792518E-03  0.1201504E+04  0.7818609E-02  0.9111541E-01
        1   -1    0    0  501    0  0.00000000000E+00  0.00000000000E+00  0.14512684853E+04  0.14512684853E+04  0.50400001928E-02 0.  1.
       -1   -1    0    0    0  501  0.00000000000E+00  0.00000000000E+00 -0.24868087251E+03  0.24868087256E+03  0.50400001928E-02 0. -1.
    10030    2    1    2    0    0  0.00000000000E+00  0.00000000000E+00  0.12025876128E+04  0.16999493578E+04  0.12015035800E+04 0.  0.
        2    1    3    3  502    0  0.51980376932E+03 -0.66663512938E+02  0.18574454434E+03  0.55600451286E+03  0.25500000920E-02 0. -1.
       -2    1    3    3    0  502 -0.51980376932E+03  0.66663512938E+02  0.10168430684E+04  0.11439448450E+04  0.25500000920E-02 0.  1.
</event>
<event>
 5   0  0.2926844E-03  0.1243845E+04  0.7818609E-02  0.9075321E-01
       -1   -1    0    0    0  501  0.00000000000E+00  0.00000000000E+00  0.48726337505E+03  0.48726337508E+03  0.50400001928E-02 0.  1.
        1   -1    0    0  501    0  0.00000000000E+00  0.00000000000E+00 -0.79379606937E+03  0.79379606938E+03  0.50400001928E-02 0. -1.
    10030    2    1    2    0    0  0.00000000000E+00  0.00000000000E+00 -0.30653269431E+03  0.12810594445E+04  0.12438452507E+04 0.  0.
        5    1    3    3  502    0  0.90664572670E+02 -0.56978926639E+03 -0.39234458916E+03  0.69773651150E+03  0.46999998093E+01 0. -1.
       -5    1    3    3    0  502 -0.90664572670E+02  0.56978926639E+03  0.85811894849E+02  0.58332293297E+03  0.46999998093E+01 0.  1.
</event>
<event>
 5   0  0.1922125E-03  0.1192089E+04  0.7818609E-02  0.9119809E-01
       -4   -1    0    0    0  501  0.00000000000E+00  0.00000000000E+00  0.77124963779E+03  0.77125068343E+03  0.12699999809E+01 0. -1.
        4   -1    0    0  501    0  0.00000000000E+00  0.00000000000E+00 -0.46063874237E+03  0.46064049309E+03  0.12699999809E+01 0.  1.
    10030    2    1    2    0    0  0.00000000000E+00  0.00000000000E+00  0.31061089542E+03  0.12318911765E+04  0.11920892343E+04 0.  0.
        2    1    3    3  502    0  0.29790716565E+03 -0.44413479096E+03 -0.11666383213E+03  0.54737084469E+03  0.25500000920E-02 0.  1.
       -2    1    3    3    0  502 -0.29790716565E+03  0.44413479096E+03  0.42727472754E+03  0.68452033183E+03  0.25500000920E-02 0. -1.
</event>
<event>
 5   0  0.1922125E-03  0.1187948E+04  0.7818609E-02  0.9123472E-01
       -3   -1    0    0    0  501  0.00000000000E+00  0.00000000000E+00  0.13631227448E+04  0.13631227485E+04  0.10100000352E+00 0. -1.
        3   -1    0    0  501    0  0.00000000000E+00  0.00000000000E+00 -0.25882113234E+03  0.25882115205E+03  0.10100000352E+00 0.  1.
    10030    2    1    2    0    0  0.00000000000E+00  0.00000000000E+00  0.11043016125E+04  0.16219439006E+04  0.11879477957E+04 0.  0.
        2    1    3    3  502    0  0.49562443070E+03 -0.23132687910E+03  0.86839347215E+03  0.10262859854E+04  0.25500000920E-02 0. -1.
       -2    1    3    3    0  502 -0.49562443070E+03  0.23132687910E+03  0.23590814032E+03  0.59565791523E+03  0.25500000920E-02 0.  1.
</event>
<event>
 5   0  0.5467554E-03  0.1189787E+04  0.7818609E-02  0.9121843E-01
       -2   -1    0    0    0  501  0.00000000000E+00  0.00000000000E+00  0.75467400275E+03  0.75467400276E+03  0.25500000920E-02 0. -1.
        2   -1    0    0  501    0  0.00000000000E+00  0.00000000000E+00 -0.46894226961E+03  0.46894226962E+03  0.25500000920E-02 0.  1.
    10030    2    1    2    0    0  0.00000000000E+00  0.00000000000E+00  0.28573173314E+03  0.12236162724E+04  0.11897874427E+04 0.  0.
        1    1    3    3  502    0  0.11603605719E+03  0.49902082442E+03 -0.16807542239E+03  0.53919894047E+03  0.50400001928E-02 0.  1.
       -1    1    3    3    0  502 -0.11603605719E+03 -0.49902082442E+03  0.45380715553E+03  0.68441733190E+03  0.50400001928E-02 0. -1.
</event>
<event>
 5   0  0.2875848E-03  0.1204390E+04  0.7818609E-02  0.9109023E-01
        1   -1    0    0  501    0  0.00000000000E+00  0.00000000000E+00  0.65085221592E+03  0.65085221594E+03  0.50400001928E-02 0. -1.
       -1   -1    0    0    0  501  0.00000000000E+00  0.00000000000E+00 -0.55717516155E+03  0.55717516157E+03  0.50400001928E-02 0.  1.
    10030    2    1    2    0    0  0.00000000000E+00  0.00000000000E+00  0.93677054374E+02  0.12080273775E+04  0.12043897850E+04 0.  0.
        1    1    3    3  502    0  0.37534438189E+02  0.40446681236E+03 -0.39906739257E+03  0.56943570330E+03  0.50400001928E-02 0.  1.
       -1    1    3    3    0  502 -0.37534438189E+02 -0.40446681236E+03  0.49274444695E+03  0.63859167421E+03  0.50400001928E-02 0. -1.
</event>
<event>
 5   0  0.5189537E-03  0.1199149E+04  0.7818609E-02  0.9113602E-01
       -2   -1    0    0    0  501  0.00000000000E+00  0.00000000000E+00  0.49551009305E+03  0.49551009306E+03  0.25500000920E-02 0. -1.
        2   -1    0    0  501    0  0.00000000000E+00  0.00000000000E+00 -0.72549424865E+03  0.72549424866E+03  0.25500000920E-02 0.  1.
    10030    2    1    2    0    0  0.00000000000E+00  0.00000000000E+00 -0.22998415560E+03  0.12210043417E+04  0.11991492362E+04 0.  0.
        4    1    3    3  502    0  0.48711026857E+03  0.19087940404E+03 -0.41320658348E+03  0.66667282393E+03  0.12699999809E+01 0.  1.
       -4    1    3    3    0  502 -0.48711026857E+03 -0.19087940404E+03  0.18322242788E+03  0.55433151779E+03  0.12699999809E+01 0. -1.
</event>
<event>
 5   0  0.5108045E-03  0.1208431E+04  0.7818609E-02  0.9105508E-01
       -2   -1    0    0    0  501  0.00000000000E+00  0.00000000000E+00  0.32816355568E+03  0.32816355569E+03  0.25500000920E-02 0.  1.
        2   -1    0    0  501    0  0.00000000000E+00  0.00000000000E+00 -0.11124835562E+04  0.11124835562E+04  0.25500000920E-02 0. -1.
    10030    2    1    2    0    0  0.00000000000E+00  0.00000000000E+00 -0.78432000053E+03  0.14406471119E+04  0.12084313128E+04 0.  0.
        3    1    3    3  502    0  0.14817994232E+03  0.52418176139E+03 -0.80476658903E+02  0.55063628386E+03  0.10100000352E+00 0.  1.
       -3    1    3    3    0  502 -0.14817994232E+03 -0.52418176139E+03 -0.70384334163E+03  0.89001082804E+03  0.10100000352E+00 0. -1.
</event>
<event>
 5   0  0.2930868E-03  0.1238724E+04  0.7818609E-02  0.9079621E-01
        1   -1    0    0  501    0  0.00000000000E+00  0.00000000000E+00  0.53227774439E+03  0.53227774441E+03  0.50400001928E-02 0.  1.
       -1   -1    0    0    0  501  0.00000000000E+00  0.00000000000E+00 -0.72069341603E+03  0.72069341604E+03  0.50400001928E-02 0. -1.
    10030    2    1    2    0    0  0.00000000000E+00  0.00000000000E+00 -0.18841567164E+03  0.12529711605E+04  0.12387236430E+04 0.  0.
        3    1    3    3  502    0  0.63426122013E+02  0.33916149076E+03  0.42605784858E+03  0.54825057255E+03  0.10100000352E+00 0.  1.
       -3    1    3    3    0  502 -0.63426122013E+02 -0.33916149076E+03 -0.61447352022E+03  0.70472058790E+03  0.10100000352E+00 0. -1.
</event>
<event>
 5   0  0.2926844E-03  0.8250500E+03  0.7818609E-02  0.9524450E-01
        1   -1    0    0  501    0  0.00000000000E+00  0.00000000000E+00  0.94428881461E+03  0.94428881463E+03  0.50400001928E-02 0. -1.
       -1   -1    0    0    0  501  0.00000000000E+00  0.00000000000E+00 -0.18021696528E+03  0.18021696535E+03  0.50400001928E-02 0.  1.
    10030    2    1    2    0    0  0.00000000000E+00  0.00000000000E+00  0.76407184934E+03  0.11245057800E+04  0.82504997318E+03 0.  0.
        5    1    3    3  502    0  0.15454627298E+03  0.24861111067E+03  0.77814429505E+03  0.83139802066E+03  0.46999998093E+01 0. -1.
       -5    1    3    3    0  502 -0.15454627298E+03 -0.24861111067E+03 -0.14072445717E+02  0.29310775931E+03  0.46999998093E+01 0.  1.
</event>
<event>
 5   0  0.1922125E-03  0.1202632E+04  0.7818609E-02  0.9110556E-01
        3   -1    0    0  501    0  0.00000000000E+00  0.00000000000E+00  0.33361903776E+03  0.33361905305E+03  0.10100000352E+00 0. -1.
       -3   -1    0    0    0  501  0.00000000000E+00  0.00000000000E+00 -0.10838140865E+04  0.10838140912E+04  0.10100000352E+00 0.  1.
    10030    2    1    2    0    0  0.00000000000E+00  0.00000000000E+00 -0.75019504870E+03  0.14174331442E+04  0.12026321579E+04 0.  0.
        5    1    3    3  502    0  0.31071447575E+02  0.35527731519E+03  0.19548990569E+03  0.40672570459E+03  0.46999998093E+01 0. -1.
       -5    1    3    3    0  502 -0.31071447575E+02 -0.35527731519E+03 -0.94568495440E+03  0.10107074396E+04  0.46999998093E+01 0.  1.
</event>
<event>
 5   0  0.2938349E-03  0.1190201E+04  0.7818609E-02  0.9121477E-01
       -1   -1    0    0    0  501  0.00000000000E+00  0.00000000000E+00  0.23161424507E+03  0.23161424513E+03  0.50400001928E-02 0. -1.
        1   -1    0    0  501    0  0.00000000000E+00  0.00000000000E+00 -0.15290283254E+04  0.15290283254E+04  0.50400001928E-02 0.  1.
    10030    2    1    2    0    0  0.00000000000E+00  0.00000000000E+00 -0.12974140803E+04  0.17606425705E+04  0.11902012289E+04 0.  0.
        4    1    3    3  502    0 -0.11078486976E+03  0.82979228100E+02 -0.15048829882E+04  0.15112356735E+04  0.12699999809E+01 0.  1.
       -4    1    3    3    0  502  0.11078486976E+03 -0.82979228100E+02  0.20746890788E+03  0.24940689706E+03  0.12699999809E+01 0. -1.
</event>
<event>
 5   0  0.5031575E-03  0.1204817E+04  0.7818609E-02  0.9108651E-01
        2   -1    0    0  501    0  0.00000000000E+00  0.00000000000E+00  0.66891124704E+03  0.66891124704E+03  0.25500000920E-02 0.  1.
       -2   -1    0    0    0  501  0.00000000000E+00  0.00000000000E+00 -0.54251727471E+03  0.54251727472E+03  0.25500000920E-02 0. -1.
    10030    2    1    2    0    0  0.00000000000E+00  0.00000000000E+00  0.12639397232E+03  0.12114285218E+04  0.12048168438E+04 0.  0.
        5    1    3    3  502    0  0.11019914934E+03 -0.48122904589E+03 -0.28387629417E+03  0.56950249122E+03  0.46999998093E+01 0. -1.
       -5    1    3    3    0  502 -0.11019914934E+03  0.48122904589E+03  0.41027026649E+03  0.64192603054E+03  0.46999998093E+01 0.  1.
</event>
<event>
 5   0  0.5003526E-03  0.1205126E+04  0.7818609E-02  0.9108382E-01
       -2   -1    0    0    0  501  0.00000000000E+00  0.00000000000E+00  0.43369266229E+03  0.43369266230E+03  0.25500000920E-02 0.  1.
        2   -1    0    0  501    0  0.00000000000E+00  0.00000000000E+00 -0.83718724851E+03  0.83718724851E+03  0.25500000920E-02 0. -1.
    10030    2    1    2    0    0  0.00000000000E+00  0.00000000000E+00 -0.40349458622E+03  0.12708799108E+04  0.12051256642E+04 0.  0.
        2    1    3    3  502    0  0.47829874027E+03 -0.29219803137E+03  0.31529368122E+02  0.56137641164E+03  0.25500000920E-02 0. -1.
       -2    1    3    3    0  502 -0.47829874027E+03  0.29219803137E+03 -0.43502395434E+03  0.70950349917E+03  0.25500000920E-02 0.  1.
</event>
<event>
 5   0  0.5108045E-03  0.1212940E+04  0.7818609E-02  0.9101605E-01
       -2   -1    0    0    0  501  0.00000000000E+00  0.00000000000E+00  0.65825102590E+03  0.65825102590E+03  0.25500000920E-02 0.  1.
        2   -1    0    0  501    0  0.00000000000E+00  0.00000000000E+00 -0.55876233566E+03  0.55876233566E+03  0.25500000920E-02 0. -1.
    10030    2    1    2    0    0  0.00000000000E+00  0.00000000000E+00  0.99488690244E+02  0.12170133616E+04  0.12129400326E+04 0.  0.
        3    1    3    3  502    0 -0.56254120729E+03 -0.21375886946E+03 -0.25743985214E+02  0.60233564327E+03  0.10100000352E+00 0. -1.
       -3    1    3    3    0  502  0.56254120729E+03  0.21375886946E+03  0.12523267546E+03  0.61467771830E+03  0.10100000352E+00 0.  1.
</event>
<event>
 5   0  0.5003526E-03  0.1202179E+04  0.7818609E-02  0.9110952E-01
       -2   -1    0    0    0  501  0.00000000000E+00  0.00000000000E+00  0.34759190995E+03  0.34759190996E+03  0.25500000920E-02 0.  1.
        2   -1    0    0  501    0  0.00000000000E+00  0.00000000000E+00 -0.10394612926E+04  0.10394612926E+04  0.25500000920E-02 0. -1.
    10030    2    1    2    0    0  0.00000000000E+00  0.00000000000E+00 -0.69186938263E+03  0.13870532026E+04  0.12021785824E+04 0.  0.
        2    1    3    3  502    0 -0.11875061596E+03  0.16854856024E+03 -0.99738595953E+03  0.10184738967E+04  0.25500000920E-02 0. -1.
       -2    1    3    3    0  502  0.11875061596E+03 -0.16854856024E+03  0.30551657690E+03  0.36857930587E+03  0.25500000920E-02 0.  1.
</event>
<event>
 5   0  0.5108045E-03  0.1210093E+04  0.7818609E-02  0.9104067E-01
       -2   -1    0    0    0  501  0.00000000000E+00  0.00000000000E+00  0.45654166529E+03  0.45654166530E+03  0.25500000920E-02 0. -1.
        2   -1    0    0  501    0  0.00000000000E+00  0.00000000000E+00 -0.80185770917E+03  0.80185770918E+03  0.25500000920E-02 0.  1.
    10030    2    1    2    0    0  0.00000000000E+00  0.00000000000E+00 -0.34531604388E+03  0.12583993745E+04  0.12100933086E+04 0.  0.
        3    1    3    3  502    0  0.27816991864E+03  0.49929368894E+03  0.33782988665E+02  0.57255042745E+03  0.10100000352E+00 0.  1.
       -3    1    3    3    0  502 -0.27816991864E+03 -0.49929368894E+03 -0.37909903255E+03  0.68584894702E+03  0.10100000352E+00 0. -1.
</event>
<event>
 5   0  0.5031575E-03  0.1159596E+04  0.7818609E-02  0.9148977E-01
       -2   -1    0    0    0  501  0.00000000000E+00  0.00000000000E+00  0.43578763803E+03  0.43578763804E+03  0.25500000920E-02 0.  1.
        2   -1    0    0  501    0  0.00000000000E+00  0.00000000000E+00 -0.77139745495E+03  0.77139745496E+03  0.25500000920E-02 0. -1.
    10030    2    1    2    0    0  0.00000000000E+00  0.00000000000E+00 -0.33560981692E+03  0.12071850930E+04  0.11595955758E+04 0.  0.
        5    1    3    3  502    0  0.51047761631E+03 -0.67321569639E+02  0.10963520242E+03  0.52646135480E+03  0.46999998093E+01 0.  1.
       -5    1    3    3    0  502 -0.51047761631E+03  0.67321569639E+02 -0.44524501934E+03  0.68072373819E+03  0.46999998093E+01 0. -1.
</event>
<event>
 5   0  0.5189537E-03  0.1218846E+04  0.7818609E-02  0.9096518E-01
       -2   -1    0    0    0  501  0.00000000000E+00  0.00000000000E+00  0.13850533389E+03  0.13850533391E+03  0.25500000920E-02 0. -1.
        2   -1    0    0  501    0  0.00000000000E+00  0.00000000000E+00 -0.26814608361E+04  0.26814608362E+04  0.25500000920E-02 0.  1.
    10030    2    1    2    0    0  0.00000000000E+00  0.00000000000E+00 -0.25429555023E+04  0.28199661701E+04  0.12188463865E+04 0.  0.
        4    1    3    3  502    0  0.11775646500E+03  0.57420297556E+02 -0.26484919396E+04  0.26517305373E+04  0.12699999809E+01 0.  1.
       -4    1    3    3    0  502 -0.11775646500E+03 -0.57420297556E+02  0.10553643732E+03  0.16823563274E+03  0.12699999809E+01 0. -1.
</event>
<event>
 5   0  0.5189537E-03  0.1129915E+04  0.7818609E-02  0.9176516E-01
       -2   -1    0    0    0  501  0.00000000000E+00  0.00000000000E+00  0.32794006462E+03  0.32794006463E+03  0.25500000920E-02 0.  1.
        2   -1    0    0  501    0  0.00000000000E+00  0.00000000000E+00 -0.97327812429E+03  0.97327812430E+03  0.25500000920E-02 0. -1.
    10030    2    1    2    0    0  0.00000000000E+00  0.00000000000E+00 -0.64533805967E+03  0.13012181889E+04  0.11299148481E+04 0.  0.
        4    1    3    3  502    0  0.13795895912E+03  0.30229092432E+03 -0.84884494736E+03  0.91156559550E+03  0.12699999809E+01 0. -1.
       -4    1    3    3    0  502 -0.13795895912E+03 -0.30229092432E+03  0.20350688769E+03  0.38965259343E+03  0.12699999809E+01 0.  1.
</event>
<event>
 5   0  0.2875848E-03  0.1199764E+04  0.7818609E-02  0.9113063E-01
        1   -1    0    0  501    0  0.00000000000E+00  0.00000000000E+00  0.76703740062E+03  0.76703740063E+03  0.50400001928E-02 0. -1.
       -1   -1    0    0    0  501  0.00000000000E+00  0.00000000000E+00 -0.46915397774E+03  0.46915397777E+03  0.50400001928E-02 0.  1.
    10030    2    1    2    0    0  0.00000000000E+00  0.00000000000E+00  0.29788342287E+03  0.12361913784E+04  0.11997643895E+04 0.  0.
        1    1    3    3  502    0  0.61241841036E+02 -0.25906043154E+03 -0.40496355131E+03  0.48462186104E+03  0.50400001928E-02 0.  1.
       -1    1    3    3    0  502 -0.61241841036E+02  0.25906043154E+03  0.70284697418E+03  0.75156951736E+03  0.50400001928E-02 0. -1.
</event>
<event>
 5   0  0.5003526E-03  0.7667855E+03  0.7818609E-02  0.9609378E-01
        2   -1    0    0  501    0  0.00000000000E+00  0.00000000000E+00  0.16021429704E+04  0.16021429704E+04  0.25500000920E-02 0.  1.
       -2   -1    0    0    0  501  0.00000000000E+00  0.00000000000E+00 -0.91745864393E+02  0.91745864428E+02  0.25500000920E-02 0. -1.
    10030    2    1    2    0    0  0.00000000000E+00  0.00000000000E+00  0.15103971060E+04  0.16938888348E+04  0.76678547647E+03 0.  0.
        2    1    3    3  502    0  0.67231130067E+02 -0.37675684783E+03  0.70461865354E+03  0.80184362202E+03  0.25500000920E-02 0. -1.
       -2    1    3    3    0  502 -0.67231130067E+02  0.37675684783E+03  0.80577845244E+03  0.89204521279E+03  0.25500000920E-02 0.  1.
</event>
<event>
 5   0  0.2926844E-03  0.1222306E+04  0.7818609E-02  0.9093553E-01
       -1   -1    0    0    0  501  0.00000000000E+00  0.00000000000E+00  0.21967527187E+03  0.21967527193E+03  0.50400001928E-02 0.  1.
        1   -1    0    0  501    0  0.00000000000E+00  0.00000000000E+00 -0.17002721132E+04  0.17002721132E+04  0.50400001928E-02 0. -1.
    10030    2    1    2    0    0  0.00000000000E+00  0.00000000000E+00 -0.14805968413E+04  0.19199473851E+04  0.12223055899E+04 0.  0.
        5    1    3    3  502    0 -0.14535285329E+03  0.20777323429E+03 -0.16137144971E+04  0.16335218814E+04  0.46999998093E+01 0. -1.
       -5    1    3    3    0  502  0.14535285329E+03 -0.20777323429E+03  0.13311765586E+03  0.28642550366E+03  0.46999998093E+01 0.  1.
</event>
<event>
 5   0  0.2875848E-03  0.1152607E+04  0.7818609E-02  0.9155382E-01
        1   -1    0    0  501    0  0.00000000000E+00  0.00000000000E+00  0.14269190240E+04  0.14269190240E+04  0.50400001928E-02 0. -1.
       -1   -1    0    0    0  501  0.00000000000E+00  0.00000000000E+00 -0.23275709820E+03  0.23275709825E+03  0.50400001928E-02 0.  1.
    10030    2    1    2    0    0  0.00000000000E+00  0.00000000000E+00  0.11941619258E+04  0.16596761222E+04  0.11526066657E+04 0.  0.
        1    1    3    3  502    0 -0.14987021117E+03 -0.44874390122E+03  0.10709334212E+04  0.11707820300E+04  0.50400001928E-02 0. -1.
       -1    1    3    3    0  502  0.14987021117E+03  0.44874390122E+03  0.12322850459E+03  0.48889409226E+03  0.50400001928E-02 0.  1.
</event>
<event>
 5   0  0.2926844E-03  0.1155257E+04  0.7818609E-02  0.9152948E-01
       -1   -1    0    0    0  501  0.00000000000E+00  0.00000000000E+00  0.41318797875E+03  0.41318797878E+03  0.50400001928E-02 0.  1.
        1   -1    0    0  501    0  0.00000000000E+00  0.00000000000E+00 -0.80751252234E+03  0.80751252236E+03  0.50400001928E-02 0. -1.
    10030    2    1    2    0    0  0.00000000000E+00  0.00000000000E+00 -0.39432454359E+03  0.12207005011E+04  0.11552566242E+04 0.  0.
        5    1    3    3  502    0  0.41846770073E+03 -0.10752993086E+03  0.20790025012E+03  0.47950235305E+03  0.46999998093E+01 0.  1.
       -5    1    3    3    0  502 -0.41846770073E+03  0.10752993086E+03 -0.60222479371E+03  0.74119814810E+03  0.46999998093E+01 0. -1.
</event>
<event>
 5   0  0.5467554E-03  0.1197833E+04  0.7818609E-02  0.9114756E-01
        2   -1    0    0  501    0  0.00000000000E+00  0.00000000000E+00  0.20231879830E+04  0.20231879830E+04  0.25500000920E-02 0. -1.
       -2   -1    0    0    0  501  0.00000000000E+00  0.00000000000E+00 -0.17729478380E+03  0.17729478382E+03  0.25500000920E-02 0.  1.
    10030    2    1    2    0    0  0.00000000000E+00  0.00000000000E+00  0.18458931992E+04  0.22004827668E+04  0.11978325026E+04 0.  0.
        1    1    3    3  502    0 -0.11207776118E+03 -0.99857064655E+02  0.19880700491E+04  0.19937290132E+04  0.50400001928E-02 0. -1.
       -1    1    3    3    0  502  0.11207776118E+03  0.99857064655E+02 -0.14217684997E+03  0.20675375355E+03  0.50400001928E-02 0.  1.
</event>
<event>
 5   0  0.5108045E-03  0.1205705E+04  0.7818609E-02  0.9107877E-01
       -2   -1    0    0    0  501  0.00000000000E+00  0.00000000000E+00  0.35630757084E+03  0.35630757084E+03  0.25500000920E-02 0. -1.
        2   -1    0    0  501    0  0.00000000000E+00  0.00000000000E+00 -0.10199935113E+04  0.10199935113E+04  0.25500000920E-02 0.  1.
    10030    2    1    2    0    0  0.00000000000E+00  0.00000000000E+00 -0.66368594047E+03  0.13763010822E+04  0.12057054537E+04 0.  0.
        3    1    3    3  502    0 -0.11576655022E+03 -0.31204390704E+03  0.24192836022E+03  0.41146401514E+03  0.10100000352E+00 0. -1.
       -3    1    3    3    0  502  0.11576655022E+03  0.31204390704E+03 -0.90561430069E+03  0.96483706702E+03  0.10100000352E+00 0.  1.
</event>
<event>
 5   0  0.5031575E-03  0.1206212E+04  0.7818609E-02  0.9107437E-01
        2   -1    0    0  501    0  0.00000000000E+00  0.00000000000E+00  0.16271653542E+04  0.16271653542E+04  0.25500000920E-02 0. -1.
       -2   -1    0    0    0  501  0.00000000000E+00  0.00000000000E+00 -0.22354011236E+03  0.22354011237E+03  0.25500000920E-02 0.  1.
    10030    2    1    2    0    0  0.00000000000E+00  0.00000000000E+00  0.14036252419E+04  0.18507054666E+04  0.12062117992E+04 0.  0.
        5    1    3    3  502    0  0.40912177870E+03  0.32410332331E+02  0.23786234067E+02  0.41111912431E+03  0.46999998093E+01 0.  1.
       -5    1    3    3    0  502 -0.40912177870E+03 -0.32410332331E+02  0.13798390078E+04  0.14395863423E+04  0.46999998093E+01 0. -1.
</event>
<event>
 5   0  0.2926844E-03  0.1215264E+04  0.7818609E-02  0.9099600E-01
       -1   -1    0    0    0  501  0.00000000000E+00  0.00000000000E+00  0.31248766142E+03  0.31248766146E+03  0.50400001928E-02 0. -1.
        1   -1    0    0  501    0  0.00000000000E+00  0.00000000000E+00 -0.11815402110E+04  0.11815402110E+04  0.50400001928E-02 0.  1.
    10030    2    1    2    0    0  0.00000000000E+00  0.00000000000E+00 -0.86905254958E+03  0.14940278725E+04  0.12152641482E+04 0.  0.
        5    1    3    3  502    0 -0.98330381604E+02 -0.52757944310E+02 -0.11688124782E+04  0.11741366887E+04  0.46999998093E+01 0.  1.
       -5    1    3    3    0  502  0.98330381604E+02  0.52757944310E+02  0.29975992862E+03  0.31989118374E+03  0.46999998093E+01 0. -1.
</event>
<event>
 5   0  0.5108045E-03  0.1155827E+04  0.7818609E-02  0.9152425E-01
        2   -1    0    0  501    0  0.00000000000E+00  0.00000000000E+00  0.21326860736E+04  0.21326860736E+04  0.25500000920E-02 0.  1.
       -2   -1    0    0    0  501  0.00000000000E+00  0.00000000000E+00 -0.15660247788E+03  0.15660247790E+03  0.25500000920E-02 0. -1.
    10030    2    1    2    0    0  0.00000000000E+00  0.00000000000E+00  0.19760835957E+04  0.22892885515E+04  0.11558268446E+04 0.  0.
        3    1    3    3  502    0 -0.33712658404E+03  0.46406288839E+03  0.11277473626E+04  0.12652362712E+04  0.10100000352E+00 0. -1.
       -3    1    3    3    0  502  0.33712658404E+03 -0.46406288839E+03  0.84833623311E+03  0.10240522802E+04  0.10100000352E+00 0.  1.
</event>
<event>
 5   0  0.5189537E-03  0.1262056E+04  0.7818609E-02  0.9060208E-01
        2   -1    0    0  501    0  0.00000000000E+00  0.00000000000E+00  0.75932032051E+03  0.75932032052E+03  0.25500000920E-02 0. -1.
       -2   -1    0    0    0  501  0.00000000000E+00  0.00000000000E+00 -0.52441191858E+03  0.52441191859E+03  0.25500000920E-02 0.  1.
    10030    2    1    2    0    0  0.00000000000E+00  0.00000000000E+00  0.23490840193E+03  0.12837322391E+04  0.12620564585E+04 0.  0.
        4    1    3    3  502    0  0.15705565885E+03 -0.41374230513E+03 -0.34010026910E+03  0.55813885456E+03  0.12699999809E+01 0.  1.
       -4    1    3    3    0  502 -0.15705565885E+03  0.41374230513E+03  0.57500867104E+03  0.72559338454E+03  0.12699999809E+01 0. -1.
</event>
<event>
 5   0  0.1922125E-03  0.1199915E+04  0.7818609E-02  0.9112931E-01
       -4   -1    0    0    0  501  0.00000000000E+00  0.00000000000E+00  0.69611551760E+03  0.69611667610E+03  0.12699999809E+01 0.  1.
        4   -1    0    0  501    0  0.00000000000E+00  0.00000000000E+00 -0.51708006521E+03  0.51708162483E+03  0.12699999809E+01 0. -1.
    10030    2    1    2    0    0  0.00000000000E+00  0.00000000000E+00  0.17903545239E+03  0.12131983009E+04  0.11999151737E+04 0.  0.
        2    1    3    3  502    0  0.20630490993E+03  0.12549118171E+03 -0.46577917349E+03  0.52465225722E+03  0.25500000920E-02 0. -1.
       -2    1    3    3    0  502 -0.20630490993E+03 -0.12549118171E+03  0.64481462588E+03  0.68854604371E+03  0.25500000920E-02 0.  1.
</event>
<event>
 5   0  0.2926844E-03  0.1192239E+04  0.7818609E-02  0.9119677E-01
       -1   -1    0    0    0  501  0.00000000000E+00  0.00000000000E+00  0.25411694486E+03  0.25411694491E+03  0.50400001928E-02 0.  1.
        1   -1    0    0  501    0  0.00000000000E+00  0.00000000000E+00 -0.13984056824E+04  0.13984056824E+04  0.50400001928E-02 0. -1.
    10030    2    1    2    0    0  0.00000000000E+00  0.00000000000E+00 -0.11442887375E+04  0.16525226273E+04  0.11922392037E+04 0.  0.
        5    1    3    3  502    0 -0.33612730234E+03  0.36370457858E+02  0.10834520153E+03  0.35505653955E+03  0.46999998093E+01 0.  1.
       -5    1    3    3    0  502  0.33612730234E+03 -0.36370457858E+02 -0.12526339391E+04  0.12974660878E+04  0.46999998093E+01 0. -1.
</event>
<event>
 5   0  0.5031575E-03  0.1201030E+04  0.7818609E-02  0.9111955E-01
       -2   -1    0    0    0  501  0.00000000000E+00  0.00000000000E+00  0.53322630490E+03  0.53322630491E+03  0.25500000920E-02 0. -1.
        2   -1    0    0  501    0  0.00000000000E+00  0.00000000000E+00 -0.67629536109E+03  0.67629536109E+03  0.25500000920E-02 0.  1.
    10030    2    1    2    0    0  0.00000000000E+00  0.00000000000E+00 -0.14306905618E+03  0.12095216660E+04  0.12010303517E+04 0.  0.
        5    1    3    3  502    0 -0.16340593948E+03  0.71169308638E+02 -0.64902558549E+03  0.67306973797E+03  0.46999998093E+01 0.  1.
       -5    1    3    3    0  502  0.16340593948E+03 -0.71169308638E+02  0.50595652930E+03  0.53645192804E+03  0.46999998093E+01 0. -1.
</event>
<event>
 5   0  0.5467554E-03  0.1255316E+04  0.7818609E-02  0.9065771E-01
       -2   -1    0    0    0  501  0.00000000000E+00  0.00000000000E+00  0.60532372045E+03  0.60532372046E+03  0.25500000920E-02 0.  1.
        2   -1    0    0  501    0  0.00000000000E+00  0.00000000000E+00 -0.65081586036E+03  0.65081586036E+03  0.25500000920E-02 0. -1.
    10030    2    1    2    0    0  0.00000000000E+00  0.00000000000E+00 -0.45492139906E+02  0.12561395808E+04  0.12553155427E+04 0.  0.
        1    1    3    3  502    0  0.58708765321E+03  0.18003249693E+03  0.10722631862E+03  0.62336273223E+03  0.50400001928E-02 0.  1.
       -1    1    3    3    0  502 -0.58708765321E+03 -0.18003249693E+03 -0.15271845852E+03  0.63277684858E+03  0.50400001928E-02 0. -1.
</event>
<event>
 5   0  0.5189537E-03  0.1200394E+04  0.7818609E-02  0.9112511E-01
       -2   -1    0    0    0  501  0.00000000000E+00  0.00000000000E+00  0.35273955741E+03  0.35273955742E+03  0.25500000920E-02 0.  1.
        2   -1    0    0  501    0  0.00000000000E+00  0.00000000000E+00 -0.10212540852E+04  0.10212540852E+04  0.25500000920E-02 0. -1.
    10030    2    1    2    0    0  0.00000000000E+00  0.00000000000E+00 -0.66851452776E+03  0.13739936426E+04  0.12003944585E+04 0.  0.
        4    1    3    3  502    0 -0.24481455667E+03  0.72174339406E+02  0.28752640505E+03  0.38446891803E+03  0.12699999809E+01 0.  1.
       -4    1    3    3    0  502  0.24481455667E+03 -0.72174339406E+02 -0.95604093281E+03  0.98952472457E+03  0.12699999809E+01 0. -1.
</event>
<event>
 5   0  0.5467554E-03  0.1181321E+04  0.7818609E-02  0.9129365E-01
        2   -1    0    0  501    0  0.00000000000E+00  0.00000000000E+00  0.19388779638E+04  0.19388779638E+04  0.25500000920E-02 0. -1.
       -2   -1    0    0    0  501  0.00000000000E+00  0.00000000000E+00 -0.17993893063E+03  0.17993893065E+03  0.25500000920E-02 0.  1.
    10030    2    1    2    0    0  0.00000000000E+00  0.00000000000E+00  0.17589390332E+04  0.21188168945E+04  0.11813206634E+04 0.  0.
        1    1    3    3  502    0 -0.14580186364E+03 -0.50766533268E+03  0.13536634509E+04  0.14530612553E+04  0.50400001928E-02 0. -1.
       -1    1    3    3    0  502  0.14580186364E+03  0.50766533268E+03  0.40527558235E+03  0.66575563919E+03  0.50400001928E-02 0.  1.
</event>
<event>
 5   0  0.5108045E-03  0.1164968E+04  0.7818609E-02  0.9144085E-01
       -2   -1    0    0    0  501  0.00000000000E+00  0.00000000000E+00  0.64085635024E+03  0.64085635025E+03  0.25500000920E-02 0.  1.
        2   -1    0    0  501    0  0.00000000000E+00  0.00000000000E+00 -0.52942883856E+03  0.52942883856E+03  0.25500000920E-02 0. -1.
    10030    2    1    2    0    0  0.00000000000E+00  0.00000000000E+00  0.11142751169E+03  0.11702851888E+04  0.11649683827E+04 0.  0.
        3    1    3    3  502    0 -0.34111913531E+03  0.42275738128E+03 -0.15548790391E+03  0.56503324359E+03  0.10100000352E+00 0. -1.
       -3    1    3    3    0  502  0.34111913531E+03 -0.42275738128E+03  0.26691541560E+03  0.60525194522E+03  0.10100000352E+00 0.  1.
</event>
<event>
 5   0  0.5003526E-03  0.1192421E+04  0.7818609E-02  0.9119517E-01
        2   -1    0    0  501    0  0.00000000000E+00  0.00000000000E+00  0.72376767950E+03  0.72376767950E+03  0.25500000920E-02 0. -1.
       -2   -1    0    0    0  501  0.00000000000E+00  0.00000000000E+00 -0.49113367088E+03  0.49113367089E+03  0.25500000920E-02 0.  1.
    10030    2    1    2    0    0  0.00000000000E+00  0.00000000000E+00  0.23263400862E+03  0.12149013504E+04  0.11924205253E+04 0.  0.
        2    1    3    3  502    0 -0.24592965064E+03 -0.24130218931E+03  0.61206891446E+03  0.70237916803E+03  0.25500000920E-02 0. -1.
       -2    1    3    3    0  502  0.24592965064E+03  0.24130218931E+03 -0.37943490585E+03  0.51252218236E+03  0.25500000920E-02 0.  1.
</event>
<event>
 5   0  0.5467554E-03  0.1006393E+04  0.7818609E-02  0.9301561E-01
       -2   -1    0    0    0  501  0.00000000000E+00  0.00000000000E+00  0.11375259925E+04  0.11375259925E+04  0.25500000920E-02 0.  1.
        2   -1    0    0  501    0  0.00000000000E+00  0.00000000000E+00 -0.22259419897E+03  0.22259419899E+03  0.25500000920E-02 0. -1.
    10030    2    1    2    0    0  0.00000000000E+00  0.00000000000E+00  0.91493179357E+03  0.13601201915E+04  0.10063929394E+04 0.  0.
        1    1    3    3  502    0  0.18841968919E+03  0.23215760086E+03 -0.89520684524E+02  0.31211069173E+03  0.50400001928E-02 0. -1.
       -1    1    3    3    0  502 -0.18841968919E+03 -0.23215760086E+03  0.10044524781E+04  0.10480094998E+04  0.50400001928E-02 0.  1.
</event>
<event>
 5   0  0.5003526E-03  0.1219112E+04  0.7818609E-02  0.9096290E-01
        2   -1    0    0  501    0  0.00000000000E+00  0.00000000000E+00  0.78334477014E+03  0.78334477014E+03  0.25500000920E-02 0. -1.
       -2   -1    0    0    0  501  0.00000000000E+00  0.00000000000E+00 -0.47432302927E+03  0.47432302928E+03  0.25500000920E-02 0.  1.
    10030    2    1    2    0    0  0.00000000000E+00  0.00000000000E+00  0.30902174087E+03  0.12576677994E+04  0.12191119134E+04 0.  0.
        2    1    3    3  502    0  0.21613504695E+02 -0.20893708189E+02  0.78257959143E+03  0.78315675797E+03  0.25500000920E-02 0. -1.
       -2    1    3    3    0  502 -0.21613504695E+02  0.20893708189E+02 -0.47355785056E+03  0.47451104145E+03  0.25500000920E-02 0.  1.
</event>
<event>
 5   0  0.2875848E-03  0.1187777E+04  0.7818609E-02  0.9123623E-01
        1   -1    0    0  501    0  0.00000000000E+00  0.00000000000E+00  0.69577415879E+03  0.69577415881E+03  0.50400001928E-02 0.  1.
       -1   -1    0    0    0  501  0.00000000000E+00  0.00000000000E+00 -0.50692206138E+03  0.50692206141E+03  0.50400001928E-02 0. -1.
    10030    2    1    2    0    0  0.00000000000E+00  0.00000000000E+00  0.18885209741E+03  0.12026962202E+04  0.11877765292E+04 0.  0.
        1    1    3    3  502    0  0.32623434057E+03 -0.42984037336E+03  0.34555685941E+03  0.64078165910E+03  0.50400001928E-02 0.  1.
       -1    1    3    3    0  502 -0.32623434057E+03  0.42984037336E+03 -0.15670476200E+03  0.56191456112E+03  0.50400001928E-02 0. -1.
</event>
<event>
 5   0  0.2792518E-03  0.1177503E+04  0.7818609E-02  0.9132780E-01
        1   -1    0    0  501    0  0.00000000000E+00  0.00000000000E+00  0.54686432550E+03  0.54686432552E+03  0.50400001928E-02 0. -1.
       -1   -1    0    0    0  501  0.00000000000E+00  0.00000000000E+00 -0.63384650648E+03  0.63384650650E+03  0.50400001928E-02 0.  1.
    10030    2    1    2    0    0  0.00000000000E+00  0.00000000000E+00 -0.86982180982E+02  0.11807108320E+04  0.11775025134E+04 0.  0.
        2    1    3    3  502    0  0.14502693587E+03 -0.28808601746E+03 -0.53737923778E+03  0.62673982703E+03  0.25500000920E-02 0.  1.
       -2    1    3    3    0  502 -0.14502693587E+03  0.28808601746E+03  0.45039705680E+03  0.55397100499E+03  0.25500000920E-02 0. -1.
</event>
<event>
 5   0  0.2938349E-03  0.1169568E+04  0.7818609E-02  0.9139919E-01
       -1   -1    0    0    0  501  0.00000000000E+00  0.00000000000E+00  0.13549794886E+03  0.13549794895E+03  0.50400001928E-02 0.  1.
        1   -1    0    0  501    0  0.00000000000E+00  0.00000000000E+00 -0.25238171455E+04  0.25238171455E+04  0.50400001928E-02 0. -1.
    10030    2    1    2    0    0  0.00000000000E+00  0.00000000000E+00 -0.23883191966E+04  0.26593150944E+04  0.11695675211E+04 0.  0.
        4    1    3    3  502    0 -0.15262478329E+03  0.87436277224E+02  0.73919494366E+02  0.19080128824E+03  0.12699999809E+01 0.  1.
       -4    1    3    3    0  502  0.15262478329E+03 -0.87436277224E+02 -0.24622386910E+04  0.24685138062E+04  0.12699999809E+01 0. -1.
</event>
<event>
 5   0  0.2926844E-03  0.1191748E+04  0.7818609E-02  0.9120110E-01
       -1   -1    0    0    0  501  0.00000000000E+00  0.00000000000E+00  0.27000448643E+03  0.27000448648E+03  0.50400001928E-02 0.  1.
        1   -1    0    0  501    0  0.00000000000E+00  0.00000000000E+00 -0.13150371647E+04  0.13150371647E+04  0.50400001928E-02 0. -1.
    10030    2    1    2    0    0  0.00000000000E+00  0.00000000000E+00 -0.10450326783E+04  0.15850416512E+04  0.11917481854E+04 0.  0.
        5    1    3    3  502    0  0.16250095544E+03 -0.56010252053E+03 -0.68498748766E+03  0.89963956242E+03  0.46999998093E+01 0.  1.
       -5    1    3    3    0  502 -0.16250095544E+03  0.56010252053E+03 -0.36004519061E+03  0.68540208877E+03  0.46999998093E+01 0. -1.
</event>
<event>
 5   0  0.5108045E-03  0.1187037E+04  0.7818609E-02  0.9124279E-01
       -2   -1    0    0    0  501  0.00000000000E+00  0.00000000000E+00  0.23186782997E+04  0.23186782997E+04  0.25500000920E-02 0. -1.
        2   -1    0    0  501    0  0.00000000000E+00  0.00000000000E+00 -0.15192455131E+03  0.15192455133E+03  0.25500000920E-02 0.  1.
    10030    2    1    2    0    0  0.00000000000E+00  0.00000000000E+00  0.21667537483E+04  0.24706028510E+04  0.11870369166E+04 0.  0.
        3    1    3    3  502    0 -0.36564231365E+03  0.36158402976E+03  0.17001881954E+04  0.17762537043E+04  0.10100000352E+00 0. -1.
       -3    1    3    3    0  502  0.36564231365E+03 -0.36158402976E+03  0.46656555299E+03  0.69434914671E+03  0.10100000352E+00 0.  1.
</event>
<event>
 5   0  0.5108045E-03  0.1037878E+04  0.7818609E-02  0.9267949E-01
        2   -1    0    0  501    0  0.00000000000E+00  0.00000000000E+00  0.22440553343E+04  0.22440553343E+04  0.25500000920E-02 0. -1.
       -2   -1    0    0    0  501  0.00000000000E+00  0.00000000000E+00 -0.12000503546E+03  0.12000503548E+03  0.25500000920E-02 0.  1.
    10030    2    1    2    0    0  0.00000000000E+00  0.00000000000E+00  0.21240502989E+04  0.23640603698E+04  0.10378784900E+04 0.  0.
        3    1    3    3  502    0  0.19782360233E+03  0.47857903256E+03  0.98559678190E+03  0.11133611699E+04  0.10100000352E+00 0.  1.
       -3    1    3    3    0  502 -0.19782360233E+03 -0.47857903256E+03  0.11384535170E+04  0.12506991999E+04  0.10100000352E+00 0. -1.
</event>
<event>
 5   0  0.2930868E-03  0.1207098E+04  0.7818609E-02  0.9106667E-01
       -1   -1    0    0    0  501  0.00000000000E+00  0.00000000000E+00  0.48944531943E+03  0.48944531946E+03  0.50400001928E-02 0. -1.
        1   -1    0    0  501    0  0.00000000000E+00  0.00000000000E+00 -0.74425315322E+03  0.74425315323E+03  0.50400001928E-02 0.  1.
    10030    2    1    2    0    0  0.00000000000E+00  0.00000000000E+00 -0.25480783378E+03  0.12336984727E+04  0.12070977133E+04 0.  0.
        3    1    3    3  502    0  0.94290824490E+02  0.29701648575E+02 -0.73592223557E+03  0.74253248718E+03  0.10100000352E+00 0.  1.
       -3    1    3    3    0  502 -0.94290824490E+02 -0.29701648575E+02  0.48111440179E+03  0.49116598551E+03  0.10100000352E+00 0. -1.
</event>
<event>
 5   0  0.2938349E-03  0.1226642E+04  0.7818609E-02  0.9089851E-01
       -1   -1    0    0    0  501  0.00000000000E+00  0.00000000000E+00  0.25536869348E+03  0.25536869353E+03  0.50400001928E-02 0. -1.
        1   -1    0    0  501    0  0.00000000000E+00  0.00000000000E+00 -0.14730175417E+04  0.14730175417E+04  0.50400001928E-02 0.  1.
    10030    2    1    2    0    0  0.00000000000E+00  0.00000000000E+00 -0.12176488482E+04  0.17283862353E+04  0.12266418632E+04 0.  0.
        4    1    3    3  502    0  0.47270546607E+03 -0.38984532509E+03 -0.57072516882E+03  0.83735217583E+03  0.12699999809E+01 0. -1.
       -4    1    3    3    0  502 -0.47270546607E+03  0.38984532509E+03 -0.64692367942E+03  0.89103405942E+03  0.12699999809E+01 0.  1.
</event>
<event>
 5   0  0.2926844E-03  0.1234549E+04  0.7818609E-02  0.9083142E-01
       -1   -1    0    0    0  501  0.00000000000E+00  0.00000000000E+00  0.40195686331E+03  0.40195686334E+03  0.50400001928E-02 0. -1.
        1   -1    0    0  501    0  0.00000000000E+00  0.00000000000E+00 -0.94793182322E+03  0.94793182324E+03  0.50400001928E-02 0.  1.
    10030    2    1    2    0    0  0.00000000000E+00  0.00000000000E+00 -0.54597495991E+03  0.13498886866E+04  0.12345488282E+04 0.  0.
        5    1    3    3  502    0  0.46160553832E+03  0.40415755397E+02  0.17290076698E+03  0.49460071928E+03  0.46999998093E+01 0. -1.
       -5    1    3    3    0  502 -0.46160553832E+03 -0.40415755397E+02 -0.71887572689E+03  0.85528796730E+03  0.46999998093E+01 0.  1.
</event>
<event>
 5   0  0.5189537E-03  0.1224660E+04  0.7818609E-02  0.9091541E-01
        2   -1    0    0  501    0  0.00000000000E+00  0.00000000000E+00  0.90172365834E+03  0.90172365834E+03  0.25500000920E-02 0.  1.
       -2   -1    0    0    0  501  0.00000000000E+00  0.00000000000E+00 -0.41581288123E+03  0.41581288123E+03  0.25500000920E-02 0. -1.
    10030    2    1    2    0    0  0.00000000000E+00  0.00000000000E+00  0.48591077711E+03  0.13175365396E+04  0.12246604631E+04 0.  0.
        4    1    3    3  502    0 -0.49659593436E+03 -0.15399726600E+03 -0.10503133245E+03  0.53042989514E+03  0.12699999809E+01 0. -1.
       -4    1    3    3    0  502  0.49659593436E+03  0.15399726600E+03  0.59094210956E+03  0.78710664443E+03  0.12699999809E+01 0.  1.
</event>
<event>
 5   0  0.5189537E-03  0.1224533E+04  0.7818609E-02  0.9091650E-01
        2   -1    0    0  501    0  0.00000000000E+00  0.00000000000E+00  0.60731111697E+03  0.60731111698E+03  0.25500000920E-02 0. -1.
       -2   -1    0    0    0  501  0.00000000000E+00  0.00000000000E+00 -0.61726182895E+03  0.61726182896E+03  0.25500000920E-02 0.  1.
    10030    2    1    2    0    0  0.00000000000E+00  0.00000000000E+00 -0.99507119793E+01  0.12245729459E+04  0.12245325162E+04 0.  0.
        4    1    3    3  502    0 -0.71818214983E+02 -0.53796943533E+03  0.27840546738E+03  0.60998375922E+03  0.12699999809E+01 0. -1.
       -4    1    3    3    0  502  0.71818214983E+02  0.53796943533E+03 -0.28835617936E+03  0.61458918671E+03  0.12699999809E+01 0.  1.
</event>
<event>
 5   0  0.5108045E-03  0.1185883E+04  0.7818609E-02  0.9125304E-01
        2   -1    0    0  501    0  0.00000000000E+00  0.00000000000E+00  0.24719917153E+03  0.24719917154E+03  0.25500000920E-02 0.  1.
       -2   -1    0    0    0  501  0.00000000000E+00  0.00000000000E+00 -0.14222521384E+04  0.14222521384E+04  0.25500000920E-02 0. -1.
    10030    2    1    2    0    0  0.00000000000E+00  0.00000000000E+00 -0.11750529669E+04  0.16694513100E+04  0.11858828784E+04 0.  0.
        3    1    3    3  502    0 -0.25311138783E+03  0.35054203594E+03 -0.16321073019E+02  0.43267942086E+03  0.10100000352E+00 0.  1.
       -3    1    3    3    0  502  0.25311138783E+03 -0.35054203594E+03 -0.11587318939E+04  0.12367718891E+04  0.10100000352E+00 0. -1.
</event>
<event>
 5   0  0.2875848E-03  0.1219339E+04  0.7818609E-02  0.9096096E-01
       -1   -1    0    0    0  501  0.00000000000E+00  0.00000000000E+00  0.18610786380E+03  0.18610786387E+03  0.50400001928E-02 0. -1.
        1   -1    0    0  501    0  0.00000000000E+00  0.00000000000E+00 -0.19972114900E+04  0.19972114900E+04  0.50400001928E-02 0.  1.
    10030    2    1    2    0    0  0.00000000000E+00  0.00000000000E+00 -0.18111036262E+04  0.21833193539E+04  0.12193387783E+04 0.  0.
        1    1    3    3  502    0 -0.15164217018E+02 -0.14617368252E+03  0.15391894518E+03  0.21280916486E+03  0.50400001928E-02 0. -1.
       -1    1    3    3    0  502  0.15164217018E+02  0.14617368252E+03 -0.19650225714E+04  0.19705101890E+04  0.50400001928E-02 0.  1.
</event>
<event>
 5   0  0.5189537E-03  0.1180643E+04  0.7818609E-02  0.9129970E-01
       -2   -1    0    0    0  501  0.00000000000E+00  0.00000000000E+00  0.24631726617E+03  0.24631726618E+03  0.25500000920E-02 0. -1.
        2   -1    0    0  501    0  0.00000000000E+00  0.00000000000E+00 -0.14147585631E+04  0.14147585631E+04  0.25500000920E-02 0.  1.
    10030    2    1    2    0    0  0.00000000000E+00  0.00000000000E+00 -0.11684412969E+04  0.16610758293E+04  0.11806429800E+04 0.  0.
        4    1    3    3  502    0 -0.17809463557E+03  0.58231886669E+02  0.20336722708E+03  0.27652937239E+03  0.12699999809E+01 0. -1.
       -4    1    3    3    0  502  0.17809463557E+03 -0.58231886669E+02 -0.13718085240E+04  0.13845464569E+04  0.12699999809E+01 0.  1.
</event>
<event>
 5   0  0.2938349E-03  0.1144385E+04  0.7818609E-02  0.9162979E-01
       -1   -1    0    0    0  501  0.00000000000E+00  0.00000000000E+00  0.84310474635E+03  0.84310474637E+03  0.50400001928E-02 0. -1.
        1   -1    0    0  501    0  0.00000000000E+00  0.00000000000E+00 -0.38833157501E+03  0.38833157504E+03  0.50400001928E-02 0.  1.
    10030    2    1    2    0    0  0.00000000000E+00  0.00000000000E+00  0.45477317134E+03  0.12314363214E+04  0.11443848899E+04 0.  0.
        4    1    3    3  502    0 -0.47129936434E+03  0.24967548669E+03  0.43997800688E+01  0.53336845655E+03  0.12699999809E+01 0.  1.
       -4    1    3    3    0  502  0.47129936434E+03 -0.24967548669E+03  0.45037339127E+03  0.69806786486E+03  0.12699999809E+01 0. -1.
</event>
<event>
 5   0  0.5467554E-03  0.1279984E+04  0.7818609E-02  0.9045590E-01
        2   -1    0    0  501    0  0.00000000000E+00  0.00000000000E+00  0.36955382947E+03  0.36955382948E+03  0.25500000920E-02 0.  1.
       -2   -1    0    0    0  501  0.00000000000E+00  0.00000000000E+00 -0.11083364308E+04  0.11083364308E+04  0.25500000920E-02 0. -1.
    10030    2    1    2    0    0  0.00000000000E+00  0.00000000000E+00 -0.73878260130E+03  0.14778902603E+04  0.12799843317E+04 0.  0.
        1    1    3    3  502    0  0.17643067570E+02 -0.63834036606E+03 -0.41838119943E+03  0.76343469193E+03  0.50400001928E-02 0. -1.
       -1    1    3    3    0  502 -0.17643067570E+02  0.63834036606E+03 -0.32040140188E+03  0.71445556834E+03  0.50400001928E-02 0.  1.
</event>
<event>
 5   0  0.5031575E-03  0.1245806E+04  0.7818609E-02  0.9073681E-01
        2   -1    0    0  501    0  0.00000000000E+00  0.00000000000E+00  0.17976348883E+04  0.17976348883E+04  0.25500000920E-02 0. -1.
       -2   -1    0    0    0  501  0.00000000000E+00  0.00000000000E+00 -0.21584378151E+03  0.21584378153E+03  0.25500000920E-02 0.  1.
    10030    2    1    2    0    0  0.00000000000E+00  0.00000000000E+00  0.15817911068E+04  0.20134786698E+04  0.12458062644E+04 0.  0.
        5    1    3    3  502    0 -0.27621060806E+03 -0.22900714976E+03 -0.32020643028E+02  0.36025544580E+03  0.46999998093E+01 0.  1.
       -5    1    3    3    0  502  0.27621060806E+03  0.22900714976E+03  0.16138117498E+04  0.16532232240E+04  0.46999998093E+01 0. -1.
</event>
<event>
 5   0  0.2875848E-03  0.1213114E+04  0.7818609E-02  0.9101454E-01
        1   -1    0    0  501    0  0.00000000000E+00  0.00000000000E+00  0.56859682478E+03  0.56859682480E+03  0.50400001928E-02 0.  1.
       -1   -1    0    0    0  501  0.00000000000E+00  0.00000000000E+00 -0.64705185663E+03  0.64705185665E+03  0.50400001928E-02 0. -1.
    10030    2    1    2    0    0  0.00000000000E+00  0.00000000000E+00 -0.78455031858E+02  0.12156486815E+04  0.12131143906E+04 0.  0.
        1    1    3    3  502    0  0.12411339335E+03 -0.59303039484E+03 -0.67965773377E+02  0.60967903850E+03  0.50400001928E-02 0.  1.
       -1    1    3    3    0  502 -0.12411339335E+03  0.59303039484E+03 -0.10489258482E+02  0.60596964295E+03  0.50400001928E-02 0. -1.
</event>
<event>
 5   0  0.2875848E-03  0.1218265E+04  0.7818609E-02  0.9097018E-01
        1   -1    0    0  501    0  0.00000000000E+00  0.00000000000E+00  0.42927079779E+03  0.42927079782E+03  0.50400001928E-02 0. -1.
       -1   -1    0    0    0  501  0.00000000000E+00  0.00000000000E+00 -0.86435442032E+03  0.86435442034E+03  0.50400001928E-02 0.  1.
    10030    2    1    2    0    0  0.00000000000E+00  0.00000000000E+00 -0.43508362254E+03  0.12936252182E+04  0.12182645224E+04 0.  0.
        1    1    3    3  502    0 -0.14875540449E+03 -0.29117944458E+03 -0.76326761077E+03  0.83035599894E+03  0.50400001928E-02 0.  1.
       -1    1    3    3    0  502  0.14875540449E+03  0.29117944458E+03  0.32818398823E+03  0.46326921921E+03  0.50400001928E-02 0. -1.
</event>
<event>
 5   0  0.2938349E-03  0.1253802E+04  0.7818609E-02  0.9067025E-01
        1   -1    0    0  501    0  0.00000000000E+00  0.00000000000E+00  0.67787893754E+03  0.67787893756E+03  0.50400001928E-02 0. -1.
       -1   -1    0    0    0  501  0.00000000000E+00  0.00000000000E+00 -0.57975698023E+03  0.57975698025E+03  0.50400001928E-02 0.  1.
    10030    2    1    2    0    0  0.00000000000E+00  0.00000000000E+00  0.98121957314E+02  0.12576359178E+04  0.12538022903E+04 0.  0.
        4    1    3    3  502    0  0.33778269030E+03 -0.26400235415E+03  0.50785325803E+03  0.66461337140E+03  0.12699999809E+01 0. -1.
       -4    1    3    3    0  502 -0.33778269030E+03  0.26400235415E+03 -0.40973130071E+03  0.59302254640E+03  0.12699999809E+01 0.  1.
</event>
<event>
 5   0  0.5189537E-03  0.1214867E+04  0.7818609E-02  0.9099942E-01
        2   -1    0    0  501    0  0.00000000000E+00  0.00000000000E+00  0.18719906438E+04  0.18719906438E+04  0.25500000920E-02 0. -1.
       -2   -1    0    0    0  501  0.00000000000E+00  0.00000000000E+00 -0.19710337354E+03  0.19710337356E+03  0.25500000920E-02 0.  1.
    10030    2    1    2    0    0  0.00000000000E+00  0.00000000000E+00  0.16748872703E+04  0.20690940174E+04  0.12148673527E+04 0.  0.
        4    1    3    3  502    0 -0.23075178742E+03  0.39038382631E+03  0.14913713569E+03  0.47737764650E+03  0.12699999809E+01 0.  1.
       -4    1    3    3    0  502  0.23075178742E+03 -0.39038382631E+03  0.15257501346E+04  0.15917163709E+04  0.12699999809E+01 0. -1.
</event>
<event>
 5   0  0.2875848E-03  0.1102468E+04  0.7818609E-02  0.9202789E-01
        1   -1    0    0  501    0  0.00000000000E+00  0.00000000000E+00  0.59251926269E+03  0.59251926271E+03  0.50400001928E-02 0.  1.
       -1   -1    0    0    0  501  0.00000000000E+00  0.00000000000E+00 -0.51282581484E+03  0.51282581487E+03  0.50400001928E-02 0. -1.
    10030    2    1    2    0    0  0.00000000000E+00  0.00000000000E+00  0.79693447844E+02  0.11053450776E+04  0.11024684553E+04 0.  0.
        1    1    3    3  502    0 -0.26280728479E+03 -0.56036235566E+02  0.52240438678E+03  0.58746410272E+03  0.50400001928E-02 0.  1.
       -1    1    3    3    0  502  0.26280728479E+03  0.56036235566E+02 -0.44271093893E+03  0.51788097485E+03  0.50400001928E-02 0. -1.
</event>
<event>
 5   0  0.5467554E-03  0.1288089E+04  0.7818609E-02  0.9039064E-01
        2   -1    0    0  501    0  0.00000000000E+00  0.00000000000E+00  0.28728441576E+04  0.28728441576E+04  0.25500000920E-02 0.  1.
       -2   -1    0    0    0  501  0.00000000000E+00  0.00000000000E+00 -0.14438422699E+03  0.14438422702E+03  0.25500000920E-02 0. -1.
    10030    2    1    2    0    0  0.00000000000E+00  0.00000000000E+00  0.27284599306E+04  0.30172283847E+04  0.12880891010E+04 0.  0.
        1    1    3    3  502    0 -0.11720325945E+03 -0.29640990342E+03  0.26751365148E+04  0.26940584269E+04  0.50400001928E-02 0.  1.
       -1    1    3    3    0  502  0.11720325945E+03  0.29640990342E+03  0.53323415836E+02  0.32316995772E+03  0.50400001928E-02 0. -1.
</event>
<event>
 5   0  0.1922125E-03  0.1184815E+04  0.7818609E-02  0.9126253E-01
       -3   -1    0    0    0  501  0.00000000000E+00  0.00000000000E+00  0.42094760062E+03  0.42094761274E+03  0.10100000352E+00 0.  1.
        3   -1    0    0  501    0  0.00000000000E+00  0.00000000000E+00 -0.83370585372E+03  0.83370585984E+03  0.10100000352E+00 0. -1.
    10030    2    1    2    0    0  0.00000000000E+00  0.00000000000E+00 -0.41275825309E+03  0.12546534726E+04  0.11848147369E+04 0.  0.
        3    1    3    3  502    0 -0.37003720504E+03  0.41190593850E+03 -0.42939312646E+03  0.70069430035E+03  0.10100000352E+00 0. -1.
       -3    1    3    3    0  502  0.37003720504E+03 -0.41190593850E+03  0.16634873369E+02  0.55395917223E+03  0.10100000352E+00 0.  1.
</event>
<event>
 5   0  0.1922125E-03  0.1174361E+04  0.7818609E-02  0.9135599E-01
       -3   -1    0    0    0  501  0.00000000000E+00  0.00000000000E+00  0.66440310901E+03  0.66440311669E+03  0.10100000352E+00 0. -1.
        3   -1    0    0  501    0  0.00000000000E+00  0.00000000000E+00 -0.51893351987E+03  0.51893352970E+03  0.10100000352E+00 0.  1.
    10030    2    1    2    0    0  0.00000000000E+00  0.00000000000E+00  0.14546958914E+03  0.11833366464E+04  0.11743611954E+04 0.  0.
        2    1    3    3  502    0 -0.47777838875E+03 -0.23952053038E+03 -0.17230849072E+03  0.56154473483E+03  0.25500000920E-02 0.  1.
       -2    1    3    3    0  502  0.47777838875E+03  0.23952053038E+03  0.31777807986E+03  0.62179191156E+03  0.25500000920E-02 0. -1.
</event>
<event>
 5   0  0.5108045E-03  0.1200223E+04  0.7818609E-02  0.9112662E-01
        2   -1    0    0  501    0  0.00000000000E+00  0.00000000000E+00  0.43916357618E+03  0.43916357619E+03  0.25500000920E-02 0.  1.
       -2   -1    0    0    0  501  0.00000000000E+00  0.00000000000E+00 -0.82004420107E+03  0.82004420107E+03  0.25500000920E-02 0. -1.
    10030    2    1    2    0    0  0.00000000000E+00  0.00000000000E+00 -0.38088062488E+03  0.12592077773E+04  0.12002225527E+04 0.  0.
        3    1    3    3  502    0 -0.23829654332E+02 -0.75493385006E+02 -0.81454191353E+03  0.81837988899E+03  0.10100000352E+00 0. -1.
       -3    1    3    3    0  502  0.23829654332E+02  0.75493385006E+02  0.43366128864E+03  0.44082788827E+03  0.10100000352E+00 0.  1.
</event>
<event>
 5   0  0.2875848E-03  0.1077150E+04  0.7818609E-02  0.9227754E-01
       -1   -1    0    0    0  501  0.00000000000E+00  0.00000000000E+00  0.13335220014E+04  0.13335220014E+04  0.50400001928E-02 0. -1.
        1   -1    0    0  501    0  0.00000000000E+00  0.00000000000E+00 -0.21751630884E+03  0.21751630890E+03  0.50400001928E-02 0.  1.
    10030    2    1    2    0    0  0.00000000000E+00  0.00000000000E+00  0.11160056925E+04  0.15510383103E+04  0.10771495413E+04 0.  0.
        1    1    3    3  502    0  0.16345030347E+03  0.41518094197E+02  0.12945227868E+04  0.13054612209E+04  0.50400001928E-02 0. -1.
       -1    1    3    3    0  502 -0.16345030347E+03 -0.41518094197E+02 -0.17851709425E+03  0.24557708935E+03  0.50400001928E-02 0.  1.
</event>
<event>
 5   0  0.1922125E-03  0.1191120E+04  0.7818609E-02  0.9120665E-01
       -3   -1    0    0    0  501  0.00000000000E+00  0.00000000000E+00  0.54879309421E+03  0.54879310350E+03  0.10100000352E+00 0.  1.
        3   -1    0    0  501    0  0.00000000000E+00  0.00000000000E+00 -0.64631270104E+03  0.64631270894E+03  0.10100000352E+00 0. -1.
    10030    2    1    2    0    0  0.00000000000E+00  0.00000000000E+00 -0.97519606834E+02  0.11951058124E+04  0.11911204092E+04 0.  0.
        2    1    3    3  502    0  0.30016055277E+03 -0.51318989580E+03 -0.83973253448E+02  0.60042629347E+03  0.25500000920E-02 0.  1.
       -2    1    3    3    0  502 -0.30016055277E+03  0.51318989580E+03 -0.13546353386E+02  0.59467951897E+03  0.25500000920E-02 0. -1.
</event>
<event>
 5   0  0.5031575E-03  0.1238998E+04  0.7818609E-02  0.9079390E-01
       -2   -1    0    0    0  501  0.00000000000E+00  0.00000000000E+00  0.10681608268E+04  0.10681608268E+04  0.25500000920E-02 0. -1.
        2   -1    0    0  501    0  0.00000000000E+00  0.00000000000E+00 -0.35928969247E+03  0.35928969248E+03  0.25500000920E-02 0.  1.
    10030    2    1    2    0    0  0.00000000000E+00  0.00000000000E+00  0.70887113431E+03  0.14274505193E+04  0.12389982647E+04 0.  0.
        5    1    3    3  502    0 -0.31664515282E+03 -0.22505973705E+03 -0.20149446574E+03  0.43765071435E+03  0.46999998093E+01 0.  1.
       -5    1    3    3    0  502  0.31664515282E+03  0.22505973705E+03  0.91036560005E+03  0.98979980491E+03  0.46999998093E+01 0. -1.
</event>
<event>
 5   0  0.2875848E-03  0.1221518E+04  0.7818609E-02  0.9094228E-01
       -1   -1    0    0    0  501  0.00000000000E+00  0.00000000000E+00  0.22820623318E+03  0.22820623323E+03  0.50400001928E-02 0.  1.
        1   -1    0    0  501    0  0.00000000000E+00  0.00000000000E+00 -0.16346023115E+04  0.16346023115E+04  0.50400001928E-02 0. -1.
    10030    2    1    2    0    0  0.00000000000E+00  0.00000000000E+00 -0.14063960783E+04  0.18628085448E+04  0.12215178039E+04 0.  0.
        1    1    3    3  502    0 -0.52018138341E+03 -0.31099716263E+03 -0.58787645433E+03  0.84433798469E+03  0.50400001928E-02 0.  1.
       -1    1    3    3    0  502  0.52018138341E+03  0.31099716263E+03 -0.81851962401E+03  0.10184705601E+04  0.50400001928E-02 0. -1.
</event>
<event>
 5   0  0.2926844E-03  0.1174163E+04  0.7818609E-02  0.9135777E-01
        1   -1    0    0  501    0  0.00000000000E+00  0.00000000000E+00  0.10103655021E+04  0.10103655021E+04  0.50400001928E-02 0.  1.
       -1   -1    0    0    0  501  0.00000000000E+00  0.00000000000E+00 -0.34112872934E+03  0.34112872938E+03  0.50400001928E-02 0. -1.
    10030    2    1    2    0    0  0.00000000000E+00  0.00000000000E+00  0.66923677274E+03  0.13514942315E+04  0.11741630209E+04 0.  0.
        5    1    3    3  502    0  0.98359925674E+01  0.57229363025E+03  0.48480816501E+03  0.75011851920E+03  0.46999998093E+01 0. -1.
       -5    1    3    3    0  502 -0.98359925674E+01 -0.57229363025E+03  0.18442860773E+03  0.60137571228E+03  0.46999998093E+01 0.  1.
</event>
<event>
 5   0  0.2930868E-03  0.1177209E+04  0.7818609E-02  0.9133042E-01
        1   -1    0    0  501    0  0.00000000000E+00  0.00000000000E+00  0.76443711634E+03  0.76443711635E+03  0.50400001928E-02 0.  1.
       -1   -1    0    0    0  501  0.00000000000E+00  0.00000000000E+00 -0.45321637763E+03  0.45321637766E+03  0.50400001928E-02 0. -1.
    10030    2    1    2    0    0  0.00000000000E+00  0.00000000000E+00  0.31122073871E+03  0.12176534940E+04  0.11772092776E+04 0.  0.
        3    1    3    3  502    0 -0.31178678476E+03  0.36805531864E+03  0.50451153763E+03  0.69800259207E+03  0.10100000352E+00 0.  1.
       -3    1    3    3    0  502  0.31178678476E+03 -0.36805531864E+03 -0.19329079893E+03  0.51965090194E+03  0.10100000352E+00 0. -1.
</event>
<event>
 5   0  0.5189537E-03  0.1299658E+04  0.7818609E-02  0.9029836E-01
        2   -1    0    0  501    0  0.00000000000E+00  0.00000000000E+00  0.16300290604E+04  0.16300290605E+04  0.25500000920E-02 0.  1.
       -2   -1    0    0    0  501  0.00000000000E+00  0.00000000000E+00 -0.25906146333E+03  0.25906146334E+03  0.25500000920E-02 0. -1.
    10030    2    1    2    0    0  0.00000000000E+00  0.00000000000E+00  0.13709675971E+04  0.18890905238E+04  0.12996579761E+04 0.  0.
        4    1    3    3  502    0  0.23218319602E+03 -0.16636094652E+03 -0.16292289673E+03  0.32883200000E+03  0.12699999809E+01 0. -1.
       -4    1    3    3    0  502 -0.23218319602E+03  0.16636094652E+03  0.15338904939E+04  0.15602585238E+04  0.12699999809E+01 0.  1.
</event>
<event>
 5   0  0.2792518E-03  0.1196817E+04  0.7818609E-02  0.9115647E-01
       -1   -1    0    0    0  501  0.00000000000E+00  0.00000000000E+00  0.57561233200E+03  0.57561233202E+03  0.50400001928E-02 0. -1.
        1   -1    0    0  501    0  0.00000000000E+00  0.00000000000E+00 -0.62210709466E+03  0.62210709468E+03  0.50400001928E-02 0.  1.
    10030    2    1    2    0    0  0.00000000000E+00  0.00000000000E+00 -0.46494762660E+02  0.11977194267E+04  0.11968166368E+04 0.  0.
        2    1    3    3  502    0  0.25598388006E+03 -0.15019237617E+03  0.49676657914E+03  0.57867307771E+03  0.25500000920E-02 0. -1.
       -2    1    3    3    0  502 -0.25598388006E+03  0.15019237617E+03 -0.54326134180E+03  0.61904634900E+03  0.25500000920E-02 0.  1.
</event>
<event>
 5   0  0.1922125E-03  0.8251101E+03  0.7818609E-02  0.9524366E-01
       -3   -1    0    0    0  501  0.00000000000E+00  0.00000000000E+00  0.31471869229E+03  0.31471870850E+03  0.10100000352E+00 0. -1.
        3   -1    0    0  501    0  0.00000000000E+00  0.00000000000E+00 -0.54080574048E+03  0.54080574991E+03  0.10100000352E+00 0.  1.
    10030    2    1    2    0    0  0.00000000000E+00  0.00000000000E+00 -0.22608704819E+03  0.85552445841E+03  0.82511014148E+03 0.  0.
        1    1    3    3  502    0 -0.37397167511E+02  0.27169342961E+03  0.20651461962E+03  0.34331349518E+03  0.50400001928E-02 0. -1.
       -1    1    3    3    0  502  0.37397167511E+02 -0.27169342961E+03 -0.43260166782E+03  0.51221096323E+03  0.50400001928E-02 0.  1.
</event>
<event>
 5   0  0.5467554E-03  0.1286104E+04  0.7818609E-02  0.9040658E-01
        2   -1    0    0  501    0  0.00000000000E+00  0.00000000000E+00  0.84969369627E+03  0.84969369628E+03  0.25500000920E-02 0.  1.
       -2   -1    0    0    0  501  0.00000000000E+00  0.00000000000E+00 -0.48666430027E+03  0.48666430028E+03  0.25500000920E-02 0. -1.
    10030    2    1    2    0    0  0.00000000000E+00  0.00000000000E+00  0.36302939600E+03  0.13363579966E+04  0.12861035544E+04 0.  0.
        1    1    3    3  502    0  0.28696452101E+03 -0.51192049583E+03  0.45466368598E+03  0.74238150418E+03  0.50400001928E-02 0.  1.
       -1    1    3    3    0  502 -0.28696452101E+03  0.51192049583E+03 -0.91634289983E+02  0.59397649238E+03  0.50400001928E-02 0. -1.
</event>
<event>
 5   0  0.5467554E-03  0.1211999E+04  0.7818609E-02  0.9102418E-01
        2   -1    0    0  501    0  0.00000000000E+00  0.00000000000E+00  0.18158196498E+04  0.18158196498E+04  0.25500000920E-02 0. -1.
       -2   -1    0    0    0  501  0.00000000000E+00  0.00000000000E+00 -0.20224233012E+03  0.20224233014E+03  0.25500000920E-02 0.  1.
    10030    2    1    2    0    0  0.00000000000E+00  0.00000000000E+00  0.16135773197E+04  0.20180619800E+04  0.12119993351E+04 0.  0.
        1    1    3    3  502    0  0.54189547138E+02  0.63024018122E+02 -0.19270618816E+03  0.20986712192E+03  0.50400001928E-02 0.  1.
       -1    1    3    3    0  502 -0.54189547138E+02 -0.63024018122E+02  0.18062835079E+04  0.18081948580E+04  0.50400001928E-02 0. -1.
</event>
<event>
 5   0  0.5189537E-03  0.1195047E+04  0.7818609E-02  0.9117203E-01
       -2   -1    0    0    0  501  0.00000000000E+00  0.00000000000E+00  0.29968076172E+03  0.29968076173E+03  0.25500000920E-02 0.  1.
        2   -1    0    0  501    0  0.00000000000E+00  0.00000000000E+00 -0.11913813102E+04  0.11913813102E+04  0.25500000920E-02 0. -1.
    10030    2    1    2    0    0  0.00000000000E+00  0.00000000000E+00 -0.89170054843E+03  0.14910620719E+04  0.11950465406E+04 0.  0.
        4    1    3    3  502    0  0.19066539126E+03  0.28820623300E+03 -0.10540539469E+04  0.11092553629E+04  0.12699999809E+01 0. -1.
       -4    1    3    3    0  502 -0.19066539126E+03 -0.28820623300E+03  0.16235339846E+03  0.38180670902E+03  0.12699999809E+01 0.  1.
</event>
<event>
 5   0  0.5003526E-03  0.1204087E+04  0.7818609E-02  0.9109287E-01
        2   -1    0    0  501    0  0.00000000000E+00  0.00000000000E+00  0.17410423480E+04  0.17410423480E+04  0.25500000920E-02 0.  1.
       -2   -1    0    0    0  501  0.00000000000E+00  0.00000000000E+00 -0.20818350712E+03  0.20818350714E+03  0.25500000920E-02 0. -1.
    10030    2    1    2    0    0  0.00000000000E+00  0.00000000000E+00  0.15328588409E+04  0.19492258551E+04  0.12040868774E+04 0.  0.
        2    1    3    3  502    0  0.24421420028E+03  0.52894752541E+03  0.52075859275E+03  0.78141894793E+03  0.25500000920E-02 0.  1.
       -2    1    3    3    0  502 -0.24421420028E+03 -0.52894752541E+03  0.10121002481E+04  0.11678069072E+04  0.25500000920E-02 0. -1.
</event>
<event>
 5   0  0.5108045E-03  0.1358025E+04  0.7818609E-02  0.8984776E-01
       -2   -1    0    0    0  501  0.00000000000E+00  0.00000000000E+00  0.24730974558E+03  0.24730974560E+03  0.25500000920E-02 0.  1.
        2   -1    0    0  501    0  0.00000000000E+00  0.00000000000E+00 -0.18642928011E+04  0.18642928011E+04  0.25500000920E-02 0. -1.
    10030    2    1    2    0    0  0.00000000000E+00  0.00000000000E+00 -0.16169830555E+04  0.21116025467E+04  0.13580247102E+04 0.  0.
        3    1    3    3  502    0 -0.30910190103E+03 -0.46365825793E+02  0.12880163622E+03  0.33805864391E+03  0.10100000352E+00 0.  1.
       -3    1    3    3    0  502  0.30910190103E+03  0.46365825793E+02 -0.17457846917E+04  0.17735439028E+04  0.10100000352E+00 0. -1.
</event>
<event>
 5   0  0.2930868E-03  0.1201681E+04  0.7818609E-02  0.9111386E-01
        1   -1    0    0  501    0  0.00000000000E+00  0.00000000000E+00  0.18636175613E+04  0.18636175613E+04  0.50400001928E-02 0. -1.
       -1   -1    0    0    0  501  0.00000000000E+00  0.00000000000E+00 -0.19371438769E+03  0.19371438775E+03  0.50400001928E-02 0.  1.
    10030    2    1    2    0    0  0.00000000000E+00  0.00000000000E+00  0.16699031736E+04  0.20573319490E+04  0.12016813801E+04 0.  0.
        3    1    3    3  502    0  0.18263674965E+03 -0.56660701135E+03  0.69576082450E+03  0.91568707687E+03  0.10100000352E+00 0.  1.
       -3    1    3    3    0  502 -0.18263674965E+03  0.56660701135E+03  0.97414234907E+03  0.11416448721E+04  0.10100000352E+00 0. -1.
</event>
<event>
 5   0  0.2938349E-03  0.1217529E+04  0.7818609E-02  0.9097651E-01
        1   -1    0    0  501    0  0.00000000000E+00  0.00000000000E+00  0.19236701446E+04  0.19236701446E+04  0.50400001928E-02 0. -1.
       -1   -1    0    0    0  501  0.00000000000E+00  0.00000000000E+00 -0.19264945590E+03  0.19264945597E+03  0.50400001928E-02 0.  1.
    10030    2    1    2    0    0  0.00000000000E+00  0.00000000000E+00  0.17310206887E+04  0.21163196005E+04  0.12175286555E+04 0.  0.
        4    1    3    3  502    0 -0.45108750739E+03 -0.28584516639E+03  0.13734869357E+04  0.14736537497E+04  0.12699999809E+01 0. -1.
       -4    1    3    3    0  502  0.45108750739E+03  0.28584516639E+03  0.35753375297E+03  0.64266585087E+03  0.12699999809E+01 0.  1.
</event>
<event>
 5   0  0.5108045E-03  0.1233924E+04  0.7818609E-02  0.9083670E-01
       -2   -1    0    0    0  501  0.00000000000E+00  0.00000000000E+00  0.18785737079E+03  0.18785737080E+03  0.25500000920E-02 0.  1.
        2   -1    0    0  501    0  0.00000000000E+00  0.00000000000E+00 -0.20262308253E+04  0.20262308253E+04  0.25500000920E-02 0. -1.
    10030    2    1    2    0    0  0.00000000000E+00  0.00000000000E+00 -0.18383734545E+04  0.22140881961E+04  0.12339244636E+04 0.  0.
        3    1    3    3  502    0 -0.14054772290E+03 -0.56044486711E+03 -0.53105054012E+03  0.78477181260E+03  0.10100000352E+00 0. -1.
       -3    1    3    3    0  502  0.14054772290E+03  0.56044486711E+03 -0.13073229144E+04  0.14293163835E+04  0.10100000352E+00 0.  1.
</event>
<event>
 5   0  0.5003526E-03  0.1201097E+04  0.7818609E-02  0.9111897E-01
        2   -1    0    0  501    0  0.00000000000E+00  0.00000000000E+00  0.14616285734E+04  0.14616285734E+04  0.25500000920E-02 0. -1.
       -2   -1    0    0    0  501  0.00000000000E+00  0.00000000000E+00 -0.24675117180E+03  0.24675117181E+03  0.25500000920E-02 0.  1.
    10030    2    1    2    0    0  0.00000000000E+00  0.00000000000E+00  0.12148774016E+04  0.17083797452E+04  0.12010971039E+04 0.  0.
        2    1    3    3  502    0  0.68465802048E+02  0.59308330034E+03  0.51500572941E+03  0.78845815902E+03  0.25500000920E-02 0.  1.
       -2    1    3    3    0  502 -0.68465802048E+02 -0.59308330034E+03  0.69987167215E+03  0.91992158616E+03  0.25500000920E-02 0. -1.
</event>
<event>
 5   0  0.2875848E-03  0.1221360E+04  0.7818609E-02  0.9094363E-01
       -1   -1    0    0    0  501  0.00000000000E+00  0.00000000000E+00  0.40683895498E+03  0.40683895501E+03  0.50400001928E-02 0.  1.
        1   -1    0    0  501    0  0.00000000000E+00  0.00000000000E+00 -0.91665289710E+03  0.91665289711E+03  0.50400001928E-02 0. -1.
    10030    2    1    2    0    0  0.00000000000E+00  0.00000000000E+00 -0.50981394212E+03  0.13234918521E+04  0.12213600727E+04 0.  0.
        1    1    3    3  502    0  0.36064407420E+03  0.11082143642E+03  0.26543957069E+03  0.46130651929E+03  0.50400001928E-02 0.  1.
       -1    1    3    3    0  502 -0.36064407420E+03 -0.11082143642E+03 -0.77525351281E+03  0.86218533284E+03  0.50400001928E-02 0. -1.
</event>
<event>
 5   0  0.5467554E-03  0.1175892E+04  0.7818609E-02  0.9134224E-01
        2   -1    0    0  501    0  0.00000000000E+00  0.00000000000E+00  0.12005015935E+04  0.12005015935E+04  0.25500000920E-02 0. -1.
       -2   -1    0    0    0  501  0.00000000000E+00  0.00000000000E+00 -0.28794656954E+03  0.28794656956E+03  0.25500000920E-02 0.  1.
    10030    2    1    2    0    0  0.00000000000E+00  0.00000000000E+00  0.91255502397E+03  0.14884481631E+04  0.11758916882E+04 0.  0.
        1    1    3    3  502    0  0.28839177465E+03 -0.22854450990E+03 -0.12417035094E+03  0.38835638886E+03  0.50400001928E-02 0.  1.
       -1    1    3    3    0  502 -0.28839177465E+03  0.22854450990E+03  0.10367253749E+04  0.11000917742E+04  0.50400001928E-02 0. -1.
</event>
<event>
 5   0  0.2792518E-03  0.1243832E+04  0.7818609E-02  0.9075333E-01
       -1   -1    0    0    0  501  0.00000000000E+00  0.00000000000E+00  0.18438562426E+03  0.18438562433E+03  0.50400001928E-02 0.  1.
        1   -1    0    0  501    0  0.00000000000E+00  0.00000000000E+00 -0.20976647706E+04  0.20976647706E+04  0.50400001928E-02 0. -1.
    10030    2    1    2    0    0  0.00000000000E+00  0.00000000000E+00 -0.19132791463E+04  0.22820503949E+04  0.12438315454E+04 0.  0.
        2    1    3    3  502    0 -0.25273139509E+03 -0.56784854130E+03 -0.91754274666E+03  0.11082462794E+04  0.25500000920E-02 0. -1.
       -2    1    3    3    0  502  0.25273139509E+03  0.56784854130E+03 -0.99573639967E+03  0.11738041155E+04  0.25500000920E-02 0.  1.
</event>
<event>
 5   0  0.5031575E-03  0.1224228E+04  0.7818609E-02  0.9091910E-01
       -2   -1    0    0    0  501  0.00000000000E+00  0.00000000000E+00  0.27782336864E+03  0.27782336865E+03  0.25500000920E-02 0. -1.
        2   -1    0    0  501    0  0.00000000000E+00  0.00000000000E+00 -0.13486395343E+04  0.13486395343E+04  0.25500000920E-02 0.  1.
    10030    2    1    2    0    0  0.00000000000E+00  0.00000000000E+00 -0.10708161656E+04  0.16264629029E+04  0.12242280482E+04 0.  0.
        5    1    3    3  502    0 -0.28174033950E+03  0.26923798544E+03 -0.11625045286E+04  0.12260936264E+04  0.46999998093E+01 0.  1.
       -5    1    3    3    0  502  0.28174033950E+03 -0.26923798544E+03  0.91688362930E+02  0.40036927654E+03  0.46999998093E+01 0. -1.
</event>
<event>
 5   0  0.2792518E-03  0.1170625E+04  0.7818609E-02  0.9138964E-01
        1   -1    0    0  501    0  0.00000000000E+00  0.00000000000E+00  0.37422717909E+03  0.37422717912E+03  0.50400001928E-02 0.  1.
       -1   -1    0    0    0  501  0.00000000000E+00  0.00000000000E+00 -0.91546240862E+03  0.91546240863E+03  0.50400001928E-02 0. -1.
    10030    2    1    2    0    0  0.00000000000E+00  0.00000000000E+00 -0.54123522953E+03  0.12896895878E+04  0.11706253282E+04 0.  0.
        2    1    3    3  502    0  0.22683672577E+03 -0.33703000931E+03  0.19360221326E+03  0.45002882610E+03  0.25500000920E-02 0.  1.
       -2    1    3    3    0  502 -0.22683672577E+03  0.33703000931E+03 -0.73483744279E+03  0.83966076166E+03  0.25500000920E-02 0. -1.
</event>
<event>
 5   0  0.2930868E-03  0.1206494E+04  0.7818609E-02  0.9107191E-01
       -1   -1    0    0    0  501  0.00000000000E+00  0.00000000000E+00  0.47954766816E+03  0.47954766819E+03  0.50400001928E-02 0.  1.
        1   -1    0    0  501    0  0.00000000000E+00  0.00000000000E+00 -0.75885474685E+03  0.75885474687E+03  0.50400001928E-02 0. -1.
    10030    2    1    2    0    0  0.00000000000E+00  0.00000000000E+00 -0.27930707869E+03  0.12384024151E+04  0.12064941348E+04 0.  0.
        3    1    3    3  502    0  0.26663465967E+03  0.51595841754E+03 -0.30706163065E+03  0.65695813077E+03  0.10100000352E+00 0. -1.
       -3    1    3    3    0  502 -0.26663465967E+03 -0.51595841754E+03  0.27754551960E+02  0.58144428428E+03  0.10100000352E+00 0.  1.
</event>
<event>
 5   0  0.2926844E-03  0.1047475E+04  0.7818609E-02  0.9257955E-01
       -1   -1    0    0    0  501  0.00000000000E+00  0.00000000000E+00  0.19127724898E+03  0.19127724905E+03  0.50400001928E-02 0. -1.
        1   -1    0    0  501    0  0.00000000000E+00  0.00000000000E+00 -0.14340491874E+04  0.14340491874E+04  0.50400001928E-02 0.  1.
    10030    2    1    2    0    0  0.00000000000E+00  0.00000000000E+00 -0.12427719384E+04  0.16253264364E+04  0.10474750279E+04 0.  0.
        5    1    3    3  502    0 -0.25623025593E+03  0.99258291309E+02 -0.13131776493E+04  0.13416272884E+04  0.46999998093E+01 0.  1.
       -5    1    3    3    0  502  0.25623025593E+03 -0.99258291309E+02  0.70405710905E+02  0.28369914800E+03  0.46999998093E+01 0. -1.
</event>
<event>
 5   0  0.5467554E-03  0.1295474E+04  0.7818609E-02  0.9033162E-01
        2   -1    0    0  501    0  0.00000000000E+00  0.00000000000E+00  0.15063945717E+04  0.15063945717E+04  0.25500000920E-02 0.  1.
       -2   -1    0    0    0  501  0.00000000000E+00  0.00000000000E+00 -0.27852149091E+03  0.27852149093E+03  0.25500000920E-02 0. -1.
    10030    2    1    2    0    0  0.00000000000E+00  0.00000000000E+00  0.12278730807E+04  0.17849160626E+04  0.12954740631E+04 0.  0.
        1    1    3    3  502    0  0.14260109127E+01  0.29755881741E+03 -0.17877682151E+03  0.34713748754E+03  0.50400001928E-02 0. -1.
       -1    1    3    3    0  502 -0.14260109127E+01 -0.29755881741E+03  0.14066499023E+04  0.14377785750E+04  0.50400001928E-02 0.  1.
</event>
<event>
 5   0  0.2930868E-03  0.1191675E+04  0.7818609E-02  0.9120175E-01
       -1   -1    0    0    0  501  0.00000000000E+00  0.00000000000E+00  0.41920386901E+03  0.41920386904E+03  0.50400001928E-02 0.  1.
        1   -1    0    0  501    0  0.00000000000E+00  0.00000000000E+00 -0.84689594861E+03  0.84689594862E+03  0.50400001928E-02 0. -1.
    10030    2    1    2    0    0  0.00000000000E+00  0.00000000000E+00 -0.42769207960E+03  0.12660998177E+04  0.11916745501E+04 0.  0.
        3    1    3    3  502    0 -0.10592293790E+03  0.18519322096E+03 -0.80492392799E+03  0.83271768200E+03  0.10100000352E+00 0. -1.
       -3    1    3    3    0  502  0.10592293790E+03 -0.18519322096E+03  0.37723184839E+03  0.43338213566E+03  0.10100000352E+00 0.  1.
</event>
<event>
 5   0  0.5003526E-03  0.1195048E+04  0.7818609E-02  0.9117202E-01
       -2   -1    0    0    0  501  0.00000000000E+00  0.00000000000E+00  0.46965241771E+03  0.46965241772E+03  0.25500000920E-02 0.  1.
        2   -1    0    0  501    0  0.00000000000E+00  0.00000000000E+00 -0.76021130686E+03  0.76021130686E+03  0.25500000920E-02 0. -1.
    10030    2    1    2    0    0  0.00000000000E+00  0.00000000000E+00 -0.29055888915E+03  0.12298637246E+04  0.11950482471E+04 0.  0.
        2    1    3    3  502    0  0.28764497670E+02 -0.45642283747E+03  0.25048329249E+03  0.52143176228E+03  0.25500000920E-02 0.  1.
       -2    1    3    3    0  502 -0.28764497670E+02  0.45642283747E+03 -0.54104218164E+03  0.70843196230E+03  0.25500000920E-02 0. -1.
</event>
<event>
 5   0  0.2938349E-03  0.1168875E+04  0.7818609E-02  0.9140545E-01
       -1   -1    0    0    0  501  0.00000000000E+00  0.00000000000E+00  0.58175713132E+03  0.58175713134E+03  0.50400001928E-02 0. -1.
        1   -1    0    0  501    0  0.00000000000E+00  0.00000000000E+00 -0.58713007235E+03  0.58713007237E+03  0.50400001928E-02 0.  1.
    10030    2    1    2    0    0  0.00000000000E+00  0.00000000000E+00 -0.53729410309E+01  0.11688872037E+04  0.11688748549E+04 0.  0.
        4    1    3    3  502    0 -0.32288812333E+03  0.31829355832E+03  0.36609644372E+03  0.58274844355E+03  0.12699999809E+01 0. -1.
       -4    1    3    3    0  502  0.32288812333E+03 -0.31829355832E+03 -0.37146938475E+03  0.58613876016E+03  0.12699999809E+01 0.  1.
</event>
<event>
 5   0  0.2926844E-03  0.1202297E+04  0.7818609E-02  0.9110849E-01
        1   -1    0    0  501    0  0.00000000000E+00  0.00000000000E+00  0.14262500387E+04  0.14262500387E+04  0.50400001928E-02 0.  1.
       -1   -1    0    0    0  501  0.00000000000E+00  0.00000000000E+00 -0.25337724141E+03  0.25337724146E+03  0.50400001928E-02 0. -1.
    10030    2    1    2    0    0  0.00000000000E+00  0.00000000000E+00  0.11728727973E+04  0.16796272802E+04  0.12022966363E+04 0.  0.
        5    1    3    3  502    0 -0.24006974060E+03 -0.19858825972E+03  0.13046253548E+04  0.13413203136E+04  0.46999998093E+01 0.  1.
       -5    1    3    3    0  502  0.24006974060E+03  0.19858825972E+03 -0.13175255749E+03  0.33830696661E+03  0.46999998093E+01 0. -1.
</event>
<event>
 5   0  0.5031575E-03  0.1170623E+04  0.7818609E-02  0.9138966E-01
        2   -1    0    0  501    0  0.00000000000E+00  0.00000000000E+00  0.46265846561E+03  0.46265846561E+03  0.25500000920E-02 0. -1.
       -2   -1    0    0    0  501  0.00000000000E+00  0.00000000000E+00 -0.74048080314E+03  0.74048080314E+03  0.25500000920E-02 0.  1.
    10030    2    1    2    0    0  0.00000000000E+00  0.00000000000E+00 -0.27782233753E+03  0.12031392688E+04  0.11706232736E+04 0.  0.
        5    1    3    3  502    0 -0.80341824165E+02  0.29071738594E+03 -0.65443743685E+03  0.72061213975E+03  0.46999998093E+01 0.  1.
       -5    1    3    3    0  502  0.80341824165E+02 -0.29071738594E+03  0.37661509932E+03  0.48252712901E+03  0.46999998093E+01 0. -1.
</event>
<event>
 5   0  0.2926844E-03  0.1060034E+04  0.7818609E-02  0.9245046E-01
        1   -1    0    0  501    0  0.00000000000E+00  0.00000000000E+00  0.71938395227E+03  0.71938395229E+03  0.50400001928E-02 0. -1.
       -1   -1    0    0    0  501  0.00000000000E+00  0.00000000000E+00 -0.39049779023E+03  0.39049779027E+03  0.50400001928E-02 0.  1.
    10030    2    1    2    0    0  0.00000000000E+00  0.00000000000E+00  0.32888616204E+03  0.11098817426E+04  0.10600336669E+04 0.  0.
        5    1    3    3  502    0  0.37460991623E+02 -0.32937867912E+03 -0.26852690114E+03  0.42664086394E+03  0.46999998093E+01 0.  1.
       -5    1    3    3    0  502 -0.37460991623E+02  0.32937867912E+03  0.59741306318E+03  0.68324087861E+03  0.46999998093E+01 0. -1.
</event>
<event>
 5   0  0.2792518E-03  0.1184096E+04  0.7818609E-02  0.9126892E-01
       -1   -1    0    0    0  501  0.00000000000E+00  0.00000000000E+00  0.25812828503E+03  0.25812828508E+03  0.50400001928E-02 0. -1.
        1   -1    0    0  501    0  0.00000000000E+00  0.00000000000E+00 -0.13579337419E+04  0.13579337420E+04  0.50400001928E-02 0.  1.
    10030    2    1    2    0    0  0.00000000000E+00  0.00000000000E+00 -0.10998054569E+04  0.16160620270E+04  0.11840964624E+04 0.  0.
        2    1    3    3  502    0  0.38522879989E+03  0.18312639811E+03 -0.11102792030E+04  0.11893932969E+04  0.25500000920E-02 0.  1.
       -2    1    3    3    0  502 -0.38522879989E+03 -0.18312639811E+03  0.10473746101E+02  0.42666873018E+03  0.25500000920E-02 0. -1.
</event>
<event>
 5   0  0.5467554E-03  0.1181128E+04  0.7818609E-02  0.9129538E-01
       -2   -1    0    0    0  501  0.00000000000E+00  0.00000000000E+00  0.61006096629E+03  0.61006096629E+03  0.25500000920E-02 0.  1.
        2   -1    0    0  501    0  0.00000000000E+00  0.00000000000E+00 -0.57169002741E+03  0.57169002742E+03  0.25500000920E-02 0. -1.
    10030    2    1    2    0    0  0.00000000000E+00  0.00000000000E+00  0.38370938872E+02  0.11817509937E+04  0.11811278856E+04 0.  0.
        1    1    3    3  502    0 -0.31745567595E+03  0.37695074320E+03 -0.30640255613E+03  0.58030379580E+03  0.50400001928E-02 0. -1.
       -1    1    3    3    0  502  0.31745567595E+03 -0.37695074320E+03  0.34477349501E+03  0.60144719791E+03  0.50400001928E-02 0.  1.
</event>
<event>
 5   0  0.2938349E-03  0.1220863E+04  0.7818609E-02  0.9094789E-01
       -1   -1    0    0    0  501  0.00000000000E+00  0.00000000000E+00  0.36880079634E+03  0.36880079637E+03  0.50400001928E-02 0.  1.
        1   -1    0    0  501    0  0.00000000000E+00  0.00000000000E+00 -0.10103731820E+04  0.10103731820E+04  0.50400001928E-02 0. -1.
    10030    2    1    2    0    0  0.00000000000E+00  0.00000000000E+00 -0.64157238566E+03  0.13791739784E+04  0.12208627018E+04 0.  0.
        4    1    3    3  502    0  0.11989435932E+03  0.68077067712E+02 -0.99255213787E+03  0.10020830823E+04  0.12699999809E+01 0. -1.
       -4    1    3    3    0  502 -0.11989435932E+03 -0.68077067712E+02  0.35097975221E+03  0.37709089608E+03  0.12699999809E+01 0.  1.
</event>
<event>
 5   0  0.5467554E-03  0.1188835E+04  0.7818609E-02  0.9122686E-01
       -2   -1    0    0    0  501  0.00000000000E+00  0.00000000000E+00  0.71066957790E+03  0.71066957791E+03  0.25500000920E-02 0.  1.
        2   -1    0    0  501    0  0.00000000000E+00  0.00000000000E+00 -0.49718214249E+03  0.49718214249E+03  0.25500000920E-02 0. -1.
    10030    2    1    2    0    0  0.00000000000E+00  0.00000000000E+00  0.21348743542E+03  0.12078517204E+04  0.11888350993E+04 0.  0.
        1    1    3    3  502    0 -0.32041618976E+03 -0.25767011233E+03  0.54287922421E+03  0.68101268237E+03  0.50400001928E-02 0.  1.
       -1    1    3    3    0  502  0.32041618976E+03  0.25767011233E+03 -0.32939178879E+03  0.52683903803E+03  0.50400001928E-02 0. -1.
</event>
<event>
 5   0  0.5467554E-03  0.1202314E+04  0.7818609E-02  0.9110833E-01
       -2   -1    0    0    0  501  0.00000000000E+00  0.00000000000E+00  0.84385398632E+03  0.84385398633E+03  0.25500000920E-02 0.  1.
        2   -1    0    0  501    0  0.00000000000E+00  0.00000000000E+00 -0.42826107575E+03  0.42826107575E+03  0.25500000920E-02 0. -1.
    10030    2    1    2    0    0  0.00000000000E+00  0.00000000000E+00  0.41559291057E+03  0.12721150621E+04  0.12023141286E+04 0.  0.
        1    1    3    3  502    0  0.37334918963E+03  0.39171679831E+03  0.48483358835E+03  0.72656402051E+03  0.50400001928E-02 0.  1.
       -1    1    3    3    0  502 -0.37334918963E+03 -0.39171679831E+03 -0.69240677774E+02  0.54555104157E+03  0.50400001928E-02 0. -1.
</event>
<event>
 5   0  0.2938349E-03  0.1202093E+04  0.7818609E-02  0.9111027E-01
        1   -1    0    0  501    0  0.00000000000E+00  0.00000000000E+00  0.13146944467E+04  0.13146944467E+04  0.50400001928E-02 0.  1.
       -1   -1    0    0    0  501  0.00000000000E+00  0.00000000000E+00 -0.27478374160E+03  0.27478374164E+03  0.50400001928E-02 0. -1.
    10030    2    1    2    0    0  0.00000000000E+00  0.00000000000E+00  0.10399107051E+04  0.15894781883E+04  0.12020926073E+04 0.  0.
        4    1    3    3  502    0 -0.31231870478E+03  0.19451998347E+03 -0.10846438184E+03  0.38359761776E+03  0.12699999809E+01 0. -1.
       -4    1    3    3    0  502  0.31231870478E+03 -0.19451998347E+03  0.11483750869E+04  0.12058805706E+04  0.12699999809E+01 0.  1.
</event>
<event>
 5   0  0.2930868E-03  0.1215594E+04  0.7818609E-02  0.9099316E-01
       -1   -1    0    0    0  501  0.00000000000E+00  0.00000000000E+00  0.34756915438E+03  0.34756915441E+03  0.50400001928E-02 0. -1.
        1   -1    0    0  501    0  0.00000000000E+00  0.00000000000E+00 -0.10628589180E+04  0.10628589180E+04  0.50400001928E-02 0.  1.
    10030    2    1    2    0    0  0.00000000000E+00  0.00000000000E+00 -0.71528976360E+03  0.14104280724E+04  0.12155936416E+04 0.  0.
        3    1    3    3  502    0  0.60467039892E+02 -0.54107700261E+03 -0.44162466825E+02  0.54623339274E+03  0.10100000352E+00 0. -1.
       -3    1    3    3    0  502 -0.60467039892E+02  0.54107700261E+03 -0.67112729677E+03  0.86419467966E+03  0.10100000352E+00 0.  1.
</event>
<event>
 5   0  0.5189537E-03  0.1180751E+04  0.7818609E-02  0.9129874E-01
       -2   -1    0    0    0  501  0.00000000000E+00  0.00000000000E+00  0.52407527914E+03  0.52407527914E+03  0.25500000920E-02 0.  1.
        2   -1    0    0  501    0  0.00000000000E+00  0.00000000000E+00 -0.66506374327E+03  0.66506374327E+03  0.25500000920E-02 0. -1.
    10030    2    1    2    0    0  0.00000000000E+00  0.00000000000E+00 -0.14098846413E+03  0.11891390224E+04  0.11807513996E+04 0.  0.
        4    1    3    3  502    0  0.18094016242E+03 -0.48406128089E+03  0.21699317610E+03  0.56048400281E+03  0.12699999809E+01 0.  1.
       -4    1    3    3    0  502 -0.18094016242E+03  0.48406128089E+03 -0.35798164023E+03  0.62865501961E+03  0.12699999809E+01 0. -1.
</event>
<event>
 5   0  0.2938349E-03  0.1087135E+04  0.7818609E-02  0.9217823E-01
       -1   -1    0    0    0  501  0.00000000000E+00  0.00000000000E+00  0.11758205588E+04  0.11758205588E+04  0.50400001928E-02 0.  1.
        1   -1    0    0  501    0  0.00000000000E+00  0.00000000000E+00 -0.25128443708E+03  0.25128443713E+03  0.50400001928E-02 0. -1.
    10030    2    1    2    0    0  0.00000000000E+00  0.00000000000E+00  0.92453612172E+03  0.14271049959E+04  0.10871345957E+04 0.  0.
        4    1    3    3  502    0 -0.50201554449E+02 -0.50547946333E+03  0.20828405492E+03  0.54901142461E+03  0.12699999809E+01 0. -1.
       -4    1    3    3    0  502  0.50201554449E+02  0.50547946333E+03  0.71625206680E+03  0.87809357133E+03  0.12699999809E+01 0.  1.
</event>
<event>
 5   0  0.2875848E-03  0.1193877E+04  0.7818609E-02  0.9118233E-01
        1   -1    0    0  501    0  0.00000000000E+00  0.00000000000E+00  0.82633729863E+03  0.82633729864E+03  0.50400001928E-02 0.  1.
       -1   -1    0    0    0  501  0.00000000000E+00  0.00000000000E+00 -0.43122279093E+03  0.43122279096E+03  0.50400001928E-02 0. -1.
    10030    2    1    2    0    0  0.00000000000E+00  0.00000000000E+00  0.39511450769E+03  0.12575600896E+04  0.11938768382E+04 0.  0.
        1    1    3    3  502    0 -0.36387325663E+03  0.46607783642E+03  0.11131707483E+03  0.60168412616E+03  0.50400001928E-02 0. -1.
       -1    1    3    3    0  502  0.36387325663E+03 -0.46607783642E+03  0.28379743287E+03  0.65587596344E+03  0.50400001928E-02 0.  1.
</event>
<event>
 5   0  0.2926844E-03  0.1522939E+04  0.7818609E-02  0.8869340E-01
        1   -1    0    0  501    0  0.00000000000E+00  0.00000000000E+00  0.40722830421E+03  0.40722830424E+03  0.50400001928E-02 0.  1.
       -1   -1    0    0    0  501  0.00000000000E+00  0.00000000000E+00 -0.14238593444E+04  0.14238593444E+04  0.50400001928E-02 0. -1.
    10030    2    1    2    0    0  0.00000000000E+00  0.00000000000E+00 -0.10166310402E+04  0.18310876486E+04  0.15229390353E+04 0.  0.
        5    1    3    3  502    0  0.24895242500E+02  0.10496643679E+03  0.39797630199E+03  0.41236507235E+03  0.46999998093E+01 0.  1.
       -5    1    3    3    0  502 -0.24895242500E+02 -0.10496643679E+03 -0.14146073422E+04  0.14187225763E+04  0.46999998093E+01 0. -1.
</event>
<event>
 5   0  0.5189537E-03  0.1192559E+04  0.7818609E-02  0.9119395E-01
       -2   -1    0    0    0  501  0.00000000000E+00  0.00000000000E+00  0.81319785773E+03  0.81319785774E+03  0.25500000920E-02 0.  1.
        2   -1    0    0  501    0  0.00000000000E+00  0.00000000000E+00 -0.43722326683E+03  0.43722326684E+03  0.25500000920E-02 0. -1.
    10030    2    1    2    0    0  0.00000000000E+00  0.00000000000E+00  0.37597459090E+03  0.12504211246E+04  0.11925586341E+04 0.  0.
        4    1    3    3  502    0 -0.54155555130E+03 -0.84769275408E+02 -0.58089259563E+02  0.55122066378E+03  0.12699999809E+01 0.  1.
       -4    1    3    3    0  502  0.54155555130E+03  0.84769275408E+02  0.43406385046E+03  0.69920046080E+03  0.12699999809E+01 0. -1.
</event>
<event>
 5   0  0.5003526E-03  0.1188772E+04  0.7818609E-02  0.9122742E-01
       -2   -1    0    0    0  501  0.00000000000E+00  0.00000000000E+00  0.23408246504E+03  0.23408246506E+03  0.25500000920E-02 0. -1.
        2   -1    0    0  501    0  0.00000000000E+00  0.00000000000E+00 -0.15092738802E+04  0.15092738802E+04  0.25500000920E-02 0.  1.
    10030    2    1    2    0    0  0.00000000000E+00  0.00000000000E+00 -0.12751914152E+04  0.17433563453E+04  0.11887717196E+04 0.  0.
        2    1    3    3  502    0  0.15768343669E+03  0.21865951775E+03 -0.14144612357E+04  0.14399224417E+04  0.25500000920E-02 0.  1.
       -2    1    3    3    0  502 -0.15768343669E+03 -0.21865951775E+03  0.13926982051E+03  0.30343390355E+03  0.25500000920E-02 0. -1.
</event>
<event>
 5   0  0.2926844E-03  0.1189073E+04  0.7818609E-02  0.9122475E-01
       -1   -1    0    0    0  501  0.00000000000E+00  0.00000000000E+00  0.61387388069E+03  0.61387388072E+03  0.50400001928E-02 0.  1.
        1   -1    0    0  501    0  0.00000000000E+00  0.00000000000E+00 -0.57580840519E+03  0.57580840521E+03  0.50400001928E-02 0. -1.
    10030    2    1    2    0    0  0.00000000000E+00  0.00000000000E+00  0.38065475505E+02  0.11896822859E+04  0.11890731521E+04 0.  0.
        5    1    3    3  502    0  0.10198892202E+03  0.30569412280E+03 -0.48082404987E+03  0.57884755667E+03  0.46999998093E+01 0. -1.
       -5    1    3    3    0  502 -0.10198892202E+03 -0.30569412280E+03  0.51888952537E+03  0.61083472926E+03  0.46999998093E+01 0.  1.
</event>
<event>
 5   0  0.2875848E-03  0.1226920E+04  0.7818609E-02  0.9089615E-01
        1   -1    0    0  501    0  0.00000000000E+00  0.00000000000E+00  0.14894375897E+04  0.14894375898E+04  0.50400001928E-02 0.  1.
       -1   -1    0    0    0  501  0.00000000000E+00  0.00000000000E+00 -0.25266786517E+03  0.25266786522E+03  0.50400001928E-02 0. -1.
    10030    2    1    2    0    0  0.00000000000E+00  0.00000000000E+00  0.12367697246E+04  0.17421054550E+04  0.12269197466E+04 0.  0.
        1    1    3    3  502    0 -0.58569020299E+03 -0.64625807038E+02  0.86069976357E+03  0.10430789001E+04  0.50400001928E-02 0. -1.
       -1    1    3    3    0  502  0.58569020299E+03  0.64625807038E+02  0.37606996101E+03  0.69902655487E+03  0.50400001928E-02 0.  1.
</event>
<event>
 5   0  0.5108045E-03  0.1166609E+04  0.7818609E-02  0.9142597E-01
       -2   -1    0    0    0  501  0.00000000000E+00  0.00000000000E+00  0.31380959945E+03  0.31380959946E+03  0.25500000920E-02 0.  1.
        2   -1    0    0  501    0  0.00000000000E+00  0.00000000000E+00 -0.10842371044E+04  0.10842371044E+04  0.25500000920E-02 0. -1.
    10030    2    1    2    0    0  0.00000000000E+00  0.00000000000E+00 -0.77042750491E+03  0.13980467038E+04  0.11666087801E+04 0.  0.
        3    1    3    3  502    0 -0.45157554311E+03  0.35461488338E+03 -0.50843091632E+03  0.76692515510E+03  0.10100000352E+00 0.  1.
       -3    1    3    3    0  502  0.45157554311E+03 -0.35461488338E+03 -0.26199658859E+03  0.63112154874E+03  0.10100000352E+00 0. -1.
</event>
<event>
 5   0  0.5189537E-03  0.1254035E+04  0.7818609E-02  0.9066832E-01
       -2   -1    0    0    0  501  0.00000000000E+00  0.00000000000E+00  0.15014743644E+03  0.15014743646E+03  0.25500000920E-02 0. -1.
        2   -1    0    0  501    0  0.00000000000E+00  0.00000000000E+00 -0.26184306556E+04  0.26184306556E+04  0.25500000920E-02 0.  1.
    10030    2    1    2    0    0  0.00000000000E+00  0.00000000000E+00 -0.24682832192E+04  0.27685780921E+04  0.12540345298E+04 0.  0.
        4    1    3    3  502    0  0.76347360866E+02 -0.40027158411E+03 -0.22862452067E+04  0.23222758274E+04  0.12699999809E+01 0.  1.
       -4    1    3    3    0  502 -0.76347360866E+02  0.40027158411E+03 -0.18203801250E+03  0.44630226467E+03  0.12699999809E+01 0. -1.
</event>
<event>
 5   0  0.5189537E-03  0.1166303E+04  0.7818609E-02  0.9142873E-01
        2   -1    0    0  501    0  0.00000000000E+00  0.00000000000E+00  0.10136649522E+04  0.10136649522E+04  0.25500000920E-02 0.  1.
       -2   -1    0    0    0  501  0.00000000000E+00  0.00000000000E+00 -0.33548154000E+03  0.33548154001E+03  0.25500000920E-02 0. -1.
    10030    2    1    2    0    0  0.00000000000E+00  0.00000000000E+00  0.67818341219E+03  0.13491464922E+04  0.11663033554E+04 0.  0.
        4    1    3    3  502    0  0.22992288980E+03 -0.36275304586E+03  0.79540831592E+03  0.90395260356E+03  0.12699999809E+01 0.  1.
       -4    1    3    3    0  502 -0.22992288980E+03  0.36275304586E+03 -0.11722490373E+03  0.44519388865E+03  0.12699999809E+01 0. -1.
</event>
<event>
 5   0  0.2930868E-03  0.1203135E+04  0.7818609E-02  0.9110117E-01
       -1   -1    0    0    0  501  0.00000000000E+00  0.00000000000E+00  0.31086570272E+03  0.31086570276E+03  0.50400001928E-02 0. -1.
        1   -1    0    0  501    0  0.00000000000E+00  0.00000000000E+00 -0.11641157038E+04  0.11641157038E+04  0.50400001928E-02 0.  1.
    10030    2    1    2    0    0  0.00000000000E+00  0.00000000000E+00 -0.85325000104E+03  0.14749814065E+04  0.12031353146E+04 0.  0.
        3    1    3    3  502    0 -0.10278679094E+03 -0.82400004752E+02 -0.11462144813E+04  0.11537601711E+04  0.10100000352E+00 0.  1.
       -3    1    3    3    0  502  0.10278679094E+03  0.82400004752E+02  0.29296448026E+03  0.32122123539E+03  0.10100000352E+00 0. -1.
</event>
<event>
 5   0  0.2930868E-03  0.1187170E+04  0.7818609E-02  0.9124161E-01
       -1   -1    0    0    0  501  0.00000000000E+00  0.00000000000E+00  0.36374411410E+03  0.36374411413E+03  0.50400001928E-02 0.  1.
        1   -1    0    0  501    0  0.00000000000E+00  0.00000000000E+00 -0.96865675512E+03  0.96865675514E+03  0.50400001928E-02 0. -1.
    10030    2    1    2    0    0  0.00000000000E+00  0.00000000000E+00 -0.60491264103E+03  0.13324008693E+04  0.11871700692E+04 0.  0.
        3    1    3    3  502    0 -0.22659823301E+03 -0.54863013833E+03 -0.30113063621E+03  0.66559857133E+03  0.10100000352E+00 0. -1.
       -3    1    3    3    0  502  0.22659823301E+03  0.54863013833E+03 -0.30378200482E+03  0.66680229794E+03  0.10100000352E+00 0.  1.
</event>
<event>
 5   0  0.2930868E-03  0.1231726E+04  0.7818609E-02  0.9085531E-01
        1   -1    0    0  501    0  0.00000000000E+00  0.00000000000E+00  0.24706190043E+04  0.24706190043E+04  0.50400001928E-02 0. -1.
       -1   -1    0    0    0  501  0.00000000000E+00  0.00000000000E+00 -0.15351916969E+03  0.15351916978E+03  0.50400001928E-02 0.  1.
    10030    2    1    2    0    0  0.00000000000E+00  0.00000000000E+00  0.23170998346E+04  0.26241381741E+04  0.12317262330E+04 0.  0.
        3    1    3    3  502    0  0.51893485799E+03 -0.17914536680E+03  0.17531757849E+04  0.18371205165E+04  0.10100000352E+00 0. -1.
       -3    1    3    3    0  502 -0.51893485799E+03  0.17914536680E+03  0.56392404973E+03  0.78701765758E+03  0.10100000352E+00 0.  1.
</event>
<event>
 5   0  0.2792518E-03  0.1251856E+04  0.7818609E-02  0.9068640E-01
        1   -1    0    0  501    0  0.00000000000E+00  0.00000000000E+00  0.20025772204E+04  0.20025772204E+04  0.50400001928E-02 0.  1.
       -1   -1    0    0    0  501  0.00000000000E+00  0.00000000000E+00 -0.19564085702E+03  0.19564085709E+03  0.50400001928E-02 0. -1.
    10030    2    1    2    0    0  0.00000000000E+00  0.00000000000E+00  0.18069363633E+04  0.21982180775E+04  0.12518560999E+04 0.  0.
        2    1    3    3  502    0 -0.79675942578E+02  0.18334738703E+03  0.19450118751E+04  0.19552584777E+04  0.25500000920E-02 0.  1.
       -2    1    3    3    0  502  0.79675942578E+02 -0.18334738703E+03 -0.13807551179E+03  0.24295959977E+03  0.25500000920E-02 0. -1.
</event>
<event>
 5   0  0.5108045E-03  0.1220159E+04  0.7818609E-02  0.9095392E-01
        2   -1    0    0  501    0  0.00000000000E+00  0.00000000000E+00  0.60565721610E+03  0.60565721610E+03  0.25500000920E-02 0. -1.
       -2   -1    0    0    0  501  0.00000000000E+00  0.00000000000E+00 -0.61453383841E+03  0.61453383841E+03  0.25500000920E-02 0.  1.
    10030    2    1    2    0    0  0.00000000000E+00  0.00000000000E+00 -0.88766223108E+01  0.12201910545E+04  0.12201587663E+04 0.  0.
        3    1    3    3  502    0  0.29495504041E+03 -0.45130835243E+03  0.28108481078E+03  0.60801840917E+03  0.10100000352E+00 0. -1.
       -3    1    3    3    0  502 -0.29495504041E+03  0.45130835243E+03 -0.28996143309E+03  0.61217264535E+03  0.10100000352E+00 0.  1.
</event>
<event>
 5   0  0.5108045E-03  0.1189004E+04  0.7818609E-02  0.9122536E-01
        2   -1    0    0  501    0  0.00000000000E+00  0.00000000000E+00  0.16356291323E+04  0.16356291323E+04  0.25500000920E-02 0.  1.
       -2   -1    0    0    0  501  0.00000000000E+00  0.00000000000E+00 -0.21608352084E+03  0.21608352086E+03  0.25500000920E-02 0. -1.
    10030    2    1    2    0    0  0.00000000000E+00  0.00000000000E+00  0.14195456114E+04  0.18517126531E+04  0.11890037876E+04 0.  0.
        3    1    3    3  502    0  0.25396289431E+03  0.30491361487E+03  0.20363047830E+02  0.39734635790E+03  0.10100000352E+00 0. -1.
       -3    1    3    3    0  502 -0.25396289431E+03 -0.30491361487E+03  0.13991825636E+04  0.14543662952E+04  0.10100000352E+00 0.  1.
</event>
<event>
 5   0  0.2930868E-03  0.1191776E+04  0.7818609E-02  0.9120086E-01
       -1   -1    0    0    0  501  0.00000000000E+00  0.00000000000E+00  0.28311944250E+03  0.28311944255E+03  0.50400001928E-02 0.  1.
        1   -1    0    0  501    0  0.00000000000E+00  0.00000000000E+00 -0.12541783730E+04  0.12541783730E+04  0.50400001928E-02 0. -1.
    10030    2    1    2    0    0  0.00000000000E+00  0.00000000000E+00 -0.97105893048E+03  0.15372978155E+04  0.11917756195E+04 0.  0.
        3    1    3    3  502    0 -0.17213868829E+03 -0.56536656845E+03 -0.58386170566E+03  0.83076205153E+03  0.10100000352E+00 0. -1.
       -3    1    3    3    0  502  0.17213868829E+03  0.56536656845E+03 -0.38719722483E+03  0.70653576402E+03  0.10100000352E+00 0.  1.
</event>
<event>
 5   0  0.5003526E-03  0.1190326E+04  0.7818609E-02  0.9121366E-01
        2   -1    0    0  501    0  0.00000000000E+00  0.00000000000E+00  0.13518516407E+04  0.13518516407E+04  0.25500000920E-02 0. -1.
       -2   -1    0    0    0  501  0.00000000000E+00  0.00000000000E+00 -0.26202520244E+03  0.26202520245E+03  0.25500000920E-02 0.  1.
    10030    2    1    2    0    0  0.00000000000E+00  0.00000000000E+00  0.10898264382E+04  0.16138768431E+04  0.11903263415E+04 0.  0.
        2    1    3    3  502    0  0.13869951697E+03  0.40058655600E+03  0.11113051557E+04  0.11894142651E+04  0.25500000920E-02 0. -1.
       -2    1    3    3    0  502 -0.13869951697E+03 -0.40058655600E+03 -0.21478717473E+02  0.42446257806E+03  0.25500000920E-02 0.  1.
</event>
<event>
 5   0  0.5467554E-03  0.1215542E+04  0.7818609E-02  0.9099361E-01
        2   -1    0    0  501    0  0.00000000000E+00  0.00000000000E+00  0.39138860559E+03  0.39138860560E+03  0.25500000920E-02 0. -1.
       -2   -1    0    0    0  501  0.00000000000E+00  0.00000000000E+00 -0.94378149395E+03  0.94378149395E+03  0.25500000920E-02 0.  1.
    10030    2    1    2    0    0  0.00000000000E+00  0.00000000000E+00 -0.55239288836E+03  0.13351700995E+04  0.12155415631E+04 0.  0.
        1    1    3    3  502    0 -0.21838663751E+03  0.31855928074E+03 -0.79164799580E+03  0.88084010357E+03  0.50400001928E-02 0.  1.
       -1    1    3    3    0  502  0.21838663751E+03 -0.31855928074E+03  0.23925510744E+03  0.45432999598E+03  0.50400001928E-02 0. -1.
</event>
<event>
 5   0  0.5189537E-03  0.1125248E+04  0.7818609E-02  0.9180927E-01
        2   -1    0    0  501    0  0.00000000000E+00  0.00000000000E+00  0.54319161283E+03  0.54319161283E+03  0.25500000920E-02 0.  1.
       -2   -1    0    0    0  501  0.00000000000E+00  0.00000000000E+00 -0.58275166048E+03  0.58275166049E+03  0.25500000920E-02 0. -1.
    10030    2    1    2    0    0  0.00000000000E+00  0.00000000000E+00 -0.39560047657E+02  0.11259432733E+04  0.11252480870E+04 0.  0.
        4    1    3    3  502    0 -0.10917297243E+03  0.21445163194E+03 -0.52865685970E+03  0.58085103819E+03  0.12699999809E+01 0. -1.
       -4    1    3    3    0  502  0.10917297243E+03 -0.21445163194E+03  0.48909681205E+03  0.54509223514E+03  0.12699999809E+01 0.  1.
</event>
<event>
 5   0  0.2926844E-03  0.1193315E+04  0.7818609E-02  0.9118728E-01
       -1   -1    0    0    0  501  0.00000000000E+00  0.00000000000E+00  0.68436199976E+03  0.68436199978E+03  0.50400001928E-02 0.  1.
        1   -1    0    0  501    0  0.00000000000E+00  0.00000000000E+00 -0.52019239089E+03  0.52019239091E+03  0.50400001928E-02 0. -1.
    10030    2    1    2    0    0  0.00000000000E+00  0.00000000000E+00  0.16416960887E+03  0.12045543907E+04  0.11933145519E+04 0.  0.
        5    1    3    3  502    0 -0.28564756963E+02 -0.52101528583E+03  0.37412795636E+03  0.64207997253E+03  0.46999998093E+01 0.  1.
       -5    1    3    3    0  502  0.28564756963E+02  0.52101528583E+03 -0.20995834749E+03  0.56247441816E+03  0.46999998093E+01 0. -1.
</event>
<event>
 5   0  0.5467554E-03  0.7487157E+03  0.7818609E-02  0.9637367E-01
       -2   -1    0    0    0  501  0.00000000000E+00  0.00000000000E+00  0.36608033435E+03  0.36608033436E+03  0.25500000920E-02 0.  1.
        2   -1    0    0  501    0  0.00000000000E+00  0.00000000000E+00 -0.38282257945E+03  0.38282257945E+03  0.25500000920E-02 0. -1.
    10030    2    1    2    0    0  0.00000000000E+00  0.00000000000E+00 -0.16742245094E+02  0.74890291382E+03  0.74871574817E+03 0.  0.
        1    1    3    3  502    0 -0.17443078582E+03 -0.77459731827E+02  0.31376172337E+03  0.36724995327E+03  0.50400001928E-02 0.  1.
       -1    1    3    3    0  502  0.17443078582E+03  0.77459731827E+02 -0.33050396847E+03  0.38165296055E+03  0.50400001928E-02 0. -1.
</event>
<event>
 5   0  0.5031575E-03  0.8084588E+03  0.7818609E-02  0.9547853E-01
       -2   -1    0    0    0  501  0.00000000000E+00  0.00000000000E+00  0.20709112579E+03  0.20709112580E+03  0.25500000920E-02 0.  1.
        2   -1    0    0  501    0  0.00000000000E+00  0.00000000000E+00 -0.78903147695E+03  0.78903147695E+03  0.25500000920E-02 0. -1.
    10030    2    1    2    0    0  0.00000000000E+00  0.00000000000E+00 -0.58194035116E+03  0.99612260275E+03  0.80845882233E+03 0.  0.
        5    1    3    3  502    0 -0.17367476751E+03  0.26215428093E+03 -0.60387066822E+03  0.68085950519E+03  0.46999998093E+01 0. -1.
       -5    1    3    3    0  502  0.17367476751E+03 -0.26215428093E+03  0.21930317056E+02  0.31526309756E+03  0.46999998093E+01 0.  1.
</event>
<event>
 5   0  0.2938349E-03  0.1035781E+04  0.7818609E-02  0.9270149E-01
        1   -1    0    0  501    0  0.00000000000E+00  0.00000000000E+00  0.85573631085E+03  0.85573631086E+03  0.50400001928E-02 0. -1.
       -1   -1    0    0    0  501  0.00000000000E+00  0.00000000000E+00 -0.31342670084E+03  0.31342670088E+03  0.50400001928E-02 0.  1.
    10030    2    1    2    0    0  0.00000000000E+00  0.00000000000E+00  0.54230961001E+03  0.11691630117E+04  0.10357810748E+04 0.  0.
        4    1    3    3  502    0  0.14413286810E+03  0.18545617764E+03 -0.24984601238E+03  0.34291824142E+03  0.12699999809E+01 0.  1.
       -4    1    3    3    0  502 -0.14413286810E+03 -0.18545617764E+03  0.79215562239E+03  0.82624477032E+03  0.12699999809E+01 0. -1.
</event>
<event>
 5   0  0.5031575E-03  0.1200560E+04  0.7818609E-02  0.9112367E-01
        2   -1    0    0  501    0  0.00000000000E+00  0.00000000000E+00  0.69266852457E+03  0.69266852457E+03  0.25500000920E-02 0.  1.
       -2   -1    0    0    0  501  0.00000000000E+00  0.00000000000E+00 -0.52021427039E+03  0.52021427040E+03  0.25500000920E-02 0. -1.
    10030    2    1    2    0    0  0.00000000000E+00  0.00000000000E+00  0.17245425418E+03  0.12128827950E+04  0.12005599546E+04 0.  0.
        5    1    3    3  502    0 -0.10740724001E+03  0.58946812703E+03  0.12272232899E+03  0.61163048323E+03  0.46999998093E+01 0.  1.
       -5    1    3    3    0  502  0.10740724001E+03 -0.58946812703E+03  0.49731925189E+02  0.60125231174E+03  0.46999998093E+01 0. -1.
</event>
<event>
 5   0  0.5003526E-03  0.1209873E+04  0.7818609E-02  0.9104259E-01
       -2   -1    0    0    0  501  0.00000000000E+00  0.00000000000E+00  0.44340180553E+03  0.44340180554E+03  0.25500000920E-02 0. -1.
        2   -1    0    0  501    0  0.00000000000E+00  0.00000000000E+00 -0.82531905525E+03  0.82531905525E+03  0.25500000920E-02 0.  1.
    10030    2    1    2    0    0  0.00000000000E+00  0.00000000000E+00 -0.38191724972E+03  0.12687208608E+04  0.12098726532E+04 0.  0.
        2    1    3    3  502    0 -0.50320294417E+02  0.55105112928E+03  0.65387166665E+02  0.55719382685E+03  0.25500000920E-02 0. -1.
       -2    1    3    3    0  502  0.50320294417E+02 -0.55105112928E+03 -0.44730441638E+03  0.71152703394E+03  0.25500000920E-02 0.  1.
</event>
<event>
 5   0  0.5003526E-03  0.1184558E+04  0.7818609E-02  0.9126482E-01
        2   -1    0    0  501    0  0.00000000000E+00  0.00000000000E+00  0.19650857876E+04  0.19650857876E+04  0.25500000920E-02 0. -1.
       -2   -1    0    0    0  501  0.00000000000E+00  0.00000000000E+00 -0.17851339744E+03  0.17851339746E+03  0.25500000920E-02 0.  1.
    10030    2    1    2    0    0  0.00000000000E+00  0.00000000000E+00  0.17865723902E+04  0.21435991851E+04  0.11845575380E+04 0.  0.
        2    1    3    3  502    0  0.23141524922E+03 -0.43546167085E+03  0.29964733017E+03  0.57703414703E+03  0.25500000920E-02 0. -1.
       -2    1    3    3    0  502 -0.23141524922E+03  0.43546167085E+03  0.14869250600E+04  0.15665650380E+04  0.25500000920E-02 0.  1.
</event>
<event>
 5   0  0.2930868E-03  0.1146018E+04  0.7818609E-02  0.9161465E-01
       -1   -1    0    0    0  501  0.00000000000E+00  0.00000000000E+00  0.18885143916E+03  0.18885143922E+03  0.50400001928E-02 0. -1.
        1   -1    0    0  501    0  0.00000000000E+00  0.00000000000E+00 -0.17386115957E+04  0.17386115957E+04  0.50400001928E-02 0.  1.
    10030    2    1    2    0    0  0.00000000000E+00  0.00000000000E+00 -0.15497601565E+04  0.19274630349E+04  0.11460179790E+04 0.  0.
        3    1    3    3  502    0  0.24457248261E+03 -0.43133466807E+03 -0.12578867698E+04  0.13520889138E+04  0.10100000352E+00 0.  1.
       -3    1    3    3    0  502 -0.24457248261E+03  0.43133466807E+03 -0.29187338678E+03  0.57537412111E+03  0.10100000352E+00 0. -1.
</event>
<event>
 5   0  0.2792518E-03  0.1163633E+04  0.7818609E-02  0.9145298E-01
       -1   -1    0    0    0  501  0.00000000000E+00  0.00000000000E+00  0.63239738726E+03  0.63239738728E+03  0.50400001928E-02 0.  1.
        1   -1    0    0  501    0  0.00000000000E+00  0.00000000000E+00 -0.53528127903E+03  0.53528127905E+03  0.50400001928E-02 0. -1.
    10030    2    1    2    0    0  0.00000000000E+00  0.00000000000E+00  0.97116108233E+02  0.11676786663E+04  0.11636330733E+04 0.  0.
        2    1    3    3  502    0  0.57010967886E+02  0.98791152446E+02  0.62106814514E+03  0.63145513156E+03  0.25500000920E-02 0.  1.
       -2    1    3    3    0  502 -0.57010967886E+02 -0.98791152446E+02 -0.52395203691E+03  0.53622353478E+03  0.25500000920E-02 0. -1.
</event>
<event>
 5   0  0.5467554E-03  0.1190541E+04  0.7818609E-02  0.9121177E-01
       -2   -1    0    0    0  501  0.00000000000E+00  0.00000000000E+00  0.27044992344E+03  0.27044992345E+03  0.25500000920E-02 0.  1.
        2   -1    0    0  501    0  0.00000000000E+00  0.00000000000E+00 -0.13102118220E+04  0.13102118220E+04  0.25500000920E-02 0. -1.
    10030    2    1    2    0    0  0.00000000000E+00  0.00000000000E+00 -0.10397618986E+04  0.15806617455E+04  0.11905405276E+04 0.  0.
        1    1    3    3  502    0 -0.48212708501E+03 -0.21566910914E+03 -0.88441909360E+03  0.10301246642E+04  0.50400001928E-02 0.  1.
       -1    1    3    3    0  502  0.48212708501E+03  0.21566910914E+03 -0.15534280499E+03  0.55053708125E+03  0.50400001928E-02 0. -1.
</event>
<event>
 5   0  0.2792518E-03  0.1184583E+04  0.7818609E-02  0.9126459E-01
        1   -1    0    0  501    0  0.00000000000E+00  0.00000000000E+00  0.39973189231E+03  0.39973189234E+03  0.50400001928E-02 0. -1.
       -1   -1    0    0    0  501  0.00000000000E+00  0.00000000000E+00 -0.87761120816E+03  0.87761120817E+03  0.50400001928E-02 0.  1.
    10030    2    1    2    0    0  0.00000000000E+00  0.00000000000E+00 -0.47787931585E+03  0.12773431005E+04  0.11845829460E+04 0.  0.
        2    1    3    3  502    0 -0.59107602067E+03 -0.28582349903E+02 -0.26581904376E+03  0.64872766009E+03  0.25500000920E-02 0. -1.
       -2    1    3    3    0  502  0.59107602067E+03  0.28582349903E+02 -0.21206027208E+03  0.62861544042E+03  0.25500000920E-02 0.  1.
</event>
<event>
 5   0  0.2926844E-03  0.1147474E+04  0.7818609E-02  0.9160117E-01
        1   -1    0    0  501    0  0.00000000000E+00  0.00000000000E+00  0.14633617380E+04  0.14633617380E+04  0.50400001928E-02 0.  1.
       -1   -1    0    0    0  501  0.00000000000E+00  0.00000000000E+00 -0.22494375090E+03  0.22494375096E+03  0.50400001928E-02 0. -1.
    10030    2    1    2    0    0  0.00000000000E+00  0.00000000000E+00  0.12384179871E+04  0.16883054890E+04  0.11474738835E+04 0.  0.
        5    1    3    3  502    0 -0.12986224744E+03  0.65629274702E+02  0.14357347549E+04  0.14430965946E+04  0.46999998093E+01 0.  1.
       -5    1    3    3    0  502  0.12986224744E+03 -0.65629274702E+02 -0.19731676780E+03  0.24520889434E+03  0.46999998093E+01 0. -1.
</event>
<event>
 5   0  0.5031575E-03  0.1201008E+04  0.7818609E-02  0.9111975E-01
        2   -1    0    0  501    0  0.00000000000E+00  0.00000000000E+00  0.86085402291E+03  0.86085402291E+03  0.25500000920E-02 0. -1.
       -2   -1    0    0    0  501  0.00000000000E+00  0.00000000000E+00 -0.41889227310E+03  0.41889227311E+03  0.25500000920E-02 0.  1.
    10030    2    1    2    0    0  0.00000000000E+00  0.00000000000E+00  0.44196174981E+03  0.12797462960E+04  0.12010080740E+04 0.  0.
        5    1    3    3  502    0 -0.56187946388E+03  0.16173413052E+03  0.36675848479E+03  0.69021760125E+03  0.46999998093E+01 0.  1.
       -5    1    3    3    0  502  0.56187946388E+03 -0.16173413052E+03  0.75203265013E+02  0.58952869478E+03  0.46999998093E+01 0. -1.
</event>
<event>
 5   0  0.2792518E-03  0.1224998E+04  0.7818609E-02  0.9091253E-01
        1   -1    0    0  501    0  0.00000000000E+00  0.00000000000E+00  0.16994639794E+04  0.16994639794E+04  0.50400001928E-02 0. -1.
       -1   -1    0    0    0  501  0.00000000000E+00  0.00000000000E+00 -0.22074918880E+03  0.22074918885E+03  0.50400001928E-02 0.  1.
    10030    2    1    2    0    0  0.00000000000E+00  0.00000000000E+00  0.14787147906E+04  0.19202131683E+04  0.12249984407E+04 0.  0.
        2    1    3    3  502    0  0.40027362803E+03 -0.31419991602E+03  0.12737303838E+04  0.13716157097E+04  0.25500000920E-02 0. -1.
       -2    1    3    3    0  502 -0.40027362803E+03  0.31419991602E+03  0.20498440687E+03  0.54859745861E+03  0.25500000920E-02 0.  1.
</event>
<event>
 5   0  0.2930868E-03  0.1195017E+04  0.7818609E-02  0.9117230E-01
        1   -1    0    0  501    0  0.00000000000E+00  0.00000000000E+00  0.42179767314E+03  0.42179767317E+03  0.50400001928E-02 0. -1.
       -1   -1    0    0    0  501  0.00000000000E+00  0.00000000000E+00 -0.84641572012E+03  0.84641572014E+03  0.50400001928E-02 0.  1.
    10030    2    1    2    0    0  0.00000000000E+00  0.00000000000E+00 -0.42461804698E+03  0.12682133933E+04  0.11950166213E+04 0.  0.
        3    1    3    3  502    0 -0.97275802759E+02 -0.39299625537E+03  0.25404743630E+03  0.47796312476E+03  0.10100000352E+00 0. -1.
       -3    1    3    3    0  502  0.97275802759E+02  0.39299625537E+03 -0.67866548328E+03  0.79025026855E+03  0.10100000352E+00 0.  1.
</event>
<event>
 5   0  0.2926844E-03  0.1193663E+04  0.7818609E-02  0.9118422E-01
        1   -1    0    0  501    0  0.00000000000E+00  0.00000000000E+00  0.28468512820E+03  0.28468512824E+03  0.50400001928E-02 0. -1.
       -1   -1    0    0    0  501  0.00000000000E+00  0.00000000000E+00 -0.12512335746E+04  0.12512335746E+04  0.50400001928E-02 0.  1.
    10030    2    1    2    0    0  0.00000000000E+00  0.00000000000E+00 -0.96654844636E+03  0.15359187028E+04  0.11936625832E+04 0.  0.
        5    1    3    3  502    0 -0.32152539607E+03  0.18564505807E+03  0.11797720148E+03  0.38959386285E+03  0.46999998093E+01 0.  1.
       -5    1    3    3    0  502  0.32152539607E+03 -0.18564505807E+03 -0.10845256478E+04  0.11463248400E+04  0.46999998093E+01 0. -1.
</event>
<event>
 5   0  0.5003526E-03  0.1209077E+04  0.7818609E-02  0.9104948E-01
       -2   -1    0    0    0  501  0.00000000000E+00  0.00000000000E+00  0.19217575988E+03  0.19217575989E+03  0.25500000920E-02 0. -1.
        2   -1    0    0  501    0  0.00000000000E+00  0.00000000000E+00 -0.19017323606E+04  0.19017323606E+04  0.25500000920E-02 0.  1.
    10030    2    1    2    0    0  0.00000000000E+00  0.00000000000E+00 -0.17095566008E+04  0.20939081205E+04  0.12090771051E+04 0.  0.
        2    1    3    3  502    0 -0.25562888850E+03 -0.31874672070E+03 -0.83151796961E+02  0.41696501285E+03  0.25500000920E-02 0. -1.
       -2    1    3    3    0  502  0.25562888850E+03  0.31874672070E+03 -0.16264048038E+04  0.16769431077E+04  0.25500000920E-02 0.  1.
</event>
<event>
 5   0  0.5108045E-03  0.1218522E+04  0.7818609E-02  0.9096797E-01
       -2   -1    0    0    0  501  0.00000000000E+00  0.00000000000E+00  0.28144816034E+03  0.28144816035E+03  0.25500000920E-02 0. -1.
        2   -1    0    0  501    0  0.00000000000E+00  0.00000000000E+00 -0.13188886205E+04  0.13188886205E+04  0.25500000920E-02 0.  1.
    10030    2    1    2    0    0  0.00000000000E+00  0.00000000000E+00 -0.10374404602E+04  0.16003367809E+04  0.12185216879E+04 0.  0.
        3    1    3    3  502    0 -0.34511048520E+03 -0.36888963338E+03 -0.96606331720E+03  0.10901647360E+04  0.10100000352E+00 0. -1.
       -3    1    3    3    0  502  0.34511048520E+03  0.36888963338E+03 -0.71377142973E+02  0.51017204486E+03  0.10100000352E+00 0.  1.
</event>
<event>
 5   0  0.2930868E-03  0.1189514E+04  0.7818609E-02  0.9122085E-01
       -1   -1    0    0    0  501  0.00000000000E+00  0.00000000000E+00  0.24411801050E+03  0.24411801056E+03  0.50400001928E-02 0.  1.
        1   -1    0    0  501    0  0.00000000000E+00  0.00000000000E+00 -0.14490366879E+04  0.14490366879E+04  0.50400001928E-02 0. -1.
    10030    2    1    2    0    0  0.00000000000E+00  0.00000000000E+00 -0.12049186774E+04  0.16931546984E+04  0.11895141083E+04 0.  0.
        3    1    3    3  502    0 -0.18176453360E+02  0.51822688663E+03 -0.10170732698E+04  0.11416337135E+04  0.10100000352E+00 0. -1.
       -3    1    3    3    0  502  0.18176453360E+02 -0.51822688663E+03 -0.18784540759E+03  0.55152098494E+03  0.10100000352E+00 0.  1.
</event>
<event>
 5   0  0.5467554E-03  0.1182971E+04  0.7818609E-02  0.9127894E-01
       -2   -1    0    0    0  501  0.00000000000E+00  0.00000000000E+00  0.51043931025E+03  0.51043931026E+03  0.25500000920E-02 0.  1.
        2   -1    0    0  501    0  0.00000000000E+00  0.00000000000E+00 -0.68539944291E+03  0.68539944292E+03  0.25500000920E-02 0. -1.
    10030    2    1    2    0    0  0.00000000000E+00  0.00000000000E+00 -0.17496013266E+03  0.11958387532E+04  0.11829705303E+04 0.  0.
        1    1    3    3  502    0  0.37047552962E+03  0.11244440434E+03 -0.53951201268E+03  0.66405502330E+03  0.50400001928E-02 0. -1.
       -1    1    3    3    0  502 -0.37047552962E+03 -0.11244440434E+03  0.36455188002E+03  0.53178372988E+03  0.50400001928E-02 0.  1.
</event>
<event>
 5   0  0.5467554E-03  0.1195537E+04  0.7818609E-02  0.9116772E-01
       -2   -1    0    0    0  501  0.00000000000E+00  0.00000000000E+00  0.32852881161E+03  0.32852881162E+03  0.25500000920E-02 0. -1.
        2   -1    0    0  501    0  0.00000000000E+00  0.00000000000E+00 -0.10876592518E+04  0.10876592518E+04  0.25500000920E-02 0.  1.
    10030    2    1    2    0    0  0.00000000000E+00  0.00000000000E+00 -0.75913044015E+03  0.14161880634E+04  0.11955373711E+04 0.  0.
        1    1    3    3  502    0  0.37822907208E+03 -0.43910066607E+02 -0.92541834803E+03  0.10006919825E+04  0.50400001928E-02 0.  1.
       -1    1    3    3    0  502 -0.37822907208E+03  0.43910066607E+02  0.16628790787E+03  0.41549608091E+03  0.50400001928E-02 0. -1.
</event>
<event>
 5   0  0.5031575E-03  0.1187747E+04  0.7818609E-02  0.9123649E-01
       -2   -1    0    0    0  501  0.00000000000E+00  0.00000000000E+00  0.19719746259E+03  0.19719746261E+03  0.25500000920E-02 0. -1.
        2   -1    0    0  501    0  0.00000000000E+00  0.00000000000E+00 -0.17884911484E+04  0.17884911485E+04  0.25500000920E-02 0.  1.
    10030    2    1    2    0    0  0.00000000000E+00  0.00000000000E+00 -0.15912936859E+04  0.19856886111E+04  0.11877473071E+04 0.  0.
        5    1    3    3  502    0  0.17287595890E+03 -0.13755444637E+03  0.12590836657E+03  0.25432720981E+03  0.46999998093E+01 0. -1.
       -5    1    3    3    0  502 -0.17287595890E+03  0.13755444637E+03 -0.17172020524E+04  0.17313614012E+04  0.46999998093E+01 0.  1.
</event>
<event>
 5   0  0.5108045E-03  0.1213374E+04  0.7818609E-02  0.9101230E-01
       -2   -1    0    0    0  501  0.00000000000E+00  0.00000000000E+00  0.34918854168E+03  0.34918854169E+03  0.25500000920E-02 0. -1.
        2   -1    0    0  501    0  0.00000000000E+00  0.00000000000E+00 -0.10540703960E+04  0.10540703960E+04  0.25500000920E-02 0.  1.
    10030    2    1    2    0    0  0.00000000000E+00  0.00000000000E+00 -0.70488185435E+03  0.14032589377E+04  0.12133743106E+04 0.  0.
        3    1    3    3  502    0 -0.24315637797E+03 -0.21115390913E+03 -0.94706090128E+03  0.10003176288E+04  0.10100000352E+00 0.  1.
       -3    1    3    3    0  502  0.24315637797E+03  0.21115390913E+03  0.24217904693E+03  0.40294130895E+03  0.10100000352E+00 0. -1.
</event>
<event>
 5   0  0.2875848E-03  0.1202575E+04  0.7818609E-02  0.9110606E-01
        1   -1    0    0  501    0  0.00000000000E+00  0.00000000000E+00  0.34196424346E+03  0.34196424350E+03  0.50400001928E-02 0. -1.
       -1   -1    0    0    0  501  0.00000000000E+00  0.00000000000E+00 -0.10572636732E+04  0.10572636732E+04  0.50400001928E-02 0.  1.
    10030    2    1    2    0    0  0.00000000000E+00  0.00000000000E+00 -0.71529942974E+03  0.13992279167E+04  0.12025745252E+04 0.  0.
        1    1    3    3  502    0 -0.38707238392E+03 -0.45100347110E+03 -0.25153751546E+03  0.64536833130E+03  0.50400001928E-02 0. -1.
       -1    1    3    3    0  502  0.38707238392E+03  0.45100347110E+03 -0.46376191428E+03  0.75385958540E+03  0.50400001928E-02 0.  1.
</event>
<event>
 5   0  0.2875848E-03  0.1225966E+04  0.7818609E-02  0.9090427E-01
       -1   -1    0    0    0  501  0.00000000000E+00  0.00000000000E+00  0.29093385810E+03  0.29093385814E+03  0.50400001928E-02 0. -1.
        1   -1    0    0  501    0  0.00000000000E+00  0.00000000000E+00 -0.12915241952E+04  0.12915241952E+04  0.50400001928E-02 0.  1.
    10030    2    1    2    0    0  0.00000000000E+00  0.00000000000E+00 -0.10005903371E+04  0.15824580533E+04  0.12259659326E+04 0.  0.
        1    1    3    3  502    0  0.42482415034E+03  0.20066606325E+03  0.78965975206E+01  0.46989869539E+03  0.50400001928E-02 0. -1.
       -1    1    3    3    0  502 -0.42482415034E+03 -0.20066606325E+03 -0.10084869346E+04  0.11125593580E+04  0.50400001928E-02 0.  1.
</event>
<event>
 5   0  0.2875848E-03  0.1188275E+04  0.7818609E-02  0.9123182E-01
       -1   -1    0    0    0  501  0.00000000000E+00  0.00000000000E+00  0.78314787444E+03  0.78314787445E+03  0.50400001928E-02 0.  1.
        1   -1    0    0  501    0  0.00000000000E+00  0.00000000000E+00 -0.45074396877E+03  0.45074396880E+03  0.50400001928E-02 0. -1.
    10030    2    1    2    0    0  0.00000000000E+00  0.00000000000E+00  0.33240390567E+03  0.12338918433E+04  0.11882746839E+04 0.  0.
        1    1    3    3  502    0 -0.42194520302E+03 -0.18818217765E+03  0.55410523046E+03  0.72144500330E+03  0.50400001928E-02 0.  1.
       -1    1    3    3    0  502  0.42194520302E+03  0.18818217765E+03 -0.22170132479E+03  0.51244683995E+03  0.50400001928E-02 0. -1.
</event>
<event>
 5   0  0.5031575E-03  0.1195787E+04  0.7818609E-02  0.9116552E-01
        2   -1    0    0  501    0  0.00000000000E+00  0.00000000000E+00  0.80203997555E+03  0.80203997555E+03  0.25500000920E-02 0.  1.
       -2   -1    0    0    0  501  0.00000000000E+00  0.00000000000E+00 -0.44570927404E+03  0.44570927405E+03  0.25500000920E-02 0. -1.
    10030    2    1    2    0    0  0.00000000000E+00  0.00000000000E+00  0.35633070150E+03  0.12477492496E+04  0.11957870300E+04 0.  0.
        5    1    3    3  502    0  0.51620947253E+03  0.29588350529E+03  0.11700701965E+03  0.60640910356E+03  0.46999998093E+01 0.  1.
       -5    1    3    3    0  502 -0.51620947253E+03 -0.29588350529E+03  0.23932368185E+03  0.64134014604E+03  0.46999998093E+01 0. -1.
</event>
<event>
 5   0  0.5467554E-03  0.1187965E+04  0.7818609E-02  0.9123456E-01
        2   -1    0    0  501    0  0.00000000000E+00  0.00000000000E+00  0.12508474682E+04  0.12508474682E+04  0.25500000920E-02 0. -1.
       -2   -1    0    0    0  501  0.00000000000E+00  0.00000000000E+00 -0.28206107505E+03  0.28206107506E+03  0.25500000920E-02 0.  1.
    10030    2    1    2    0    0  0.00000000000E+00  0.00000000000E+00  0.96878639314E+03  0.15329085433E+04  0.11879652884E+04 0.  0.
        1    1    3    3  502    0  0.34577719015E+03 -0.39460334108E+03  0.12507417578E+03  0.53936741790E+03  0.50400001928E-02 0.  1.
       -1    1    3    3    0  502 -0.34577719015E+03  0.39460334108E+03  0.84371221736E+03  0.99354112535E+03  0.50400001928E-02 0. -1.
</event>
<event>
 5   0  0.2926844E-03  0.1040744E+04  0.7818609E-02  0.9264953E-01
       -1   -1    0    0    0  501  0.00000000000E+00  0.00000000000E+00  0.27650207752E+03  0.27650207756E+03  0.50400001928E-02 0.  1.
        1   -1    0    0  501    0  0.00000000000E+00  0.00000000000E+00 -0.97933053564E+03  0.97933053565E+03  0.50400001928E-02 0. -1.
    10030    2    1    2    0    0  0.00000000000E+00  0.00000000000E+00 -0.70282845813E+03  0.12558326132E+04  0.10407438258E+04 0.  0.
        5    1    3    3  502    0 -0.47789453225E+03 -0.95216969026E+02 -0.13116706935E+03  0.50465467919E+03  0.46999998093E+01 0.  1.
       -5    1    3    3    0  502  0.47789453225E+03  0.95216969026E+02 -0.57166138878E+03  0.75117793403E+03  0.46999998093E+01 0. -1.
</event>
<event>
 5   0  0.2926844E-03  0.1204285E+04  0.7818609E-02  0.9109114E-01
       -1   -1    0    0    0  501  0.00000000000E+00  0.00000000000E+00  0.32814396649E+03  0.32814396653E+03  0.50400001928E-02 0.  1.
        1   -1    0    0  501    0  0.00000000000E+00  0.00000000000E+00 -0.11049281788E+04  0.11049281788E+04  0.50400001928E-02 0. -1.
    10030    2    1    2    0    0  0.00000000000E+00  0.00000000000E+00 -0.77678421232E+03  0.14330721454E+04  0.12042848755E+04 0.  0.
        5    1    3    3  502    0  0.21722477324E+03  0.18912235931E+03  0.24083447626E+03  0.37546931147E+03  0.46999998093E+01 0.  1.
       -5    1    3    3    0  502 -0.21722477324E+03 -0.18912235931E+03 -0.10176186886E+04  0.10576028339E+04  0.46999998093E+01 0. -1.
</event>
<event>
 5   0  0.5467554E-03  0.1193322E+04  0.7818609E-02  0.9118722E-01
        2   -1    0    0  501    0  0.00000000000E+00  0.00000000000E+00  0.87669545603E+03  0.87669545604E+03  0.25500000920E-02 0. -1.
       -2   -1    0    0    0  501  0.00000000000E+00  0.00000000000E+00 -0.40607552175E+03  0.40607552176E+03  0.25500000920E-02 0.  1.
    10030    2    1    2    0    0  0.00000000000E+00  0.00000000000E+00  0.47061993428E+03  0.12827709778E+04  0.11933223617E+04 0.  0.
        1    1    3    3  502    0 -0.56357886470E+03  0.19492303079E+03  0.21412375386E+03  0.63361274187E+03  0.50400001928E-02 0.  1.
       -1    1    3    3    0  502  0.56357886470E+03 -0.19492303079E+03  0.25649618042E+03  0.64915823592E+03  0.50400001928E-02 0. -1.
</event>
<event>
 5   0  0.2930868E-03  0.1197825E+04  0.7818609E-02  0.9114763E-01
       -1   -1    0    0    0  501  0.00000000000E+00  0.00000000000E+00  0.46348671428E+03  0.46348671431E+03  0.50400001928E-02 0. -1.
        1   -1    0    0  501    0  0.00000000000E+00  0.00000000000E+00 -0.77390810536E+03  0.77390810538E+03  0.50400001928E-02 0.  1.
    10030    2    1    2    0    0  0.00000000000E+00  0.00000000000E+00 -0.31042139108E+03  0.12373948197E+04  0.11978249036E+04 0.  0.
        3    1    3    3  502    0  0.51060414245E+03 -0.28526975507E+03 -0.28831069142E+03  0.65208779197E+03  0.10100000352E+00 0. -1.
       -3    1    3    3    0  502 -0.51060414245E+03  0.28526975507E+03 -0.22110699658E+02  0.58530702771E+03  0.10100000352E+00 0.  1.
</event>
<event>
 5   0  0.2792518E-03  0.1192168E+04  0.7818609E-02  0.9119739E-01
       -1   -1    0    0    0  501  0.00000000000E+00  0.00000000000E+00  0.48096907037E+03  0.48096907040E+03  0.50400001928E-02 0. -1.
        1   -1    0    0  501    0  0.00000000000E+00  0.00000000000E+00 -0.73875083973E+03  0.73875083975E+03  0.50400001928E-02 0.  1.
    10030    2    1    2    0    0  0.00000000000E+00  0.00000000000E+00 -0.25778176936E+03  0.12197199101E+04  0.11921682845E+04 0.  0.
        2    1    3    3  502    0 -0.19229928399E+03 -0.81385797107E+01  0.44830220099E+03  0.48787305165E+03  0.25500000920E-02 0. -1.
       -2    1    3    3    0  502  0.19229928399E+03  0.81385797107E+01 -0.70608397035E+03  0.73184685850E+03  0.25500000920E-02 0.  1.
</event>
<event>
 5   0  0.2938349E-03  0.1174677E+04  0.7818609E-02  0.9135315E-01
        1   -1    0    0  501    0  0.00000000000E+00  0.00000000000E+00  0.18141119455E+04  0.18141119455E+04  0.50400001928E-02 0.  1.
       -1   -1    0    0    0  501  0.00000000000E+00  0.00000000000E+00 -0.19015717411E+03  0.19015717418E+03  0.50400001928E-02 0. -1.
    10030    2    1    2    0    0  0.00000000000E+00  0.00000000000E+00  0.16239547714E+04  0.20042691197E+04  0.11746768086E+04 0.  0.
        4    1    3    3  502    0 -0.13184323754E+03 -0.57330938515E+02 -0.15966841081E+03  0.21486062949E+03  0.12699999809E+01 0. -1.
       -4    1    3    3    0  502  0.13184323754E+03  0.57330938515E+02  0.17836231822E+04  0.17894084902E+04  0.12699999809E+01 0.  1.
</event>
<event>
 5   0  0.2938349E-03  0.1219466E+04  0.7818609E-02  0.9095987E-01
       -1   -1    0    0    0  501  0.00000000000E+00  0.00000000000E+00  0.48057274964E+03  0.48057274967E+03  0.50400001928E-02 0. -1.
        1   -1    0    0  501    0  0.00000000000E+00  0.00000000000E+00 -0.77360679448E+03  0.77360679450E+03  0.50400001928E-02 0.  1.
    10030    2    1    2    0    0  0.00000000000E+00  0.00000000000E+00 -0.29303404484E+03  0.12541795442E+04  0.12194660215E+04 0.  0.
        4    1    3    3  502    0  0.11774294797E+03 -0.35797582189E+02 -0.76069981491E+03  0.77059113023E+03  0.12699999809E+01 0.  1.
       -4    1    3    3    0  502 -0.11774294797E+03  0.35797582189E+02  0.46766577007E+03  0.48358841393E+03  0.12699999809E+01 0. -1.
</event>
<event>
 5   0  0.2875848E-03  0.1188434E+04  0.7818609E-02  0.9123041E-01
        1   -1    0    0  501    0  0.00000000000E+00  0.00000000000E+00  0.10699777186E+04  0.10699777186E+04  0.50400001928E-02 0. -1.
       -1   -1    0    0    0  501  0.00000000000E+00  0.00000000000E+00 -0.33000104707E+03  0.33000104711E+03  0.50400001928E-02 0.  1.
    10030    2    1    2    0    0  0.00000000000E+00  0.00000000000E+00  0.73997667150E+03  0.13999787657E+04  0.11884338728E+04 0.  0.
        1    1    3    3  502    0  0.55803622266E+03  0.23752981366E+02  0.13109715954E+03  0.57372039809E+03  0.50400001928E-02 0.  1.
       -1    1    3    3    0  502 -0.55803622266E+03 -0.23752981366E+02  0.60887951196E+03  0.82625836760E+03  0.50400001928E-02 0. -1.
</event>
<event>
 5   0  0.2930868E-03  0.1078611E+04  0.7818609E-02  0.9226294E-01
        1   -1    0    0  501    0  0.00000000000E+00  0.00000000000E+00  0.99782014954E+03  0.99782014955E+03  0.50400001928E-02 0.  1.
       -1   -1    0    0    0  501  0.00000000000E+00  0.00000000000E+00 -0.29148556538E+03  0.29148556542E+03  0.50400001928E-02 0. -1.
    10030    2    1    2    0    0  0.00000000000E+00  0.00000000000E+00  0.70633458416E+03  0.12893057150E+04  0.10786105330E+04 0.  0.
        3    1    3    3  502    0 -0.32929212166E+03  0.32492697286E+02 -0.15588606000E+03  0.36577253952E+03  0.10100000352E+00 0.  1.
       -3    1    3    3    0  502  0.32929212166E+03 -0.32492697286E+02  0.86222064415E+03  0.92353317545E+03  0.10100000352E+00 0. -1.
</event>
<event>
 5   0  0.2938349E-03  0.1191932E+04  0.7818609E-02  0.9119948E-01
        1   -1    0    0  501    0  0.00000000000E+00  0.00000000000E+00  0.10263479131E+04  0.10263479131E+04  0.50400001928E-02 0. -1.
       -1   -1    0    0    0  501  0.00000000000E+00  0.00000000000E+00 -0.34605729171E+03  0.34605729175E+03  0.50400001928E-02 0.  1.
    10030    2    1    2    0    0  0.00000000000E+00  0.00000000000E+00  0.68029062142E+03  0.13724052049E+04  0.11919315068E+04 0.  0.
        4    1    3    3  502    0  0.44778514430E+03  0.25908322821E+03 -0.52096890685E+00  0.51733696842E+03  0.12699999809E+01 0. -1.
       -4    1    3    3    0  502 -0.44778514430E+03 -0.25908322821E+03  0.68081159033E+03  0.85506823647E+03  0.12699999809E+01 0.  1.
</event>
<event>
 5   0  0.5031575E-03  0.1237077E+04  0.7818609E-02  0.9081008E-01
        2   -1    0    0  501    0  0.00000000000E+00  0.00000000000E+00  0.14795157808E+04  0.14795157808E+04  0.25500000920E-02 0.  1.
       -2   -1    0    0    0  501  0.00000000000E+00  0.00000000000E+00 -0.25859126841E+03  0.25859126842E+03  0.25500000920E-02 0. -1.
    10030    2    1    2    0    0  0.00000000000E+00  0.00000000000E+00  0.12209245124E+04  0.17381070492E+04  0.12370769780E+04 0.  0.
        5    1    3    3  502    0  0.43557788073E+03  0.90942186638E+02  0.12140764064E+04  0.12930592338E+04  0.46999998093E+01 0.  1.
       -5    1    3    3    0  502 -0.43557788073E+03 -0.90942186638E+02  0.68481060148E+01  0.44504781546E+03  0.46999998093E+01 0. -1.
</event>
<event>
 5   0  0.2792518E-03  0.1208192E+04  0.7818609E-02  0.9105716E-01
        1   -1    0    0  501    0  0.00000000000E+00  0.00000000000E+00  0.16150337052E+04  0.16150337052E+04  0.50400001928E-02 0. -1.
       -1   -1    0    0    0  501  0.00000000000E+00  0.00000000000E+00 -0.22595939344E+03  0.22595939350E+03  0.50400001928E-02 0.  1.
    10030    2    1    2    0    0  0.00000000000E+00  0.00000000000E+00  0.13890743117E+04  0.18409930987E+04  0.12081920981E+04 0.  0.
        2    1    3    3  502    0 -0.20764052817E+03  0.41099909834E+02  0.15566778926E+04  0.15710028176E+04  0.25500000920E-02 0. -1.
       -2    1    3    3    0  502  0.20764052817E+03 -0.41099909834E+02 -0.16760358091E+03  0.26999028106E+03  0.25500000920E-02 0.  1.
</event>
<event>
 5   0  0.2930868E-03  0.1198695E+04  0.7818609E-02  0.9114000E-01
        1   -1    0    0  501    0  0.00000000000E+00  0.00000000000E+00  0.99057637988E+03  0.99057637989E+03  0.50400001928E-02 0. -1.
       -1   -1    0    0    0  501  0.00000000000E+00  0.00000000000E+00 -0.36263471666E+03  0.36263471670E+03  0.50400001928E-02 0.  1.
    10030    2    1    2    0    0  0.00000000000E+00  0.00000000000E+00  0.62794166322E+03  0.13532110966E+04  0.11986949318E+04 0.  0.
        3    1    3    3  502    0 -0.10795575788E+03  0.56871011429E+02 -0.34846442770E+03  0.36921027231E+03  0.10100000352E+00 0.  1.
       -3    1    3    3    0  502  0.10795575788E+03 -0.56871011429E+02  0.97640609092E+03  0.98400082428E+03  0.10100000352E+00 0. -1.
</event>
<event>
 5   0  0.2792518E-03  0.1216951E+04  0.7818609E-02  0.9098148E-01
       -1   -1    0    0    0  501  0.00000000000E+00  0.00000000000E+00  0.52394255704E+03  0.52394255706E+03  0.50400001928E-02 0. -1.
        1   -1    0    0  501    0  0.00000000000E+00  0.00000000000E+00 -0.70664677622E+03  0.70664677624E+03  0.50400001928E-02 0.  1.
    10030    2    1    2    0    0  0.00000000000E+00  0.00000000000E+00 -0.18270421918E+03  0.12305893333E+04  0.12169508106E+04 0.  0.
        2    1    3    3  502    0 -0.15103156647E+03 -0.55170341568E+03  0.11847063034E+03  0.58414251960E+03  0.25500000920E-02 0. -1.
       -2    1    3    3    0  502  0.15103156647E+03  0.55170341568E+03 -0.30117484952E+03  0.64644681370E+03  0.25500000920E-02 0.  1.
</event>
<event>
 5   0  0.5467554E-03  0.1206443E+04  0.7818609E-02  0.9107235E-01
        2   -1    0    0  501    0  0.00000000000E+00  0.00000000000E+00  0.15408890880E+04  0.15408890880E+04  0.25500000920E-02 0. -1.
       -2   -1    0    0    0  501  0.00000000000E+00  0.00000000000E+00 -0.23614695458E+03  0.23614695460E+03  0.25500000920E-02 0.  1.
    10030    2    1    2    0    0  0.00000000000E+00  0.00000000000E+00  0.13047421335E+04  0.17770360426E+04  0.12064431450E+04 0.  0.
        1    1    3    3  502    0 -0.59070778514E+03 -0.12174287205E+03  0.66845605198E+03  0.90032800011E+03  0.50400001928E-02 0.  1.
       -1    1    3    3    0  502  0.59070778514E+03  0.12174287205E+03  0.63628608147E+03  0.87670804252E+03  0.50400001928E-02 0. -1.
</event>
<event>
 5   0  0.2875848E-03  0.1193091E+04  0.7818609E-02  0.9118925E-01
       -1   -1    0    0    0  501  0.00000000000E+00  0.00000000000E+00  0.22069565602E+03  0.22069565608E+03  0.50400001928E-02 0.  1.
        1   -1    0    0  501    0  0.00000000000E+00  0.00000000000E+00 -0.16124769509E+04  0.16124769509E+04  0.50400001928E-02 0. -1.
    10030    2    1    2    0    0  0.00000000000E+00  0.00000000000E+00 -0.13917812949E+04  0.18331726070E+04  0.11930912095E+04 0.  0.
        1    1    3    3  502    0  0.36124846018E+03 -0.65358940679E+01 -0.14252355438E+04  0.14703195310E+04  0.50400001928E-02 0. -1.
       -1    1    3    3    0  502 -0.36124846018E+03  0.65358940679E+01  0.33454248997E+02  0.36285307591E+03  0.50400001928E-02 0.  1.
</event>
<event>
 5   0  0.5003526E-03  0.1416185E+04  0.7818609E-02  0.8942185E-01
        2   -1    0    0  501    0  0.00000000000E+00  0.00000000000E+00  0.60489223423E+03  0.60489223423E+03  0.25500000920E-02 0. -1.
       -2   -1    0    0    0  501  0.00000000000E+00  0.00000000000E+00 -0.82890001368E+03  0.82890001368E+03  0.25500000920E-02 0.  1.
    10030    2    1    2    0    0  0.00000000000E+00  0.00000000000E+00 -0.22400777945E+03  0.14337922479E+04  0.14161852721E+04 0.  0.
        2    1    3    3  502    0 -0.78517043159E+02  0.56032990193E+03 -0.54304424134E+03  0.78423948710E+03  0.25500000920E-02 0.  1.
       -2    1    3    3    0  502  0.78517043159E+02 -0.56032990193E+03  0.31903646189E+03  0.64955276082E+03  0.25500000920E-02 0. -1.
</event>
<event>
 5   0  0.1922125E-03  0.1200115E+04  0.7818609E-02  0.9112756E-01
        3   -1    0    0  501    0  0.00000000000E+00  0.00000000000E+00  0.70454915175E+03  0.70454915899E+03  0.10100000352E+00 0.  1.
       -3   -1    0    0    0  501  0.00000000000E+00  0.00000000000E+00 -0.51106262267E+03  0.51106263265E+03  0.10100000352E+00 0. -1.
    10030    2    1    2    0    0  0.00000000000E+00  0.00000000000E+00  0.19348652908E+03  0.12156117916E+04  0.12001145741E+04 0.  0.
        4    1    3    3  502    0  0.30576161648E+03 -0.36365298021E+03 -0.27450490846E+03  0.54871505702E+03  0.12699999809E+01 0. -1.
       -4    1    3    3    0  502 -0.30576161648E+03  0.36365298021E+03  0.46799143754E+03  0.66689673462E+03  0.12699999809E+01 0.  1.
</event>
<event>
 5   0  0.2875848E-03  0.1209214E+04  0.7818609E-02  0.9104830E-01
       -1   -1    0    0    0  501  0.00000000000E+00  0.00000000000E+00  0.18083222162E+03  0.18083222169E+03  0.50400001928E-02 0. -1.
        1   -1    0    0  501    0  0.00000000000E+00  0.00000000000E+00 -0.20214845115E+04  0.20214845115E+04  0.50400001928E-02 0.  1.
    10030    2    1    2    0    0  0.00000000000E+00  0.00000000000E+00 -0.18406522899E+04  0.22023167332E+04  0.12092138525E+04 0.  0.
        1    1    3    3  502    0 -0.32506897217E+03  0.24651720706E+03 -0.10764146571E+03  0.42193276149E+03  0.50400001928E-02 0. -1.
       -1    1    3    3    0  502  0.32506897217E+03 -0.24651720706E+03 -0.17330108242E+04  0.17803839717E+04  0.50400001928E-02 0.  1.
</event>
<event>
 5   0  0.2930868E-03  0.1202356E+04  0.7818609E-02  0.9110797E-01
        1   -1    0    0  501    0  0.00000000000E+00  0.00000000000E+00  0.55412572460E+03  0.55412572462E+03  0.50400001928E-02 0.  1.
       -1   -1    0    0    0  501  0.00000000000E+00  0.00000000000E+00 -0.65222579555E+03  0.65222579557E+03  0.50400001928E-02 0. -1.
    10030    2    1    2    0    0  0.00000000000E+00  0.00000000000E+00 -0.98100070956E+02  0.12063515202E+04  0.12023561728E+04 0.  0.
        3    1    3    3  502    0 -0.23136378908E+03 -0.39754121166E+03  0.33933685909E+03  0.57159227777E+03  0.10100000352E+00 0.  1.
       -3    1    3    3    0  502  0.23136378908E+03  0.39754121166E+03 -0.43743693005E+03  0.63475924242E+03  0.10100000352E+00 0. -1.
</event>
<event>
 5   0  0.5031575E-03  0.1210268E+04  0.7818609E-02  0.9103916E-01
        2   -1    0    0  501    0  0.00000000000E+00  0.00000000000E+00  0.42653159053E+03  0.42653159054E+03  0.25500000920E-02 0.  1.
       -2   -1    0    0    0  501  0.00000000000E+00  0.00000000000E+00 -0.85852253694E+03  0.85852253694E+03  0.25500000920E-02 0. -1.
    10030    2    1    2    0    0  0.00000000000E+00  0.00000000000E+00 -0.43199094641E+03  0.12850541275E+04  0.12102677112E+04 0.  0.
        5    1    3    3  502    0  0.20758302946E+02  0.42681900430E+02  0.42453280287E+03  0.42720351412E+03  0.46999998093E+01 0.  1.
       -5    1    3    3    0  502 -0.20758302946E+02 -0.42681900430E+02 -0.85652374928E+03  0.85785061336E+03  0.46999998093E+01 0. -1.
</event>
<event>
 5   0  0.5189537E-03  0.1194123E+04  0.7818609E-02  0.9118016E-01
       -2   -1    0    0    0  501  0.00000000000E+00  0.00000000000E+00  0.29978081914E+03  0.29978081915E+03  0.25500000920E-02 0.  1.
        2   -1    0    0  501    0  0.00000000000E+00  0.00000000000E+00 -0.11891442400E+04  0.11891442400E+04  0.25500000920E-02 0. -1.
    10030    2    1    2    0    0  0.00000000000E+00  0.00000000000E+00 -0.88936342089E+03  0.14889250592E+04  0.11941233343E+04 0.  0.
        4    1    3    3  502    0 -0.27706105517E+03  0.51390100955E+03 -0.28882733010E+03  0.65136772673E+03  0.12699999809E+01 0.  1.
       -4    1    3    3    0  502  0.27706105517E+03 -0.51390100955E+03 -0.60053609079E+03  0.83755733246E+03  0.12699999809E+01 0. -1.
</event>
<event>
 5   0  0.2875848E-03  0.1200810E+04  0.7818609E-02  0.9112148E-01
        1   -1    0    0  501    0  0.00000000000E+00  0.00000000000E+00  0.31926009467E+03  0.31926009471E+03  0.50400001928E-02 0.  1.
       -1   -1    0    0    0  501  0.00000000000E+00  0.00000000000E+00 -0.11291303718E+04  0.11291303718E+04  0.50400001928E-02 0. -1.
    10030    2    1    2    0    0  0.00000000000E+00  0.00000000000E+00 -0.80987027716E+03  0.14483904665E+04  0.12008101756E+04 0.  0.
        1    1    3    3  502    0  0.30922625052E+03  0.26874702665E+03 -0.93433645739E+03  0.10202109850E+04  0.50400001928E-02 0. -1.
       -1    1    3    3    0  502 -0.30922625052E+03 -0.26874702665E+03  0.12446618023E+03  0.42817948152E+03  0.50400001928E-02 0.  1.
</event>
<event>
 5   0  0.2926844E-03  0.1212025E+04  0.7818609E-02  0.9102396E-01
        1   -1    0    0  501    0  0.00000000000E+00  0.00000000000E+00  0.10088492064E+04  0.10088492064E+04  0.50400001928E-02 0. -1.
       -1   -1    0    0    0  501  0.00000000000E+00  0.00000000000E+00 -0.36402982017E+03  0.36402982020E+03  0.50400001928E-02 0.  1.
    10030    2    1    2    0    0  0.00000000000E+00  0.00000000000E+00  0.64481938624E+03  0.13728790266E+04  0.12120250744E+04 0.  0.
        5    1    3    3  502    0 -0.55517030782E+03  0.13472068291E+03  0.93429248236E+02  0.57889104978E+03  0.46999998093E+01 0. -1.
       -5    1    3    3    0  502  0.55517030782E+03 -0.13472068291E+03  0.55139013800E+03  0.79398797685E+03  0.46999998093E+01 0.  1.
</event>
<event>
 5   0  0.5108045E-03  0.1205575E+04  0.7818609E-02  0.9107991E-01
       -2   -1    0    0    0  501  0.00000000000E+00  0.00000000000E+00  0.82793055011E+03  0.82793055012E+03  0.25500000920E-02 0.  1.
        2   -1    0    0  501    0  0.00000000000E+00  0.00000000000E+00 -0.43886864163E+03  0.43886864163E+03  0.25500000920E-02 0. -1.
    10030    2    1    2    0    0  0.00000000000E+00  0.00000000000E+00  0.38906190849E+03  0.12667991918E+04  0.12055749763E+04 0.  0.
        3    1    3    3  502    0  0.21058014988E+03  0.69820091332E+02 -0.39440891620E+03  0.45252320168E+03  0.10100000352E+00 0. -1.
       -3    1    3    3    0  502 -0.21058014988E+03 -0.69820091332E+02  0.78347082469E+03  0.81427599008E+03  0.10100000352E+00 0.  1.
</event>
<event>
 5   0  0.2938349E-03  0.1010437E+04  0.7818609E-02  0.9297172E-01
       -1   -1    0    0    0  501  0.00000000000E+00  0.00000000000E+00  0.14082729487E+03  0.14082729496E+03  0.50400001928E-02 0. -1.
        1   -1    0    0  501    0  0.00000000000E+00  0.00000000000E+00 -0.18124723108E+04  0.18124723108E+04  0.50400001928E-02 0.  1.
    10030    2    1    2    0    0  0.00000000000E+00  0.00000000000E+00 -0.16716450159E+04  0.19532996057E+04  0.10104366831E+04 0.  0.
        4    1    3    3  502    0 -0.71243192242E+02 -0.37331314069E+03 -0.19233407794E+03  0.42594871039E+03  0.12699999809E+01 0. -1.
       -4    1    3    3    0  502  0.71243192242E+02  0.37331314069E+03 -0.14793109379E+04  0.15273508953E+04  0.12699999809E+01 0.  1.
</event>
<event>
 5   0  0.5108045E-03  0.1199646E+04  0.7818609E-02  0.9113167E-01
        2   -1    0    0  501    0  0.00000000000E+00  0.00000000000E+00  0.73726600815E+03  0.73726600815E+03  0.25500000920E-02 0. -1.
       -2   -1    0    0    0  501  0.00000000000E+00  0.00000000000E+00 -0.48800206852E+03  0.48800206853E+03  0.25500000920E-02 0.  1.
    10030    2    1    2    0    0  0.00000000000E+00  0.00000000000E+00  0.24926393963E+03  0.12252680767E+04  0.11996455094E+04 0.  0.
        3    1    3    3  502    0 -0.19643840786E+03 -0.16007634610E+03 -0.43064788649E+03  0.49966998809E+03  0.10100000352E+00 0.  1.
       -3    1    3    3    0  502  0.19643840786E+03  0.16007634610E+03  0.67991182612E+03  0.72559808858E+03  0.10100000352E+00 0. -1.
</event>
<event>
 5   0  0.1922125E-03  0.1190995E+04  0.7818609E-02  0.9120775E-01
       -3   -1    0    0    0  501  0.00000000000E+00  0.00000000000E+00  0.95516068314E+03  0.95516068848E+03  0.10100000352E+00 0.  1.
        3   -1    0    0  501    0  0.00000000000E+00  0.00000000000E+00 -0.37126437942E+03  0.37126439316E+03  0.10100000352E+00 0. -1.
    10030    2    1    2    0    0  0.00000000000E+00  0.00000000000E+00  0.58389630372E+03  0.13264250816E+04  0.11909947958E+04 0.  0.
        2    1    3    3  502    0  0.38194310771E+03 -0.33759499171E+03 -0.50898312353E+02  0.51229049783E+03  0.25500000920E-02 0. -1.
       -2    1    3    3    0  502 -0.38194310771E+03  0.33759499171E+03  0.63479461607E+03  0.81413458381E+03  0.25500000920E-02 0.  1.
</event>
<event>
 5   0  0.2792518E-03  0.1192020E+04  0.7818609E-02  0.9119871E-01
        1   -1    0    0  501    0  0.00000000000E+00  0.00000000000E+00  0.10174424435E+04  0.10174424435E+04  0.50400001928E-02 0. -1.
       -1   -1    0    0    0  501  0.00000000000E+00  0.00000000000E+00 -0.34913781590E+03  0.34913781593E+03  0.50400001928E-02 0.  1.
    10030    2    1    2    0    0  0.00000000000E+00  0.00000000000E+00  0.66830462762E+03  0.13665802595E+04  0.11920195176E+04 0.  0.
        2    1    3    3  502    0  0.25923119830E+03 -0.10706287271E+03  0.93705869835E+03  0.97813203456E+03  0.25500000920E-02 0. -1.
       -2    1    3    3    0  502 -0.25923119830E+03  0.10706287271E+03 -0.26875407073E+03  0.38844822490E+03  0.25500000920E-02 0.  1.
</event>
<event>
 5   0  0.5031575E-03  0.1201327E+04  0.7818609E-02  0.9111695E-01
       -2   -1    0    0    0  501  0.00000000000E+00  0.00000000000E+00  0.30468059451E+03  0.30468059452E+03  0.25500000920E-02 0. -1.
        2   -1    0    0  501    0  0.00000000000E+00  0.00000000000E+00 -0.11841806255E+04  0.11841806255E+04  0.25500000920E-02 0.  1.
    10030    2    1    2    0    0  0.00000000000E+00  0.00000000000E+00 -0.87950003103E+03  0.14888612201E+04  0.12013273609E+04 0.  0.
        5    1    3    3  502    0 -0.32060549035E+02 -0.39819455407E+03 -0.99564642693E+03  0.10728097125E+04  0.46999998093E+01 0.  1.
       -5    1    3    3    0  502  0.32060549035E+02  0.39819455407E+03  0.11614639591E+03  0.41605150760E+03  0.46999998093E+01 0. -1.
</event>
<event>
 5   0  0.2875848E-03  0.1207893E+04  0.7818609E-02  0.9105976E-01
        1   -1    0    0  501    0  0.00000000000E+00  0.00000000000E+00  0.71976394382E+03  0.71976394384E+03  0.50400001928E-02 0. -1.
       -1   -1    0    0    0  501  0.00000000000E+00  0.00000000000E+00 -0.50676543511E+03  0.50676543513E+03  0.50400001928E-02 0.  1.
    10030    2    1    2    0    0  0.00000000000E+00  0.00000000000E+00  0.21299850871E+03  0.12265293790E+04  0.12078931876E+04 0.  0.
        1    1    3    3  502    0  0.38863423657E+03  0.29287234394E+03  0.46970591069E+03  0.67633898471E+03  0.50400001928E-02 0. -1.
       -1    1    3    3    0  502 -0.38863423657E+03 -0.29287234394E+03 -0.25670740197E+03  0.55019039426E+03  0.50400001928E-02 0.  1.
</event>
<event>
 5   0  0.2875848E-03  0.1198834E+04  0.7818609E-02  0.9113878E-01
        1   -1    0    0  501    0  0.00000000000E+00  0.00000000000E+00  0.12715788649E+04  0.12715788649E+04  0.50400001928E-02 0.  1.
       -1   -1    0    0    0  501  0.00000000000E+00  0.00000000000E+00 -0.28256260036E+03  0.28256260041E+03  0.50400001928E-02 0. -1.
    10030    2    1    2    0    0  0.00000000000E+00  0.00000000000E+00  0.98901626450E+03  0.15541414653E+04  0.11988338178E+04 0.  0.
        1    1    3    3  502    0 -0.33706478994E+03 -0.37724469558E+03  0.91131806365E+03  0.10423180158E+04  0.50400001928E-02 0.  1.
       -1    1    3    3    0  502  0.33706478994E+03  0.37724469558E+03  0.77698200848E+02  0.51182344944E+03  0.50400001928E-02 0. -1.
</event>
<event>
 5   0  0.5031575E-03  0.1215378E+04  0.7818609E-02  0.9099502E-01
       -2   -1    0    0    0  501  0.00000000000E+00  0.00000000000E+00  0.29188799873E+03  0.29188799874E+03  0.25500000920E-02 0.  1.
        2   -1    0    0  501    0  0.00000000000E+00  0.00000000000E+00 -0.12651624404E+04  0.12651624404E+04  0.25500000920E-02 0. -1.
    10030    2    1    2    0    0  0.00000000000E+00  0.00000000000E+00 -0.97327444163E+03  0.15570504391E+04  0.12153776908E+04 0.  0.
        5    1    3    3  502    0 -0.73270755161E+02  0.46567396030E+03 -0.97789937234E+03  0.10856012681E+04  0.46999998093E+01 0. -1.
       -5    1    3    3    0  502  0.73270755161E+02 -0.46567396030E+03  0.46249307104E+01  0.47144917101E+03  0.46999998093E+01 0.  1.
</event>
<event>
 5   0  0.2938349E-03  0.1178293E+04  0.7818609E-02  0.9132072E-01
       -1   -1    0    0    0  501  0.00000000000E+00  0.00000000000E+00  0.32843242695E+03  0.32843242699E+03  0.50400001928E-02 0.  1.
        1   -1    0    0  501    0  0.00000000000E+00  0.00000000000E+00 -0.10568187771E+04  0.10568187771E+04  0.50400001928E-02 0. -1.
    10030    2    1    2    0    0  0.00000000000E+00  0.00000000000E+00 -0.72838635013E+03  0.13852512041E+04  0.11782929277E+04 0.  0.
        4    1    3    3  502    0 -0.10986001278E+03 -0.55260062298E+03 -0.16173924052E+03  0.58617221509E+03  0.12699999809E+01 0.  1.
       -4    1    3    3    0  502  0.10986001278E+03  0.55260062298E+03 -0.56664710961E+03  0.79907898900E+03  0.12699999809E+01 0. -1.
</event>
<event>
 5   0  0.2875848E-03  0.1164903E+04  0.7818609E-02  0.9144144E-01
        1   -1    0    0  501    0  0.00000000000E+00  0.00000000000E+00  0.10958332316E+04  0.10958332316E+04  0.50400001928E-02 0. -1.
       -1   -1    0    0    0  501  0.00000000000E+00  0.00000000000E+00 -0.30958159865E+03  0.30958159869E+03  0.50400001928E-02 0.  1.
    10030    2    1    2    0    0  0.00000000000E+00  0.00000000000E+00  0.78625163294E+03  0.14054148303E+04  0.11649030925E+04 0.  0.
        1    1    3    3  502    0  0.27055043255E+03  0.32414739308E+02 -0.22794188209E+03  0.35525449119E+03  0.50400001928E-02 0.  1.
       -1    1    3    3    0  502 -0.27055043255E+03 -0.32414739308E+02  0.10141935150E+04  0.10501603391E+04  0.50400001928E-02 0. -1.
</event>
<event>
 5   0  0.5031575E-03  0.1158707E+04  0.7818609E-02  0.9149788E-01
       -2   -1    0    0    0  501  0.00000000000E+00  0.00000000000E+00  0.54195111076E+03  0.54195111077E+03  0.25500000920E-02 0. -1.
        2   -1    0    0  501    0  0.00000000000E+00  0.00000000000E+00 -0.61933728533E+03  0.61933728534E+03  0.25500000920E-02 0.  1.
    10030    2    1    2    0    0  0.00000000000E+00  0.00000000000E+00 -0.77386174572E+02  0.11612883961E+04  0.11587070894E+04 0.  0.
        5    1    3    3  502    0  0.16075618988E+03  0.16705114358E+02 -0.59626583449E+03  0.61779984526E+03  0.46999998093E+01 0.  1.
       -5    1    3    3    0  502 -0.16075618988E+03 -0.16705114358E+02  0.51887965991E+03  0.54348855085E+03  0.46999998093E+01 0. -1.
</event>
<event>
 5   0  0.2926844E-03  0.1199132E+04  0.7818609E-02  0.9113617E-01
        1   -1    0    0  501    0  0.00000000000E+00  0.00000000000E+00  0.13177758565E+04  0.13177758565E+04  0.50400001928E-02 0. -1.
       -1   -1    0    0    0  501  0.00000000000E+00  0.00000000000E+00 -0.27279234665E+03  0.27279234669E+03  0.50400001928E-02 0.  1.
    10030    2    1    2    0    0  0.00000000000E+00  0.00000000000E+00  0.10449835099E+04  0.15905682032E+04  0.11991316330E+04 0.  0.
        5    1    3    3  502    0  0.20208336048E+03 -0.54889446013E+03  0.34785399312E+03  0.68054926602E+03  0.46999998093E+01 0.  1.
       -5    1    3    3    0  502 -0.20208336048E+03  0.54889446013E+03  0.69712951675E+03  0.91001893720E+03  0.46999998093E+01 0. -1.
</event>
<event>
 5   0  0.5108045E-03  0.1189593E+04  0.7818609E-02  0.9122015E-01
        2   -1    0    0  501    0  0.00000000000E+00  0.00000000000E+00  0.43190638503E+03  0.43190638504E+03  0.25500000920E-02 0.  1.
       -2   -1    0    0    0  501  0.00000000000E+00  0.00000000000E+00 -0.81911979402E+03  0.81911979403E+03  0.25500000920E-02 0. -1.
    10030    2    1    2    0    0  0.00000000000E+00  0.00000000000E+00 -0.38721340899E+03  0.12510261791E+04  0.11895933240E+04 0.  0.
        3    1    3    3  502    0  0.90291842056E+01 -0.57106999610E+03 -0.18956268500E+02  0.57145587487E+03  0.10100000352E+00 0. -1.
       -3    1    3    3    0  502 -0.90291842056E+01  0.57106999610E+03 -0.36825714049E+03  0.67957030419E+03  0.10100000352E+00 0.  1.
</event>
<event>
 5   0  0.2792518E-03  0.1211723E+04  0.7818609E-02  0.9102657E-01
        1   -1    0    0  501    0  0.00000000000E+00  0.00000000000E+00  0.91726425357E+03  0.91726425359E+03  0.50400001928E-02 0.  1.
       -1   -1    0    0    0  501  0.00000000000E+00  0.00000000000E+00 -0.40017682671E+03  0.40017682674E+03  0.50400001928E-02 0. -1.
    10030    2    1    2    0    0  0.00000000000E+00  0.00000000000E+00  0.51708742686E+03  0.13174410803E+04  0.12117225727E+04 0.  0.
        2    1    3    3  502    0 -0.95644223927E+01 -0.58062835844E+02  0.91414983868E+03  0.91604186512E+03  0.25500000920E-02 0.  1.
       -2    1    3    3    0  502  0.95644223927E+01  0.58062835844E+02 -0.39706241182E+03  0.40139921521E+03  0.25500000920E-02 0. -1.
</event>
<event>
 5   0  0.2938349E-03  0.1186100E+04  0.7818609E-02  0.9125111E-01
       -1   -1    0    0    0  501  0.00000000000E+00  0.00000000000E+00  0.42761197952E+03  0.42761197955E+03  0.50400001928E-02 0.  1.
        1   -1    0    0  501    0  0.00000000000E+00  0.00000000000E+00 -0.82249387327E+03  0.82249387328E+03  0.50400001928E-02 0. -1.
    10030    2    1    2    0    0  0.00000000000E+00  0.00000000000E+00 -0.39488189374E+03  0.12501058528E+04  0.11860998834E+04 0.  0.
        4    1    3    3  502    0  0.34902026987E+03  0.46804185461E+03 -0.87766476875E+02  0.59040909021E+03  0.12699999809E+01 0.  1.
       -4    1    3    3    0  502 -0.34902026987E+03 -0.46804185461E+03 -0.30711541687E+03  0.65969676262E+03  0.12699999809E+01 0. -1.
</event>
<event>
 5   0  0.2875848E-03  0.1220180E+04  0.7818609E-02  0.9095374E-01
        1   -1    0    0  501    0  0.00000000000E+00  0.00000000000E+00  0.10891042260E+04  0.10891042260E+04  0.50400001928E-02 0. -1.
       -1   -1    0    0    0  501  0.00000000000E+00  0.00000000000E+00 -0.34175796880E+03  0.34175796884E+03  0.50400001928E-02 0.  1.
    10030    2    1    2    0    0  0.00000000000E+00  0.00000000000E+00  0.74734625721E+03  0.14308621949E+04  0.12201803934E+04 0.  0.
        1    1    3    3  502    0  0.18512506383E+03 -0.24707571144E+03 -0.24338950291E+03  0.39313629519E+03  0.50400001928E-02 0.  1.
       -1    1    3    3    0  502 -0.18512506383E+03  0.24707571144E+03  0.99073576013E+03  0.10377258997E+04  0.50400001928E-02 0. -1.
</event>
<event>
 5   0  0.2938349E-03  0.1189479E+04  0.7818609E-02  0.9122116E-01
        1   -1    0    0  501    0  0.00000000000E+00  0.00000000000E+00  0.15616428481E+04  0.15616428481E+04  0.50400001928E-02 0.  1.
       -1   -1    0    0    0  501  0.00000000000E+00  0.00000000000E+00 -0.22650174073E+03  0.22650174078E+03  0.50400001928E-02 0. -1.
    10030    2    1    2    0    0  0.00000000000E+00  0.00000000000E+00  0.13351411073E+04  0.17881445889E+04  0.11894785808E+04 0.  0.
        4    1    3    3  502    0  0.56293215307E+03  0.18671598544E+03  0.73408619546E+03  0.94373705207E+03  0.12699999809E+01 0. -1.
       -4    1    3    3    0  502 -0.56293215307E+03 -0.18671598544E+03  0.60105491188E+03  0.84440753679E+03  0.12699999809E+01 0.  1.
</event>
<event>
 5   0  0.5003526E-03  0.1214104E+04  0.7818609E-02  0.9100601E-01
        2   -1    0    0  501    0  0.00000000000E+00  0.00000000000E+00  0.12492010916E+04  0.12492010916E+04  0.25500000920E-02 0. -1.
       -2   -1    0    0    0  501  0.00000000000E+00  0.00000000000E+00 -0.29499804044E+03  0.29499804045E+03  0.25500000920E-02 0.  1.
    10030    2    1    2    0    0  0.00000000000E+00  0.00000000000E+00  0.95420305115E+03  0.15441991320E+04  0.12141035774E+04 0.  0.
        2    1    3    3  502    0 -0.23074473471E+03  0.52634848471E+03  0.22842941895E+03  0.61843824219E+03  0.25500000920E-02 0.  1.
       -2    1    3    3    0  502  0.23074473471E+03 -0.52634848471E+03  0.72577363220E+03  0.92576088985E+03  0.25500000920E-02 0. -1.
</event>
<event>
 5   0  0.5467554E-03  0.1201440E+04  0.7818609E-02  0.9111597E-01
       -2   -1    0    0    0  501  0.00000000000E+00  0.00000000000E+00  0.42568548776E+03  0.42568548776E+03  0.25500000920E-02 0.  1.
        2   -1    0    0  501    0  0.00000000000E+00  0.00000000000E+00 -0.84772539543E+03  0.84772539543E+03  0.25500000920E-02 0. -1.
    10030    2    1    2    0    0  0.00000000000E+00  0.00000000000E+00 -0.42203990767E+03  0.12734108832E+04  0.12014398003E+04 0.  0.
        1    1    3    3  502    0 -0.25378020646E+02 -0.26483844626E+03  0.35983549183E+03  0.44750980744E+03  0.50400001928E-02 0.  1.
       -1    1    3    3    0  502  0.25378020646E+02  0.26483844626E+03 -0.78187539951E+03  0.82590107575E+03  0.50400001928E-02 0. -1.
</event>
<event>
 5   0  0.5108045E-03  0.1205944E+04  0.7818609E-02  0.9107670E-01
        2   -1    0    0  501    0  0.00000000000E+00  0.00000000000E+00  0.96507968540E+03  0.96507968540E+03  0.25500000920E-02 0. -1.
       -2   -1    0    0    0  501  0.00000000000E+00  0.00000000000E+00 -0.37673071952E+03  0.37673071953E+03  0.25500000920E-02 0.  1.
    10030    2    1    2    0    0  0.00000000000E+00  0.00000000000E+00  0.58834896587E+03  0.13418104049E+04  0.12059438864E+04 0.  0.
        3    1    3    3  502    0  0.31775930233E+03  0.48990545414E+03  0.46143281998E+03  0.74424363334E+03  0.10100000352E+00 0. -1.
       -3    1    3    3    0  502 -0.31775930233E+03 -0.48990545414E+03  0.12691614590E+03  0.59756677159E+03  0.10100000352E+00 0.  1.
</event>
<event>
 5   0  0.5467554E-03  0.1191582E+04  0.7818609E-02  0.9120257E-01
       -2   -1    0    0    0  501  0.00000000000E+00  0.00000000000E+00  0.48371332256E+03  0.48371332256E+03  0.25500000920E-02 0. -1.
        2   -1    0    0  501    0  0.00000000000E+00  0.00000000000E+00 -0.73383698100E+03  0.73383698101E+03  0.25500000920E-02 0.  1.
    10030    2    1    2    0    0  0.00000000000E+00  0.00000000000E+00 -0.25012365845E+03  0.12175503036E+04  0.11915816788E+04 0.  0.
        1    1    3    3  502    0 -0.11725173261E+03  0.34101618161E+03 -0.60966206455E+03  0.70832749339E+03  0.50400001928E-02 0.  1.
       -1    1    3    3    0  502  0.11725173261E+03 -0.34101618161E+03  0.35953840610E+03  0.50922281018E+03  0.50400001928E-02 0. -1.
</event>
<event>
 5   0  0.5189537E-03  0.1192678E+04  0.7818609E-02  0.9119290E-01
        2   -1    0    0  501    0  0.00000000000E+00  0.00000000000E+00  0.82779346227E+03  0.82779346228E+03  0.25500000920E-02 0.  1.
       -2   -1    0    0    0  501  0.00000000000E+00  0.00000000000E+00 -0.42959986804E+03  0.42959986804E+03  0.25500000920E-02 0. -1.
    10030    2    1    2    0    0  0.00000000000E+00  0.00000000000E+00  0.39819359424E+03  0.12573933303E+04  0.11926775963E+04 0.  0.
        4    1    3    3  502    0 -0.90336459200E+02 -0.19100352296E+03  0.78700708229E+03  0.81487715769E+03  0.12699999809E+01 0.  1.
       -4    1    3    3    0  502  0.90336459200E+02  0.19100352296E+03 -0.38881348806E+03  0.44251617263E+03  0.12699999809E+01 0. -1.
</event>
<event>
 5   0  0.2930868E-03  0.1199535E+04  0.7818609E-02  0.9113264E-01
        1   -1    0    0  501    0  0.00000000000E+00  0.00000000000E+00  0.13757354293E+04  0.13757354293E+04  0.50400001928E-02 0.  1.
       -1   -1    0    0    0  501  0.00000000000E+00  0.00000000000E+00 -0.26147531459E+03  0.26147531464E+03  0.50400001928E-02 0. -1.
    10030    2    1    2    0    0  0.00000000000E+00  0.00000000000E+00  0.11142601147E+04  0.16372107439E+04  0.11995346668E+04 0.  0.
        3    1    3    3  502    0 -0.48993728231E+02  0.58457559928E+03  0.38670231516E+03  0.70261490692E+03  0.10100000352E+00 0. -1.
       -3    1    3    3    0  502  0.48993728231E+02 -0.58457559928E+03  0.72755779953E+03  0.93459583700E+03  0.10100000352E+00 0.  1.
</event>
<event>
 5   0  0.2875848E-03  0.1085739E+04  0.7818609E-02  0.9219205E-01
       -1   -1    0    0    0  501  0.00000000000E+00  0.00000000000E+00  0.65459677074E+03  0.65459677076E+03  0.50400001928E-02 0. -1.
        1   -1    0    0  501    0  0.00000000000E+00  0.00000000000E+00 -0.45021154596E+03  0.45021154599E+03  0.50400001928E-02 0.  1.
    10030    2    1    2    0    0  0.00000000000E+00  0.00000000000E+00  0.20438522478E+03  0.11048083167E+04  0.10857385029E+04 0.  0.
        1    1    3    3  502    0 -0.37543272623E+03 -0.33815495740E+03  0.30419511112E+03  0.58977383190E+03  0.50400001928E-02 0. -1.
       -1    1    3    3    0  502  0.37543272623E+03  0.33815495740E+03 -0.99809886344E+02  0.51503448484E+03  0.50400001928E-02 0.  1.
</event>
<event>
 5   0  0.1922125E-03  0.1145242E+04  0.7818609E-02  0.9162184E-01
        3   -1    0    0  501    0  0.00000000000E+00  0.00000000000E+00  0.34377278779E+03  0.34377280262E+03  0.10100000352E+00 0. -1.
       -3   -1    0    0    0  501  0.00000000000E+00  0.00000000000E+00 -0.95381329217E+03  0.95381329752E+03  0.10100000352E+00 0.  1.
    10030    2    1    2    0    0  0.00000000000E+00  0.00000000000E+00 -0.61004050438E+03  0.12975861001E+04  0.11452424504E+04 0.  0.
        4    1    3    3  502    0 -0.39463839163E+03 -0.10569689162E+03  0.14957785644E+03  0.43507061620E+03  0.12699999809E+01 0. -1.
       -4    1    3    3    0  502  0.39463839163E+03  0.10569689162E+03 -0.75961836083E+03  0.86251548395E+03  0.12699999809E+01 0.  1.
</event>
<event>
 5   0  0.2875848E-03  0.1185282E+04  0.7818609E-02  0.9125838E-01
        1   -1    0    0  501    0  0.00000000000E+00  0.00000000000E+00  0.12893967164E+04  0.12893967165E+04  0.50400001928E-02 0. -1.
       -1   -1    0    0    0  501  0.00000000000E+00  0.00000000000E+00 -0.27239346949E+03  0.27239346954E+03  0.50400001928E-02 0.  1.
    10030    2    1    2    0    0  0.00000000000E+00  0.00000000000E+00  0.10170032470E+04  0.15617901860E+04  0.11852818149E+04 0.  0.
        1    1    3    3  502    0 -0.45801205314E+03  0.19208048640E+03  0.82442448457E+02  0.50345477593E+03  0.50400001928E-02 0.  1.
       -1    1    3    3    0  502  0.45801205314E+03 -0.19208048640E+03  0.93456079850E+03  0.10583354101E+04  0.50400001928E-02 0. -1.
</event>
<event>
 5   0  0.2938349E-03  0.1237482E+04  0.7818609E-02  0.9080667E-01
        1   -1    0    0  501    0  0.00000000000E+00  0.00000000000E+00  0.60479387358E+03  0.60479387360E+03  0.50400001928E-02 0. -1.
       -1   -1    0    0    0  501  0.00000000000E+00  0.00000000000E+00 -0.63300933724E+03  0.63300933726E+03  0.50400001928E-02 0.  1.
    10030    2    1    2    0    0  0.00000000000E+00  0.00000000000E+00 -0.28215463657E+02  0.12378032109E+04  0.12374815863E+04 0.  0.
        4    1    3    3  502    0  0.49099023563E+03 -0.18669132139E+03  0.31295354168E+03  0.61144631254E+03  0.12699999809E+01 0. -1.
       -4    1    3    3    0  502 -0.49099023563E+03  0.18669132139E+03 -0.34116900533E+03  0.62635689832E+03  0.12699999809E+01 0.  1.
</event>
<event>
 5   0  0.2930868E-03  0.1083281E+04  0.7818609E-02  0.9221642E-01
        1   -1    0    0  501    0  0.00000000000E+00  0.00000000000E+00  0.13454133574E+04  0.13454133574E+04  0.50400001928E-02 0. -1.
       -1   -1    0    0    0  501  0.00000000000E+00  0.00000000000E+00 -0.21805515082E+03  0.21805515088E+03  0.50400001928E-02 0.  1.
    10030    2    1    2    0    0  0.00000000000E+00  0.00000000000E+00  0.11273582066E+04  0.15634685083E+04  0.10832807810E+04 0.  0.
        3    1    3    3  502    0 -0.27431275897E+03 -0.38241477628E+01 -0.11036461802E+03  0.29570673471E+03  0.10100000352E+00 0.  1.
       -3    1    3    3    0  502  0.27431275897E+03  0.38241477628E+01  0.12377228246E+04  0.12677617736E+04  0.10100000352E+00 0. -1.
</event>
<event>
 5   0  0.5189537E-03  0.1200356E+04  0.7818609E-02  0.9112545E-01
        2   -1    0    0  501    0  0.00000000000E+00  0.00000000000E+00  0.72086068255E+03  0.72086068256E+03  0.25500000920E-02 0. -1.
       -2   -1    0    0    0  501  0.00000000000E+00  0.00000000000E+00 -0.49969972157E+03  0.49969972158E+03  0.25500000920E-02 0.  1.
    10030    2    1    2    0    0  0.00000000000E+00  0.00000000000E+00  0.22116096098E+03  0.12205604041E+04  0.12003564177E+04 0.  0.
        4    1    3    3  502    0 -0.11295446152E+02  0.20942144996E+03 -0.46122559414E+03  0.50667108897E+03  0.12699999809E+01 0.  1.
       -4    1    3    3    0  502  0.11295446152E+02 -0.20942144996E+03  0.68238655512E+03  0.71388931517E+03  0.12699999809E+01 0. -1.
</event>
<event>
 5   0  0.2792518E-03  0.1218558E+04  0.7818609E-02  0.9096766E-01
       -1   -1    0    0    0  501  0.00000000000E+00  0.00000000000E+00  0.21403790993E+03  0.21403790999E+03  0.50400001928E-02 0.  1.
        1   -1    0    0  501    0  0.00000000000E+00  0.00000000000E+00 -0.17343690587E+04  0.17343690587E+04  0.50400001928E-02 0. -1.
    10030    2    1    2    0    0  0.00000000000E+00  0.00000000000E+00 -0.15203311488E+04  0.19484069687E+04  0.12185577187E+04 0.  0.
        2    1    3    3  502    0 -0.52251603986E+03 -0.27236601513E+02 -0.12593230756E+04  0.13636933135E+04  0.25500000920E-02 0.  1.
       -2    1    3    3    0  502  0.52251603986E+03  0.27236601513E+02 -0.26100807317E+03  0.58471365526E+03  0.25500000920E-02 0. -1.
</event>
<event>
 5   0  0.2930868E-03  0.1242193E+04  0.7818609E-02  0.9076706E-01
        1   -1    0    0  501    0  0.00000000000E+00  0.00000000000E+00  0.72252175554E+03  0.72252175556E+03  0.50400001928E-02 0.  1.
       -1   -1    0    0    0  501  0.00000000000E+00  0.00000000000E+00 -0.53390911902E+03  0.53390911904E+03  0.50400001928E-02 0. -1.
    10030    2    1    2    0    0  0.00000000000E+00  0.00000000000E+00  0.18861263652E+03  0.12564308746E+04  0.12421931476E+04 0.  0.
        3    1    3    3  502    0 -0.19827328256E+03  0.26355291799E+03  0.62663558859E+03  0.70812753530E+03  0.10100000352E+00 0.  1.
       -3    1    3    3    0  502  0.19827328256E+03 -0.26355291799E+03 -0.43802295207E+03  0.54830333931E+03  0.10100000352E+00 0. -1.
</event>
<event>
 5   0  0.5031575E-03  0.1202306E+04  0.7818609E-02  0.9110840E-01
        2   -1    0    0  501    0  0.00000000000E+00  0.00000000000E+00  0.82718535946E+03  0.82718535947E+03  0.25500000920E-02 0. -1.
       -2   -1    0    0    0  501  0.00000000000E+00  0.00000000000E+00 -0.43688520470E+03  0.43688520471E+03  0.25500000920E-02 0.  1.
    10030    2    1    2    0    0  0.00000000000E+00  0.00000000000E+00  0.39030015476E+03  0.12640705642E+04  0.12023061925E+04 0.  0.
        5    1    3    3  502    0  0.30871086404E+03 -0.30627951907E+03 -0.24120511989E+03  0.49730427430E+03  0.46999998093E+01 0.  1.
       -5    1    3    3    0  502 -0.30871086404E+03  0.30627951907E+03  0.63150527465E+03  0.76676628987E+03  0.46999998093E+01 0. -1.
</event>
<event>
 5   0  0.2792518E-03  0.1201798E+04  0.7818609E-02  0.9111284E-01
        1   -1    0    0  501    0  0.00000000000E+00  0.00000000000E+00  0.17858914934E+04  0.17858914934E+04  0.50400001928E-02 0.  1.
       -1   -1    0    0    0  501  0.00000000000E+00  0.00000000000E+00 -0.20218467907E+03  0.20218467913E+03  0.50400001928E-02 0. -1.
    10030    2    1    2    0    0  0.00000000000E+00  0.00000000000E+00  0.15837068143E+04  0.19880761725E+04  0.12017984831E+04 0.  0.
        2    1    3    3  502    0  0.34137228715E+03  0.49446804461E+03  0.80309901971E+03  0.10029963714E+04  0.25500000920E-02 0. -1.
       -2    1    3    3    0  502 -0.34137228715E+03 -0.49446804461E+03  0.78060779461E+03  0.98507980113E+03  0.25500000920E-02 0.  1.
</event>
<event>
 5   0  0.2926844E-03  0.1167411E+04  0.7818609E-02  0.9141870E-01
       -1   -1    0    0    0  501  0.00000000000E+00  0.00000000000E+00  0.97811884250E+03  0.97811884252E+03  0.50400001928E-02 0.  1.
        1   -1    0    0  501    0  0.00000000000E+00  0.00000000000E+00 -0.34833414165E+03  0.34833414168E+03  0.50400001928E-02 0. -1.
    10030    2    1    2    0    0  0.00000000000E+00  0.00000000000E+00  0.62978470086E+03  0.13264529842E+04  0.11674111315E+04 0.  0.
        5    1    3    3  502    0  0.55611217338E+03 -0.13077674463E+03  0.17889122690E+03  0.59865471465E+03  0.46999998093E+01 0.  1.
       -5    1    3    3    0  502 -0.55611217338E+03  0.13077674463E+03  0.45089347395E+03  0.72779826955E+03  0.46999998093E+01 0. -1.
</event>
<event>
 5   0  0.2926844E-03  0.1203010E+04  0.7818609E-02  0.9110226E-01
        1   -1    0    0  501    0  0.00000000000E+00  0.00000000000E+00  0.31444379900E+03  0.31444379904E+03  0.50400001928E-02 0.  1.
       -1   -1    0    0    0  501  0.00000000000E+00  0.00000000000E+00 -0.11506285538E+04  0.11506285538E+04  0.50400001928E-02 0. -1.
    10030    2    1    2    0    0  0.00000000000E+00  0.00000000000E+00 -0.83618475482E+03  0.14650723529E+04  0.12030095822E+04 0.  0.
        5    1    3    3  502    0  0.33249902190E+03  0.44075044103E+03 -0.12741535297E+03  0.56663331441E+03  0.46999998093E+01 0.  1.
       -5    1    3    3    0  502 -0.33249902190E+03 -0.44075044103E+03 -0.70876940185E+03  0.89843903846E+03  0.46999998093E+01 0. -1.
</event>
<event>
 5   0  0.5003526E-03  0.1191951E+04  0.7818609E-02  0.9119932E-01
        2   -1    0    0  501    0  0.00000000000E+00  0.00000000000E+00  0.11381737027E+04  0.11381737027E+04  0.25500000920E-02 0. -1.
       -2   -1    0    0    0  501  0.00000000000E+00  0.00000000000E+00 -0.31206706605E+03  0.31206706606E+03  0.25500000920E-02 0.  1.
    10030    2    1    2    0    0  0.00000000000E+00  0.00000000000E+00  0.82610663662E+03  0.14502407687E+04  0.11919505494E+04 0.  0.
        2    1    3    3  502    0  0.20133035995E+03 -0.46287937376E+03  0.79856590458E+03  0.94472151053E+03  0.25500000920E-02 0. -1.
       -2    1    3    3    0  502 -0.20133035995E+03  0.46287937376E+03  0.27540732040E+02  0.50551925821E+03  0.25500000920E-02 0.  1.
</event>
<event>
 5   0  0.5003526E-03  0.1286280E+04  0.7818609E-02  0.9040517E-01
       -2   -1    0    0    0  501  0.00000000000E+00  0.00000000000E+00  0.46675712408E+03  0.46675712409E+03  0.25500000920E-02 0.  1.
        2   -1    0    0  501    0  0.00000000000E+00  0.00000000000E+00 -0.88617593225E+03  0.88617593225E+03  0.25500000920E-02 0. -1.
    10030    2    1    2    0    0  0.00000000000E+00  0.00000000000E+00 -0.41941880817E+03  0.13529330563E+04  0.12862797978E+04 0.  0.
        2    1    3    3  502    0 -0.51739847780E+03 -0.24272758439E+03  0.10055224774E+03  0.58028322359E+03  0.25500000920E-02 0.  1.
       -2    1    3    3    0  502  0.51739847780E+03  0.24272758439E+03 -0.51997105591E+03  0.77264983275E+03  0.25500000920E-02 0. -1.
</event>
<event>
 5   0  0.5031575E-03  0.1199567E+04  0.7818609E-02  0.9113235E-01
       -2   -1    0    0    0  501  0.00000000000E+00  0.00000000000E+00  0.29014338964E+03  0.29014338965E+03  0.25500000920E-02 0. -1.
        2   -1    0    0  501    0  0.00000000000E+00  0.00000000000E+00 -0.12398709504E+04  0.12398709504E+04  0.25500000920E-02 0.  1.
    10030    2    1    2    0    0  0.00000000000E+00  0.00000000000E+00 -0.94972756079E+03  0.15300143401E+04  0.11995671891E+04 0.  0.
        5    1    3    3  502    0  0.26223526357E+02  0.41484730565E+02  0.28755445282E+03  0.29175042338E+03  0.46999998093E+01 0. -1.
       -5    1    3    3    0  502 -0.26223526357E+02 -0.41484730565E+02 -0.12372820136E+04  0.12382639167E+04  0.46999998093E+01 0.  1.
</event>
<event>
 5   0  0.5189537E-03  0.1239252E+04  0.7818609E-02  0.9079176E-01
       -2   -1    0    0    0  501  0.00000000000E+00  0.00000000000E+00  0.37768317305E+03  0.37768317305E+03  0.25500000920E-02 0. -1.
        2   -1    0    0  501    0  0.00000000000E+00  0.00000000000E+00 -0.10165570941E+04  0.10165570941E+04  0.25500000920E-02 0.  1.
    10030    2    1    2    0    0  0.00000000000E+00  0.00000000000E+00 -0.63887392103E+03  0.13942402671E+04  0.12392522082E+04 0.  0.
        4    1    3    3  502    0  0.17969766677E+03  0.50938717052E+03 -0.66099840246E+03  0.85363167812E+03  0.12699999809E+01 0.  1.
       -4    1    3    3    0  502 -0.17969766677E+03 -0.50938717052E+03  0.22124481433E+02  0.54060858901E+03  0.12699999809E+01 0. -1.
</event>
<event>
 5   0  0.2875848E-03  0.1217513E+04  0.7818609E-02  0.9097664E-01
       -1   -1    0    0    0  501  0.00000000000E+00  0.00000000000E+00  0.31687376022E+03  0.31687376026E+03  0.50400001928E-02 0.  1.
        1   -1    0    0  501    0  0.00000000000E+00  0.00000000000E+00 -0.11695011620E+04  0.11695011620E+04  0.50400001928E-02 0. -1.
    10030    2    1    2    0    0  0.00000000000E+00  0.00000000000E+00 -0.85262740174E+03  0.14863749222E+04  0.12175125967E+04 0.  0.
        1    1    3    3  502    0  0.44794755834E+03  0.59338972848E+02  0.71697980838E+02  0.45751363827E+03  0.50400001928E-02 0.  1.
       -1    1    3    3    0  502 -0.44794755834E+03 -0.59338972848E+02 -0.92432538258E+03  0.10288612840E+04  0.50400001928E-02 0. -1.
</event>
<event>
 5   0  0.5189537E-03  0.1197459E+04  0.7818609E-02  0.9115083E-01
        2   -1    0    0  501    0  0.00000000000E+00  0.00000000000E+00  0.46013074584E+03  0.46013074585E+03  0.25500000920E-02 0. -1.
       -2   -1    0    0    0  501  0.00000000000E+00  0.00000000000E+00 -0.77907673212E+03  0.77907673213E+03  0.25500000920E-02 0.  1.
    10030    2    1    2    0    0  0.00000000000E+00  0.00000000000E+00 -0.31894598628E+03  0.12392074780E+04  0.11974592399E+04 0.  0.
        4    1    3    3  502    0  0.35027794066E+03  0.25826574111E+03  0.26605588761E+03  0.51008153953E+03  0.12699999809E+01 0. -1.
       -4    1    3    3    0  502 -0.35027794066E+03 -0.25826574111E+03 -0.58500187390E+03  0.72912593844E+03  0.12699999809E+01 0.  1.
</event>
<event>
 5   0  0.2938349E-03  0.1202760E+04  0.7818609E-02  0.9110444E-01
       -1   -1    0    0    0  501  0.00000000000E+00  0.00000000000E+00  0.38105334338E+03  0.38105334341E+03  0.50400001928E-02 0. -1.
        1   -1    0    0  501    0  0.00000000000E+00  0.00000000000E+00 -0.94910077251E+03  0.94910077252E+03  0.50400001928E-02 0.  1.
    10030    2    1    2    0    0  0.00000000000E+00  0.00000000000E+00 -0.56804742913E+03  0.13301541159E+04  0.12027601965E+04 0.  0.
        4    1    3    3  502    0  0.57576086300E+03  0.10574242180E+03 -0.43636116957E+03  0.73013335380E+03  0.12699999809E+01 0.  1.
       -4    1    3    3    0  502 -0.57576086300E+03 -0.10574242180E+03 -0.13168625957E+03  0.60002076213E+03  0.12699999809E+01 0. -1.
</event>
<event>
 5   0  0.5467554E-03  0.1200401E+04  0.7818609E-02  0.9112506E-01
       -2   -1    0    0    0  501  0.00000000000E+00  0.00000000000E+00  0.21033309736E+03  0.21033309738E+03  0.25500000920E-02 0.  1.
        2   -1    0    0  501    0  0.00000000000E+00  0.00000000000E+00 -0.17127142140E+04  0.17127142140E+04  0.25500000920E-02 0. -1.
    10030    2    1    2    0    0  0.00000000000E+00  0.00000000000E+00 -0.15023811166E+04  0.19230473114E+04  0.12004007423E+04 0.  0.
        1    1    3    3  502    0  0.61843374162E+01 -0.44026545490E+03 -0.14046209858E+04  0.14720163146E+04  0.50400001928E-02 0.  1.
       -1    1    3    3    0  502 -0.61843374162E+01  0.44026545490E+03 -0.97760130824E+02  0.45103099673E+03  0.50400001928E-02 0. -1.
</event>
<event>
 5   0  0.2930868E-03  0.1208688E+04  0.7818609E-02  0.9105286E-01
        1   -1    0    0  501    0  0.00000000000E+00  0.00000000000E+00  0.80921382636E+03  0.80921382637E+03  0.50400001928E-02 0.  1.
       -1   -1    0    0    0  501  0.00000000000E+00  0.00000000000E+00 -0.45134158798E+03  0.45134158801E+03  0.50400001928E-02 0. -1.
    10030    2    1    2    0    0  0.00000000000E+00  0.00000000000E+00  0.35787223838E+03  0.12605554144E+04  0.12086883030E+04 0.  0.
        3    1    3    3  502    0 -0.32703113221E+03 -0.49056103084E+03  0.40451096732E+02  0.59096174821E+03  0.10100000352E+00 0.  1.
       -3    1    3    3    0  502  0.32703113221E+03  0.49056103084E+03  0.31742114164E+03  0.66959366617E+03  0.10100000352E+00 0. -1.
</event>
<event>
 5   0  0.5108045E-03  0.1165289E+04  0.7818609E-02  0.9143794E-01
        2   -1    0    0  501    0  0.00000000000E+00  0.00000000000E+00  0.11201391369E+04  0.11201391369E+04  0.25500000920E-02 0.  1.
       -2   -1    0    0    0  501  0.00000000000E+00  0.00000000000E+00 -0.30306450073E+03  0.30306450074E+03  0.25500000920E-02 0. -1.
    10030    2    1    2    0    0  0.00000000000E+00  0.00000000000E+00  0.81707463619E+03  0.14232036377E+04  0.11652886480E+04 0.  0.
        3    1    3    3  502    0 -0.28468317998E+03 -0.31461157885E+03 -0.79154004162E+02  0.43161362940E+03  0.10100000352E+00 0. -1.
       -3    1    3    3    0  502  0.28468317998E+03  0.31461157885E+03  0.89622864035E+03  0.99159000827E+03  0.10100000352E+00 0.  1.
</event>
<event>
 5   0  0.2926844E-03  0.1260933E+04  0.7818609E-02  0.9061132E-01
        1   -1    0    0  501    0  0.00000000000E+00  0.00000000000E+00  0.12973609427E+04  0.12973609427E+04  0.50400001928E-02 0. -1.
       -1   -1    0    0    0  501  0.00000000000E+00  0.00000000000E+00 -0.30638216812E+03  0.30638216816E+03  0.50400001928E-02 0.  1.
    10030    2    1    2    0    0  0.00000000000E+00  0.00000000000E+00  0.99097877457E+03  0.16037431109E+04  0.12609333979E+04 0.  0.
        5    1    3    3  502    0 -0.44361257147E+03  0.43735453093E+03  0.37220938097E+03  0.72569484811E+03  0.46999998093E+01 0.  1.
       -5    1    3    3    0  502  0.44361257147E+03 -0.43735453093E+03  0.61876939360E+03  0.87804826276E+03  0.46999998093E+01 0. -1.
</event>
<event>
 5   0  0.5467554E-03  0.1143691E+04  0.7818609E-02  0.9163623E-01
       -2   -1    0    0    0  501  0.00000000000E+00  0.00000000000E+00  0.26273638918E+03  0.26273638920E+03  0.25500000920E-02 0. -1.
        2   -1    0    0  501    0  0.00000000000E+00  0.00000000000E+00 -0.12446216502E+04  0.12446216502E+04  0.25500000920E-02 0.  1.
    10030    2    1    2    0    0  0.00000000000E+00  0.00000000000E+00 -0.98188526102E+03  0.15073580394E+04  0.11436912141E+04 0.  0.
        1    1    3    3  502    0 -0.24139091937E+03  0.50829067785E+03 -0.35667447283E+03  0.66621743353E+03  0.50400001928E-02 0. -1.
       -1    1    3    3    0  502  0.24139091937E+03 -0.50829067785E+03 -0.62521078818E+03  0.84114060586E+03  0.50400001928E-02 0.  1.
</event>
<event>
 5   0  0.5108045E-03  0.1248160E+04  0.7818609E-02  0.9071716E-01
       -2   -1    0    0    0  501  0.00000000000E+00  0.00000000000E+00  0.32001675222E+03  0.32001675223E+03  0.25500000920E-02 0. -1.
        2   -1    0    0  501    0  0.00000000000E+00  0.00000000000E+00 -0.12170492068E+04  0.12170492068E+04  0.25500000920E-02 0.  1.
    10030    2    1    2    0    0  0.00000000000E+00  0.00000000000E+00 -0.89703245462E+03  0.15370659591E+04  0.12481604616E+04 0.  0.
        3    1    3    3  502    0  0.29721070705E+03  0.13780538686E+03 -0.11026451292E+04  0.11502829305E+04  0.10100000352E+00 0.  1.
       -3    1    3    3    0  502 -0.29721070705E+03 -0.13780538686E+03  0.20561267459E+03  0.38678302857E+03  0.10100000352E+00 0. -1.
</event>
<event>
 5   0  0.1922125E-03  0.1208128E+04  0.7818609E-02  0.9105772E-01
        3   -1    0    0  501    0  0.00000000000E+00  0.00000000000E+00  0.42038238162E+03  0.42038239375E+03  0.10100000352E+00 0. -1.
       -3   -1    0    0    0  501  0.00000000000E+00  0.00000000000E+00 -0.86800324403E+03  0.86800324990E+03  0.10100000352E+00 0.  1.
    10030    2    1    2    0    0  0.00000000000E+00  0.00000000000E+00 -0.44762086241E+03  0.12883856437E+04  0.12081279445E+04 0.  0.
        4    1    3    3  502    0  0.21693000524E+03 -0.34202351570E+03  0.25412811939E+03  0.47814372989E+03  0.12699999809E+01 0. -1.
       -4    1    3    3    0  502 -0.21693000524E+03  0.34202351570E+03 -0.70174898180E+03  0.81024191377E+03  0.12699999809E+01 0.  1.
</event>
<event>
 5   0  0.2938349E-03  0.1325299E+04  0.7818609E-02  0.9009740E-01
       -1   -1    0    0    0  501  0.00000000000E+00  0.00000000000E+00  0.33351670338E+03  0.33351670342E+03  0.50400001928E-02 0. -1.
        1   -1    0    0  501    0  0.00000000000E+00  0.00000000000E+00 -0.13165891075E+04  0.13165891075E+04  0.50400001928E-02 0.  1.
    10030    2    1    2    0    0  0.00000000000E+00  0.00000000000E+00 -0.98307240412E+03  0.16501058109E+04  0.13252991494E+04 0.  0.
        4    1    3    3  502    0 -0.34978551170E+03 -0.10099556139E+03  0.19783088579E+03  0.41435332736E+03  0.12699999809E+01 0. -1.
       -4    1    3    3    0  502  0.34978551170E+03  0.10099556139E+03 -0.11809032899E+04  0.12357524836E+04  0.12699999809E+01 0.  1.
</event>
<event>
 5   0  0.2792518E-03  0.1137853E+04  0.7818609E-02  0.9169063E-01
       -1   -1    0    0    0  501  0.00000000000E+00  0.00000000000E+00  0.29723046432E+03  0.29723046436E+03  0.50400001928E-02 0. -1.
        1   -1    0    0  501    0  0.00000000000E+00  0.00000000000E+00 -0.10889782403E+04  0.10889782403E+04  0.50400001928E-02 0.  1.
    10030    2    1    2    0    0  0.00000000000E+00  0.00000000000E+00 -0.79174777598E+03  0.13862087047E+04  0.11378532560E+04 0.  0.
        2    1    3    3  502    0 -0.37078856131E+03 -0.33223979631E+03 -0.73130690609E+03  0.88469047149E+03  0.25500000920E-02 0.  1.
       -2    1    3    3    0  502  0.37078856131E+03  0.33223979631E+03 -0.60440869896E+02  0.50151823318E+03  0.25500000920E-02 0. -1.
</event>
<event>
 5   0  0.5189537E-03  0.1198415E+04  0.7818609E-02  0.9114245E-01
       -2   -1    0    0    0  501  0.00000000000E+00  0.00000000000E+00  0.34742592622E+03  0.34742592623E+03  0.25500000920E-02 0. -1.
        2   -1    0    0  501    0  0.00000000000E+00  0.00000000000E+00 -0.10334572267E+04  0.10334572267E+04  0.25500000920E-02 0.  1.
    10030    2    1    2    0    0  0.00000000000E+00  0.00000000000E+00 -0.68603130045E+03  0.13808831529E+04  0.11984153440E+04 0.  0.
        4    1    3    3  502    0  0.15586223158E+03 -0.57452793723E+03 -0.26424946507E+03  0.65131004797E+03  0.12699999809E+01 0. -1.
       -4    1    3    3    0  502 -0.15586223158E+03  0.57452793723E+03 -0.42178183538E+03  0.72957310494E+03  0.12699999809E+01 0.  1.
</event>
<event>
 5   0  0.5467554E-03  0.1219324E+04  0.7818609E-02  0.9096108E-01
        2   -1    0    0  501    0  0.00000000000E+00  0.00000000000E+00  0.79371366114E+03  0.79371366115E+03  0.25500000920E-02 0. -1.
       -2   -1    0    0    0  501  0.00000000000E+00  0.00000000000E+00 -0.46828954206E+03  0.46828954207E+03  0.25500000920E-02 0.  1.
    10030    2    1    2    0    0  0.00000000000E+00  0.00000000000E+00  0.32542411908E+03  0.12620032032E+04  0.12193240864E+04 0.  0.
        1    1    3    3  502    0  0.27391077305E+03  0.45186742638E+02 -0.39907479398E+03  0.48613747492E+03  0.50400001928E-02 0.  1.
       -1    1    3    3    0  502 -0.27391077305E+03 -0.45186742638E+02  0.72449891306E+03  0.77586572830E+03  0.50400001928E-02 0. -1.
</event>
<event>
 5   0  0.2875848E-03  0.1213946E+04  0.7818609E-02  0.9100737E-01
       -1   -1    0    0    0  501  0.00000000000E+00  0.00000000000E+00  0.39612349784E+03  0.39612349787E+03  0.50400001928E-02 0. -1.
        1   -1    0    0  501    0  0.00000000000E+00  0.00000000000E+00 -0.93005375678E+03  0.93005375680E+03  0.50400001928E-02 0.  1.
    10030    2    1    2    0    0  0.00000000000E+00  0.00000000000E+00 -0.53393025894E+03  0.13261772547E+04  0.12139458758E+04 0.  0.
        1    1    3    3  502    0 -0.43387024819E+03 -0.38292003455E+03 -0.46705088125E+03  0.74364485530E+03  0.50400001928E-02 0. -1.
       -1    1    3    3    0  502  0.43387024819E+03  0.38292003455E+03 -0.66879377697E+02  0.58253239936E+03  0.50400001928E-02 0.  1.
</event>
<event>
 5   0  0.5031575E-03  0.1198755E+04  0.7818609E-02  0.9113947E-01
       -2   -1    0    0    0  501  0.00000000000E+00  0.00000000000E+00  0.55227703927E+03  0.55227703928E+03  0.25500000920E-02 0.  1.
        2   -1    0    0  501    0  0.00000000000E+00  0.00000000000E+00 -0.65049476157E+03  0.65049476158E+03  0.25500000920E-02 0. -1.
    10030    2    1    2    0    0  0.00000000000E+00  0.00000000000E+00 -0.98217722299E+02  0.12027718009E+04  0.11987548890E+04 0.  0.
        5    1    3    3  502    0 -0.54476305029E+03  0.65412368844E+01  0.20157161491E+03  0.58091546259E+03  0.46999998093E+01 0.  1.
       -5    1    3    3    0  502  0.54476305029E+03 -0.65412368844E+01 -0.29978933721E+03  0.62185633827E+03  0.46999998093E+01 0. -1.
</event>
<event>
 5   0  0.2938349E-03  0.1184991E+04  0.7818609E-02  0.9126096E-01
       -1   -1    0    0    0  501  0.00000000000E+00  0.00000000000E+00  0.72218440759E+03  0.72218440761E+03  0.50400001928E-02 0. -1.
        1   -1    0    0  501    0  0.00000000000E+00  0.00000000000E+00 -0.48609574124E+03  0.48609574127E+03  0.50400001928E-02 0.  1.
    10030    2    1    2    0    0  0.00000000000E+00  0.00000000000E+00  0.23608866635E+03  0.12082801489E+04  0.11849907425E+04 0.  0.
        4    1    3    3  502    0 -0.35960543549E+03  0.32449084319E+03 -0.22989337437E+03  0.53615571715E+03  0.12699999809E+01 0.  1.
       -4    1    3    3    0  502  0.35960543549E+03 -0.32449084319E+03  0.46598204072E+03  0.67212443173E+03  0.12699999809E+01 0. -1.
</event>
<event>
 5   0  0.2930868E-03  0.1219655E+04  0.7818609E-02  0.9095825E-01
        1   -1    0    0  501    0  0.00000000000E+00  0.00000000000E+00  0.97285785402E+03  0.97285785404E+03  0.50400001928E-02 0. -1.
       -1   -1    0    0    0  501  0.00000000000E+00  0.00000000000E+00 -0.38226483111E+03  0.38226483115E+03  0.50400001928E-02 0.  1.
    10030    2    1    2    0    0  0.00000000000E+00  0.00000000000E+00  0.59059302291E+03  0.13551226852E+04  0.12196546123E+04 0.  0.
        3    1    3    3  502    0 -0.39637793623E+03 -0.20362063807E+03  0.75784439405E+03  0.87915013983E+03  0.10100000352E+00 0. -1.
       -3    1    3    3    0  502  0.39637793623E+03  0.20362063807E+03 -0.16725137114E+03  0.47597254535E+03  0.10100000352E+00 0.  1.
</event>
<event>
 5   0  0.2792518E-03  0.1158998E+04  0.7818609E-02  0.9149522E-01
        1   -1    0    0  501    0  0.00000000000E+00  0.00000000000E+00  0.95371712034E+03  0.95371712035E+03  0.50400001928E-02 0. -1.
       -1   -1    0    0    0  501  0.00000000000E+00  0.00000000000E+00 -0.35211609807E+03  0.35211609811E+03  0.50400001928E-02 0.  1.
    10030    2    1    2    0    0  0.00000000000E+00  0.00000000000E+00  0.60160102226E+03  0.13058332185E+04  0.11589981037E+04 0.  0.
        2    1    3    3  502    0  0.38054192217E+03 -0.59124872266E+02  0.78868683760E+03  0.87768720673E+03  0.25500000920E-02 0. -1.
       -2    1    3    3    0  502 -0.38054192217E+03  0.59124872266E+02 -0.18708581534E+03  0.42814601173E+03  0.25500000920E-02 0.  1.
</event>
<event>
 5   0  0.5189537E-03  0.1190579E+04  0.7818609E-02  0.9121143E-01
        2   -1    0    0  501    0  0.00000000000E+00  0.00000000000E+00  0.10442665360E+04  0.10442665360E+04  0.25500000920E-02 0.  1.
       -2   -1    0    0    0  501  0.00000000000E+00  0.00000000000E+00 -0.33934761701E+03  0.33934761702E+03  0.25500000920E-02 0. -1.
    10030    2    1    2    0    0  0.00000000000E+00  0.00000000000E+00  0.70491891895E+03  0.13836141530E+04  0.11905786165E+04 0.  0.
        4    1    3    3  502    0  0.33623441709E+03  0.30109647408E+03 -0.98615589054E+02  0.46199493205E+03  0.12699999809E+01 0. -1.
       -4    1    3    3    0  502 -0.33623441709E+03 -0.30109647408E+03  0.80353450800E+03  0.92161922093E+03  0.12699999809E+01 0.  1.
</event>
<event>
 5   0  0.2875848E-03  0.1181848E+04  0.7818609E-02  0.9128895E-01
       -1   -1    0    0    0  501  0.00000000000E+00  0.00000000000E+00  0.12410735219E+04  0.12410735219E+04  0.50400001928E-02 0.  1.
        1   -1    0    0  501    0  0.00000000000E+00  0.00000000000E+00 -0.28136229794E+03  0.28136229799E+03  0.50400001928E-02 0. -1.
    10030    2    1    2    0    0  0.00000000000E+00  0.00000000000E+00  0.95971122398E+03  0.15224358199E+04  0.11818482104E+04 0.  0.
        1    1    3    3  502    0  0.31755070658E+03  0.15889195506E+02  0.11214949862E+04  0.11656937513E+04  0.50400001928E-02 0.  1.
       -1    1    3    3    0  502 -0.31755070658E+03 -0.15889195506E+02 -0.16178376220E+03  0.35674206862E+03  0.50400001928E-02 0. -1.
</event>
<event>
 5   0  0.2930868E-03  0.1181690E+04  0.7818609E-02  0.9129036E-01
       -1   -1    0    0    0  501  0.00000000000E+00  0.00000000000E+00  0.52728030003E+03  0.52728030006E+03  0.50400001928E-02 0.  1.
        1   -1    0    0  501    0  0.00000000000E+00  0.00000000000E+00 -0.66207200263E+03  0.66207200265E+03  0.50400001928E-02 0. -1.
    10030    2    1    2    0    0  0.00000000000E+00  0.00000000000E+00 -0.13479170260E+03  0.11893523027E+04  0.11816895095E+04 0.  0.
        3    1    3    3  502    0 -0.36133695458E+03  0.23167743266E+03  0.34126501874E+03  0.54836178821E+03  0.10100000352E+00 0.  1.
       -3    1    3    3    0  502  0.36133695458E+03 -0.23167743266E+03 -0.47605672134E+03  0.64099051450E+03  0.10100000352E+00 0. -1.
</event>
<event>
 5   0  0.5003526E-03  0.1211042E+04  0.7818609E-02  0.9103246E-01
       -2   -1    0    0    0  501  0.00000000000E+00  0.00000000000E+00  0.52867919632E+03  0.52867919632E+03  0.25500000920E-02 0. -1.
        2   -1    0    0  501    0  0.00000000000E+00  0.00000000000E+00 -0.69353146829E+03  0.69353146829E+03  0.25500000920E-02 0.  1.
    10030    2    1    2    0    0  0.00000000000E+00  0.00000000000E+00 -0.16485227197E+03  0.12222106646E+04  0.12110419634E+04 0.  0.
        2    1    3    3  502    0  0.11980367118E+03 -0.49079468918E+02 -0.67939968776E+03  0.69162536798E+03  0.25500000920E-02 0.  1.
       -2    1    3    3    0  502 -0.11980367118E+03  0.49079468918E+02  0.51454741579E+03  0.53058529663E+03  0.25500000920E-02 0. -1.
</event>
<event>
 5   0  0.5189537E-03  0.1193754E+04  0.7818609E-02  0.9118342E-01
       -2   -1    0    0    0  501  0.00000000000E+00  0.00000000000E+00  0.27070167531E+03  0.27070167532E+03  0.25500000920E-02 0.  1.
        2   -1    0    0  501    0  0.00000000000E+00  0.00000000000E+00 -0.13160681756E+04  0.13160681756E+04  0.25500000920E-02 0. -1.
    10030    2    1    2    0    0  0.00000000000E+00  0.00000000000E+00 -0.10453665003E+04  0.15867698509E+04  0.11937535088E+04 0.  0.
        4    1    3    3  502    0  0.28550364988E+03 -0.48641460750E+03 -0.26306250450E+03  0.62234636550E+03  0.12699999809E+01 0.  1.
       -4    1    3    3    0  502 -0.28550364988E+03  0.48641460750E+03 -0.78230399575E+03  0.96442348538E+03  0.12699999809E+01 0. -1.
</event>
<event>
 5   0  0.2926844E-03  0.1196181E+04  0.7818609E-02  0.9116206E-01
       -1   -1    0    0    0  501  0.00000000000E+00  0.00000000000E+00  0.39331465897E+03  0.39331465900E+03  0.50400001928E-02 0. -1.
        1   -1    0    0  501    0  0.00000000000E+00  0.00000000000E+00 -0.90948115643E+03  0.90948115645E+03  0.50400001928E-02 0.  1.
    10030    2    1    2    0    0  0.00000000000E+00  0.00000000000E+00 -0.51616649746E+03  0.13027958154E+04  0.11961810413E+04 0.  0.
        5    1    3    3  502    0  0.14091592245E+03 -0.18393660796E+03 -0.85858790668E+03  0.88931729795E+03  0.46999998093E+01 0.  1.
       -5    1    3    3    0  502 -0.14091592245E+03  0.18393660796E+03  0.34242140921E+03  0.41347851750E+03  0.46999998093E+01 0. -1.
</event>
<event>
 5   0  0.5189537E-03  0.1208233E+04  0.7818609E-02  0.9105680E-01
        2   -1    0    0  501    0  0.00000000000E+00  0.00000000000E+00  0.65537926343E+03  0.65537926343E+03  0.25500000920E-02 0.  1.
       -2   -1    0    0    0  501  0.00000000000E+00  0.00000000000E+00 -0.55686369011E+03  0.55686369012E+03  0.25500000920E-02 0. -1.
    10030    2    1    2    0    0  0.00000000000E+00  0.00000000000E+00  0.98515573315E+02  0.12122429535E+04  0.12082332806E+04 0.  0.
        4    1    3    3  502    0  0.24705071271E+03  0.10109572613E+03 -0.49448250291E+03  0.56193323365E+03  0.12699999809E+01 0. -1.
       -4    1    3    3    0  502 -0.24705071271E+03 -0.10109572613E+03  0.59299807623E+03  0.65030971990E+03  0.12699999809E+01 0.  1.
</event>
<event>
 5   0  0.2792518E-03  0.1233373E+04  0.7818609E-02  0.9084137E-01
        1   -1    0    0  501    0  0.00000000000E+00  0.00000000000E+00  0.45315157200E+03  0.45315157203E+03  0.50400001928E-02 0. -1.
       -1   -1    0    0    0  501  0.00000000000E+00  0.00000000000E+00 -0.83923816794E+03  0.83923816795E+03  0.50400001928E-02 0.  1.
    10030    2    1    2    0    0  0.00000000000E+00  0.00000000000E+00 -0.38608659594E+03  0.12923897400E+04  0.12333727662E+04 0.  0.
        2    1    3    3  502    0  0.21826689946E+02  0.20023123648E+03  0.41771321261E+03  0.46373837500E+03  0.25500000920E-02 0. -1.
       -2    1    3    3    0  502 -0.21826689946E+02 -0.20023123648E+03 -0.80379980855E+03  0.82865136498E+03  0.25500000920E-02 0.  1.
</event>
<event>
 5   0  0.5031575E-03  0.1196861E+04  0.7818609E-02  0.9115609E-01
       -2   -1    0    0    0  501  0.00000000000E+00  0.00000000000E+00  0.41054467345E+03  0.41054467346E+03  0.25500000920E-02 0. -1.
        2   -1    0    0  501    0  0.00000000000E+00  0.00000000000E+00 -0.87230221102E+03  0.87230221103E+03  0.25500000920E-02 0.  1.
    10030    2    1    2    0    0  0.00000000000E+00  0.00000000000E+00 -0.46175753757E+03  0.12828468845E+04  0.11968609383E+04 0.  0.
        5    1    3    3  502    0  0.50073901522E+03  0.10422475796E+03 -0.56383149794E+03  0.76126894696E+03  0.46999998093E+01 0.  1.
       -5    1    3    3    0  502 -0.50073901522E+03 -0.10422475796E+03  0.10207396037E+03  0.52157793753E+03  0.46999998093E+01 0. -1.
</event>
<event>
 5   0  0.2938349E-03  0.1156341E+04  0.7818609E-02  0.9151954E-01
        1   -1    0    0  501    0  0.00000000000E+00  0.00000000000E+00  0.13720511778E+04  0.13720511778E+04  0.50400001928E-02 0.  1.
       -1   -1    0    0    0  501  0.00000000000E+00  0.00000000000E+00 -0.24363594050E+03  0.24363594055E+03  0.50400001928E-02 0. -1.
    10030    2    1    2    0    0  0.00000000000E+00  0.00000000000E+00  0.11284152373E+04  0.16156871183E+04  0.11563407442E+04 0.  0.
        4    1    3    3  502    0 -0.29910813642E+03 -0.39576142969E+03  0.97913556211E+03  0.10976342052E+04  0.12699999809E+01 0.  1.
       -4    1    3    3    0  502  0.29910813642E+03  0.39576142969E+03  0.14927967515E+03  0.51805291314E+03  0.12699999809E+01 0. -1.
</event>
<event>
 5   0  0.5108045E-03  0.1149204E+04  0.7818609E-02  0.9158518E-01
        2   -1    0    0  501    0  0.00000000000E+00  0.00000000000E+00  0.40413085662E+03  0.40413085663E+03  0.25500000920E-02 0. -1.
       -2   -1    0    0    0  501  0.00000000000E+00  0.00000000000E+00 -0.81698202632E+03  0.81698202632E+03  0.25500000920E-02 0.  1.
    10030    2    1    2    0    0  0.00000000000E+00  0.00000000000E+00 -0.41285116970E+03  0.12211128830E+04  0.11492043267E+04 0.  0.
        3    1    3    3  502    0 -0.56941027689E+03  0.73446618839E+02 -0.23123538238E+03  0.61894448985E+03  0.10100000352E+00 0. -1.
       -3    1    3    3    0  502  0.56941027689E+03 -0.73446618839E+02 -0.18161578732E+03  0.60216839310E+03  0.10100000352E+00 0.  1.
</event>
<event>
 5   0  0.2792518E-03  0.1147862E+04  0.7818609E-02  0.9159759E-01
       -1   -1    0    0    0  501  0.00000000000E+00  0.00000000000E+00  0.86664121703E+03  0.86664121705E+03  0.50400001928E-02 0.  1.
        1   -1    0    0  501    0  0.00000000000E+00  0.00000000000E+00 -0.38008407426E+03  0.38008407429E+03  0.50400001928E-02 0. -1.
    10030    2    1    2    0    0  0.00000000000E+00  0.00000000000E+00  0.48655714278E+03  0.12467252913E+04  0.11478615330E+04 0.  0.
        2    1    3    3  502    0  0.31794678881E+03  0.13375821661E+03  0.74149692574E+03  0.81780138904E+03  0.25500000920E-02 0.  1.
       -2    1    3    3    0  502 -0.31794678881E+03 -0.13375821661E+03 -0.25493978296E+03  0.42892390230E+03  0.25500000920E-02 0. -1.
</event>
<event>
 5   0  0.5003526E-03  0.1206061E+04  0.7818609E-02  0.9107567E-01
       -2   -1    0    0    0  501  0.00000000000E+00  0.00000000000E+00  0.35747837939E+03  0.35747837940E+03  0.25500000920E-02 0.  1.
        2   -1    0    0  501    0  0.00000000000E+00  0.00000000000E+00 -0.10172532085E+04  0.10172532085E+04  0.25500000920E-02 0. -1.
    10030    2    1    2    0    0  0.00000000000E+00  0.00000000000E+00 -0.65977482915E+03  0.13747315879E+04  0.12060614054E+04 0.  0.
        2    1    3    3  502    0  0.45810627091E+03 -0.35730352268E+03 -0.51410269329E+03  0.77577621903E+03  0.25500000920E-02 0. -1.
       -2    1    3    3    0  502 -0.45810627091E+03  0.35730352268E+03 -0.14567213586E+03  0.59895536891E+03  0.25500000920E-02 0.  1.
</event>
<event>
 5   0  0.1922125E-03  0.1170338E+04  0.7818609E-02  0.9139223E-01
       -3   -1    0    0    0  501  0.00000000000E+00  0.00000000000E+00  0.32384985901E+03  0.32384987476E+03  0.10100000352E+00 0.  1.
        3   -1    0    0  501    0  0.00000000000E+00  0.00000000000E+00 -0.10573511431E+04  0.10573511480E+04  0.10100000352E+00 0. -1.
    10030    2    1    2    0    0  0.00000000000E+00  0.00000000000E+00 -0.73350128413E+03  0.13812010227E+04  0.11703384687E+04 0.  0.
        1    1    3    3  502    0 -0.37298508348E+02 -0.18109679309E+03  0.28846906915E+03  0.34263921415E+03  0.50400001928E-02 0.  1.
       -1    1    3    3    0  502  0.37298508348E+02  0.18109679309E+03 -0.10219703533E+04  0.10385618086E+04  0.50400001928E-02 0. -1.
</event>
<event>
 5   0  0.5189537E-03  0.1200834E+04  0.7818609E-02  0.9112127E-01
        2   -1    0    0  501    0  0.00000000000E+00  0.00000000000E+00  0.13925263711E+04  0.13925263711E+04  0.25500000920E-02 0. -1.
       -2   -1    0    0    0  501  0.00000000000E+00  0.00000000000E+00 -0.25888255889E+03  0.25888255890E+03  0.25500000920E-02 0.  1.
    10030    2    1    2    0    0  0.00000000000E+00  0.00000000000E+00  0.11336438122E+04  0.16514089300E+04  0.12008343604E+04 0.  0.
        4    1    3    3  502    0 -0.13934407381E+03  0.88247805269E+02  0.13607583664E+04  0.13707185673E+04  0.12699999809E+01 0. -1.
       -4    1    3    3    0  502  0.13934407381E+03 -0.88247805269E+02 -0.22711455425E+03  0.28069036266E+03  0.12699999809E+01 0.  1.
</event>
<event>
 5   0  0.5031575E-03  0.1103578E+04  0.7818609E-02  0.9201711E-01
        2   -1    0    0  501    0  0.00000000000E+00  0.00000000000E+00  0.95490521469E+03  0.95490521469E+03  0.25500000920E-02 0.  1.
       -2   -1    0    0    0  501  0.00000000000E+00  0.00000000000E+00 -0.31884976364E+03  0.31884976365E+03  0.25500000920E-02 0. -1.
    10030    2    1    2    0    0  0.00000000000E+00  0.00000000000E+00  0.63605545104E+03  0.12737549783E+04  0.11035783652E+04 0.  0.
        5    1    3    3  502    0 -0.20154603774E+02 -0.47925376359E+03  0.32898549077E+01  0.47971167498E+03  0.46999998093E+01 0. -1.
       -5    1    3    3    0  502  0.20154603774E+02  0.47925376359E+03  0.63276559614E+03  0.79404330337E+03  0.46999998093E+01 0.  1.
</event>
<event>
 5   0  0.2938349E-03  0.1205113E+04  0.7818609E-02  0.9108393E-01
       -1   -1    0    0    0  501  0.00000000000E+00  0.00000000000E+00  0.20913414892E+03  0.20913414898E+03  0.50400001928E-02 0.  1.
        1   -1    0    0  501    0  0.00000000000E+00  0.00000000000E+00 -0.17360844175E+04  0.17360844175E+04  0.50400001928E-02 0. -1.
    10030    2    1    2    0    0  0.00000000000E+00  0.00000000000E+00 -0.15269502685E+04  0.19452185664E+04  0.12051133343E+04 0.  0.
        4    1    3    3  502    0  0.28360137123E+03  0.19517884711E+03  0.34745464205E+02  0.34602511513E+03  0.12699999809E+01 0.  1.
       -4    1    3    3    0  502 -0.28360137123E+03 -0.19517884711E+03 -0.15616957327E+04  0.15991934513E+04  0.12699999809E+01 0. -1.
</event>
<event>
 5   0  0.2792518E-03  0.1206253E+04  0.7818609E-02  0.9107400E-01
       -1   -1    0    0    0  501  0.00000000000E+00  0.00000000000E+00  0.27284971949E+03  0.27284971954E+03  0.50400001928E-02 0.  1.
        1   -1    0    0  501    0  0.00000000000E+00  0.00000000000E+00 -0.13331948620E+04  0.13331948620E+04  0.50400001928E-02 0. -1.
    10030    2    1    2    0    0  0.00000000000E+00  0.00000000000E+00 -0.10603451425E+04  0.16060445816E+04  0.12062534463E+04 0.  0.
        2    1    3    3  502    0  0.48461453090E+03 -0.33432171469E+03 -0.35586379044E+03  0.68793988824E+03  0.25500000920E-02 0. -1.
       -2    1    3    3    0  502 -0.48461453090E+03  0.33432171469E+03 -0.70448135208E+03  0.91810469332E+03  0.25500000920E-02 0.  1.
</event>
<event>
 5   0  0.5031575E-03  0.9144132E+03  0.7818609E-02  0.9407741E-01
        2   -1    0    0  501    0  0.00000000000E+00  0.00000000000E+00  0.36177178231E+03  0.36177178232E+03  0.25500000920E-02 0. -1.
       -2   -1    0    0    0  501  0.00000000000E+00  0.00000000000E+00 -0.57781693716E+03  0.57781693717E+03  0.25500000920E-02 0.  1.
    10030    2    1    2    0    0  0.00000000000E+00  0.00000000000E+00 -0.21604515485E+03  0.93958871948E+03  0.91441317403E+03 0.  0.
        5    1    3    3  502    0 -0.24293616952E+03  0.16942687220E+03  0.24983645347E+03  0.38750973016E+03  0.46999998093E+01 0. -1.
       -5    1    3    3    0  502  0.24293616952E+03 -0.16942687220E+03 -0.46588160832E+03  0.55207898933E+03  0.46999998093E+01 0.  1.
</event>
<event>
 5   0  0.2930868E-03  0.1196672E+04  0.7818609E-02  0.9115775E-01
       -1   -1    0    0    0  501  0.00000000000E+00  0.00000000000E+00  0.33897721455E+03  0.33897721459E+03  0.50400001928E-02 0.  1.
        1   -1    0    0  501    0  0.00000000000E+00  0.00000000000E+00 -0.10561355635E+04  0.10561355635E+04  0.50400001928E-02 0. -1.
    10030    2    1    2    0    0  0.00000000000E+00  0.00000000000E+00 -0.71715834893E+03  0.13951127781E+04  0.11966718707E+04 0.  0.
        3    1    3    3  502    0  0.43117078077E+03 -0.40239361892E+03 -0.24096912500E+03  0.63709889040E+03  0.10100000352E+00 0.  1.
       -3    1    3    3    0  502 -0.43117078077E+03  0.40239361892E+03 -0.47618922393E+03  0.75801388769E+03  0.10100000352E+00 0. -1.
</event>
<event>
 5   0  0.5467554E-03  0.1182943E+04  0.7818609E-02  0.9127919E-01
        2   -1    0    0  501    0  0.00000000000E+00  0.00000000000E+00  0.50660195984E+03  0.50660195985E+03  0.25500000920E-02 0. -1.
       -2   -1    0    0    0  501  0.00000000000E+00  0.00000000000E+00 -0.69055898131E+03  0.69055898131E+03  0.25500000920E-02 0.  1.
    10030    2    1    2    0    0  0.00000000000E+00  0.00000000000E+00 -0.18395702147E+03  0.11971609412E+04  0.11829429966E+04 0.  0.
        1    1    3    3  502    0  0.27301856909E+03  0.10267565432E+03  0.42875141015E+03  0.51856455798E+03  0.50400001928E-02 0. -1.
       -1    1    3    3    0  502 -0.27301856909E+03 -0.10267565432E+03 -0.61270843162E+03  0.67859638318E+03  0.50400001928E-02 0.  1.
</event>
<event>
 5   0  0.2875848E-03  0.1205628E+04  0.7818609E-02  0.9107944E-01
       -1   -1    0    0    0  501  0.00000000000E+00  0.00000000000E+00  0.61839710055E+03  0.61839710057E+03  0.50400001928E-02 0.  1.
        1   -1    0    0  501    0  0.00000000000E+00  0.00000000000E+00 -0.58762373137E+03  0.58762373140E+03  0.50400001928E-02 0. -1.
    10030    2    1    2    0    0  0.00000000000E+00  0.00000000000E+00  0.30773369172E+02  0.12060208320E+04  0.12056281545E+04 0.  0.
        1    1    3    3  502    0  0.20310894783E+03 -0.30470754595E+03 -0.46360628051E+03  0.59078821637E+03  0.50400001928E-02 0. -1.
       -1    1    3    3    0  502 -0.20310894783E+03  0.30470754595E+03  0.49437964968E+03  0.61523261559E+03  0.50400001928E-02 0.  1.
</event>
<event>
 5   0  0.5467554E-03  0.1149414E+04  0.7818609E-02  0.9158325E-01
       -2   -1    0    0    0  501  0.00000000000E+00  0.00000000000E+00  0.31278812381E+03  0.31278812382E+03  0.25500000920E-02 0.  1.
        2   -1    0    0  501    0  0.00000000000E+00  0.00000000000E+00 -0.10559476774E+04  0.10559476774E+04  0.25500000920E-02 0. -1.
    10030    2    1    2    0    0  0.00000000000E+00  0.00000000000E+00 -0.74315955356E+03  0.13687358012E+04  0.11494135772E+04 0.  0.
        1    1    3    3  502    0 -0.20485161539E+03  0.51310113108E+02  0.26491020034E+03  0.33878359804E+03  0.50400001928E-02 0.  1.
       -1    1    3    3    0  502  0.20485161539E+03 -0.51310113108E+02 -0.10080697539E+04  0.10299522032E+04  0.50400001928E-02 0. -1.
</event>
<event>
 5   0  0.5108045E-03  0.1204128E+04  0.7818609E-02  0.9109251E-01
       -2   -1    0    0    0  501  0.00000000000E+00  0.00000000000E+00  0.23866849416E+03  0.23866849418E+03  0.25500000920E-02 0.  1.
        2   -1    0    0  501    0  0.00000000000E+00  0.00000000000E+00 -0.15187630354E+04  0.15187630354E+04  0.25500000920E-02 0. -1.
    10030    2    1    2    0    0  0.00000000000E+00  0.00000000000E+00 -0.12800945413E+04  0.17574315296E+04  0.12041277119E+04 0.  0.
        3    1    3    3  502    0  0.49121755385E+03  0.16882158191E+03 -0.19571108941E+03  0.55506598927E+03  0.10100000352E+00 0.  1.
       -3    1    3    3    0  502 -0.49121755385E+03 -0.16882158191E+03 -0.10843834519E+04  0.12023655403E+04  0.10100000352E+00 0. -1.
</event>
<event>
 5   0  0.5031575E-03  0.1246781E+04  0.7818609E-02  0.9072866E-01
       -2   -1    0    0    0  501  0.00000000000E+00  0.00000000000E+00  0.26868875640E+03  0.26868875641E+03  0.25500000920E-02 0. -1.
        2   -1    0    0  501    0  0.00000000000E+00  0.00000000000E+00 -0.14463423606E+04  0.14463423606E+04  0.25500000920E-02 0.  1.
    10030    2    1    2    0    0  0.00000000000E+00  0.00000000000E+00 -0.11776536042E+04  0.17150311170E+04  0.12467813444E+04 0.  0.
        5    1    3    3  502    0 -0.43295989921E+03  0.17351002538E+03 -0.19944100281E+02  0.46688313352E+03  0.46999998093E+01 0. -1.
       -5    1    3    3    0  502  0.43295989921E+03 -0.17351002538E+03 -0.11577095039E+04  0.12481479835E+04  0.46999998093E+01 0.  1.
</event>
<event>
 5   0  0.5108045E-03  0.1185311E+04  0.7818609E-02  0.9125812E-01
        2   -1    0    0  501    0  0.00000000000E+00  0.00000000000E+00  0.95854250164E+03  0.95854250164E+03  0.25500000920E-02 0.  1.
       -2   -1    0    0    0  501  0.00000000000E+00  0.00000000000E+00 -0.36643206041E+03  0.36643206042E+03  0.25500000920E-02 0. -1.
    10030    2    1    2    0    0  0.00000000000E+00  0.00000000000E+00  0.59211044122E+03  0.13249745621E+04  0.11853112737E+04 0.  0.
        3    1    3    3  502    0 -0.15247820827E+03 -0.38908635410E+03 -0.17370262182E+03  0.45255983690E+03  0.10100000352E+00 0. -1.
       -3    1    3    3    0  502  0.15247820827E+03  0.38908635410E+03  0.76581306305E+03  0.87241472516E+03  0.10100000352E+00 0.  1.
</event>
<event>
 5   0  0.2792518E-03  0.1197150E+04  0.7818609E-02  0.9115354E-01
        1   -1    0    0  501    0  0.00000000000E+00  0.00000000000E+00  0.52813801800E+03  0.52813801803E+03  0.50400001928E-02 0.  1.
       -1   -1    0    0    0  501  0.00000000000E+00  0.00000000000E+00 -0.67840657442E+03  0.67840657444E+03  0.50400001928E-02 0. -1.
    10030    2    1    2    0    0  0.00000000000E+00  0.00000000000E+00 -0.15026855642E+03  0.12065445925E+04  0.11971504561E+04 0.  0.
        2    1    3    3  502    0 -0.54580218142E+03 -0.21549470738E+03  0.43921061845E+02  0.58844460218E+03  0.25500000920E-02 0. -1.
       -2    1    3    3    0  502  0.54580218142E+03  0.21549470738E+03 -0.19418961827E+03  0.61809999029E+03  0.25500000920E-02 0.  1.
</event>
<event>
 5   0  0.2930868E-03  0.1185910E+04  0.7818609E-02  0.9125280E-01
        1   -1    0    0  501    0  0.00000000000E+00  0.00000000000E+00  0.92842585183E+03  0.92842585185E+03  0.50400001928E-02 0.  1.
       -1   -1    0    0    0  501  0.00000000000E+00  0.00000000000E+00 -0.37870067425E+03  0.37870067428E+03  0.50400001928E-02 0. -1.
    10030    2    1    2    0    0  0.00000000000E+00  0.00000000000E+00  0.54972517758E+03  0.13071265261E+04  0.11859097708E+04 0.  0.
        3    1    3    3  502    0  0.32199492849E+03  0.42336184418E+03 -0.13992182638E+02  0.53208249028E+03  0.10100000352E+00 0. -1.
       -3    1    3    3    0  502 -0.32199492849E+03 -0.42336184418E+03  0.56371736022E+03  0.77504403585E+03  0.10100000352E+00 0.  1.
</event>
<event>
 5   0  0.1922125E-03  0.1177457E+04  0.7818609E-02  0.9132821E-01
       -3   -1    0    0    0  501  0.00000000000E+00  0.00000000000E+00  0.17894530514E+04  0.17894530543E+04  0.10100000352E+00 0.  1.
        3   -1    0    0  501    0  0.00000000000E+00  0.00000000000E+00 -0.19369099546E+03  0.19369102180E+03  0.10100000352E+00 0. -1.
    10030    2    1    2    0    0  0.00000000000E+00  0.00000000000E+00  0.15957620560E+04  0.19831440761E+04  0.11774565331E+04 0.  0.
        3    1    3    3  502    0  0.26896392672E+03  0.10915647331E+03 -0.64789861914E+02  0.29741295525E+03  0.10100000352E+00 0. -1.
       -3    1    3    3    0  502 -0.26896392672E+03 -0.10915647331E+03  0.16605519179E+04  0.16857311208E+04  0.10100000352E+00 0.  1.
</event>
<event>
 5   0  0.2792518E-03  0.1197954E+04  0.7818609E-02  0.9114649E-01
       -1   -1    0    0    0  501  0.00000000000E+00  0.00000000000E+00  0.22018828017E+03  0.22018828023E+03  0.50400001928E-02 0. -1.
        1   -1    0    0  501    0  0.00000000000E+00  0.00000000000E+00 -0.16293943121E+04  0.16293943121E+04  0.50400001928E-02 0.  1.
    10030    2    1    2    0    0  0.00000000000E+00  0.00000000000E+00 -0.14092060319E+04  0.18495825923E+04  0.11979541416E+04 0.  0.
        2    1    3    3  502    0 -0.30755607662E+02  0.49624554733E+03 -0.18889566451E+03  0.53187134039E+03  0.25500000920E-02 0. -1.
       -2    1    3    3    0  502  0.30755607662E+02 -0.49624554733E+03 -0.12203103674E+04  0.13177112519E+04  0.25500000920E-02 0.  1.
</event>
<event>
 5   0  0.2875848E-03  0.1139500E+04  0.7818609E-02  0.9167525E-01
       -1   -1    0    0    0  501  0.00000000000E+00  0.00000000000E+00  0.17491399896E+03  0.17491399903E+03  0.50400001928E-02 0. -1.
        1   -1    0    0  501    0  0.00000000000E+00  0.00000000000E+00 -0.18558556035E+04  0.18558556035E+04  0.50400001928E-02 0.  1.
    10030    2    1    2    0    0  0.00000000000E+00  0.00000000000E+00 -0.16809416046E+04  0.20307696026E+04  0.11395001100E+04 0.  0.
        1    1    3    3  502    0  0.33987967307E+02  0.55386596800E+03 -0.61021737679E+03  0.82479569554E+03  0.50400001928E-02 0.  1.
       -1    1    3    3    0  502 -0.33987967307E+02 -0.55386596800E+03 -0.10707242278E+04  0.12059739070E+04  0.50400001928E-02 0. -1.
</event>
<event>
 5   0  0.5467554E-03  0.1207873E+04  0.7818609E-02  0.9105993E-01
       -2   -1    0    0    0  501  0.00000000000E+00  0.00000000000E+00  0.48831800156E+03  0.48831800157E+03  0.25500000920E-02 0. -1.
        2   -1    0    0  501    0  0.00000000000E+00  0.00000000000E+00 -0.74693025041E+03  0.74693025041E+03  0.25500000920E-02 0.  1.
    10030    2    1    2    0    0  0.00000000000E+00  0.00000000000E+00 -0.25861224884E+03  0.12352482520E+04  0.12078733165E+04 0.  0.
        1    1    3    3  502    0 -0.53785505959E+03 -0.25786338549E+03 -0.32514923131E+02  0.59735986721E+03  0.50400001928E-02 0. -1.
       -1    1    3    3    0  502  0.53785505959E+03  0.25786338549E+03 -0.22609732571E+03  0.63788838477E+03  0.50400001928E-02 0.  1.
</event>
<event>
 5   0  0.2930868E-03  0.1207909E+04  0.7818609E-02  0.9105962E-01
        1   -1    0    0  501    0  0.00000000000E+00  0.00000000000E+00  0.49719455117E+03  0.49719455119E+03  0.50400001928E-02 0. -1.
       -1   -1    0    0    0  501  0.00000000000E+00  0.00000000000E+00 -0.73363813056E+03  0.73363813058E+03  0.50400001928E-02 0.  1.
    10030    2    1    2    0    0  0.00000000000E+00  0.00000000000E+00 -0.23644357939E+03  0.12308326818E+04  0.12079087400E+04 0.  0.
        3    1    3    3  502    0  0.12990352867E+03 -0.40213928963E+03 -0.55788453788E+03  0.69987577672E+03  0.10100000352E+00 0.  1.
       -3    1    3    3    0  502 -0.12990352867E+03  0.40213928963E+03  0.32144095849E+03  0.53095690505E+03  0.10100000352E+00 0. -1.
</event>
<event>
 5   0  0.5003526E-03  0.1182012E+04  0.7818609E-02  0.9128749E-01
        2   -1    0    0  501    0  0.00000000000E+00  0.00000000000E+00  0.13359787699E+04  0.13359787699E+04  0.25500000920E-02 0.  1.
       -2   -1    0    0    0  501  0.00000000000E+00  0.00000000000E+00 -0.26144736600E+03  0.26144736601E+03  0.25500000920E-02 0. -1.
    10030    2    1    2    0    0  0.00000000000E+00  0.00000000000E+00  0.10745314039E+04  0.15974261359E+04  0.11820120650E+04 0.  0.
        2    1    3    3  502    0  0.42723786126E+03 -0.30244384228E+03  0.90807383080E+03  0.10481424283E+04  0.25500000920E-02 0.  1.
       -2    1    3    3    0  502 -0.42723786126E+03  0.30244384228E+03  0.16645757313E+03  0.54928370764E+03  0.25500000920E-02 0. -1.
</event>
<event>
 5   0  0.2926844E-03  0.1185861E+04  0.7818609E-02  0.9125323E-01
       -1   -1    0    0    0  501  0.00000000000E+00  0.00000000000E+00  0.38902565578E+03  0.38902565581E+03  0.50400001928E-02 0. -1.
        1   -1    0    0  501    0  0.00000000000E+00  0.00000000000E+00 -0.90370995593E+03  0.90370995595E+03  0.50400001928E-02 0.  1.
    10030    2    1    2    0    0  0.00000000000E+00  0.00000000000E+00 -0.51468430016E+03  0.12927356118E+04  0.11858606297E+04 0.  0.
        5    1    3    3  502    0 -0.19102205729E+03  0.55562125429E+03 -0.17054289026E+03  0.61180991493E+03  0.46999998093E+01 0.  1.
       -5    1    3    3    0  502  0.19102205729E+03 -0.55562125429E+03 -0.34414140990E+03  0.68092569683E+03  0.46999998093E+01 0. -1.
</event>
<event>
 5   0  0.5189537E-03  0.1216286E+04  0.7818609E-02  0.9098720E-01
        2   -1    0    0  501    0  0.00000000000E+00  0.00000000000E+00  0.12949900496E+04  0.12949900496E+04  0.25500000920E-02 0.  1.
       -2   -1    0    0    0  501  0.00000000000E+00  0.00000000000E+00 -0.28559129117E+03  0.28559129118E+03  0.25500000920E-02 0. -1.
    10030    2    1    2    0    0  0.00000000000E+00  0.00000000000E+00  0.10093987584E+04  0.15805813407E+04  0.12162859537E+04 0.  0.
        4    1    3    3  502    0 -0.42933726993E+03 -0.25950347064E+03  0.57991877718E+02  0.50501209233E+03  0.12699999809E+01 0. -1.
       -4    1    3    3    0  502  0.42933726993E+03  0.25950347064E+03  0.95140688067E+03  0.10755692484E+04  0.12699999809E+01 0.  1.
</event>
<event>
 5   0  0.5467554E-03  0.1227360E+04  0.7818609E-02  0.9089240E-01
       -2   -1    0    0    0  501  0.00000000000E+00  0.00000000000E+00  0.38121553687E+03  0.38121553688E+03  0.25500000920E-02 0. -1.
        2   -1    0    0  501    0  0.00000000000E+00  0.00000000000E+00 -0.98790075993E+03  0.98790075993E+03  0.25500000920E-02 0.  1.
    10030    2    1    2    0    0  0.00000000000E+00  0.00000000000E+00 -0.60668522306E+03  0.13691162968E+04  0.12273599612E+04 0.  0.
        1    1    3    3  502    0  0.56354121897E+02 -0.50965644615E+03  0.72759619517E+02  0.51789906586E+03  0.50400001928E-02 0. -1.
       -1    1    3    3    0  502 -0.56354121897E+02  0.50965644615E+03 -0.67944484258E+03  0.85121723096E+03  0.50400001928E-02 0.  1.
</event>
<event>
 5   0  0.5108045E-03  0.1300761E+04  0.7818609E-02  0.9028962E-01
       -2   -1    0    0    0  501  0.00000000000E+00  0.00000000000E+00  0.45998027699E+03  0.45998027699E+03  0.25500000920E-02 0. -1.
        2   -1    0    0  501    0  0.00000000000E+00  0.00000000000E+00 -0.91959344791E+03  0.91959344791E+03  0.25500000920E-02 0.  1.
    10030    2    1    2    0    0  0.00000000000E+00  0.00000000000E+00 -0.45961317092E+03  0.13795737249E+04  0.13007610832E+04 0.  0.
        3    1    3    3  502    0 -0.32386358357E+03 -0.56139760305E+03 -0.17230003806E+03  0.67062821502E+03  0.10100000352E+00 0. -1.
       -3    1    3    3    0  502  0.32386358357E+03  0.56139760305E+03 -0.28731313287E+03  0.70894550988E+03  0.10100000352E+00 0.  1.
</event>
<event>
 5   0  0.2938349E-03  0.1194655E+04  0.7818609E-02  0.9117548E-01
       -1   -1    0    0    0  501  0.00000000000E+00  0.00000000000E+00  0.76706838947E+03  0.76706838949E+03  0.50400001928E-02 0. -1.
        1   -1    0    0  501    0  0.00000000000E+00  0.00000000000E+00 -0.46514757106E+03  0.46514757109E+03  0.50400001928E-02 0.  1.
    10030    2    1    2    0    0  0.00000000000E+00  0.00000000000E+00  0.30192081841E+03  0.12322159606E+04  0.11946547589E+04 0.  0.
        4    1    3    3  502    0  0.68430060296E+02 -0.58800659501E+03  0.23324300992E+03  0.63626908106E+03  0.12699999809E+01 0. -1.
       -4    1    3    3    0  502 -0.68430060296E+02  0.58800659501E+03  0.68677808486E+02  0.59594687952E+03  0.12699999809E+01 0.  1.
</event>
<event>
 5   0  0.5189537E-03  0.1154982E+04  0.7818609E-02  0.9153199E-01
        2   -1    0    0  501    0  0.00000000000E+00  0.00000000000E+00  0.60433115907E+03  0.60433115907E+03  0.25500000920E-02 0. -1.
       -2   -1    0    0    0  501  0.00000000000E+00  0.00000000000E+00 -0.55184311958E+03  0.55184311958E+03  0.25500000920E-02 0.  1.
    10030    2    1    2    0    0  0.00000000000E+00  0.00000000000E+00  0.52488039493E+02  0.11561742787E+04  0.11549822372E+04 0.  0.
        4    1    3    3  502    0  0.28428226904E+03  0.18048648349E+03 -0.44339111971E+03  0.55676662719E+03  0.12699999809E+01 0.  1.
       -4    1    3    3    0  502 -0.28428226904E+03 -0.18048648349E+03  0.49587915920E+03  0.59940765147E+03  0.12699999809E+01 0. -1.
</event>
<event>
 5   0  0.5189537E-03  0.1194187E+04  0.7818609E-02  0.9117960E-01
        2   -1    0    0  501    0  0.00000000000E+00  0.00000000000E+00  0.14734666321E+04  0.14734666321E+04  0.25500000920E-02 0.  1.
       -2   -1    0    0    0  501  0.00000000000E+00  0.00000000000E+00 -0.24196025688E+03  0.24196025689E+03  0.25500000920E-02 0. -1.
    10030    2    1    2    0    0  0.00000000000E+00  0.00000000000E+00  0.12315063752E+04  0.17154268890E+04  0.11941865262E+04 0.  0.
        4    1    3    3  502    0 -0.19858795566E+03  0.78359401110E+02 -0.18525933812E+03  0.28266589313E+03  0.12699999809E+01 0. -1.
       -4    1    3    3    0  502  0.19858795566E+03 -0.78359401110E+02  0.14167657133E+04  0.14327609958E+04  0.12699999809E+01 0.  1.
</event>
<event>
 5   0  0.2792518E-03  0.1192438E+04  0.7818609E-02  0.9119501E-01
       -1   -1    0    0    0  501  0.00000000000E+00  0.00000000000E+00  0.15063530813E+03  0.15063530822E+03  0.50400001928E-02 0.  1.
        1   -1    0    0  501    0  0.00000000000E+00  0.00000000000E+00 -0.23598528118E+04  0.23598528118E+04  0.50400001928E-02 0. -1.
    10030    2    1    2    0    0  0.00000000000E+00  0.00000000000E+00 -0.22092175036E+04  0.25104881200E+04  0.11924381000E+04 0.  0.
        2    1    3    3  502    0  0.15059201789E+03  0.33283555124E+03 -0.11259411953E+03  0.38227594193E+03  0.25500000920E-02 0.  1.
       -2    1    3    3    0  502 -0.15059201789E+03 -0.33283555124E+03 -0.20966233841E+04  0.21282121781E+04  0.25500000920E-02 0. -1.
</event>
<event>
 5   0  0.5467554E-03  0.1215309E+04  0.7818609E-02  0.9099561E-01
        2   -1    0    0  501    0  0.00000000000E+00  0.00000000000E+00  0.81010798656E+03  0.81010798657E+03  0.25500000920E-02 0. -1.
       -2   -1    0    0    0  501  0.00000000000E+00  0.00000000000E+00 -0.45579630091E+03  0.45579630092E+03  0.25500000920E-02 0.  1.
    10030    2    1    2    0    0  0.00000000000E+00  0.00000000000E+00  0.35431168565E+03  0.12659042875E+04  0.12153093822E+04 0.  0.
        1    1    3    3  502    0 -0.14542540466E+03 -0.57940167655E+03  0.29309727889E+03  0.66540278480E+03  0.50400001928E-02 0. -1.
       -1    1    3    3    0  502  0.14542540466E+03  0.57940167655E+03  0.61214406760E+02  0.60050150269E+03  0.50400001928E-02 0.  1.
</event>
<event>
 5   0  0.2926844E-03  0.1212956E+04  0.7818609E-02  0.9101591E-01
        1   -1    0    0  501    0  0.00000000000E+00  0.00000000000E+00  0.54885703068E+03  0.54885703070E+03  0.50400001928E-02 0. -1.
       -1   -1    0    0    0  501  0.00000000000E+00  0.00000000000E+00 -0.67014850147E+03  0.67014850149E+03  0.50400001928E-02 0.  1.
    10030    2    1    2    0    0  0.00000000000E+00  0.00000000000E+00 -0.12129147079E+03  0.12190055322E+04  0.12129562509E+04 0.  0.
        5    1    3    3  502    0 -0.41845506163E+03  0.24237528357E+03  0.30716202733E+03  0.57290576687E+03  0.46999998093E+01 0. -1.
       -5    1    3    3    0  502  0.41845506163E+03 -0.24237528357E+03 -0.42845349812E+03  0.64609976531E+03  0.46999998093E+01 0.  1.
</event>
<event>
 5   0  0.2926844E-03  0.1203815E+04  0.7818609E-02  0.9109524E-01
       -1   -1    0    0    0  501  0.00000000000E+00  0.00000000000E+00  0.71321200346E+03  0.71321200348E+03  0.50400001928E-02 0. -1.
        1   -1    0    0  501    0  0.00000000000E+00  0.00000000000E+00 -0.50797358000E+03  0.50797358002E+03  0.50400001928E-02 0.  1.
    10030    2    1    2    0    0  0.00000000000E+00  0.00000000000E+00  0.20523842346E+03  0.12211855835E+04  0.12038153591E+04 0.  0.
        5    1    3    3  502    0 -0.36479192297E+03 -0.47514395959E+03  0.16208099902E+03  0.62058623062E+03  0.46999998093E+01 0. -1.
       -5    1    3    3    0  502  0.36479192297E+03  0.47514395959E+03  0.43157424440E+02  0.60059935288E+03  0.46999998093E+01 0.  1.
</event>
<event>
 5   0  0.2926844E-03  0.1202818E+04  0.7818609E-02  0.9110393E-01
       -1   -1    0    0    0  501  0.00000000000E+00  0.00000000000E+00  0.12334363302E+04  0.12334363302E+04  0.50400001928E-02 0. -1.
        1   -1    0    0  501    0  0.00000000000E+00  0.00000000000E+00 -0.29324017495E+03  0.29324017499E+03  0.50400001928E-02 0.  1.
    10030    2    1    2    0    0  0.00000000000E+00  0.00000000000E+00  0.94019615525E+03  0.15266765052E+04  0.12028184989E+04 0.  0.
        5    1    3    3  502    0  0.44183047877E+03  0.38529492948E+03  0.64040768671E+03  0.86822258082E+03  0.46999998093E+01 0. -1.
       -5    1    3    3    0  502 -0.44183047877E+03 -0.38529492948E+03  0.29978846855E+03  0.65845392438E+03  0.46999998093E+01 0.  1.
</event>
<event>
 5   0  0.2792518E-03  0.1166855E+04  0.7818609E-02  0.9142373E-01
       -1   -1    0    0    0  501  0.00000000000E+00  0.00000000000E+00  0.60884619043E+03  0.60884619045E+03  0.50400001928E-02 0. -1.
        1   -1    0    0  501    0  0.00000000000E+00  0.00000000000E+00 -0.55907006576E+03  0.55907006579E+03  0.50400001928E-02 0.  1.
    10030    2    1    2    0    0  0.00000000000E+00  0.00000000000E+00  0.49776124670E+02  0.11679162562E+04  0.11668550548E+04 0.  0.
        2    1    3    3  502    0 -0.39475054882E+03 -0.36583395622E+03  0.25031544951E+03  0.59356575338E+03  0.25500000920E-02 0. -1.
       -2    1    3    3    0  502  0.39475054882E+03  0.36583395622E+03 -0.20053932484E+03  0.57435050286E+03  0.25500000920E-02 0.  1.
</event>
<event>
 5   0  0.5108045E-03  0.1215994E+04  0.7818609E-02  0.9098971E-01
        2   -1    0    0  501    0  0.00000000000E+00  0.00000000000E+00  0.45635180455E+03  0.45635180456E+03  0.25500000920E-02 0.  1.
       -2   -1    0    0    0  501  0.00000000000E+00  0.00000000000E+00 -0.81003416418E+03  0.81003416418E+03  0.25500000920E-02 0. -1.
    10030    2    1    2    0    0  0.00000000000E+00  0.00000000000E+00 -0.35368235962E+03  0.12663859687E+04  0.12159943299E+04 0.  0.
        3    1    3    3  502    0  0.45858782567E+03 -0.39493123173E+03 -0.23745151326E+03  0.65012052959E+03  0.10100000352E+00 0. -1.
       -3    1    3    3    0  502 -0.45858782567E+03  0.39493123173E+03 -0.11623084636E+03  0.61626543915E+03  0.10100000352E+00 0.  1.
</event>
<event>
 5   0  0.5031575E-03  0.1196624E+04  0.7818609E-02  0.9115816E-01
        2   -1    0    0  501    0  0.00000000000E+00  0.00000000000E+00  0.11217030998E+04  0.11217030998E+04  0.25500000920E-02 0.  1.
       -2   -1    0    0    0  501  0.00000000000E+00  0.00000000000E+00 -0.31913749183E+03  0.31913749184E+03  0.25500000920E-02 0. -1.
    10030    2    1    2    0    0  0.00000000000E+00  0.00000000000E+00  0.80256560799E+03  0.14408405917E+04  0.11966244421E+04 0.  0.
        5    1    3    3  502    0 -0.29972904316E+03 -0.42295200582E+03  0.41606060973E+02  0.52007600680E+03  0.46999998093E+01 0. -1.
       -5    1    3    3    0  502  0.29972904316E+03  0.42295200582E+03  0.76095954701E+03  0.92076458486E+03  0.46999998093E+01 0.  1.
</event>
<event>
 5   0  0.5003526E-03  0.1050392E+04  0.7818609E-02  0.9254940E-01
       -2   -1    0    0    0  501  0.00000000000E+00  0.00000000000E+00  0.21959386526E+03  0.21959386527E+03  0.25500000920E-02 0. -1.
        2   -1    0    0  501    0  0.00000000000E+00  0.00000000000E+00 -0.12560946728E+04  0.12560946728E+04  0.25500000920E-02 0.  1.
    10030    2    1    2    0    0  0.00000000000E+00  0.00000000000E+00 -0.10365008076E+04  0.14756885381E+04  0.10503917066E+04 0.  0.
        2    1    3    3  502    0  0.39143039140E+02  0.51270029828E+02  0.21400767881E+03  0.22351751624E+03  0.25500000920E-02 0. -1.
       -2    1    3    3    0  502 -0.39143039140E+02 -0.51270029828E+02 -0.12505084864E+04  0.12521710219E+04  0.25500000920E-02 0.  1.
</event>
<event>
 5   0  0.2792518E-03  0.1213950E+04  0.7818609E-02  0.9100733E-01
       -1   -1    0    0    0  501  0.00000000000E+00  0.00000000000E+00  0.75978787322E+03  0.75978787324E+03  0.50400001928E-02 0. -1.
        1   -1    0    0  501    0  0.00000000000E+00  0.00000000000E+00 -0.48489640822E+03  0.48489640825E+03  0.50400001928E-02 0.  1.
    10030    2    1    2    0    0  0.00000000000E+00  0.00000000000E+00  0.27489146500E+03  0.12446842815E+04  0.12139496048E+04 0.  0.
        2    1    3    3  502    0 -0.40034020878E+03 -0.14283343460E+03  0.58171107388E+03  0.72045919127E+03  0.25500000920E-02 0. -1.
       -2    1    3    3    0  502  0.40034020878E+03  0.14283343460E+03 -0.30681960888E+03  0.52422509021E+03  0.25500000920E-02 0.  1.
</event>
<event>
 5   0  0.5467554E-03  0.1212658E+04  0.7818609E-02  0.9101849E-01
       -2   -1    0    0    0  501  0.00000000000E+00  0.00000000000E+00  0.72427534495E+03  0.72427534495E+03  0.25500000920E-02 0. -1.
        2   -1    0    0  501    0  0.00000000000E+00  0.00000000000E+00 -0.50758955495E+03  0.50758955495E+03  0.25500000920E-02 0.  1.
    10030    2    1    2    0    0  0.00000000000E+00  0.00000000000E+00  0.21668579000E+03  0.12318648999E+04  0.12126575774E+04 0.  0.
        1    1    3    3  502    0 -0.13762653147E+03  0.28245953913E+03  0.63512194011E+03  0.70859320646E+03  0.50400001928E-02 0. -1.
       -1    1    3    3    0  502  0.13762653147E+03 -0.28245953913E+03 -0.41843615011E+03  0.52327169344E+03  0.50400001928E-02 0.  1.
</event>
<event>
 5   0  0.1922125E-03  0.1243682E+04  0.7818609E-02  0.9075459E-01
        3   -1    0    0  501    0  0.00000000000E+00  0.00000000000E+00  0.49272431599E+03  0.49272432634E+03  0.10100000352E+00 0.  1.
       -3   -1    0    0    0  501  0.00000000000E+00  0.00000000000E+00 -0.78479168483E+03  0.78479169133E+03  0.10100000352E+00 0. -1.
    10030    2    1    2    0    0  0.00000000000E+00  0.00000000000E+00 -0.29206736885E+03  0.12775160177E+04  0.12436815619E+04 0.  0.
        5    1    3    3  502    0  0.58728256916E+03 -0.19587016397E+03 -0.20591128000E+03  0.65244730240E+03  0.46999998093E+01 0. -1.
       -5    1    3    3    0  502 -0.58728256916E+03  0.19587016397E+03 -0.86156088849E+02  0.62506871528E+03  0.46999998093E+01 0.  1.
</event>
<event>
 5   0  0.2792518E-03  0.1160881E+04  0.7818609E-02  0.9147804E-01
        1   -1    0    0  501    0  0.00000000000E+00  0.00000000000E+00  0.13325260287E+04  0.13325260287E+04  0.50400001928E-02 0. -1.
       -1   -1    0    0    0  501  0.00000000000E+00  0.00000000000E+00 -0.25283643876E+03  0.25283643881E+03  0.50400001928E-02 0.  1.
    10030    2    1    2    0    0  0.00000000000E+00  0.00000000000E+00  0.10796895899E+04  0.15853624675E+04  0.11608809339E+04 0.  0.
        2    1    3    3  502    0 -0.82731656597E+02  0.43232568235E+03  0.23126989582E+02  0.44077758595E+03  0.25500000920E-02 0.  1.
       -2    1    3    3    0  502  0.82731656597E+02 -0.43232568235E+03  0.10565626003E+04  0.11445848815E+04  0.25500000920E-02 0. -1.
</event>
<event>
 5   0  0.2875848E-03  0.1194656E+04  0.7818609E-02  0.9117547E-01
        1   -1    0    0  501    0  0.00000000000E+00  0.00000000000E+00  0.92077305681E+03  0.92077305682E+03  0.50400001928E-02 0.  1.
       -1   -1    0    0    0  501  0.00000000000E+00  0.00000000000E+00 -0.38750109979E+03  0.38750109983E+03  0.50400001928E-02 0. -1.
    10030    2    1    2    0    0  0.00000000000E+00  0.00000000000E+00  0.53327195701E+03  0.13082741566E+04  0.11946557198E+04 0.  0.
        1    1    3    3  502    0 -0.47452261421E+02  0.21290572328E+03 -0.34232545555E+03  0.40591536269E+03  0.50400001928E-02 0. -1.
       -1    1    3    3    0  502  0.47452261421E+02 -0.21290572328E+03  0.87559741256E+03  0.90235879396E+03  0.50400001928E-02 0.  1.
</event>
<event>
 5   0  0.2930868E-03  0.1159419E+04  0.7818609E-02  0.9149138E-01
       -1   -1    0    0    0  501  0.00000000000E+00  0.00000000000E+00  0.11717198600E+04  0.11717198600E+04  0.50400001928E-02 0.  1.
        1   -1    0    0  501    0  0.00000000000E+00  0.00000000000E+00 -0.28681198577E+03  0.28681198581E+03  0.50400001928E-02 0. -1.
    10030    2    1    2    0    0  0.00000000000E+00  0.00000000000E+00  0.88490787425E+03  0.14585318458E+04  0.11594193372E+04 0.  0.
        3    1    3    3  502    0  0.11594644248E+03  0.56345511516E+03  0.53262648529E+03  0.78397463439E+03  0.10100000352E+00 0. -1.
       -3    1    3    3    0  502 -0.11594644248E+03 -0.56345511516E+03  0.35228138896E+03  0.67455721146E+03  0.10100000352E+00 0.  1.
</event>
<event>
 5   0  0.2792518E-03  0.1212738E+04  0.7818609E-02  0.9101779E-01
       -1   -1    0    0    0  501  0.00000000000E+00  0.00000000000E+00  0.71727960644E+03  0.71727960646E+03  0.50400001928E-02 0. -1.
        1   -1    0    0  501    0  0.00000000000E+00  0.00000000000E+00 -0.51260823940E+03  0.51260823943E+03  0.50400001928E-02 0.  1.
    10030    2    1    2    0    0  0.00000000000E+00  0.00000000000E+00  0.20467136704E+03  0.12298878459E+04  0.12127381189E+04 0.  0.
        2    1    3    3  502    0  0.45122291700E+03 -0.16548164248E+03  0.47728986183E+03  0.67734179484E+03  0.25500000920E-02 0. -1.
       -2    1    3    3    0  502 -0.45122291700E+03  0.16548164248E+03 -0.27261849479E+03  0.55254605105E+03  0.25500000920E-02 0.  1.
</event>
<event>
 5   0  0.2930868E-03  0.1196658E+04  0.7818609E-02  0.9115787E-01
       -1   -1    0    0    0  501  0.00000000000E+00  0.00000000000E+00  0.30077430927E+03  0.30077430931E+03  0.50400001928E-02 0. -1.
        1   -1    0    0  501    0  0.00000000000E+00  0.00000000000E+00 -0.11902530640E+04  0.11902530640E+04  0.50400001928E-02 0.  1.
    10030    2    1    2    0    0  0.00000000000E+00  0.00000000000E+00 -0.88947875469E+03  0.14910273733E+04  0.11966579180E+04 0.  0.
        3    1    3    3  502    0 -0.17536653859E+03  0.54863744481E+03 -0.24289980353E+03  0.62510542588E+03  0.10100000352E+00 0. -1.
       -3    1    3    3    0  502  0.17536653859E+03 -0.54863744481E+03 -0.64657895116E+03  0.86592194740E+03  0.10100000352E+00 0.  1.
</event>
<event>
 5   0  0.2875848E-03  0.1218187E+04  0.7818609E-02  0.9097085E-01
       -1   -1    0    0    0  501  0.00000000000E+00  0.00000000000E+00  0.21817595430E+03  0.21817595436E+03  0.50400001928E-02 0. -1.
        1   -1    0    0  501    0  0.00000000000E+00  0.00000000000E+00 -0.17004378891E+04  0.17004378891E+04  0.50400001928E-02 0.  1.
    10030    2    1    2    0    0  0.00000000000E+00  0.00000000000E+00 -0.14822619348E+04  0.19186138435E+04  0.12181866183E+04 0.  0.
        1    1    3    3  502    0 -0.59667712492E+03 -0.12211685376E+03 -0.72908041404E+03  0.94999703554E+03  0.50400001928E-02 0. -1.
       -1    1    3    3    0  502  0.59667712492E+03  0.12211685376E+03 -0.75318152078E+03  0.96861680795E+03  0.50400001928E-02 0.  1.
</event>
<event>
 5   0  0.2792518E-03  0.1188019E+04  0.7818609E-02  0.9123408E-01
       -1   -1    0    0    0  501  0.00000000000E+00  0.00000000000E+00  0.30062360394E+03  0.30062360399E+03  0.50400001928E-02 0.  1.
        1   -1    0    0  501    0  0.00000000000E+00  0.00000000000E+00 -0.11737185467E+04  0.11737185467E+04  0.50400001928E-02 0. -1.
    10030    2    1    2    0    0  0.00000000000E+00  0.00000000000E+00 -0.87309494279E+03  0.14743421507E+04  0.11880193594E+04 0.  0.
        2    1    3    3  502    0  0.81469862699E+02  0.32718576062E+03  0.17035472456E+03  0.37776790847E+03  0.25500000920E-02 0.  1.
       -2    1    3    3    0  502 -0.81469862699E+02 -0.32718576062E+03 -0.10434496674E+04  0.10965742423E+04  0.25500000920E-02 0. -1.
</event>
<event>
 5   0  0.5003526E-03  0.1201990E+04  0.7818609E-02  0.9111116E-01
        2   -1    0    0  501    0  0.00000000000E+00  0.00000000000E+00  0.52445541004E+03  0.52445541005E+03  0.25500000920E-02 0. -1.
       -2   -1    0    0    0  501  0.00000000000E+00  0.00000000000E+00 -0.68870541948E+03  0.68870541949E+03  0.25500000920E-02 0.  1.
    10030    2    1    2    0    0  0.00000000000E+00  0.00000000000E+00 -0.16425000944E+03  0.12131608295E+04  0.12019904878E+04 0.  0.
        2    1    3    3  502    0 -0.10175418537E+03  0.59225668115E+03 -0.73478444613E+02  0.60540975582E+03  0.25500000920E-02 0. -1.
       -2    1    3    3    0  502  0.10175418537E+03 -0.59225668115E+03 -0.90771564829E+02  0.60775107371E+03  0.25500000920E-02 0.  1.
</event>
<event>
 5   0  0.2792518E-03  0.1186012E+04  0.7818609E-02  0.9125189E-01
        1   -1    0    0  501    0  0.00000000000E+00  0.00000000000E+00  0.99196874720E+03  0.99196874721E+03  0.50400001928E-02 0. -1.
       -1   -1    0    0    0  501  0.00000000000E+00  0.00000000000E+00 -0.35450321466E+03  0.35450321470E+03  0.50400001928E-02 0.  1.
    10030    2    1    2    0    0  0.00000000000E+00  0.00000000000E+00  0.63746553254E+03  0.13464719619E+04  0.11860119894E+04 0.  0.
        2    1    3    3  502    0 -0.39897524845E+03 -0.69784590641E+01  0.81674532397E+03  0.90901203073E+03  0.25500000920E-02 0. -1.
       -2    1    3    3    0  502  0.39897524845E+03  0.69784590641E+01 -0.17927979144E+03  0.43745993119E+03  0.25500000920E-02 0.  1.
</event>
<event>
 5   0  0.2926844E-03  0.1210590E+04  0.7818609E-02  0.9103637E-01
        1   -1    0    0  501    0  0.00000000000E+00  0.00000000000E+00  0.24606042208E+03  0.24606042214E+03  0.50400001928E-02 0.  1.
       -1   -1    0    0    0  501  0.00000000000E+00  0.00000000000E+00 -0.14889919287E+04  0.14889919287E+04  0.50400001928E-02 0. -1.
    10030    2    1    2    0    0  0.00000000000E+00  0.00000000000E+00 -0.12429315066E+04  0.17350523509E+04  0.12105899099E+04 0.  0.
        5    1    3    3  502    0  0.54404279371E+03  0.16301564244E+03 -0.92142938875E+03  0.10824097512E+04  0.46999998093E+01 0. -1.
       -5    1    3    3    0  502 -0.54404279371E+03 -0.16301564244E+03 -0.32150211787E+03  0.65264259964E+03  0.46999998093E+01 0.  1.
</event>
<event>
 5   0  0.1922125E-03  0.1201468E+04  0.7818609E-02  0.9111572E-01
        3   -1    0    0  501    0  0.00000000000E+00  0.00000000000E+00  0.47549419304E+03  0.47549420377E+03  0.10100000352E+00 0. -1.
       -3   -1    0    0    0  501  0.00000000000E+00  0.00000000000E+00 -0.75896071652E+03  0.75896072324E+03  0.10100000352E+00 0.  1.
    10030    2    1    2    0    0  0.00000000000E+00  0.00000000000E+00 -0.28346652348E+03  0.12344549270E+04  0.12014681423E+04 0.  0.
        3    1    3    3  502    0  0.17021794334E+03  0.29480389393E+02 -0.73288914427E+03  0.75297393686E+03  0.10100000352E+00 0.  1.
       -3    1    3    3    0  502 -0.17021794334E+03 -0.29480389393E+02  0.44942262080E+03  0.48148099015E+03  0.10100000352E+00 0. -1.
</event>
<event>
 5   0  0.5108045E-03  0.1207130E+04  0.7818609E-02  0.9106638E-01
       -2   -1    0    0    0  501  0.00000000000E+00  0.00000000000E+00  0.23713086417E+03  0.23713086419E+03  0.25500000920E-02 0.  1.
        2   -1    0    0  501    0  0.00000000000E+00  0.00000000000E+00 -0.15362439510E+04  0.15362439510E+04  0.25500000920E-02 0. -1.
    10030    2    1    2    0    0  0.00000000000E+00  0.00000000000E+00 -0.12991130868E+04  0.17733748152E+04  0.12071302427E+04 0.  0.
        3    1    3    3  502    0 -0.17477608879E+03  0.26969535228E+03  0.10098338049E+03  0.33686780433E+03  0.10100000352E+00 0.  1.
       -3    1    3    3    0  502  0.17477608879E+03 -0.26969535228E+03 -0.14000964673E+04  0.14365070109E+04  0.10100000352E+00 0. -1.
</event>
<event>
 5   0  0.5108045E-03  0.1242114E+04  0.7818609E-02  0.9076772E-01
       -2   -1    0    0    0  501  0.00000000000E+00  0.00000000000E+00  0.50198478548E+03  0.50198478548E+03  0.25500000920E-02 0. -1.
        2   -1    0    0  501    0  0.00000000000E+00  0.00000000000E+00 -0.76837352587E+03  0.76837352588E+03  0.25500000920E-02 0.  1.
    10030    2    1    2    0    0  0.00000000000E+00  0.00000000000E+00 -0.26638874039E+03  0.12703583114E+04  0.12421140359E+04 0.  0.
        3    1    3    3  502    0  0.37575348897E+03 -0.41760342074E+03 -0.40403390752E+03  0.69197305591E+03  0.10100000352E+00 0. -1.
       -3    1    3    3    0  502 -0.37575348897E+03  0.41760342074E+03  0.13764516712E+03  0.57838525545E+03  0.10100000352E+00 0.  1.
</event>
<event>
 5   0  0.5189537E-03  0.1209263E+04  0.7818609E-02  0.9104787E-01
       -2   -1    0    0    0  501  0.00000000000E+00  0.00000000000E+00  0.54370719284E+03  0.54370719285E+03  0.25500000920E-02 0.  1.
        2   -1    0    0  501    0  0.00000000000E+00  0.00000000000E+00 -0.67238242519E+03  0.67238242520E+03  0.25500000920E-02 0. -1.
    10030    2    1    2    0    0  0.00000000000E+00  0.00000000000E+00 -0.12867523235E+03  0.12160896180E+04  0.12092628514E+04 0.  0.
        4    1    3    3  502    0  0.49644702038E+02 -0.29482195712E+03 -0.59284514163E+03  0.66396653356E+03  0.12699999809E+01 0. -1.
       -4    1    3    3    0  502 -0.49644702038E+02  0.29482195712E+03  0.46416990928E+03  0.55212308448E+03  0.12699999809E+01 0.  1.
</event>
<event>
 5   0  0.5108045E-03  0.1211580E+04  0.7818609E-02  0.9102781E-01
        2   -1    0    0  501    0  0.00000000000E+00  0.00000000000E+00  0.96456144608E+03  0.96456144608E+03  0.25500000920E-02 0.  1.
       -2   -1    0    0    0  501  0.00000000000E+00  0.00000000000E+00 -0.38046453241E+03  0.38046453242E+03  0.25500000920E-02 0. -1.
    10030    2    1    2    0    0  0.00000000000E+00  0.00000000000E+00  0.58409691366E+03  0.13450259785E+04  0.12115798275E+04 0.  0.
        3    1    3    3  502    0 -0.41948358904E+03 -0.10679908448E+03 -0.17843303698E+03  0.46819962069E+03  0.10100000352E+00 0. -1.
       -3    1    3    3    0  502  0.41948358904E+03  0.10679908448E+03  0.76252995065E+03  0.87682635782E+03  0.10100000352E+00 0.  1.
</event>
<event>
 5   0  0.5467554E-03  0.1179731E+04  0.7818609E-02  0.9130785E-01
        2   -1    0    0  501    0  0.00000000000E+00  0.00000000000E+00  0.17348089745E+04  0.17348089745E+04  0.25500000920E-02 0.  1.
       -2   -1    0    0    0  501  0.00000000000E+00  0.00000000000E+00 -0.20056469755E+03  0.20056469757E+03  0.25500000920E-02 0. -1.
    10030    2    1    2    0    0  0.00000000000E+00  0.00000000000E+00  0.15342442769E+04  0.19353736721E+04  0.11797312190E+04 0.  0.
        1    1    3    3  502    0 -0.91824275161E+02  0.18686305203E+03 -0.13827884054E+03  0.24994106403E+03  0.50400001928E-02 0. -1.
       -1    1    3    3    0  502  0.91824275161E+02 -0.18686305203E+03  0.16725231175E+04  0.16854326080E+04  0.50400001928E-02 0.  1.
</event>
<event>
 5   0  0.5031575E-03  0.1255516E+04  0.7818609E-02  0.9065605E-01
       -2   -1    0    0    0  501  0.00000000000E+00  0.00000000000E+00  0.57355321227E+03  0.57355321228E+03  0.25500000920E-02 0.  1.
        2   -1    0    0  501    0  0.00000000000E+00  0.00000000000E+00 -0.68708576320E+03  0.68708576320E+03  0.25500000920E-02 0. -1.
    10030    2    1    2    0    0  0.00000000000E+00  0.00000000000E+00 -0.11353255092E+03  0.12606389755E+04  0.12555162231E+04 0.  0.
        5    1    3    3  502    0 -0.52603054487E+03  0.27499018583E+03 -0.26188002802E+03  0.64879193545E+03  0.46999998093E+01 0.  1.
       -5    1    3    3    0  502  0.52603054487E+03 -0.27499018583E+03  0.14834747709E+03  0.61184704003E+03  0.46999998093E+01 0. -1.
</event>
<event>
 5   0  0.5031575E-03  0.1215585E+04  0.7818609E-02  0.9099323E-01
        2   -1    0    0  501    0  0.00000000000E+00  0.00000000000E+00  0.45933394538E+03  0.45933394539E+03  0.25500000920E-02 0. -1.
       -2   -1    0    0    0  501  0.00000000000E+00  0.00000000000E+00 -0.80423336689E+03  0.80423336690E+03  0.25500000920E-02 0.  1.
    10030    2    1    2    0    0  0.00000000000E+00  0.00000000000E+00 -0.34489942151E+03  0.12635673123E+04  0.12155849381E+04 0.  0.
        5    1    3    3  502    0  0.54451190146E+03 -0.22236687725E+03 -0.13273362588E+02  0.58833537297E+03  0.46999998093E+01 0.  1.
       -5    1    3    3    0  502 -0.54451190146E+03  0.22236687725E+03 -0.33162605892E+03  0.67523193932E+03  0.46999998093E+01 0. -1.
</event>
<event>
 5   0  0.2930868E-03  0.1220348E+04  0.7818609E-02  0.9095230E-01
       -1   -1    0    0    0  501  0.00000000000E+00  0.00000000000E+00  0.46641233503E+03  0.46641233505E+03  0.50400001928E-02 0.  1.
        1   -1    0    0  501    0  0.00000000000E+00  0.00000000000E+00 -0.79824733507E+03  0.79824733509E+03  0.50400001928E-02 0. -1.
    10030    2    1    2    0    0  0.00000000000E+00  0.00000000000E+00 -0.33183500005E+03  0.12646596701E+04  0.12203481528E+04 0.  0.
        3    1    3    3  502    0  0.12694524971E+03 -0.40527771335E+03 -0.61994367719E+03  0.75146210447E+03  0.10100000352E+00 0. -1.
       -3    1    3    3    0  502 -0.12694524971E+03  0.40527771335E+03  0.28810867714E+03  0.51319756567E+03  0.10100000352E+00 0.  1.
</event>
<event>
 5   0  0.2875848E-03  0.1205116E+04  0.7818609E-02  0.9108390E-01
       -1   -1    0    0    0  501  0.00000000000E+00  0.00000000000E+00  0.92620770558E+03  0.92620770560E+03  0.50400001928E-02 0. -1.
        1   -1    0    0  501    0  0.00000000000E+00  0.00000000000E+00 -0.39200318220E+03  0.39200318224E+03  0.50400001928E-02 0.  1.
    10030    2    1    2    0    0  0.00000000000E+00  0.00000000000E+00  0.53420452338E+03  0.13182108878E+04  0.12051163728E+04 0.  0.
        1    1    3    3  502    0 -0.16914814184E+03  0.45203634192E+03  0.66168854608E+03  0.81901140428E+03  0.50400001928E-02 0.  1.
       -1    1    3    3    0  502  0.16914814184E+03 -0.45203634192E+03 -0.12748402270E+03  0.49919948355E+03  0.50400001928E-02 0. -1.
</event>
<event>
 5   0  0.2930868E-03  0.1186824E+04  0.7818609E-02  0.9124468E-01
       -1   -1    0    0    0  501  0.00000000000E+00  0.00000000000E+00  0.27854453745E+03  0.27854453749E+03  0.50400001928E-02 0.  1.
        1   -1    0    0  501    0  0.00000000000E+00  0.00000000000E+00 -0.12642064081E+04  0.12642064081E+04  0.50400001928E-02 0. -1.
    10030    2    1    2    0    0  0.00000000000E+00  0.00000000000E+00 -0.98566187067E+03  0.15427509456E+04  0.11868239789E+04 0.  0.
        3    1    3    3  502    0 -0.43057306984E+03  0.36501222759E+03 -0.73078939933E+03  0.92340687194E+03  0.10100000352E+00 0. -1.
       -3    1    3    3    0  502  0.43057306984E+03 -0.36501222759E+03 -0.25487247133E+03  0.61934407368E+03  0.10100000352E+00 0.  1.
</event>
<event>
 5   0  0.2875848E-03  0.1186188E+04  0.7818609E-02  0.9125033E-01
        1   -1    0    0  501    0  0.00000000000E+00  0.00000000000E+00  0.17606734527E+04  0.17606734527E+04  0.50400001928E-02 0.  1.
       -1   -1    0    0    0  501  0.00000000000E+00  0.00000000000E+00 -0.19978734569E+03  0.19978734576E+03  0.50400001928E-02 0. -1.
    10030    2    1    2    0    0  0.00000000000E+00  0.00000000000E+00  0.15608861070E+04  0.19604607984E+04  0.11861876341E+04 0.  0.
        1    1    3    3  502    0  0.17003058476E+03  0.71720138488E+02 -0.15113134656E+03  0.23852643870E+03  0.50400001928E-02 0. -1.
       -1    1    3    3    0  502 -0.17003058476E+03 -0.71720138488E+02  0.17120174535E+04  0.17219343597E+04  0.50400001928E-02 0.  1.
</event>
<event>
 5   0  0.2938349E-03  0.1190532E+04  0.7818609E-02  0.9121184E-01
       -1   -1    0    0    0  501  0.00000000000E+00  0.00000000000E+00  0.29860429599E+03  0.29860429603E+03  0.50400001928E-02 0.  1.
        1   -1    0    0  501    0  0.00000000000E+00  0.00000000000E+00 -0.11866601793E+04  0.11866601793E+04  0.50400001928E-02 0. -1.
    10030    2    1    2    0    0  0.00000000000E+00  0.00000000000E+00 -0.88805588331E+03  0.14852644753E+04  0.11905323640E+04 0.  0.
        4    1    3    3  502    0  0.40634582237E+03  0.39172261064E+03 -0.68000111192E+03  0.88372317847E+03  0.12699999809E+01 0. -1.
       -4    1    3    3    0  502 -0.40634582237E+03 -0.39172261064E+03 -0.20805477139E+03  0.60154129687E+03  0.12699999809E+01 0.  1.
</event>
<event>
 5   0  0.5189537E-03  0.1207097E+04  0.7818609E-02  0.9106667E-01
       -2   -1    0    0    0  501  0.00000000000E+00  0.00000000000E+00  0.34394597174E+03  0.34394597175E+03  0.25500000920E-02 0.  1.
        2   -1    0    0  501    0  0.00000000000E+00  0.00000000000E+00 -0.10590924285E+04  0.10590924285E+04  0.25500000920E-02 0. -1.
    10030    2    1    2    0    0  0.00000000000E+00  0.00000000000E+00 -0.71514645678E+03  0.14030384003E+04  0.12070966399E+04 0.  0.
        4    1    3    3  502    0  0.22044617078E+03  0.50719013475E+03 -0.63853533063E+03  0.84472914497E+03  0.12699999809E+01 0. -1.
       -4    1    3    3    0  502 -0.22044617078E+03 -0.50719013475E+03 -0.76611126150E+02  0.55830925530E+03  0.12699999809E+01 0.  1.
</event>
<event>
 5   0  0.5031575E-03  0.9803389E+03  0.7818609E-02  0.9330376E-01
        2   -1    0    0  501    0  0.00000000000E+00  0.00000000000E+00  0.56365363993E+03  0.56365363994E+03  0.25500000920E-02 0.  1.
       -2   -1    0    0    0  501  0.00000000000E+00  0.00000000000E+00 -0.42626546854E+03  0.42626546854E+03  0.25500000920E-02 0. -1.
    10030    2    1    2    0    0  0.00000000000E+00  0.00000000000E+00  0.13738817140E+03  0.98991910848E+03  0.98033888615E+03 0.  0.
        5    1    3    3  502    0 -0.66430596485E+02  0.36541167181E+03  0.39167175754E+03  0.53978474385E+03  0.46999998093E+01 0.  1.
       -5    1    3    3    0  502  0.66430596485E+02 -0.36541167181E+03 -0.25428358614E+03  0.45013436463E+03  0.46999998093E+01 0. -1.
</event>
<event>
 5   0  0.2875848E-03  0.1170054E+04  0.7818609E-02  0.9139480E-01
       -1   -1    0    0    0  501  0.00000000000E+00  0.00000000000E+00  0.77524591449E+03  0.77524591451E+03  0.50400001928E-02 0. -1.
        1   -1    0    0  501    0  0.00000000000E+00  0.00000000000E+00 -0.44148121703E+03  0.44148121705E+03  0.50400001928E-02 0.  1.
    10030    2    1    2    0    0  0.00000000000E+00  0.00000000000E+00  0.33376469747E+03  0.12167271316E+04  0.11700538618E+04 0.  0.
        1    1    3    3  502    0  0.43735399591E+03  0.11709017583E+03 -0.21839351764E+03  0.50267718825E+03  0.50400001928E-02 0.  1.
       -1    1    3    3    0  502 -0.43735399591E+03 -0.11709017583E+03  0.55215821511E+03  0.71404994332E+03  0.50400001928E-02 0. -1.
</event>
<event>
 5   0  0.5108045E-03  0.1575234E+04  0.7818609E-02  0.8835909E-01
       -2   -1    0    0    0  501  0.00000000000E+00  0.00000000000E+00  0.24730508799E+03  0.24730508800E+03  0.25500000920E-02 0.  1.
        2   -1    0    0  501    0  0.00000000000E+00  0.00000000000E+00 -0.25084033083E+04  0.25084033083E+04  0.25500000920E-02 0. -1.
    10030    2    1    2    0    0  0.00000000000E+00  0.00000000000E+00 -0.22610982204E+04  0.27557083963E+04  0.15752344599E+04 0.  0.
        3    1    3    3  502    0  0.35963489452E+03  0.37615777826E+03 -0.96318917862E+02  0.52925350792E+03  0.10100000352E+00 0.  1.
       -3    1    3    3    0  502 -0.35963489452E+03 -0.37615777826E+03 -0.21647793025E+04  0.22264548884E+04  0.10100000352E+00 0. -1.
</event>
<event>
 5   0  0.5467554E-03  0.1214720E+04  0.7818609E-02  0.9100069E-01
        2   -1    0    0  501    0  0.00000000000E+00  0.00000000000E+00  0.15189536431E+04  0.15189536431E+04  0.25500000920E-02 0.  1.
       -2   -1    0    0    0  501  0.00000000000E+00  0.00000000000E+00 -0.24285557508E+03  0.24285557510E+03  0.25500000920E-02 0. -1.
    10030    2    1    2    0    0  0.00000000000E+00  0.00000000000E+00  0.12760980680E+04  0.17618092182E+04  0.12147203144E+04 0.  0.
        1    1    3    3  502    0  0.20023696759E+03  0.42144314923E+03  0.12019797066E+04  0.12893658854E+04  0.50400001928E-02 0. -1.
       -1    1    3    3    0  502 -0.20023696759E+03 -0.42144314923E+03  0.74118361415E+02  0.47244333284E+03  0.50400001928E-02 0.  1.
</event>
<event>
 5   0  0.5003526E-03  0.1229796E+04  0.7818609E-02  0.9087169E-01
        2   -1    0    0  501    0  0.00000000000E+00  0.00000000000E+00  0.10093866798E+04  0.10093866798E+04  0.25500000920E-02 0.  1.
       -2   -1    0    0    0  501  0.00000000000E+00  0.00000000000E+00 -0.37458317999E+03  0.37458318000E+03  0.25500000920E-02 0. -1.
    10030    2    1    2    0    0  0.00000000000E+00  0.00000000000E+00  0.63480349983E+03  0.13839698598E+04  0.12297955479E+04 0.  0.
        2    1    3    3  502    0 -0.45130734614E+03 -0.39442342869E+03  0.16288975978E+03  0.62111290087E+03  0.25500000920E-02 0.  1.
       -2    1    3    3    0  502  0.45130734614E+03  0.39442342869E+03  0.47191374004E+03  0.76285695896E+03  0.25500000920E-02 0. -1.
</event>
<event>
 5   0  0.2792518E-03  0.1239260E+04  0.7818609E-02  0.9079169E-01
        1   -1    0    0  501    0  0.00000000000E+00  0.00000000000E+00  0.18957479380E+04  0.18957479380E+04  0.50400001928E-02 0.  1.
       -1   -1    0    0    0  501  0.00000000000E+00  0.00000000000E+00 -0.20252779160E+03  0.20252779166E+03  0.50400001928E-02 0. -1.
    10030    2    1    2    0    0  0.00000000000E+00  0.00000000000E+00  0.16932201464E+04  0.20982757297E+04  0.12392604946E+04 0.  0.
        2    1    3    3  502    0 -0.36744671261E+02  0.60782365811E+03  0.10407114372E+04  0.12057694912E+04  0.25500000920E-02 0. -1.
       -2    1    3    3    0  502  0.36744671261E+02 -0.60782365811E+03  0.65250870918E+03  0.89250623851E+03  0.25500000920E-02 0.  1.
</event>
<event>
 5   0  0.2938349E-03  0.1182360E+04  0.7818609E-02  0.9128438E-01
        1   -1    0    0  501    0  0.00000000000E+00  0.00000000000E+00  0.91764796174E+03  0.91764796175E+03  0.50400001928E-02 0. -1.
       -1   -1    0    0    0  501  0.00000000000E+00  0.00000000000E+00 -0.38085846890E+03  0.38085846893E+03  0.50400001928E-02 0.  1.
    10030    2    1    2    0    0  0.00000000000E+00  0.00000000000E+00  0.53678949284E+03  0.12985064307E+04  0.11823603473E+04 0.  0.
        4    1    3    3  502    0 -0.12091440988E+03 -0.43477988140E+03  0.68779666207E+03  0.82262974724E+03  0.12699999809E+01 0. -1.
       -4    1    3    3    0  502  0.12091440988E+03  0.43477988140E+03 -0.15100716923E+03  0.47587668345E+03  0.12699999809E+01 0.  1.
</event>
<event>
 5   0  0.5031575E-03  0.1206564E+04  0.7818609E-02  0.9107131E-01
       -2   -1    0    0    0  501  0.00000000000E+00  0.00000000000E+00  0.54863124333E+03  0.54863124333E+03  0.25500000920E-02 0. -1.
        2   -1    0    0  501    0  0.00000000000E+00  0.00000000000E+00 -0.66337629519E+03  0.66337629519E+03  0.25500000920E-02 0.  1.
    10030    2    1    2    0    0  0.00000000000E+00  0.00000000000E+00 -0.11474505186E+03  0.12120075385E+04  0.12065636521E+04 0.  0.
        5    1    3    3  502    0  0.70599732033E+02  0.24407258755E+03  0.49224431964E+03  0.55396959336E+03  0.46999998093E+01 0. -1.
       -5    1    3    3    0  502 -0.70599732033E+02 -0.24407258755E+03 -0.60698937150E+03  0.65803794516E+03  0.46999998093E+01 0.  1.
</event>
<event>
 5   0  0.2792518E-03  0.1108186E+04  0.7818609E-02  0.9197250E-01
       -1   -1    0    0    0  501  0.00000000000E+00  0.00000000000E+00  0.13081318060E+04  0.13081318060E+04  0.50400001928E-02 0.  1.
        1   -1    0    0  501    0  0.00000000000E+00  0.00000000000E+00 -0.23470035724E+03  0.23470035729E+03  0.50400001928E-02 0. -1.
    10030    2    1    2    0    0  0.00000000000E+00  0.00000000000E+00  0.10734314488E+04  0.15428321633E+04  0.11081859090E+04 0.  0.
        2    1    3    3  502    0 -0.46710647539E+03 -0.19751461852E+03  0.22597264595E+03  0.55521538218E+03  0.25500000920E-02 0. -1.
       -2    1    3    3    0  502  0.46710647539E+03  0.19751461852E+03  0.84745880284E+03  0.98761678115E+03  0.25500000920E-02 0.  1.
</event>
<event>
 5   0  0.2926844E-03  0.1193720E+04  0.7818609E-02  0.9118371E-01
       -1   -1    0    0    0  501  0.00000000000E+00  0.00000000000E+00  0.21989931916E+03  0.21989931922E+03  0.50400001928E-02 0.  1.
        1   -1    0    0  501    0  0.00000000000E+00  0.00000000000E+00 -0.16200225062E+04  0.16200225062E+04  0.50400001928E-02 0. -1.
    10030    2    1    2    0    0  0.00000000000E+00  0.00000000000E+00 -0.14001231871E+04  0.18399218254E+04  0.11937199776E+04 0.  0.
        5    1    3    3  502    0  0.48094934078E+03  0.85355709012E+02 -0.17144476208E+03  0.51769997286E+03  0.46999998093E+01 0. -1.
       -5    1    3    3    0  502 -0.48094934078E+03 -0.85355709012E+02 -0.12286784250E+04  0.13222218526E+04  0.46999998093E+01 0.  1.
</event>
<event>
 5   0  0.2938349E-03  0.1172457E+04  0.7818609E-02  0.9137312E-01
       -1   -1    0    0    0  501  0.00000000000E+00  0.00000000000E+00  0.15701161676E+03  0.15701161684E+03  0.50400001928E-02 0.  1.
        1   -1    0    0  501    0  0.00000000000E+00  0.00000000000E+00 -0.21887794631E+04  0.21887794631E+04  0.50400001928E-02 0. -1.
    10030    2    1    2    0    0  0.00000000000E+00  0.00000000000E+00 -0.20317678463E+04  0.23457910799E+04  0.11724569115E+04 0.  0.
        4    1    3    3  502    0 -0.47775473051E+03 -0.32289938841E+03 -0.80463113578E+03  0.98992245914E+03  0.12699999809E+01 0.  1.
       -4    1    3    3    0  502  0.47775473051E+03  0.32289938841E+03 -0.12271367105E+04  0.13558686208E+04  0.12699999809E+01 0. -1.
</event>
<event>
 5   0  0.2930868E-03  0.1202219E+04  0.7818609E-02  0.9110916E-01
       -1   -1    0    0    0  501  0.00000000000E+00  0.00000000000E+00  0.12235761406E+04  0.12235761406E+04  0.50400001928E-02 0. -1.
        1   -1    0    0  501    0  0.00000000000E+00  0.00000000000E+00 -0.29530868691E+03  0.29530868696E+03  0.50400001928E-02 0.  1.
    10030    2    1    2    0    0  0.00000000000E+00  0.00000000000E+00  0.92826745369E+03  0.15188848276E+04  0.12022190540E+04 0.  0.
        3    1    3    3  502    0 -0.13820008160E+03  0.55302999863E+03  0.22312126830E+03  0.61214749244E+03  0.10100000352E+00 0. -1.
       -3    1    3    3    0  502  0.13820008160E+03 -0.55302999863E+03  0.70514618539E+03  0.90673733512E+03  0.10100000352E+00 0.  1.
</event>
<event>
 5   0  0.2926844E-03  0.1207889E+04  0.7818609E-02  0.9105979E-01
       -1   -1    0    0    0  501  0.00000000000E+00  0.00000000000E+00  0.59573376781E+03  0.59573376783E+03  0.50400001928E-02 0.  1.
        1   -1    0    0  501    0  0.00000000000E+00  0.00000000000E+00 -0.61226851213E+03  0.61226851215E+03  0.50400001928E-02 0. -1.
    10030    2    1    2    0    0  0.00000000000E+00  0.00000000000E+00 -0.16534744319E+02  0.12080022800E+04  0.12078891136E+04 0.  0.
        5    1    3    3  502    0  0.51121484596E+03 -0.29027376177E+03  0.13004765382E+03  0.60210792867E+03  0.46999998093E+01 0.  1.
       -5    1    3    3    0  502 -0.51121484596E+03  0.29027376177E+03 -0.14658239814E+03  0.60589435131E+03  0.46999998093E+01 0. -1.
</event>
<event>
 5   0  0.2875848E-03  0.8533434E+03  0.7818609E-02  0.9485860E-01
       -1   -1    0    0    0  501  0.00000000000E+00  0.00000000000E+00  0.38681180365E+03  0.38681180368E+03  0.50400001928E-02 0. -1.
        1   -1    0    0  501    0  0.00000000000E+00  0.00000000000E+00 -0.47063906407E+03  0.47063906409E+03  0.50400001928E-02 0.  1.
    10030    2    1    2    0    0  0.00000000000E+00  0.00000000000E+00 -0.83827260420E+02  0.85745086777E+03  0.85334341332E+03 0.  0.
        1    1    3    3  502    0  0.41230056359E+03 -0.48534568301E+02  0.57056080318E+02  0.41904982446E+03  0.50400001928E-02 0. -1.
       -1    1    3    3    0  502 -0.41230056359E+03  0.48534568301E+02 -0.14088334074E+03  0.43840104331E+03  0.50400001928E-02 0.  1.
</event>
<event>
 5   0  0.1922125E-03  0.1220126E+04  0.7818609E-02  0.9095420E-01
        3   -1    0    0  501    0  0.00000000000E+00  0.00000000000E+00  0.11493426224E+04  0.11493426269E+04  0.10100000352E+00 0. -1.
       -3   -1    0    0    0  501  0.00000000000E+00  0.00000000000E+00 -0.32381712084E+03  0.32381713659E+03  0.10100000352E+00 0.  1.
    10030    2    1    2    0    0  0.00000000000E+00  0.00000000000E+00  0.82552550160E+03  0.14731597635E+04  0.12201259504E+04 0.  0.
        3    1    3    3  502    0 -0.52455198760E+03 -0.27438076052E+02  0.78738092103E+03  0.94650745412E+03  0.10100000352E+00 0. -1.
       -3    1    3    3    0  502  0.52455198760E+03  0.27438076052E+02  0.38144580567E+02  0.52665230934E+03  0.10100000352E+00 0.  1.
</event>
<event>
 5   0  0.5467554E-03  0.1220823E+04  0.7818609E-02  0.9094823E-01
       -2   -1    0    0    0  501  0.00000000000E+00  0.00000000000E+00  0.17250406872E+03  0.17250406874E+03  0.25500000920E-02 0.  1.
        2   -1    0    0  501    0  0.00000000000E+00  0.00000000000E+00 -0.21599621892E+04  0.21599621892E+04  0.25500000920E-02 0. -1.
    10030    2    1    2    0    0  0.00000000000E+00  0.00000000000E+00 -0.19874581205E+04  0.23324662579E+04  0.12208231091E+04 0.  0.
        1    1    3    3  502    0 -0.35052836721E+03  0.19109397618E+03 -0.11151955694E+03  0.41451617044E+03  0.50400001928E-02 0.  1.
       -1    1    3    3    0  502  0.35052836721E+03 -0.19109397618E+03 -0.18759385635E+04  0.19179500875E+04  0.50400001928E-02 0. -1.
</event>
<event>
 5   0  0.2875848E-03  0.1163295E+04  0.7818609E-02  0.9145605E-01
       -1   -1    0    0    0  501  0.00000000000E+00  0.00000000000E+00  0.14050982002E+03  0.14050982011E+03  0.50400001928E-02 0.  1.
        1   -1    0    0  501    0  0.00000000000E+00  0.00000000000E+00 -0.24077595702E+04  0.24077595702E+04  0.50400001928E-02 0. -1.
    10030    2    1    2    0    0  0.00000000000E+00  0.00000000000E+00 -0.22672497502E+04  0.25482693904E+04  0.11632950855E+04 0.  0.
        1    1    3    3  502    0 -0.50009336800E+03  0.55083250094E+02 -0.17729773933E+04  0.18429802978E+04  0.50400001928E-02 0. -1.
       -1    1    3    3    0  502  0.50009336800E+03 -0.55083250094E+02 -0.49427235697E+03  0.70528909253E+03  0.50400001928E-02 0.  1.
</event>
<event>
 5   0  0.5467554E-03  0.1230747E+04  0.7818609E-02  0.9086361E-01
       -2   -1    0    0    0  501  0.00000000000E+00  0.00000000000E+00  0.22874172561E+03  0.22874172562E+03  0.25500000920E-02 0. -1.
        2   -1    0    0  501    0  0.00000000000E+00  0.00000000000E+00 -0.16555116804E+04  0.16555116804E+04  0.25500000920E-02 0.  1.
    10030    2    1    2    0    0  0.00000000000E+00  0.00000000000E+00 -0.14267699547E+04  0.18842534060E+04  0.12307470878E+04 0.  0.
        1    1    3    3  502    0  0.57733765971E+02  0.22571992312E+03  0.15860642894E+03  0.28184866641E+03  0.50400001928E-02 0. -1.
       -1    1    3    3    0  502 -0.57733765971E+02 -0.22571992312E+03 -0.15853763837E+04  0.16024047396E+04  0.50400001928E-02 0.  1.
</event>
<event>
 5   0  0.5031575E-03  0.1237270E+04  0.7818609E-02  0.9080846E-01
        2   -1    0    0  501    0  0.00000000000E+00  0.00000000000E+00  0.40167826915E+03  0.40167826916E+03  0.25500000920E-02 0.  1.
       -2   -1    0    0    0  501  0.00000000000E+00  0.00000000000E+00 -0.95277492536E+03  0.95277492536E+03  0.25500000920E-02 0. -1.
    10030    2    1    2    0    0  0.00000000000E+00  0.00000000000E+00 -0.55109665621E+03  0.13544531945E+04  0.12372695469E+04 0.  0.
        5    1    3    3  502    0 -0.23150798549E+03 -0.20550380650E+03 -0.86186739486E+03  0.91578668813E+03  0.46999998093E+01 0. -1.
       -5    1    3    3    0  502  0.23150798549E+03  0.20550380650E+03  0.31077073865E+03  0.43866650639E+03  0.46999998093E+01 0.  1.
</event>
<event>
 5   0  0.2792518E-03  0.1209822E+04  0.7818609E-02  0.9104302E-01
        1   -1    0    0  501    0  0.00000000000E+00  0.00000000000E+00  0.12887231371E+04  0.12887231371E+04  0.50400001928E-02 0.  1.
       -1   -1    0    0    0  501  0.00000000000E+00  0.00000000000E+00 -0.28393800837E+03  0.28393800841E+03  0.50400001928E-02 0. -1.
    10030    2    1    2    0    0  0.00000000000E+00  0.00000000000E+00  0.10047851287E+04  0.15726611455E+04  0.12098222695E+04 0.  0.
        2    1    3    3  502    0 -0.11367336956E+03  0.59140094896E+03  0.57639350741E+03  0.83361033629E+03  0.25500000920E-02 0. -1.
       -2    1    3    3    0  502  0.11367336956E+03 -0.59140094896E+03  0.42839162128E+03  0.73905080919E+03  0.25500000920E-02 0.  1.
</event>
<event>
 5   0  0.2875848E-03  0.1165892E+04  0.7818609E-02  0.9143246E-01
        1   -1    0    0  501    0  0.00000000000E+00  0.00000000000E+00  0.19509749293E+04  0.19509749293E+04  0.50400001928E-02 0.  1.
       -1   -1    0    0    0  501  0.00000000000E+00  0.00000000000E+00 -0.17418279028E+03  0.17418279035E+03  0.50400001928E-02 0. -1.
    10030    2    1    2    0    0  0.00000000000E+00  0.00000000000E+00  0.17767921390E+04  0.21251577196E+04  0.11658923741E+04 0.  0.
        1    1    3    3  502    0  0.10179641258E+03 -0.84913701327E+02 -0.14634447521E+03  0.19745772139E+03  0.50400001928E-02 0. -1.
       -1    1    3    3    0  502 -0.10179641258E+03  0.84913701327E+02  0.19231366142E+04  0.19276999982E+04  0.50400001928E-02 0.  1.
</event>
<event>
 5   0  0.5003526E-03  0.1222901E+04  0.7818609E-02  0.9093044E-01
       -2   -1    0    0    0  501  0.00000000000E+00  0.00000000000E+00  0.14399785699E+04  0.14399785699E+04  0.25500000920E-02 0. -1.
        2   -1    0    0  501    0  0.00000000000E+00  0.00000000000E+00 -0.25963705080E+03  0.25963705081E+03  0.25500000920E-02 0.  1.
    10030    2    1    2    0    0  0.00000000000E+00  0.00000000000E+00  0.11803415191E+04  0.16996156207E+04  0.12229011229E+04 0.  0.
        2    1    3    3  502    0 -0.20285847428E+03  0.20588907901E+03 -0.15869722498E+03  0.32973729341E+03  0.25500000920E-02 0.  1.
       -2    1    3    3    0  502  0.20285847428E+03 -0.20588907901E+03  0.13390387441E+04  0.13698783273E+04  0.25500000920E-02 0. -1.
</event>
<event>
 5   0  0.2930868E-03  0.1163817E+04  0.7818609E-02  0.9145131E-01
       -1   -1    0    0    0  501  0.00000000000E+00  0.00000000000E+00  0.32491890060E+03  0.32491890064E+03  0.50400001928E-02 0.  1.
        1   -1    0    0  501    0  0.00000000000E+00  0.00000000000E+00 -0.10421593877E+04  0.10421593877E+04  0.50400001928E-02 0. -1.
    10030    2    1    2    0    0  0.00000000000E+00  0.00000000000E+00 -0.71724048708E+03  0.13670782883E+04  0.11638166222E+04 0.  0.
        3    1    3    3  502    0  0.44819919688E+03 -0.48722828369E+02 -0.79079097169E+03  0.91027842180E+03  0.10100000352E+00 0. -1.
       -3    1    3    3    0  502 -0.44819919688E+03  0.48722828369E+02  0.73550484609E+02  0.45679986654E+03  0.10100000352E+00 0.  1.
</event>
<event>
 5   0  0.2930868E-03  0.1178618E+04  0.7818609E-02  0.9131781E-01
       -1   -1    0    0    0  501  0.00000000000E+00  0.00000000000E+00  0.74058501020E+03  0.74058501022E+03  0.50400001928E-02 0.  1.
        1   -1    0    0  501    0  0.00000000000E+00  0.00000000000E+00 -0.46893317025E+03  0.46893317028E+03  0.50400001928E-02 0. -1.
    10030    2    1    2    0    0  0.00000000000E+00  0.00000000000E+00  0.27165183995E+03  0.12095181805E+04  0.11786176254E+04 0.  0.
        3    1    3    3  502    0  0.13695681049E+03 -0.10846196741E+03 -0.44174746587E+03  0.47503894589E+03  0.10100000352E+00 0. -1.
       -3    1    3    3    0  502 -0.13695681049E+03  0.10846196741E+03  0.71339930582E+03  0.73447923460E+03  0.10100000352E+00 0.  1.
</event>
<event>
 5   0  0.5003526E-03  0.1049223E+04  0.7818609E-02  0.9256147E-01
       -2   -1    0    0    0  501  0.00000000000E+00  0.00000000000E+00  0.21718874863E+03  0.21718874865E+03  0.25500000920E-02 0. -1.
        2   -1    0    0  501    0  0.00000000000E+00  0.00000000000E+00 -0.12671793805E+04  0.12671793805E+04  0.25500000920E-02 0.  1.
    10030    2    1    2    0    0  0.00000000000E+00  0.00000000000E+00 -0.10499906319E+04  0.14843681292E+04  0.10492227675E+04 0.  0.
        2    1    3    3  502    0  0.13188944602E+03  0.31177257132E+02 -0.12419866673E+04  0.12493589273E+04  0.25500000920E-02 0.  1.
       -2    1    3    3    0  502 -0.13188944602E+03 -0.31177257132E+02  0.19199603545E+03  0.23500920188E+03  0.25500000920E-02 0. -1.
</event>
<event>
 5   0  0.2926844E-03  0.1236231E+04  0.7818609E-02  0.9081722E-01
       -1   -1    0    0    0  501  0.00000000000E+00  0.00000000000E+00  0.83004855877E+03  0.83004855878E+03  0.50400001928E-02 0.  1.
        1   -1    0    0  501    0  0.00000000000E+00  0.00000000000E+00 -0.46029419152E+03  0.46029419155E+03  0.50400001928E-02 0. -1.
    10030    2    1    2    0    0  0.00000000000E+00  0.00000000000E+00  0.36975436724E+03  0.12903427503E+04  0.12362306101E+04 0.  0.
        5    1    3    3  502    0 -0.56505480766E+03  0.25292569799E+02 -0.75266684359E+02  0.57062580867E+03  0.46999998093E+01 0.  1.
       -5    1    3    3    0  502  0.56505480766E+03 -0.25292569799E+02  0.44502105160E+03  0.71971694166E+03  0.46999998093E+01 0. -1.
</event>
<event>
 5   0  0.5108045E-03  0.1187261E+04  0.7818609E-02  0.9124080E-01
       -2   -1    0    0    0  501  0.00000000000E+00  0.00000000000E+00  0.79902570518E+03  0.79902570518E+03  0.25500000920E-02 0.  1.
        2   -1    0    0  501    0  0.00000000000E+00  0.00000000000E+00 -0.44103368702E+03  0.44103368702E+03  0.25500000920E-02 0. -1.
    10030    2    1    2    0    0  0.00000000000E+00  0.00000000000E+00  0.35799201816E+03  0.12400593922E+04  0.11872611386E+04 0.  0.
        3    1    3    3  502    0 -0.21032047169E+03  0.25726906603E+02 -0.40019160399E+03  0.45282436401E+03  0.10100000352E+00 0. -1.
       -3    1    3    3    0  502  0.21032047169E+03 -0.25726906603E+02  0.75818362215E+03  0.78723502820E+03  0.10100000352E+00 0.  1.
</event>
<event>
 5   0  0.5108045E-03  0.1210864E+04  0.7818609E-02  0.9103400E-01
        2   -1    0    0  501    0  0.00000000000E+00  0.00000000000E+00  0.59604975471E+03  0.59604975472E+03  0.25500000920E-02 0.  1.
       -2   -1    0    0    0  501  0.00000000000E+00  0.00000000000E+00 -0.61496169848E+03  0.61496169849E+03  0.25500000920E-02 0. -1.
    10030    2    1    2    0    0  0.00000000000E+00  0.00000000000E+00 -0.18911943767E+02  0.12110114532E+04  0.12108637736E+04 0.  0.
        3    1    3    3  502    0  0.54289563906E+03 -0.23517267858E+03 -0.13794691366E+03  0.60751232486E+03  0.10100000352E+00 0. -1.
       -3    1    3    3    0  502 -0.54289563906E+03  0.23517267858E+03  0.11903496989E+03  0.60349912835E+03  0.10100000352E+00 0.  1.
</event>
<event>
 5   0  0.5003526E-03  0.1191266E+04  0.7818609E-02  0.9120536E-01
       -2   -1    0    0    0  501  0.00000000000E+00  0.00000000000E+00  0.46373779497E+03  0.46373779497E+03  0.25500000920E-02 0.  1.
        2   -1    0    0  501    0  0.00000000000E+00  0.00000000000E+00 -0.76504149716E+03  0.76504149716E+03  0.25500000920E-02 0. -1.
    10030    2    1    2    0    0  0.00000000000E+00  0.00000000000E+00 -0.30130370219E+03  0.12287792921E+04  0.11912659769E+04 0.  0.
        2    1    3    3  502    0 -0.19215612280E+02  0.27266158758E+03  0.39522493174E+03  0.48053754044E+03  0.25500000920E-02 0.  1.
       -2    1    3    3    0  502  0.19215612280E+02 -0.27266158758E+03 -0.69652863393E+03  0.74824175170E+03  0.25500000920E-02 0. -1.
</event>
<event>
 5   0  0.2938349E-03  0.1263180E+04  0.7818609E-02  0.9059284E-01
        1   -1    0    0  501    0  0.00000000000E+00  0.00000000000E+00  0.66229270312E+03  0.66229270314E+03  0.50400001928E-02 0.  1.
       -1   -1    0    0    0  501  0.00000000000E+00  0.00000000000E+00 -0.60231078710E+03  0.60231078712E+03  0.50400001928E-02 0. -1.
    10030    2    1    2    0    0  0.00000000000E+00  0.00000000000E+00  0.59981916028E+02  0.12646034903E+04  0.12631801761E+04 0.  0.
        4    1    3    3  502    0  0.28943126557E+03  0.29508240923E+03  0.50808569086E+03  0.65497844841E+03  0.12699999809E+01 0.  1.
       -4    1    3    3    0  502 -0.28943126557E+03 -0.29508240923E+03 -0.44810377483E+03  0.60962504185E+03  0.12699999809E+01 0. -1.
</event>
<event>
 5   0  0.5467554E-03  0.1187423E+04  0.7818609E-02  0.9123937E-01
       -2   -1    0    0    0  501  0.00000000000E+00  0.00000000000E+00  0.25180525322E+03  0.25180525324E+03  0.25500000920E-02 0.  1.
        2   -1    0    0  501    0  0.00000000000E+00  0.00000000000E+00 -0.13998639536E+04  0.13998639536E+04  0.25500000920E-02 0. -1.
    10030    2    1    2    0    0  0.00000000000E+00  0.00000000000E+00 -0.11480587004E+04  0.16516692068E+04  0.11874225824E+04 0.  0.
        1    1    3    3  502    0 -0.51143982857E+03  0.23202063300E+03 -0.84190874232E+03  0.10120348822E+04  0.50400001928E-02 0. -1.
       -1    1    3    3    0  502  0.51143982857E+03 -0.23202063300E+03 -0.30614995803E+03  0.63963432461E+03  0.50400001928E-02 0.  1.
</event>
<event>
 5   0  0.5003526E-03  0.1206330E+04  0.7818609E-02  0.9107334E-01
       -2   -1    0    0    0  501  0.00000000000E+00  0.00000000000E+00  0.24828744531E+03  0.24828744533E+03  0.25500000920E-02 0.  1.
        2   -1    0    0  501    0  0.00000000000E+00  0.00000000000E+00 -0.14652684143E+04  0.14652684143E+04  0.25500000920E-02 0. -1.
    10030    2    1    2    0    0  0.00000000000E+00  0.00000000000E+00 -0.12169809690E+04  0.17135558597E+04  0.12063295591E+04 0.  0.
        2    1    3    3  502    0  0.36936778362E+01  0.54661940745E+03 -0.24633637052E+03  0.59957320429E+03  0.25500000920E-02 0.  1.
       -2    1    3    3    0  502 -0.36936778362E+01 -0.54661940745E+03 -0.97064459850E+03  0.11139826554E+04  0.25500000920E-02 0. -1.
</event>
<event>
 5   0  0.5467554E-03  0.1172572E+04  0.7818609E-02  0.9137209E-01
       -2   -1    0    0    0  501  0.00000000000E+00  0.00000000000E+00  0.25261481036E+03  0.25261481038E+03  0.25500000920E-02 0. -1.
        2   -1    0    0  501    0  0.00000000000E+00  0.00000000000E+00 -0.13606930747E+04  0.13606930747E+04  0.25500000920E-02 0.  1.
    10030    2    1    2    0    0  0.00000000000E+00  0.00000000000E+00 -0.11080782643E+04  0.16133078850E+04  0.11725719134E+04 0.  0.
        1    1    3    3  502    0  0.48249535179E+03  0.13495178327E+03 -0.97298563192E+03  0.10944015663E+04  0.50400001928E-02 0.  1.
       -1    1    3    3    0  502 -0.48249535179E+03 -0.13495178327E+03 -0.13509263238E+03  0.51890631877E+03  0.50400001928E-02 0. -1.
</event>
<event>
 5   0  0.5108045E-03  0.1185989E+04  0.7818609E-02  0.9125209E-01
       -2   -1    0    0    0  501  0.00000000000E+00  0.00000000000E+00  0.22025607075E+03  0.22025607077E+03  0.25500000920E-02 0.  1.
        2   -1    0    0  501    0  0.00000000000E+00  0.00000000000E+00 -0.15965174769E+04  0.15965174769E+04  0.25500000920E-02 0. -1.
    10030    2    1    2    0    0  0.00000000000E+00  0.00000000000E+00 -0.13762614061E+04  0.18167735476E+04  0.11859893193E+04 0.  0.
        3    1    3    3  502    0  0.23196973595E+03 -0.16418970343E+02  0.14749072529E+03  0.27537804058E+03  0.10100000352E+00 0.  1.
       -3    1    3    3    0  502 -0.23196973595E+03  0.16418970343E+02 -0.15237521314E+04  0.15413955070E+04  0.10100000352E+00 0. -1.
</event>
<event>
 5   0  0.2792518E-03  0.1210192E+04  0.7818609E-02  0.9103982E-01
       -1   -1    0    0    0  501  0.00000000000E+00  0.00000000000E+00  0.28155667983E+03  0.28155667988E+03  0.50400001928E-02 0.  1.
        1   -1    0    0  501    0  0.00000000000E+00  0.00000000000E+00 -0.13004176149E+04  0.13004176149E+04  0.50400001928E-02 0. -1.
    10030    2    1    2    0    0  0.00000000000E+00  0.00000000000E+00 -0.10188609351E+04  0.15819742948E+04  0.12101921601E+04 0.  0.
        2    1    3    3  502    0 -0.10547933459E+03  0.88651837222E+01  0.26935993822E+03  0.28941191723E+03  0.25500000920E-02 0.  1.
       -2    1    3    3    0  502  0.10547933459E+03 -0.88651837222E+01 -0.12882208733E+04  0.12925623776E+04  0.25500000920E-02 0. -1.
</event>
<event>
 5   0  0.5108045E-03  0.1280924E+04  0.7818609E-02  0.9044831E-01
        2   -1    0    0  501    0  0.00000000000E+00  0.00000000000E+00  0.21199993056E+04  0.21199993056E+04  0.25500000920E-02 0.  1.
       -2   -1    0    0    0  501  0.00000000000E+00  0.00000000000E+00 -0.19348651986E+03  0.19348651987E+03  0.25500000920E-02 0. -1.
    10030    2    1    2    0    0  0.00000000000E+00  0.00000000000E+00  0.19265127858E+04  0.23134858255E+04  0.12809235540E+04 0.  0.
        3    1    3    3  502    0 -0.21942040006E+03 -0.51900677756E+03  0.41342213565E+03  0.69887854422E+03  0.10100000352E+00 0. -1.
       -3    1    3    3    0  502  0.21942040006E+03  0.51900677756E+03  0.15130906501E+04  0.16146072813E+04  0.10100000352E+00 0.  1.
</event>
<event>
 5   0  0.5189537E-03  0.1193940E+04  0.7818609E-02  0.9118177E-01
       -2   -1    0    0    0  501  0.00000000000E+00  0.00000000000E+00  0.20776049396E+03  0.20776049397E+03  0.25500000920E-02 0. -1.
        2   -1    0    0  501    0  0.00000000000E+00  0.00000000000E+00 -0.17153080699E+04  0.17153080699E+04  0.25500000920E-02 0.  1.
    10030    2    1    2    0    0  0.00000000000E+00  0.00000000000E+00 -0.15075475760E+04  0.19230685639E+04  0.11939401190E+04 0.  0.
        4    1    3    3  502    0  0.42935688633E+02 -0.29181639745E+03 -0.15897384688E+04  0.16168705252E+04  0.12699999809E+01 0.  1.
       -4    1    3    3    0  502 -0.42935688633E+02  0.29181639745E+03  0.82190892776E+02  0.30619803875E+03  0.12699999809E+01 0. -1.
</event>
<event>
 5   0  0.2875848E-03  0.1179686E+04  0.7818609E-02  0.9130826E-01
       -1   -1    0    0    0  501  0.00000000000E+00  0.00000000000E+00  0.52748261488E+03  0.52748261491E+03  0.50400001928E-02 0. -1.
        1   -1    0    0  501    0  0.00000000000E+00  0.00000000000E+00 -0.65957576327E+03  0.65957576329E+03  0.50400001928E-02 0.  1.
    10030    2    1    2    0    0  0.00000000000E+00  0.00000000000E+00 -0.13209314839E+03  0.11870583782E+04  0.11796859724E+04 0.  0.
        1    1    3    3  502    0  0.22720560554E+03  0.42633038077E+03  0.27449828745E+03  0.55563413375E+03  0.50400001928E-02 0.  1.
       -1    1    3    3    0  502 -0.22720560554E+03 -0.42633038077E+03 -0.40659143584E+03  0.63142424445E+03  0.50400001928E-02 0. -1.
</event>
<event>
 5   0  0.2792518E-03  0.1220413E+04  0.7818609E-02  0.9095175E-01
       -1   -1    0    0    0  501  0.00000000000E+00  0.00000000000E+00  0.16563227942E+03  0.16563227949E+03  0.50400001928E-02 0. -1.
        1   -1    0    0  501    0  0.00000000000E+00  0.00000000000E+00 -0.22480632485E+04  0.22480632485E+04  0.50400001928E-02 0.  1.
    10030    2    1    2    0    0  0.00000000000E+00  0.00000000000E+00 -0.20824309691E+04  0.24136955280E+04  0.12204127830E+04 0.  0.
        2    1    3    3  502    0  0.22653916164E+03 -0.29104094177E+03 -0.79752816495E+02  0.37733981143E+03  0.25500000920E-02 0. -1.
       -2    1    3    3    0  502 -0.22653916164E+03  0.29104094177E+03 -0.20026781526E+04  0.20363557166E+04  0.25500000920E-02 0.  1.
</event>
<event>
 5   0  0.2926844E-03  0.7563403E+03  0.7818609E-02  0.9625456E-01
       -1   -1    0    0    0  501  0.00000000000E+00  0.00000000000E+00  0.48714585524E+03  0.48714585526E+03  0.50400001928E-02 0.  1.
        1   -1    0    0  501    0  0.00000000000E+00  0.00000000000E+00 -0.29357253907E+03  0.29357253911E+03  0.50400001928E-02 0. -1.
    10030    2    1    2    0    0  0.00000000000E+00  0.00000000000E+00  0.19357331617E+03  0.78071839438E+03  0.75634025583E+03 0.  0.
        5    1    3    3  502    0  0.10147641733E+03 -0.12901304947E+03  0.44842593894E+03  0.47754554015E+03  0.46999998093E+01 0.  1.
       -5    1    3    3    0  502 -0.10147641733E+03  0.12901304947E+03 -0.25485262277E+03  0.30317285423E+03  0.46999998093E+01 0. -1.
</event>
<event>
 5   0  0.1922125E-03  0.1175197E+04  0.7818609E-02  0.9134848E-01
       -3   -1    0    0    0  501  0.00000000000E+00  0.00000000000E+00  0.22775692086E+03  0.22775694326E+03  0.10100000352E+00 0.  1.
        3   -1    0    0  501    0  0.00000000000E+00  0.00000000000E+00 -0.15159674673E+04  0.15159674707E+04  0.10100000352E+00 0. -1.
    10030    2    1    2    0    0  0.00000000000E+00  0.00000000000E+00 -0.12882105464E+04  0.17437244139E+04  0.11751971833E+04 0.  0.
        1    1    3    3  502    0  0.49122310674E+03 -0.15585296716E+03 -0.10629438937E+04  0.11812874372E+04  0.50400001928E-02 0. -1.
       -1    1    3    3    0  502 -0.49122310674E+03  0.15585296716E+03 -0.22526665272E+03  0.56243697676E+03  0.50400001928E-02 0.  1.
</event>
<event>
 5   0  0.2930868E-03  0.1197487E+04  0.7818609E-02  0.9115059E-01
        1   -1    0    0  501    0  0.00000000000E+00  0.00000000000E+00  0.90695709384E+03  0.90695709386E+03  0.50400001928E-02 0.  1.
       -1   -1    0    0    0  501  0.00000000000E+00  0.00000000000E+00 -0.39527075606E+03  0.39527075610E+03  0.50400001928E-02 0. -1.
    10030    2    1    2    0    0  0.00000000000E+00  0.00000000000E+00  0.51168633778E+03  0.13022278500E+04  0.11974867285E+04 0.  0.
        3    1    3    3  502    0  0.11902973563E+03 -0.43011311173E+03 -0.17822970674E+03  0.48055302039E+03  0.10100000352E+00 0. -1.
       -3    1    3    3    0  502 -0.11902973563E+03  0.43011311173E+03  0.68991604452E+03  0.82167482956E+03  0.10100000352E+00 0.  1.
</event>
<event>
 5   0  0.5189537E-03  0.1120197E+04  0.7818609E-02  0.9185727E-01
        2   -1    0    0  501    0  0.00000000000E+00  0.00000000000E+00  0.24079824270E+04  0.24079824270E+04  0.25500000920E-02 0. -1.
       -2   -1    0    0    0  501  0.00000000000E+00  0.00000000000E+00 -0.13027929483E+03  0.13027929485E+03  0.25500000920E-02 0.  1.
    10030    2    1    2    0    0  0.00000000000E+00  0.00000000000E+00  0.22777031322E+04  0.25382617219E+04  0.11201968623E+04 0.  0.
        4    1    3    3  502    0  0.65410649073E+02  0.18790106462E+02  0.23985755725E+04  0.23995412085E+04  0.12699999809E+01 0. -1.
       -4    1    3    3    0  502 -0.65410649073E+02 -0.18790106462E+02 -0.12087244032E+03  0.13872051342E+03  0.12699999809E+01 0.  1.
</event>
<event>
 5   0  0.2875848E-03  0.1195880E+04  0.7818609E-02  0.9116470E-01
       -1   -1    0    0    0  501  0.00000000000E+00  0.00000000000E+00  0.17896323433E+03  0.17896323440E+03  0.50400001928E-02 0. -1.
        1   -1    0    0  501    0  0.00000000000E+00  0.00000000000E+00 -0.19977985588E+04  0.19977985589E+04  0.50400001928E-02 0.  1.
    10030    2    1    2    0    0  0.00000000000E+00  0.00000000000E+00 -0.18188353245E+04  0.21767617933E+04  0.11958804150E+04 0.  0.
        1    1    3    3  502    0  0.15678128467E+03  0.46608079198E+03 -0.15286147370E+04  0.16057629620E+04  0.50400001928E-02 0.  1.
       -1    1    3    3    0  502 -0.15678128467E+03 -0.46608079198E+03 -0.29022058751E+03  0.57099883127E+03  0.50400001928E-02 0. -1.
</event>
<event>
 5   0  0.5031575E-03  0.1185244E+04  0.7818609E-02  0.9125871E-01
       -2   -1    0    0    0  501  0.00000000000E+00  0.00000000000E+00  0.84640500981E+03  0.84640500981E+03  0.25500000920E-02 0.  1.
        2   -1    0    0  501    0  0.00000000000E+00  0.00000000000E+00 -0.41493238285E+03  0.41493238286E+03  0.25500000920E-02 0. -1.
    10030    2    1    2    0    0  0.00000000000E+00  0.00000000000E+00  0.43147262695E+03  0.12613373927E+04  0.11852440214E+04 0.  0.
        5    1    3    3  502    0  0.55896196926E+02 -0.57881277899E+03  0.94258201863E+02  0.58911400983E+03  0.46999998093E+01 0. -1.
       -5    1    3    3    0  502 -0.55896196926E+02  0.57881277899E+03  0.33721442509E+03  0.67222338285E+03  0.46999998093E+01 0.  1.
</event>
<event>
 5   0  0.5031575E-03  0.1189703E+04  0.7818609E-02  0.9121917E-01
       -2   -1    0    0    0  501  0.00000000000E+00  0.00000000000E+00  0.85614967659E+03  0.85614967660E+03  0.25500000920E-02 0. -1.
        2   -1    0    0  501    0  0.00000000000E+00  0.00000000000E+00 -0.41330206733E+03  0.41330206734E+03  0.25500000920E-02 0.  1.
    10030    2    1    2    0    0  0.00000000000E+00  0.00000000000E+00  0.44284760926E+03  0.12694517439E+04  0.11897032089E+04 0.  0.
        5    1    3    3  502    0  0.28788318339E+03  0.25938158191E+03 -0.26012682805E+03  0.46673717335E+03  0.46999998093E+01 0.  1.
       -5    1    3    3    0  502 -0.28788318339E+03 -0.25938158191E+03  0.70297443731E+03  0.80271457058E+03  0.46999998093E+01 0. -1.
</event>
<event>
 5   0  0.5031575E-03  0.1171535E+04  0.7818609E-02  0.9138143E-01
       -2   -1    0    0    0  501  0.00000000000E+00  0.00000000000E+00  0.24760108222E+03  0.24760108223E+03  0.25500000920E-02 0.  1.
        2   -1    0    0  501    0  0.00000000000E+00  0.00000000000E+00 -0.13857923018E+04  0.13857923018E+04  0.25500000920E-02 0. -1.
    10030    2    1    2    0    0  0.00000000000E+00  0.00000000000E+00 -0.11381912196E+04  0.16333933841E+04  0.11715351871E+04 0.  0.
        5    1    3    3  502    0  0.34188245036E+03 -0.38579919029E+03 -0.18126571487E+03  0.54644668036E+03  0.46999998093E+01 0. -1.
       -5    1    3    3    0  502 -0.34188245036E+03  0.38579919029E+03 -0.95692550473E+03  0.10869467037E+04  0.46999998093E+01 0.  1.
</event>
<event>
 5   0  0.5003526E-03  0.1159484E+04  0.7818609E-02  0.9149078E-01
       -2   -1    0    0    0  501  0.00000000000E+00  0.00000000000E+00  0.26032738428E+03  0.26032738429E+03  0.25500000920E-02 0.  1.
        2   -1    0    0  501    0  0.00000000000E+00  0.00000000000E+00 -0.12910698151E+04  0.12910698151E+04  0.25500000920E-02 0. -1.
    10030    2    1    2    0    0  0.00000000000E+00  0.00000000000E+00 -0.10307424308E+04  0.15513971994E+04  0.11594840713E+04 0.  0.
        2    1    3    3  502    0 -0.19096348575E+03  0.53220305448E+03 -0.34405578030E+03  0.66187727265E+03  0.25500000920E-02 0. -1.
       -2    1    3    3    0  502  0.19096348575E+03 -0.53220305448E+03 -0.68668665054E+03  0.88951992677E+03  0.25500000920E-02 0.  1.
</event>
<event>
 5   0  0.2938349E-03  0.1262032E+04  0.7818609E-02  0.9060228E-01
       -1   -1    0    0    0  501  0.00000000000E+00  0.00000000000E+00  0.46699017726E+03  0.46699017729E+03  0.50400001928E-02 0. -1.
        1   -1    0    0  501    0  0.00000000000E+00  0.00000000000E+00 -0.85265368343E+03  0.85265368345E+03  0.50400001928E-02 0.  1.
    10030    2    1    2    0    0  0.00000000000E+00  0.00000000000E+00 -0.38566350617E+03  0.13196438607E+04  0.12620315286E+04 0.  0.
        4    1    3    3  502    0 -0.50103860270E+03 -0.29703856394E+02  0.20706261263E+03  0.54295353294E+03  0.12699999809E+01 0. -1.
       -4    1    3    3    0  502  0.50103860270E+03  0.29703856394E+02 -0.59272611880E+03  0.77669032780E+03  0.12699999809E+01 0.  1.
</event>
<event>
 5   0  0.5467554E-03  0.1178659E+04  0.7818609E-02  0.9131744E-01
        2   -1    0    0  501    0  0.00000000000E+00  0.00000000000E+00  0.14635661345E+04  0.14635661345E+04  0.25500000920E-02 0. -1.
       -2   -1    0    0    0  501  0.00000000000E+00  0.00000000000E+00 -0.23730340728E+03  0.23730340729E+03  0.25500000920E-02 0.  1.
    10030    2    1    2    0    0  0.00000000000E+00  0.00000000000E+00  0.12262627273E+04  0.17008695418E+04  0.11786589507E+04 0.  0.
        1    1    3    3  502    0 -0.11286146783E+03  0.52316931141E+03  0.25711656218E+03  0.59376153959E+03  0.50400001928E-02 0.  1.
       -1    1    3    3    0  502  0.11286146783E+03 -0.52316931141E+03  0.96914616508E+03  0.11071080022E+04  0.50400001928E-02 0. -1.
</event>
<event>
 5   0  0.5031575E-03  0.1202526E+04  0.7818609E-02  0.9110648E-01
        2   -1    0    0  501    0  0.00000000000E+00  0.00000000000E+00  0.31345346910E+03  0.31345346911E+03  0.25500000920E-02 0.  1.
       -2   -1    0    0    0  501  0.00000000000E+00  0.00000000000E+00 -0.11533367622E+04  0.11533367622E+04  0.25500000920E-02 0. -1.
    10030    2    1    2    0    0  0.00000000000E+00  0.00000000000E+00 -0.83988329313E+03  0.14667902313E+04  0.12025263559E+04 0.  0.
        5    1    3    3  502    0 -0.28318801497E+03  0.13591209280E+03  0.20538801712E+03  0.37533168847E+03  0.46999998093E+01 0.  1.
       -5    1    3    3    0  502  0.28318801497E+03 -0.13591209280E+03 -0.10452713102E+04  0.10914585429E+04  0.46999998093E+01 0. -1.
</event>
<event>
 5   0  0.5189537E-03  0.1181666E+04  0.7818609E-02  0.9129057E-01
        2   -1    0    0  501    0  0.00000000000E+00  0.00000000000E+00  0.17661087260E+04  0.17661087260E+04  0.25500000920E-02 0. -1.
       -2   -1    0    0    0  501  0.00000000000E+00  0.00000000000E+00 -0.19765692169E+03  0.19765692170E+03  0.25500000920E-02 0.  1.
    10030    2    1    2    0    0  0.00000000000E+00  0.00000000000E+00  0.15684518043E+04  0.19637656477E+04  0.11816659666E+04 0.  0.
        4    1    3    3  502    0  0.49530515870E+03  0.22346367489E+03  0.11697591916E+04  0.12898067272E+04  0.12699999809E+01 0. -1.
       -4    1    3    3    0  502 -0.49530515870E+03 -0.22346367489E+03  0.39869261273E+03  0.67395892054E+03  0.12699999809E+01 0.  1.
</event>
<event>
 5   0  0.5031575E-03  0.1206786E+04  0.7818609E-02  0.9106937E-01
       -2   -1    0    0    0  501  0.00000000000E+00  0.00000000000E+00  0.63951856507E+03  0.63951856508E+03  0.25500000920E-02 0.  1.
        2   -1    0    0  501    0  0.00000000000E+00  0.00000000000E+00 -0.56930832551E+03  0.56930832552E+03  0.25500000920E-02 0. -1.
    10030    2    1    2    0    0  0.00000000000E+00  0.00000000000E+00  0.70210239563E+02  0.12088268906E+04  0.12067862171E+04 0.  0.
        5    1    3    3  502    0  0.41600997539E+02 -0.49225007176E+03 -0.31192028130E+03  0.58425775821E+03  0.46999998093E+01 0. -1.
       -5    1    3    3    0  502 -0.41600997539E+02  0.49225007176E+03  0.38213052086E+03  0.62456913238E+03  0.46999998093E+01 0.  1.
</event>
<event>
 5   0  0.5031575E-03  0.1243501E+04  0.7818609E-02  0.9075610E-01
        2   -1    0    0  501    0  0.00000000000E+00  0.00000000000E+00  0.39188041991E+03  0.39188041992E+03  0.25500000920E-02 0.  1.
       -2   -1    0    0    0  501  0.00000000000E+00  0.00000000000E+00 -0.98645766852E+03  0.98645766852E+03  0.25500000920E-02 0. -1.
    10030    2    1    2    0    0  0.00000000000E+00  0.00000000000E+00 -0.59457724861E+03  0.13783380884E+04  0.12435006158E+04 0.  0.
        5    1    3    3  502    0  0.88362529086E+02  0.41729844329E+03 -0.79867015087E+03  0.90545128373E+03  0.46999998093E+01 0. -1.
       -5    1    3    3    0  502 -0.88362529086E+02 -0.41729844329E+03  0.20409290226E+03  0.47288680471E+03  0.46999998093E+01 0.  1.
</event>
<event>
 5   0  0.2938349E-03  0.1346262E+04  0.7818609E-02  0.8993662E-01
        1   -1    0    0  501    0  0.00000000000E+00  0.00000000000E+00  0.18462547005E+04  0.18462547005E+04  0.50400001928E-02 0.  1.
       -1   -1    0    0    0  501  0.00000000000E+00  0.00000000000E+00 -0.24541874642E+03  0.24541874647E+03  0.50400001928E-02 0. -1.
    10030    2    1    2    0    0  0.00000000000E+00  0.00000000000E+00  0.16008359541E+04  0.20916734470E+04  0.13462622541E+04 0.  0.
        4    1    3    3  502    0  0.56643385885E+03 -0.15081944392E+03  0.13145696607E+04  0.14393362453E+04  0.12699999809E+01 0.  1.
       -4    1    3    3    0  502 -0.56643385885E+03  0.15081944392E+03  0.28626629333E+03  0.65233720170E+03  0.12699999809E+01 0. -1.
</event>
<event>
 5   0  0.2930868E-03  0.1233141E+04  0.7818609E-02  0.9084333E-01
       -1   -1    0    0    0  501  0.00000000000E+00  0.00000000000E+00  0.22955139613E+03  0.22955139619E+03  0.50400001928E-02 0. -1.
        1   -1    0    0  501    0  0.00000000000E+00  0.00000000000E+00 -0.16560956337E+04  0.16560956337E+04  0.50400001928E-02 0.  1.
    10030    2    1    2    0    0  0.00000000000E+00  0.00000000000E+00 -0.14265442375E+04  0.18856470299E+04  0.12331408109E+04 0.  0.
        3    1    3    3  502    0  0.58796339604E+03 -0.55393638661E+02 -0.44235220527E+03  0.73786509200E+03  0.10100000352E+00 0.  1.
       -3    1    3    3    0  502 -0.58796339604E+03  0.55393638661E+02 -0.98419203226E+03  0.11477819378E+04  0.10100000352E+00 0. -1.
</event>
<event>
 5   0  0.2926844E-03  0.1241946E+04  0.7818609E-02  0.9076914E-01
       -1   -1    0    0    0  501  0.00000000000E+00  0.00000000000E+00  0.69544526001E+03  0.69544526003E+03  0.50400001928E-02 0.  1.
        1   -1    0    0  501    0  0.00000000000E+00  0.00000000000E+00 -0.55447533885E+03  0.55447533888E+03  0.50400001928E-02 0. -1.
    10030    2    1    2    0    0  0.00000000000E+00  0.00000000000E+00  0.14096992115E+03  0.12499205989E+04  0.12419456449E+04 0.  0.
        5    1    3    3  502    0 -0.13781515790E+03 -0.46928342626E+03  0.45551867425E+03  0.66838559567E+03  0.46999998093E+01 0.  1.
       -5    1    3    3    0  502  0.13781515790E+03  0.46928342626E+03 -0.31454875310E+03  0.58153500323E+03  0.46999998093E+01 0. -1.
</event>
<event>
 5   0  0.5467554E-03  0.1193642E+04  0.7818609E-02  0.9118440E-01
       -2   -1    0    0    0  501  0.00000000000E+00  0.00000000000E+00  0.41016310362E+03  0.41016310363E+03  0.25500000920E-02 0.  1.
        2   -1    0    0  501    0  0.00000000000E+00  0.00000000000E+00 -0.86842340768E+03  0.86842340769E+03  0.25500000920E-02 0. -1.
    10030    2    1    2    0    0  0.00000000000E+00  0.00000000000E+00 -0.45826030406E+03  0.12785865113E+04  0.11936418896E+04 0.  0.
        1    1    3    3  502    0 -0.17874779002E+03 -0.53268705027E+03 -0.44466845232E+03  0.71654469399E+03  0.50400001928E-02 0. -1.
       -1    1    3    3    0  502  0.17874779002E+03  0.53268705027E+03 -0.13591851739E+02  0.56204181733E+03  0.50400001928E-02 0.  1.
</event>
<event>
 5   0  0.5031575E-03  0.1222283E+04  0.7818609E-02  0.9093573E-01
        2   -1    0    0  501    0  0.00000000000E+00  0.00000000000E+00  0.13229592009E+04  0.13229592009E+04  0.25500000920E-02 0.  1.
       -2   -1    0    0    0  501  0.00000000000E+00  0.00000000000E+00 -0.28231692087E+03  0.28231692088E+03  0.25500000920E-02 0. -1.
    10030    2    1    2    0    0  0.00000000000E+00  0.00000000000E+00  0.10406422801E+04  0.16052761218E+04  0.12222827301E+04 0.  0.
        5    1    3    3  502    0 -0.13322046510E+03  0.45371870785E+03  0.11897489329E+02  0.47304545070E+03  0.46999998093E+01 0. -1.
       -5    1    3    3    0  502  0.13322046510E+03 -0.45371870785E+03  0.10287447907E+04  0.11322306711E+04  0.46999998093E+01 0.  1.
</event>
<event>
 5   0  0.2926844E-03  0.1181869E+04  0.7818609E-02  0.9128876E-01
        1   -1    0    0  501    0  0.00000000000E+00  0.00000000000E+00  0.77389595276E+03  0.77389595278E+03  0.50400001928E-02 0.  1.
       -1   -1    0    0    0  501  0.00000000000E+00  0.00000000000E+00 -0.45122811354E+03  0.45122811357E+03  0.50400001928E-02 0. -1.
    10030    2    1    2    0    0  0.00000000000E+00  0.00000000000E+00  0.32266783922E+03  0.12251240663E+04  0.11818690467E+04 0.  0.
        5    1    3    3  502    0  0.47197947374E+02 -0.57307915020E+03  0.30245672226E+03  0.64973034212E+03  0.46999998093E+01 0. -1.
       -5    1    3    3    0  502 -0.47197947374E+02  0.57307915020E+03  0.20211116967E+02  0.57539372423E+03  0.46999998093E+01 0.  1.
</event>
<event>
 5   0  0.2875848E-03  0.1189764E+04  0.7818609E-02  0.9121864E-01
       -1   -1    0    0    0  501  0.00000000000E+00  0.00000000000E+00  0.11977958193E+04  0.11977958193E+04  0.50400001928E-02 0.  1.
        1   -1    0    0  501    0  0.00000000000E+00  0.00000000000E+00 -0.29544632296E+03  0.29544632300E+03  0.50400001928E-02 0. -1.
    10030    2    1    2    0    0  0.00000000000E+00  0.00000000000E+00  0.90234949635E+03  0.14932421423E+04  0.11897636244E+04 0.  0.
        1    1    3    3  502    0 -0.13435672349E+03  0.28453421192E+03 -0.18244893499E+03  0.36372937853E+03  0.50400001928E-02 0. -1.
       -1    1    3    3    0  502  0.13435672349E+03 -0.28453421192E+03  0.10847984313E+04  0.11295127638E+04  0.50400001928E-02 0.  1.
</event>
<event>
 5   0  0.5189537E-03  0.1236043E+04  0.7818609E-02  0.9081881E-01
        2   -1    0    0  501    0  0.00000000000E+00  0.00000000000E+00  0.58329634856E+03  0.58329634857E+03  0.25500000920E-02 0. -1.
       -2   -1    0    0    0  501  0.00000000000E+00  0.00000000000E+00 -0.65481347578E+03  0.65481347578E+03  0.25500000920E-02 0.  1.
    10030    2    1    2    0    0  0.00000000000E+00  0.00000000000E+00 -0.71517127218E+02  0.12381098243E+04  0.12360425711E+04 0.  0.
        4    1    3    3  502    0 -0.40053591337E+03  0.99750847198E+02 -0.49649463678E+03  0.64566848046E+03  0.12699999809E+01 0.  1.
       -4    1    3    3    0  502  0.40053591337E+03 -0.99750847198E+02  0.42497750956E+03  0.59244134389E+03  0.12699999809E+01 0. -1.
</event>
<event>
 5   0  0.2875848E-03  0.1192337E+04  0.7818609E-02  0.9119590E-01
       -1   -1    0    0    0  501  0.00000000000E+00  0.00000000000E+00  0.51005764245E+03  0.51005764247E+03  0.50400001928E-02 0. -1.
        1   -1    0    0  501    0  0.00000000000E+00  0.00000000000E+00 -0.69681757249E+03  0.69681757251E+03  0.50400001928E-02 0.  1.
    10030    2    1    2    0    0  0.00000000000E+00  0.00000000000E+00 -0.18675993004E+03  0.12068752150E+04  0.11923374158E+04 0.  0.
        1    1    3    3  502    0  0.53798279182E+02 -0.59319789072E+03 -0.67790583771E+02  0.59947773576E+03  0.50400001928E-02 0. -1.
       -1    1    3    3    0  502 -0.53798279182E+02  0.59319789072E+03 -0.11896934627E+03  0.60739747923E+03  0.50400001928E-02 0.  1.
</event>
<event>
 5   0  0.5189537E-03  0.1268452E+04  0.7818609E-02  0.9054964E-01
        2   -1    0    0  501    0  0.00000000000E+00  0.00000000000E+00  0.11849558876E+04  0.11849558876E+04  0.25500000920E-02 0. -1.
       -2   -1    0    0    0  501  0.00000000000E+00  0.00000000000E+00 -0.33945767316E+03  0.33945767317E+03  0.25500000920E-02 0.  1.
    10030    2    1    2    0    0  0.00000000000E+00  0.00000000000E+00  0.84549821447E+03  0.15244135608E+04  0.12684516048E+04 0.  0.
        4    1    3    3  502    0  0.51216153842E+02  0.40640721411E+03 -0.15915951922E+03  0.43945794287E+03  0.12699999809E+01 0.  1.
       -4    1    3    3    0  502 -0.51216153842E+02 -0.40640721411E+03  0.10046577337E+04  0.10849556179E+04  0.12699999809E+01 0. -1.
</event>
<event>
 5   0  0.5467554E-03  0.1188486E+04  0.7818609E-02  0.9122994E-01
       -2   -1    0    0    0  501  0.00000000000E+00  0.00000000000E+00  0.68212381684E+03  0.68212381685E+03  0.25500000920E-02 0.  1.
        2   -1    0    0  501    0  0.00000000000E+00  0.00000000000E+00 -0.51768457070E+03  0.51768457070E+03  0.25500000920E-02 0. -1.
    10030    2    1    2    0    0  0.00000000000E+00  0.00000000000E+00  0.16443924615E+03  0.11998083875E+04  0.11884863908E+04 0.  0.
        1    1    3    3  502    0 -0.20237895121E+03  0.25967633442E+03 -0.41720109326E+03  0.53145629246E+03  0.50400001928E-02 0. -1.
       -1    1    3    3    0  502  0.20237895121E+03 -0.25967633442E+03  0.58164033941E+03  0.66835209509E+03  0.50400001928E-02 0.  1.
</event>
<event>
 5   0  0.1922125E-03  0.1194510E+04  0.7818609E-02  0.9117675E-01
       -4   -1    0    0    0  501  0.00000000000E+00  0.00000000000E+00  0.58039963904E+03  0.58040102851E+03  0.12699999809E+01 0. -1.
        4   -1    0    0  501    0  0.00000000000E+00  0.00000000000E+00 -0.61459755791E+03  0.61459887007E+03  0.12699999809E+01 0.  1.
    10030    2    1    2    0    0  0.00000000000E+00  0.00000000000E+00 -0.34197918873E+02  0.11949998986E+04  0.11945104687E+04 0.  0.
        5    1    3    3  502    0  0.90799878246E+02 -0.25595291546E+03  0.51503553033E+03  0.58227158640E+03  0.46999998093E+01 0. -1.
       -5    1    3    3    0  502 -0.90799878246E+02  0.25595291546E+03 -0.54923344921E+03  0.61272831218E+03  0.46999998093E+01 0.  1.
</event>
<event>
 5   0  0.2875848E-03  0.1126841E+04  0.7818609E-02  0.9179418E-01
       -1   -1    0    0    0  501  0.00000000000E+00  0.00000000000E+00  0.48834670353E+03  0.48834670356E+03  0.50400001928E-02 0. -1.
        1   -1    0    0  501    0  0.00000000000E+00  0.00000000000E+00 -0.65003568768E+03  0.65003568770E+03  0.50400001928E-02 0.  1.
    10030    2    1    2    0    0  0.00000000000E+00  0.00000000000E+00 -0.16168898415E+03  0.11383823913E+04  0.11268412227E+04 0.  0.
        1    1    3    3  502    0  0.39245495228E+03  0.59088186971E+01 -0.48919600407E+03  0.62719098696E+03  0.50400001928E-02 0.  1.
       -1    1    3    3    0  502 -0.39245495228E+03 -0.59088186971E+01  0.32750701992E+03  0.51119140430E+03  0.50400001928E-02 0. -1.
</event>
<event>
 5   0  0.1922125E-03  0.1195737E+04  0.7818609E-02  0.9116596E-01
        3   -1    0    0  501    0  0.00000000000E+00  0.00000000000E+00  0.28496475644E+03  0.28496477434E+03  0.10100000352E+00 0. -1.
       -3   -1    0    0    0  501  0.00000000000E+00  0.00000000000E+00 -0.12543535519E+04  0.12543535560E+04  0.10100000352E+00 0.  1.
    10030    2    1    2    0    0  0.00000000000E+00  0.00000000000E+00 -0.96938879548E+03  0.15393183303E+04  0.11957367123E+04 0.  0.
        1    1    3    3  502    0  0.36074758860E+03 -0.36975957189E+03 -0.87215047606E+03  0.10136604050E+04  0.50400001928E-02 0.  1.
       -1    1    3    3    0  502 -0.36074758860E+03  0.36975957189E+03 -0.97238319416E+02  0.52565792534E+03  0.50400001928E-02 0. -1.
</event>
<event>
 5   0  0.5189537E-03  0.1223114E+04  0.7818609E-02  0.9092862E-01
       -2   -1    0    0    0  501  0.00000000000E+00  0.00000000000E+00  0.15464263073E+04  0.15464263073E+04  0.25500000920E-02 0.  1.
        2   -1    0    0  501    0  0.00000000000E+00  0.00000000000E+00 -0.24184902964E+03  0.24184902965E+03  0.25500000920E-02 0. -1.
    10030    2    1    2    0    0  0.00000000000E+00  0.00000000000E+00  0.13045772776E+04  0.17882753369E+04  0.12231135709E+04 0.  0.
        4    1    3    3  502    0 -0.16173483176E+03  0.49456119419E+03  0.18248641475E+03  0.55140895447E+03  0.12699999809E+01 0. -1.
       -4    1    3    3    0  502  0.16173483176E+03 -0.49456119419E+03  0.11220908629E+04  0.12368663825E+04  0.12699999809E+01 0.  1.
</event>
<event>
 5   0  0.2938349E-03  0.1208974E+04  0.7818609E-02  0.9105038E-01
       -1   -1    0    0    0  501  0.00000000000E+00  0.00000000000E+00  0.54191916841E+03  0.54191916844E+03  0.50400001928E-02 0. -1.
        1   -1    0    0  501    0  0.00000000000E+00  0.00000000000E+00 -0.67427885081E+03  0.67427885083E+03  0.50400001928E-02 0.  1.
    10030    2    1    2    0    0  0.00000000000E+00  0.00000000000E+00 -0.13235968240E+03  0.12161980193E+04  0.12089741670E+04 0.  0.
        4    1    3    3  502    0 -0.38616037879E+03 -0.36055174348E+03  0.22931948243E+03  0.57593961124E+03  0.12699999809E+01 0. -1.
       -4    1    3    3    0  502  0.38616037879E+03  0.36055174348E+03 -0.36167916483E+03  0.64025840803E+03  0.12699999809E+01 0.  1.
</event>
<event>
 5   0  0.5189537E-03  0.1153601E+04  0.7818609E-02  0.9154468E-01
       -2   -1    0    0    0  501  0.00000000000E+00  0.00000000000E+00  0.51693563899E+03  0.51693563900E+03  0.25500000920E-02 0. -1.
        2   -1    0    0  501    0  0.00000000000E+00  0.00000000000E+00 -0.64359780225E+03  0.64359780225E+03  0.25500000920E-02 0.  1.
    10030    2    1    2    0    0  0.00000000000E+00  0.00000000000E+00 -0.12666216325E+03  0.11605334413E+04  0.11536006955E+04 0.  0.
        4    1    3    3  502    0 -0.45372906224E+03 -0.20402037467E+03 -0.35698020536E+03  0.61231597654E+03  0.12699999809E+01 0.  1.
       -4    1    3    3    0  502  0.45372906224E+03  0.20402037467E+03  0.23031804211E+03  0.54821746472E+03  0.12699999809E+01 0. -1.
</event>
<event>
 5   0  0.2792518E-03  0.1197876E+04  0.7818609E-02  0.9114718E-01
       -1   -1    0    0    0  501  0.00000000000E+00  0.00000000000E+00  0.13611062268E+04  0.13611062268E+04  0.50400001928E-02 0. -1.
        1   -1    0    0  501    0  0.00000000000E+00  0.00000000000E+00 -0.26355521059E+03  0.26355521064E+03  0.50400001928E-02 0.  1.
    10030    2    1    2    0    0  0.00000000000E+00  0.00000000000E+00  0.10975510162E+04  0.16246614374E+04  0.11978758505E+04 0.  0.
        2    1    3    3  502    0  0.20410385454E+03  0.17273348347E+03  0.12756627046E+04  0.13033842778E+04  0.25500000920E-02 0. -1.
       -2    1    3    3    0  502 -0.20410385454E+03 -0.17273348347E+03 -0.17811168839E+03  0.32127715963E+03  0.25500000920E-02 0.  1.
</event>
<event>
 5   0  0.5467554E-03  0.1141026E+04  0.7818609E-02  0.9166102E-01
        2   -1    0    0  501    0  0.00000000000E+00  0.00000000000E+00  0.10960873967E+04  0.10960873967E+04  0.25500000920E-02 0. -1.
       -2   -1    0    0    0  501  0.00000000000E+00  0.00000000000E+00 -0.29695199924E+03  0.29695199925E+03  0.25500000920E-02 0.  1.
    10030    2    1    2    0    0  0.00000000000E+00  0.00000000000E+00  0.79913539746E+03  0.13930393960E+04  0.11410264568E+04 0.  0.
        1    1    3    3  502    0 -0.41457289345E+03  0.33934813888E+03  0.16014892006E+03  0.55917396217E+03  0.50400001928E-02 0.  1.
       -1    1    3    3    0  502  0.41457289345E+03 -0.33934813888E+03  0.63898647740E+03  0.83386543379E+03  0.50400001928E-02 0. -1.
</event>
<event>
 5   0  0.2930868E-03  0.1202704E+04  0.7818609E-02  0.9110493E-01
       -1   -1    0    0    0  501  0.00000000000E+00  0.00000000000E+00  0.16401400156E+03  0.16401400163E+03  0.50400001928E-02 0.  1.
        1   -1    0    0  501    0  0.00000000000E+00  0.00000000000E+00 -0.22048387547E+04  0.22048387547E+04  0.50400001928E-02 0. -1.
    10030    2    1    2    0    0  0.00000000000E+00  0.00000000000E+00 -0.20408247531E+04  0.23688527563E+04  0.12027043311E+04 0.  0.
        3    1    3    3  502    0  0.58568231532E+03 -0.10047261630E+03 -0.83876078009E+03  0.10279290722E+04  0.10100000352E+00 0.  1.
       -3    1    3    3    0  502 -0.58568231532E+03  0.10047261630E+03 -0.12020639730E+04  0.13409236841E+04  0.10100000352E+00 0. -1.
</event>
<event>
 5   0  0.2875848E-03  0.1185121E+04  0.7818609E-02  0.9125980E-01
       -1   -1    0    0    0  501  0.00000000000E+00  0.00000000000E+00  0.28932041468E+03  0.28932041473E+03  0.50400001928E-02 0. -1.
        1   -1    0    0  501    0  0.00000000000E+00  0.00000000000E+00 -0.12136310214E+04  0.12136310214E+04  0.50400001928E-02 0.  1.
    10030    2    1    2    0    0  0.00000000000E+00  0.00000000000E+00 -0.92431060667E+03  0.15029514361E+04  0.11851214797E+04 0.  0.
        1    1    3    3  502    0 -0.50746064819E+03  0.12629785837E+03 -0.10874197054E+03  0.53412758277E+03  0.50400001928E-02 0. -1.
       -1    1    3    3    0  502  0.50746064819E+03 -0.12629785837E+03 -0.81556863613E+03  0.96882385332E+03  0.50400001928E-02 0.  1.
</event>
<event>
 5   0  0.2930868E-03  0.9707691E+03  0.7818609E-02  0.9341199E-01
       -1   -1    0    0    0  501  0.00000000000E+00  0.00000000000E+00  0.57425248932E+03  0.57425248934E+03  0.50400001928E-02 0.  1.
        1   -1    0    0  501    0  0.00000000000E+00  0.00000000000E+00 -0.41026932980E+03  0.41026932983E+03  0.50400001928E-02 0. -1.
    10030    2    1    2    0    0  0.00000000000E+00  0.00000000000E+00  0.16398315952E+03  0.98452181917E+03  0.97076914651E+03 0.  0.
        3    1    3    3  502    0 -0.28138228291E+03  0.24843133614E+03  0.39409150882E+03  0.54424465586E+03  0.10100000352E+00 0.  1.
       -3    1    3    3    0  502  0.28138228291E+03 -0.24843133614E+03 -0.23010834930E+03  0.44027716331E+03  0.10100000352E+00 0. -1.
</event>
<event>
 5   0  0.5108045E-03  0.1157052E+04  0.7818609E-02  0.9151303E-01
       -2   -1    0    0    0  501  0.00000000000E+00  0.00000000000E+00  0.21673732603E+03  0.21673732605E+03  0.25500000920E-02 0. -1.
        2   -1    0    0  501    0  0.00000000000E+00  0.00000000000E+00 -0.15442292694E+04  0.15442292694E+04  0.25500000920E-02 0.  1.
    10030    2    1    2    0    0  0.00000000000E+00  0.00000000000E+00 -0.13274919434E+04  0.17609665955E+04  0.11570516370E+04 0.  0.
        3    1    3    3  502    0 -0.25464910848E+02  0.31971319015E+03 -0.13965376065E+04  0.14328929765E+04  0.10100000352E+00 0.  1.
       -3    1    3    3    0  502  0.25464910848E+02 -0.31971319015E+03  0.69045663116E+02  0.32807361893E+03  0.10100000352E+00 0. -1.
</event>
<event>
 5   0  0.5003526E-03  0.1194656E+04  0.7818609E-02  0.9117547E-01
       -2   -1    0    0    0  501  0.00000000000E+00  0.00000000000E+00  0.18303715153E+03  0.18303715155E+03  0.25500000920E-02 0.  1.
        2   -1    0    0  501    0  0.00000000000E+00  0.00000000000E+00 -0.19493349550E+04  0.19493349550E+04  0.25500000920E-02 0. -1.
    10030    2    1    2    0    0  0.00000000000E+00  0.00000000000E+00 -0.17662978035E+04  0.21323721065E+04  0.11946559631E+04 0.  0.
        2    1    3    3  502    0 -0.14206837850E+03  0.56876929144E+03 -0.10875894185E+04  0.12355293093E+04  0.25500000920E-02 0. -1.
       -2    1    3    3    0  502  0.14206837850E+03 -0.56876929144E+03 -0.67870838500E+03  0.89684279722E+03  0.25500000920E-02 0.  1.
</event>
<event>
 5   0  0.2938349E-03  0.1216177E+04  0.7818609E-02  0.9098813E-01
        1   -1    0    0  501    0  0.00000000000E+00  0.00000000000E+00  0.25241646541E+03  0.25241646546E+03  0.50400001928E-02 0. -1.
       -1   -1    0    0    0  501  0.00000000000E+00  0.00000000000E+00 -0.14649279081E+04  0.14649279081E+04  0.50400001928E-02 0.  1.
    10030    2    1    2    0    0  0.00000000000E+00  0.00000000000E+00 -0.12125114427E+04  0.17173443736E+04  0.12161774948E+04 0.  0.
        4    1    3    3  502    0  0.14273879017E+03 -0.28303336856E+02  0.22746563282E+03  0.27003271674E+03  0.12699999809E+01 0. -1.
       -4    1    3    3    0  502 -0.14273879017E+03  0.28303336856E+02 -0.14399770755E+04  0.14473116568E+04  0.12699999809E+01 0.  1.
</event>
<event>
 5   0  0.5467554E-03  0.1139448E+04  0.7818609E-02  0.9167574E-01
       -2   -1    0    0    0  501  0.00000000000E+00  0.00000000000E+00  0.40354754553E+03  0.40354754554E+03  0.25500000920E-02 0.  1.
        2   -1    0    0  501    0  0.00000000000E+00  0.00000000000E+00 -0.80433007963E+03  0.80433007963E+03  0.25500000920E-02 0. -1.
    10030    2    1    2    0    0  0.00000000000E+00  0.00000000000E+00 -0.40078253409E+03  0.12078776252E+04  0.11394479882E+04 0.  0.
        1    1    3    3  502    0  0.12861132603E+03 -0.14736838289E+03 -0.76762189123E+03  0.79215003717E+03  0.50400001928E-02 0. -1.
       -1    1    3    3    0  502 -0.12861132603E+03  0.14736838289E+03  0.36683935714E+03  0.41572758801E+03  0.50400001928E-02 0.  1.
</event>
<event>
 5   0  0.1922125E-03  0.1223284E+04  0.7818609E-02  0.9092717E-01
        4   -1    0    0  501    0  0.00000000000E+00  0.00000000000E+00  0.27322092966E+03  0.27322388128E+03  0.12699999809E+01 0. -1.
       -4   -1    0    0    0  501  0.00000000000E+00  0.00000000000E+00 -0.13692332706E+04  0.13692338596E+04  0.12699999809E+01 0.  1.
    10030    2    1    2    0    0  0.00000000000E+00  0.00000000000E+00 -0.10960123409E+04  0.16424577409E+04  0.12232842593E+04 0.  0.
        4    1    3    3  502    0 -0.65107996773E+02 -0.60772755305E+03 -0.57899381375E+03  0.84190693028E+03  0.12699999809E+01 0.  1.
       -4    1    3    3    0  502  0.65107996773E+02  0.60772755305E+03 -0.51701852719E+03  0.80055081059E+03  0.12699999809E+01 0. -1.
</event>
<event>
 5   0  0.2938349E-03  0.1195441E+04  0.7818609E-02  0.9116856E-01
        1   -1    0    0  501    0  0.00000000000E+00  0.00000000000E+00  0.11355332331E+04  0.11355332331E+04  0.50400001928E-02 0.  1.
       -1   -1    0    0    0  501  0.00000000000E+00  0.00000000000E+00 -0.31462740317E+03  0.31462740321E+03  0.50400001928E-02 0. -1.
    10030    2    1    2    0    0  0.00000000000E+00  0.00000000000E+00  0.82090582995E+03  0.14501606363E+04  0.11954411276E+04 0.  0.
        4    1    3    3  502    0  0.49365555668E+03  0.14777081748E+03  0.77786918034E+03  0.93306703820E+03  0.12699999809E+01 0. -1.
       -4    1    3    3    0  502 -0.49365555668E+03 -0.14777081748E+03  0.43036649602E+02  0.51709359815E+03  0.12699999809E+01 0.  1.
</event>
<event>
 5   0  0.5467554E-03  0.1179797E+04  0.7818609E-02  0.9130726E-01
       -2   -1    0    0    0  501  0.00000000000E+00  0.00000000000E+00  0.12653662963E+03  0.12653662966E+03  0.25500000920E-02 0.  1.
        2   -1    0    0  501    0  0.00000000000E+00  0.00000000000E+00 -0.27500369427E+04  0.27500369427E+04  0.25500000920E-02 0. -1.
    10030    2    1    2    0    0  0.00000000000E+00  0.00000000000E+00 -0.26235003131E+04  0.28765735723E+04  0.11797972811E+04 0.  0.
        1    1    3    3  502    0  0.37537459262E+03 -0.38426319395E+03 -0.71743030630E+03  0.89625360888E+03  0.50400001928E-02 0.  1.
       -1    1    3    3    0  502 -0.37537459262E+03  0.38426319395E+03 -0.19060700068E+04  0.19803199635E+04  0.50400001928E-02 0. -1.
</event>
<event>
 5   0  0.2875848E-03  0.1119651E+04  0.7818609E-02  0.9186247E-01
        1   -1    0    0  501    0  0.00000000000E+00  0.00000000000E+00  0.16911254410E+04  0.16911254410E+04  0.50400001928E-02 0.  1.
       -1   -1    0    0    0  501  0.00000000000E+00  0.00000000000E+00 -0.18532321285E+03  0.18532321292E+03  0.50400001928E-02 0. -1.
    10030    2    1    2    0    0  0.00000000000E+00  0.00000000000E+00  0.15058022281E+04  0.18764486539E+04  0.11196513745E+04 0.  0.
        1    1    3    3  502    0  0.23930566680E+03 -0.33311665340E+03  0.13914492508E+04  0.14506429348E+04  0.50400001928E-02 0.  1.
       -1    1    3    3    0  502 -0.23930566680E+03  0.33311665340E+03  0.11435297736E+03  0.42580571907E+03  0.50400001928E-02 0. -1.
</event>
<event>
 5   0  0.5467554E-03  0.1224103E+04  0.7818609E-02  0.9092017E-01
       -2   -1    0    0    0  501  0.00000000000E+00  0.00000000000E+00  0.26340003425E+03  0.26340003426E+03  0.25500000920E-02 0. -1.
        2   -1    0    0  501    0  0.00000000000E+00  0.00000000000E+00 -0.14221973128E+04  0.14221973128E+04  0.25500000920E-02 0.  1.
    10030    2    1    2    0    0  0.00000000000E+00  0.00000000000E+00 -0.11587972785E+04  0.16855973470E+04  0.12241026442E+04 0.  0.
        1    1    3    3  502    0 -0.37381430280E+03  0.30284311538E+03 -0.11004018253E+04  0.12009726319E+04  0.50400001928E-02 0.  1.
       -1    1    3    3    0  502  0.37381430280E+03 -0.30284311538E+03 -0.58395453234E+02  0.48462471511E+03  0.50400001928E-02 0. -1.
</event>
<event>
 5   0  0.2938349E-03  0.1204064E+04  0.7818609E-02  0.9109307E-01
        1   -1    0    0  501    0  0.00000000000E+00  0.00000000000E+00  0.49836715446E+03  0.49836715449E+03  0.50400001928E-02 0.  1.
       -1   -1    0    0    0  501  0.00000000000E+00  0.00000000000E+00 -0.72726038222E+03  0.72726038224E+03  0.50400001928E-02 0. -1.
    10030    2    1    2    0    0  0.00000000000E+00  0.00000000000E+00 -0.22889322776E+03  0.12256275367E+04  0.12040642629E+04 0.  0.
        4    1    3    3  502    0 -0.24363821161E+03 -0.32415639805E+03  0.33849890064E+03  0.52822350117E+03  0.12699999809E+01 0.  1.
       -4    1    3    3    0  502  0.24363821161E+03  0.32415639805E+03 -0.56739212840E+03  0.69740403556E+03  0.12699999809E+01 0. -1.
</event>
<event>
 5   0  0.5003526E-03  0.1203718E+04  0.7818609E-02  0.9109609E-01
       -2   -1    0    0    0  501  0.00000000000E+00  0.00000000000E+00  0.65702452817E+03  0.65702452818E+03  0.25500000920E-02 0. -1.
        2   -1    0    0  501    0  0.00000000000E+00  0.00000000000E+00 -0.55132505516E+03  0.55132505517E+03  0.25500000920E-02 0.  1.
    10030    2    1    2    0    0  0.00000000000E+00  0.00000000000E+00  0.10569947301E+03  0.12083495833E+04  0.12037177148E+04 0.  0.
        2    1    3    3  502    0 -0.56299979894E+02  0.29037226407E+03  0.57903113031E+03  0.65020211423E+03  0.25500000920E-02 0. -1.
       -2    1    3    3    0  502  0.56299979894E+02 -0.29037226407E+03 -0.47333165730E+03  0.55814746912E+03  0.25500000920E-02 0.  1.
</event>
<event>
 5   0  0.5003526E-03  0.1162491E+04  0.7818609E-02  0.9146337E-01
        2   -1    0    0  501    0  0.00000000000E+00  0.00000000000E+00  0.20396158347E+04  0.20396158347E+04  0.25500000920E-02 0. -1.
       -2   -1    0    0    0  501  0.00000000000E+00  0.00000000000E+00 -0.16564203454E+03  0.16564203456E+03  0.25500000920E-02 0.  1.
    10030    2    1    2    0    0  0.00000000000E+00  0.00000000000E+00  0.18739738001E+04  0.22052578692E+04  0.11624906306E+04 0.  0.
        2    1    3    3  502    0 -0.57494452632E+03 -0.67144790076E+02  0.10369449130E+04  0.11875707911E+04  0.25500000920E-02 0. -1.
       -2    1    3    3    0  502  0.57494452632E+03  0.67144790076E+02  0.83702888709E+03  0.10176870781E+04  0.25500000920E-02 0.  1.
</event>
<event>
 5   0  0.2938349E-03  0.1221234E+04  0.7818609E-02  0.9094471E-01
       -1   -1    0    0    0  501  0.00000000000E+00  0.00000000000E+00  0.79354870241E+03  0.79354870243E+03  0.50400001928E-02 0.  1.
        1   -1    0    0  501    0  0.00000000000E+00  0.00000000000E+00 -0.46985510401E+03  0.46985510403E+03  0.50400001928E-02 0. -1.
    10030    2    1    2    0    0  0.00000000000E+00  0.00000000000E+00  0.32369359841E+03  0.12634038065E+04  0.12212336519E+04 0.  0.
        4    1    3    3  502    0  0.11422200783E+03  0.57504840725E+03 -0.14703562708E+02  0.58646836693E+03  0.12699999809E+01 0.  1.
       -4    1    3    3    0  502 -0.11422200783E+03 -0.57504840725E+03  0.33839716112E+03  0.67693543954E+03  0.12699999809E+01 0. -1.
</event>
<event>
 5   0  0.2926844E-03  0.1146212E+04  0.7818609E-02  0.9161285E-01
       -1   -1    0    0    0  501  0.00000000000E+00  0.00000000000E+00  0.37360141609E+03  0.37360141613E+03  0.50400001928E-02 0. -1.
        1   -1    0    0  501    0  0.00000000000E+00  0.00000000000E+00 -0.87914725179E+03  0.87914725180E+03  0.50400001928E-02 0.  1.
    10030    2    1    2    0    0  0.00000000000E+00  0.00000000000E+00 -0.50554583569E+03  0.12527486679E+04  0.11462122984E+04 0.  0.
        5    1    3    3  502    0 -0.40066929660E+03 -0.35625385471E+03 -0.31533249589E+02  0.53709322288E+03  0.46999998093E+01 0. -1.
       -5    1    3    3    0  502  0.40066929660E+03  0.35625385471E+03 -0.47401258611E+03  0.71565544505E+03  0.46999998093E+01 0.  1.
</event>
<event>
 5   0  0.2792518E-03  0.9326302E+03  0.7818609E-02  0.9385687E-01
        1   -1    0    0  501    0  0.00000000000E+00  0.00000000000E+00  0.24047864143E+03  0.24047864148E+03  0.50400001928E-02 0.  1.
       -1   -1    0    0    0  501  0.00000000000E+00  0.00000000000E+00 -0.90423739659E+03  0.90423739661E+03  0.50400001928E-02 0. -1.
    10030    2    1    2    0    0  0.00000000000E+00  0.00000000000E+00 -0.66375875517E+03  0.11447160381E+04  0.93263021761E+03 0.  0.
        2    1    3    3  502    0 -0.18991208495E+03 -0.44920173529E+02  0.18794611057E+03  0.27093940740E+03  0.25500000920E-02 0.  1.
       -2    1    3    3    0  502  0.18991208495E+03  0.44920173529E+02 -0.85170486574E+03  0.87377663068E+03  0.25500000920E-02 0. -1.
</event>
<event>
 5   0  0.5108045E-03  0.1201370E+04  0.7818609E-02  0.9111659E-01
        2   -1    0    0  501    0  0.00000000000E+00  0.00000000000E+00  0.13731389373E+04  0.13731389373E+04  0.25500000920E-02 0. -1.
       -2   -1    0    0    0  501  0.00000000000E+00  0.00000000000E+00 -0.26277184691E+03  0.26277184693E+03  0.25500000920E-02 0.  1.
    10030    2    1    2    0    0  0.00000000000E+00  0.00000000000E+00  0.11103670904E+04  0.16359107842E+04  0.12013696428E+04 0.  0.
        3    1    3    3  502    0  0.48260344473E+03  0.24571478773E+03  0.90907068805E+03  0.10581546994E+04  0.10100000352E+00 0.  1.
       -3    1    3    3    0  502 -0.48260344473E+03 -0.24571478773E+03  0.20129640234E+03  0.57775608484E+03  0.10100000352E+00 0. -1.
</event>
<event>
 5   0  0.2792518E-03  0.1149837E+04  0.7818609E-02  0.9157934E-01
        1   -1    0    0  501    0  0.00000000000E+00  0.00000000000E+00  0.15707260056E+04  0.15707260056E+04  0.50400001928E-02 0. -1.
       -1   -1    0    0    0  501  0.00000000000E+00  0.00000000000E+00 -0.21043215560E+03  0.21043215566E+03  0.50400001928E-02 0.  1.
    10030    2    1    2    0    0  0.00000000000E+00  0.00000000000E+00  0.13602938500E+04  0.17811581613E+04  0.11498369611E+04 0.  0.
        2    1    3    3  502    0 -0.30094166657E+03  0.42746744046E+03  0.10507461440E+04  0.11736105651E+04  0.25500000920E-02 0. -1.
       -2    1    3    3    0  502  0.30094166657E+03 -0.42746744046E+03  0.30954770597E+03  0.60754759617E+03  0.25500000920E-02 0.  1.
</event>
<event>
 5   0  0.2875848E-03  0.1440088E+04  0.7818609E-02  0.8925301E-01
       -1   -1    0    0    0  501  0.00000000000E+00  0.00000000000E+00  0.47599815635E+03  0.47599815638E+03  0.50400001928E-02 0.  1.
        1   -1    0    0  501    0  0.00000000000E+00  0.00000000000E+00 -0.10892137172E+04  0.10892137172E+04  0.50400001928E-02 0. -1.
    10030    2    1    2    0    0  0.00000000000E+00  0.00000000000E+00 -0.61321556085E+03  0.15652118736E+04  0.14400884991E+04 0.  0.
        1    1    3    3  502    0 -0.39163978869E+03  0.18659705230E+03 -0.93122545018E+03  0.10273173916E+04  0.50400001928E-02 0. -1.
       -1    1    3    3    0  502  0.39163978869E+03 -0.18659705230E+03  0.31800988933E+03  0.53789448198E+03  0.50400001928E-02 0.  1.
</event>
<event>
 5   0  0.5467554E-03  0.1203312E+04  0.7818609E-02  0.9109962E-01
        2   -1    0    0  501    0  0.00000000000E+00  0.00000000000E+00  0.12094222929E+04  0.12094222929E+04  0.25500000920E-02 0.  1.
       -2   -1    0    0    0  501  0.00000000000E+00  0.00000000000E+00 -0.29930815171E+03  0.29930815172E+03  0.25500000920E-02 0. -1.
    10030    2    1    2    0    0  0.00000000000E+00  0.00000000000E+00  0.91011414120E+03  0.15087304446E+04  0.12033120146E+04 0.  0.
        1    1    3    3  502    0 -0.33974176556E+03 -0.28231935798E+03  0.96722356706E+03  0.10633203261E+04  0.50400001928E-02 0.  1.
       -1    1    3    3    0  502  0.33974176556E+03  0.28231935798E+03 -0.57109425859E+02  0.44541011855E+03  0.50400001928E-02 0. -1.
</event>
<event>
 5   0  0.1922125E-03  0.1316034E+04  0.7818609E-02  0.9016946E-01
        3   -1    0    0  501    0  0.00000000000E+00  0.00000000000E+00  0.23348124399E+03  0.23348126583E+03  0.10100000352E+00 0. -1.
       -3   -1    0    0    0  501  0.00000000000E+00  0.00000000000E+00 -0.18544796848E+04  0.18544796875E+04  0.10100000352E+00 0.  1.
    10030    2    1    2    0    0  0.00000000000E+00  0.00000000000E+00 -0.16209984408E+04  0.20879609534E+04  0.13160338133E+04 0.  0.
        2    1    3    3  502    0  0.58368926067E+03  0.84539135626E+02 -0.12734534317E+04  0.14033971858E+04  0.25500000920E-02 0.  1.
       -2    1    3    3    0  502 -0.58368926067E+03 -0.84539135626E+02 -0.34754500912E+03  0.68456376756E+03  0.25500000920E-02 0. -1.
</event>
<event>
 5   0  0.2926844E-03  0.1229848E+04  0.7818609E-02  0.9087124E-01
        1   -1    0    0  501    0  0.00000000000E+00  0.00000000000E+00  0.87814119046E+03  0.87814119047E+03  0.50400001928E-02 0.  1.
       -1   -1    0    0    0  501  0.00000000000E+00  0.00000000000E+00 -0.43060465974E+03  0.43060465977E+03  0.50400001928E-02 0. -1.
    10030    2    1    2    0    0  0.00000000000E+00  0.00000000000E+00  0.44753653071E+03  0.13087458502E+04  0.12298482647E+04 0.  0.
        5    1    3    3  502    0  0.55291035748E+03 -0.19665030787E+03  0.41920293115E+03  0.72120343488E+03  0.46999998093E+01 0.  1.
       -5    1    3    3    0  502 -0.55291035748E+03  0.19665030787E+03  0.28333599565E+02  0.58754241537E+03  0.46999998093E+01 0. -1.
</event>
<event>
 5   0  0.5003526E-03  0.1211777E+04  0.7818609E-02  0.9102610E-01
        2   -1    0    0  501    0  0.00000000000E+00  0.00000000000E+00  0.11475237769E+04  0.11475237769E+04  0.25500000920E-02 0. -1.
       -2   -1    0    0    0  501  0.00000000000E+00  0.00000000000E+00 -0.31990709347E+03  0.31990709348E+03  0.25500000920E-02 0.  1.
    10030    2    1    2    0    0  0.00000000000E+00  0.00000000000E+00  0.82761668343E+03  0.14674308704E+04  0.12117772009E+04 0.  0.
        2    1    3    3  502    0 -0.35296072714E+03 -0.38444830094E+03  0.78650366429E+03  0.94391195826E+03  0.25500000920E-02 0. -1.
       -2    1    3    3    0  502  0.35296072714E+03  0.38444830094E+03  0.41113019138E+02  0.52351891212E+03  0.25500000920E-02 0.  1.
</event>
<event>
 5   0  0.5003526E-03  0.1198306E+04  0.7818609E-02  0.9114341E-01
        2   -1    0    0  501    0  0.00000000000E+00  0.00000000000E+00  0.84480075289E+03  0.84480075289E+03  0.25500000920E-02 0.  1.
       -2   -1    0    0    0  501  0.00000000000E+00  0.00000000000E+00 -0.42493368025E+03  0.42493368025E+03  0.25500000920E-02 0. -1.
    10030    2    1    2    0    0  0.00000000000E+00  0.00000000000E+00  0.41986707264E+03  0.12697344331E+04  0.11983059593E+04 0.  0.
        2    1    3    3  502    0  0.30629916819E+03 -0.51284354799E+03  0.25914097608E+03  0.65113879522E+03  0.25500000920E-02 0. -1.
       -2    1    3    3    0  502 -0.30629916819E+03  0.51284354799E+03  0.16072609656E+03  0.61859563793E+03  0.25500000920E-02 0.  1.
</event>
<event>
 5   0  0.2930868E-03  0.1201254E+04  0.7818609E-02  0.9111760E-01
        1   -1    0    0  501    0  0.00000000000E+00  0.00000000000E+00  0.12046483046E+04  0.12046483046E+04  0.50400001928E-02 0.  1.
       -1   -1    0    0    0  501  0.00000000000E+00  0.00000000000E+00 -0.29946720672E+03  0.29946720676E+03  0.50400001928E-02 0. -1.
    10030    2    1    2    0    0  0.00000000000E+00  0.00000000000E+00  0.90518109784E+03  0.15041155113E+04  0.12012537831E+04 0.  0.
        3    1    3    3  502    0  0.52358131236E+03  0.30007694059E+02  0.86005852780E+02  0.53144601727E+03  0.10100000352E+00 0. -1.
       -3    1    3    3    0  502 -0.52358131236E+03 -0.30007694059E+02  0.81917524506E+03  0.97266949406E+03  0.10100000352E+00 0.  1.
</event>
<event>
 5   0  0.5031575E-03  0.1313226E+04  0.7818609E-02  0.9019142E-01
        2   -1    0    0  501    0  0.00000000000E+00  0.00000000000E+00  0.65575371527E+03  0.65575371528E+03  0.25500000920E-02 0.  1.
       -2   -1    0    0    0  501  0.00000000000E+00  0.00000000000E+00 -0.65747298979E+03  0.65747298979E+03  0.25500000920E-02 0. -1.
    10030    2    1    2    0    0  0.00000000000E+00  0.00000000000E+00 -0.17192745150E+01  0.13132267051E+04  0.13132255796E+04 0.  0.
        5    1    3    3  502    0 -0.33160199271E+03 -0.35226889060E+03 -0.44478007007E+03  0.65719453253E+03  0.46999998093E+01 0. -1.
       -5    1    3    3    0  502  0.33160199271E+03  0.35226889060E+03  0.44306079555E+03  0.65603217254E+03  0.46999998093E+01 0.  1.
</event>
<event>
 5   0  0.2938349E-03  0.1197933E+04  0.7818609E-02  0.9114667E-01
       -1   -1    0    0    0  501  0.00000000000E+00  0.00000000000E+00  0.30194145139E+03  0.30194145143E+03  0.50400001928E-02 0.  1.
        1   -1    0    0  501    0  0.00000000000E+00  0.00000000000E+00 -0.11881808646E+04  0.11881808646E+04  0.50400001928E-02 0. -1.
    10030    2    1    2    0    0  0.00000000000E+00  0.00000000000E+00 -0.88623941320E+03  0.14901223160E+04  0.11979333117E+04 0.  0.
        4    1    3    3  502    0 -0.42184135094E+03 -0.15464137443E+03  0.49593643365E+02  0.45202347550E+03  0.12699999809E+01 0.  1.
       -4    1    3    3    0  502  0.42184135094E+03  0.15464137443E+03 -0.93583305657E+03  0.10380988405E+04  0.12699999809E+01 0. -1.
</event>
<event>
 5   0  0.5003526E-03  0.1203961E+04  0.7818609E-02  0.9109397E-01
        2   -1    0    0  501    0  0.00000000000E+00  0.00000000000E+00  0.10799822268E+04  0.10799822268E+04  0.25500000920E-02 0. -1.
       -2   -1    0    0    0  501  0.00000000000E+00  0.00000000000E+00 -0.33554305439E+03  0.33554305440E+03  0.25500000920E-02 0.  1.
    10030    2    1    2    0    0  0.00000000000E+00  0.00000000000E+00  0.74443917240E+03  0.14155252812E+04  0.12039610211E+04 0.  0.
        2    1    3    3  502    0 -0.13767975731E+03 -0.19362825225E+03 -0.27808723458E+03  0.36575965563E+03  0.25500000920E-02 0.  1.
       -2    1    3    3    0  502  0.13767975731E+03  0.19362825225E+03  0.10225264070E+04  0.10497656256E+04  0.25500000920E-02 0. -1.
</event>
<event>
 5   0  0.2926844E-03  0.9593290E+03  0.7818609E-02  0.9354312E-01
       -1   -1    0    0    0  501  0.00000000000E+00  0.00000000000E+00  0.47117384076E+03  0.47117384079E+03  0.50400001928E-02 0. -1.
        1   -1    0    0  501    0  0.00000000000E+00  0.00000000000E+00 -0.48830820764E+03  0.48830820766E+03  0.50400001928E-02 0.  1.
    10030    2    1    2    0    0  0.00000000000E+00  0.00000000000E+00 -0.17134366879E+02  0.95948204845E+03  0.95932904406E+03 0.  0.
        5    1    3    3  502    0 -0.14120810778E+03 -0.40275308849E+02 -0.46525158725E+03  0.48789646406E+03  0.46999998093E+01 0.  1.
       -5    1    3    3    0  502  0.14120810778E+03  0.40275308849E+02  0.44811722037E+03  0.47158558439E+03  0.46999998093E+01 0. -1.
</event>
<event>
 5   0  0.1922125E-03  0.1203691E+04  0.7818609E-02  0.9109632E-01
        3   -1    0    0  501    0  0.00000000000E+00  0.00000000000E+00  0.37059562267E+03  0.37059563643E+03  0.10100000352E+00 0.  1.
       -3   -1    0    0    0  501  0.00000000000E+00  0.00000000000E+00 -0.97739427729E+03  0.97739428251E+03  0.10100000352E+00 0. -1.
    10030    2    1    2    0    0  0.00000000000E+00  0.00000000000E+00 -0.60679865462E+03  0.13479899189E+04  0.12036910793E+04 0.  0.
        2    1    3    3  502    0 -0.20821356579E+03  0.75264240319E+02  0.32333401106E+03  0.39187048570E+03  0.25500000920E-02 0.  1.
       -2    1    3    3    0  502  0.20821356579E+03 -0.75264240319E+02 -0.93013266567E+03  0.95611943324E+03  0.25500000920E-02 0. -1.
</event>
<event>
 5   0  0.2792518E-03  0.1199163E+04  0.7818609E-02  0.9113589E-01
        1   -1    0    0  501    0  0.00000000000E+00  0.00000000000E+00  0.75033101620E+03  0.75033101622E+03  0.50400001928E-02 0.  1.
       -1   -1    0    0    0  501  0.00000000000E+00  0.00000000000E+00 -0.47911937886E+03  0.47911937889E+03  0.50400001928E-02 0. -1.
    10030    2    1    2    0    0  0.00000000000E+00  0.00000000000E+00  0.27121163734E+03  0.12294503951E+04  0.11991632590E+04 0.  0.
        2    1    3    3  502    0 -0.36551309963E+03  0.55581573913E+02  0.61955421502E+03  0.72148219847E+03  0.25500000920E-02 0.  1.
       -2    1    3    3    0  502  0.36551309963E+03 -0.55581573913E+02 -0.34834257768E+03  0.50796819664E+03  0.25500000920E-02 0. -1.
</event>
<event>
 5   0  0.2926844E-03  0.1123401E+04  0.7818609E-02  0.9182679E-01
        1   -1    0    0  501    0  0.00000000000E+00  0.00000000000E+00  0.10528964787E+04  0.10528964788E+04  0.50400001928E-02 0.  1.
       -1   -1    0    0    0  501  0.00000000000E+00  0.00000000000E+00 -0.29965670336E+03  0.29965670340E+03  0.50400001928E-02 0. -1.
    10030    2    1    2    0    0  0.00000000000E+00  0.00000000000E+00  0.75323977539E+03  0.13525531822E+04  0.11234010643E+04 0.  0.
        5    1    3    3  502    0 -0.17286394113E+02 -0.39828021566E+03  0.85300607476E+03  0.94157708298E+03  0.46999998093E+01 0. -1.
       -5    1    3    3    0  502  0.17286394113E+02  0.39828021566E+03 -0.99766299372E+02  0.41097609918E+03  0.46999998093E+01 0.  1.
</event>
<event>
 5   0  0.5003526E-03  0.1197958E+04  0.7818609E-02  0.9114645E-01
        2   -1    0    0  501    0  0.00000000000E+00  0.00000000000E+00  0.35349917544E+03  0.35349917544E+03  0.25500000920E-02 0.  1.
       -2   -1    0    0    0  501  0.00000000000E+00  0.00000000000E+00 -0.10149275249E+04  0.10149275249E+04  0.25500000920E-02 0. -1.
    10030    2    1    2    0    0  0.00000000000E+00  0.00000000000E+00 -0.66142834951E+03  0.13684267004E+04  0.11979583352E+04 0.  0.
        2    1    3    3  502    0 -0.35267587686E+03 -0.15226481674E+03 -0.85568877600E+03  0.93795955665E+03  0.25500000920E-02 0. -1.
       -2    1    3    3    0  502  0.35267587686E+03  0.15226481674E+03  0.19426042649E+03  0.43046714374E+03  0.25500000920E-02 0.  1.
</event>
<event>
 5   0  0.5003526E-03  0.9862743E+03  0.7818609E-02  0.9323728E-01
        2   -1    0    0  501    0  0.00000000000E+00  0.00000000000E+00  0.86656033444E+03  0.86656033445E+03  0.25500000920E-02 0.  1.
       -2   -1    0    0    0  501  0.00000000000E+00  0.00000000000E+00 -0.28063162308E+03  0.28063162309E+03  0.25500000920E-02 0. -1.
    10030    2    1    2    0    0  0.00000000000E+00  0.00000000000E+00  0.58592871136E+03  0.11471919575E+04  0.98627426846E+03 0.  0.
        2    1    3    3  502    0  0.46819323717E+03  0.14103616216E+03  0.21859387831E+03  0.53561123028E+03  0.25500000920E-02 0. -1.
       -2    1    3    3    0  502 -0.46819323717E+03 -0.14103616216E+03  0.36733483305E+03  0.61158072725E+03  0.25500000920E-02 0.  1.
</event>
<event>
 5   0  0.2938349E-03  0.1205645E+04  0.7818609E-02  0.9107930E-01
        1   -1    0    0  501    0  0.00000000000E+00  0.00000000000E+00  0.91649867585E+03  0.91649867587E+03  0.50400001928E-02 0.  1.
       -1   -1    0    0    0  501  0.00000000000E+00  0.00000000000E+00 -0.39650373631E+03  0.39650373634E+03  0.50400001928E-02 0. -1.
    10030    2    1    2    0    0  0.00000000000E+00  0.00000000000E+00  0.51999493954E+03  0.13130024122E+04  0.12056453033E+04 0.  0.
        4    1    3    3  502    0 -0.41374879269E+03 -0.26397731801E+03 -0.12120177074E+03  0.50553295640E+03  0.12699999809E+01 0.  1.
       -4    1    3    3    0  502  0.41374879269E+03  0.26397731801E+03  0.64119671029E+03  0.80746945580E+03  0.12699999809E+01 0. -1.
</event>
<event>
 5   0  0.5189537E-03  0.1152663E+04  0.7818609E-02  0.9155330E-01
       -2   -1    0    0    0  501  0.00000000000E+00  0.00000000000E+00  0.92386940349E+03  0.92386940349E+03  0.25500000920E-02 0. -1.
        2   -1    0    0  501    0  0.00000000000E+00  0.00000000000E+00 -0.35952922402E+03  0.35952922403E+03  0.25500000920E-02 0.  1.
    10030    2    1    2    0    0  0.00000000000E+00  0.00000000000E+00  0.56434017946E+03  0.12833986275E+04  0.11526630900E+04 0.  0.
        4    1    3    3  502    0 -0.14784771152E+03  0.55543357535E+03  0.32929072637E+03  0.66241935192E+03  0.12699999809E+01 0.  1.
       -4    1    3    3    0  502  0.14784771152E+03 -0.55543357535E+03  0.23504945310E+03  0.62097927560E+03  0.12699999809E+01 0. -1.
</event>
<event>
 5   0  0.1922125E-03  0.1100865E+04  0.7818609E-02  0.9204349E-01
        3   -1    0    0  501    0  0.00000000000E+00  0.00000000000E+00  0.48542529586E+03  0.48542530637E+03  0.10100000352E+00 0.  1.
       -3   -1    0    0    0  501  0.00000000000E+00  0.00000000000E+00 -0.62414520597E+03  0.62414521414E+03  0.10100000352E+00 0. -1.
    10030    2    1    2    0    0  0.00000000000E+00  0.00000000000E+00 -0.13871991011E+03  0.11095705205E+04  0.11008648993E+04 0.  0.
        1    1    3    3  502    0  0.28327636955E+03  0.44104152420E+03  0.99934847844E+02  0.53361980984E+03  0.50400001928E-02 0.  1.
       -1    1    3    3    0  502 -0.28327636955E+03 -0.44104152420E+03 -0.23865475795E+03  0.57595071068E+03  0.50400001928E-02 0. -1.
</event>
<event>
 5   0  0.1922125E-03  0.1173283E+04  0.7818609E-02  0.9136569E-01
        3   -1    0    0  501    0  0.00000000000E+00  0.00000000000E+00  0.22728059343E+03  0.22728061587E+03  0.10100000352E+00 0. -1.
       -3   -1    0    0    0  501  0.00000000000E+00  0.00000000000E+00 -0.15141985639E+04  0.15141985672E+04  0.10100000352E+00 0.  1.
    10030    2    1    2    0    0  0.00000000000E+00  0.00000000000E+00 -0.12869179705E+04  0.17414791831E+04  0.11732825246E+04 0.  0.
        2    1    3    3  502    0 -0.38598801434E+03  0.43552497074E+03 -0.53358998204E+03  0.78954861554E+03  0.25500000920E-02 0.  1.
       -2    1    3    3    0  502  0.38598801434E+03 -0.43552497074E+03 -0.75332798841E+03  0.95193056758E+03  0.25500000920E-02 0. -1.
</event>
<event>
 5   0  0.2930868E-03  0.1199520E+04  0.7818609E-02  0.9113277E-01
        1   -1    0    0  501    0  0.00000000000E+00  0.00000000000E+00  0.43540188170E+03  0.43540188173E+03  0.50400001928E-02 0. -1.
       -1   -1    0    0    0  501  0.00000000000E+00  0.00000000000E+00 -0.82616095473E+03  0.82616095475E+03  0.50400001928E-02 0.  1.
    10030    2    1    2    0    0  0.00000000000E+00  0.00000000000E+00 -0.39075907303E+03  0.12615628365E+04  0.11995199612E+04 0.  0.
        3    1    3    3  502    0 -0.13781777055E+02 -0.45410456501E+03 -0.60718134628E+03  0.75833375951E+03  0.10100000352E+00 0.  1.
       -3    1    3    3    0  502  0.13781777055E+02  0.45410456501E+03  0.21642227325E+03  0.50322907696E+03  0.10100000352E+00 0. -1.
</event>
<event>
 5   0  0.5003526E-03  0.1191700E+04  0.7818609E-02  0.9120153E-01
       -2   -1    0    0    0  501  0.00000000000E+00  0.00000000000E+00  0.67893374244E+03  0.67893374245E+03  0.25500000920E-02 0. -1.
        2   -1    0    0  501    0  0.00000000000E+00  0.00000000000E+00 -0.52293333220E+03  0.52293333221E+03  0.25500000920E-02 0.  1.
    10030    2    1    2    0    0  0.00000000000E+00  0.00000000000E+00  0.15600041024E+03  0.12018670747E+04  0.11916997680E+04 0.  0.
        2    1    3    3  502    0  0.90254325038E+02  0.58893331753E+03  0.70955728310E+02  0.60001917558E+03  0.25500000920E-02 0. -1.
       -2    1    3    3    0  502 -0.90254325038E+02 -0.58893331753E+03  0.85044681933E+02  0.60184789907E+03  0.25500000920E-02 0.  1.
</event>
<event>
 5   0  0.2875848E-03  0.1206289E+04  0.7818609E-02  0.9107370E-01
       -1   -1    0    0    0  501  0.00000000000E+00  0.00000000000E+00  0.34841585148E+03  0.34841585152E+03  0.50400001928E-02 0.  1.
        1   -1    0    0  501    0  0.00000000000E+00  0.00000000000E+00 -0.10441063434E+04  0.10441063434E+04  0.50400001928E-02 0. -1.
    10030    2    1    2    0    0  0.00000000000E+00  0.00000000000E+00 -0.69569049192E+03  0.13925221949E+04  0.12062888555E+04 0.  0.
        1    1    3    3  502    0 -0.76163212974E+02  0.45717073958E+02  0.34082309035E+03  0.35220912084E+03  0.50400001928E-02 0.  1.
       -1    1    3    3    0  502  0.76163212974E+02 -0.45717073958E+02 -0.10365135823E+04  0.10403130741E+04  0.50400001928E-02 0. -1.
</event>
<event>
 5   0  0.5003526E-03  0.1269786E+04  0.7818609E-02  0.9053874E-01
        2   -1    0    0  501    0  0.00000000000E+00  0.00000000000E+00  0.95407929912E+03  0.95407929912E+03  0.25500000920E-02 0.  1.
       -2   -1    0    0    0  501  0.00000000000E+00  0.00000000000E+00 -0.42249002580E+03  0.42249002580E+03  0.25500000920E-02 0. -1.
    10030    2    1    2    0    0  0.00000000000E+00  0.00000000000E+00  0.53158927332E+03  0.13765693249E+04  0.12697857893E+04 0.  0.
        2    1    3    3  502    0 -0.28936645493E+03  0.55857186230E+03  0.35875871728E+03  0.72418456752E+03  0.25500000920E-02 0.  1.
       -2    1    3    3    0  502  0.28936645493E+03 -0.55857186230E+03  0.17283055604E+03  0.65238475741E+03  0.25500000920E-02 0. -1.
</event>
<event>
 5   0  0.5003526E-03  0.1407425E+04  0.7818609E-02  0.8948461E-01
       -2   -1    0    0    0  501  0.00000000000E+00  0.00000000000E+00  0.44930408505E+03  0.44930408506E+03  0.25500000920E-02 0.  1.
        2   -1    0    0  501    0  0.00000000000E+00  0.00000000000E+00 -0.11021746824E+04  0.11021746824E+04  0.25500000920E-02 0. -1.
    10030    2    1    2    0    0  0.00000000000E+00  0.00000000000E+00 -0.65287059731E+03  0.15514787674E+04  0.14074254328E+04 0.  0.
        2    1    3    3  502    0  0.43645220370E+03 -0.18645137715E+03  0.24631812549E+03  0.53472166695E+03  0.25500000920E-02 0.  1.
       -2    1    3    3    0  502 -0.43645220370E+03  0.18645137715E+03 -0.89918872280E+03  0.10167571005E+04  0.25500000920E-02 0. -1.
</event>
<event>
 5   0  0.2930868E-03  0.1218171E+04  0.7818609E-02  0.9097099E-01
       -1   -1    0    0    0  501  0.00000000000E+00  0.00000000000E+00  0.36304076723E+03  0.36304076727E+03  0.50400001928E-02 0.  1.
        1   -1    0    0  501    0  0.00000000000E+00  0.00000000000E+00 -0.10218820803E+04  0.10218820803E+04  0.50400001928E-02 0. -1.
    10030    2    1    2    0    0  0.00000000000E+00  0.00000000000E+00 -0.65884131304E+03  0.13849228475E+04  0.12181705209E+04 0.  0.
        3    1    3    3  502    0 -0.11041455635E+03  0.44307907099E+03 -0.78767857126E+03  0.91046580343E+03  0.10100000352E+00 0. -1.
       -3    1    3    3    0  502  0.11041455635E+03 -0.44307907099E+03  0.12883725822E+03  0.47445704411E+03  0.10100000352E+00 0.  1.
</event>
<event>
 5   0  0.2875848E-03  0.1296449E+04  0.7818609E-02  0.9032386E-01
        1   -1    0    0  501    0  0.00000000000E+00  0.00000000000E+00  0.60402738440E+03  0.60402738442E+03  0.50400001928E-02 0.  1.
       -1   -1    0    0    0  501  0.00000000000E+00  0.00000000000E+00 -0.69565591599E+03  0.69565591601E+03  0.50400001928E-02 0. -1.
    10030    2    1    2    0    0  0.00000000000E+00  0.00000000000E+00 -0.91628531593E+02  0.12996833004E+04  0.12964493409E+04 0.  0.
        1    1    3    3  502    0  0.25847365194E+03 -0.14765263899E+03 -0.62308510174E+03  0.69053962565E+03  0.50400001928E-02 0. -1.
       -1    1    3    3    0  502 -0.25847365194E+03  0.14765263899E+03  0.53145657015E+03  0.60914367478E+03  0.50400001928E-02 0.  1.
</event>
<event>
 5   0  0.2930868E-03  0.1190289E+04  0.7818609E-02  0.9121399E-01
        1   -1    0    0  501    0  0.00000000000E+00  0.00000000000E+00  0.39422759763E+03  0.39422759766E+03  0.50400001928E-02 0.  1.
       -1   -1    0    0    0  501  0.00000000000E+00  0.00000000000E+00 -0.89845870831E+03  0.89845870832E+03  0.50400001928E-02 0. -1.
    10030    2    1    2    0    0  0.00000000000E+00  0.00000000000E+00 -0.50423111068E+03  0.12926863060E+04  0.11902894071E+04 0.  0.
        3    1    3    3  502    0  0.32626368978E+03  0.45217622952E+02  0.28621273659E+03  0.43636036653E+03  0.10100000352E+00 0.  1.
       -3    1    3    3    0  502 -0.32626368978E+03 -0.45217622952E+02 -0.79044384727E+03  0.85632593945E+03  0.10100000352E+00 0. -1.
</event>
<event>
 5   0  0.1922125E-03  0.1197157E+04  0.7818609E-02  0.9115349E-01
       -3   -1    0    0    0  501  0.00000000000E+00  0.00000000000E+00  0.49177959638E+03  0.49177960675E+03  0.10100000352E+00 0. -1.
        3   -1    0    0  501    0  0.00000000000E+00  0.00000000000E+00 -0.72857088034E+03  0.72857088734E+03  0.10100000352E+00 0.  1.
    10030    2    1    2    0    0  0.00000000000E+00  0.00000000000E+00 -0.23679128396E+03  0.12203504941E+04  0.11971571393E+04 0.  0.
        1    1    3    3  502    0  0.44993239397E+03 -0.34829469088E+03 -0.30786744280E+03  0.64693949732E+03  0.50400001928E-02 0. -1.
       -1    1    3    3    0  502 -0.44993239397E+03  0.34829469088E+03  0.71076158840E+02  0.57341099677E+03  0.50400001928E-02 0.  1.
</event>
<event>
 5   0  0.2938349E-03  0.1220872E+04  0.7818609E-02  0.9094781E-01
        1   -1    0    0  501    0  0.00000000000E+00  0.00000000000E+00  0.96829273506E+03  0.96829273508E+03  0.50400001928E-02 0.  1.
       -1   -1    0    0    0  501  0.00000000000E+00  0.00000000000E+00 -0.38483437916E+03  0.38483437920E+03  0.50400001928E-02 0. -1.
    10030    2    1    2    0    0  0.00000000000E+00  0.00000000000E+00  0.58345835590E+03  0.13531271143E+04  0.12208723661E+04 0.  0.
        4    1    3    3  502    0  0.37147099000E+02  0.99087399065E+01  0.96694810011E+03  0.96771293848E+03  0.12699999809E+01 0.  1.
       -4    1    3    3    0  502 -0.37147099000E+02 -0.99087399065E+01 -0.38348974421E+03  0.38541417580E+03  0.12699999809E+01 0. -1.
</event>
<event>
 5   0  0.2938349E-03  0.1198679E+04  0.7818609E-02  0.9114014E-01
        1   -1    0    0  501    0  0.00000000000E+00  0.00000000000E+00  0.57068588157E+03  0.57068588159E+03  0.50400001928E-02 0. -1.
       -1   -1    0    0    0  501  0.00000000000E+00  0.00000000000E+00 -0.62943134344E+03  0.62943134346E+03  0.50400001928E-02 0.  1.
    10030    2    1    2    0    0  0.00000000000E+00  0.00000000000E+00 -0.58745461868E+02  0.12001172251E+04  0.11986785743E+04 0.  0.
        4    1    3    3  502    0  0.46115768104E+03  0.25963182391E+03  0.25226699776E+03  0.58627241265E+03  0.12699999809E+01 0. -1.
       -4    1    3    3    0  502 -0.46115768104E+03 -0.25963182391E+03 -0.31101245963E+03  0.61384481240E+03  0.12699999809E+01 0.  1.
</event>
<event>
 5   0  0.5467554E-03  0.1207939E+04  0.7818609E-02  0.9105936E-01
        2   -1    0    0  501    0  0.00000000000E+00  0.00000000000E+00  0.59470596141E+03  0.59470596142E+03  0.25500000920E-02 0. -1.
       -2   -1    0    0    0  501  0.00000000000E+00  0.00000000000E+00 -0.61337690239E+03  0.61337690240E+03  0.25500000920E-02 0.  1.
    10030    2    1    2    0    0  0.00000000000E+00  0.00000000000E+00 -0.18670940983E+02  0.12080828638E+04  0.12079385753E+04 0.  0.
        1    1    3    3  502    0  0.25681233326E+03  0.42599619653E+03  0.33327451759E+03  0.59874638878E+03  0.50400001928E-02 0. -1.
       -1    1    3    3    0  502 -0.25681233326E+03 -0.42599619653E+03 -0.35194545857E+03  0.60933647504E+03  0.50400001928E-02 0.  1.
</event>
<event>
 5   0  0.5108045E-03  0.1195444E+04  0.7818609E-02  0.9116854E-01
       -2   -1    0    0    0  501  0.00000000000E+00  0.00000000000E+00  0.45101979117E+03  0.45101979118E+03  0.25500000920E-02 0.  1.
        2   -1    0    0  501    0  0.00000000000E+00  0.00000000000E+00 -0.79214107346E+03  0.79214107347E+03  0.25500000920E-02 0. -1.
    10030    2    1    2    0    0  0.00000000000E+00  0.00000000000E+00 -0.34112128229E+03  0.12431608646E+04  0.11954435186E+04 0.  0.
        3    1    3    3  502    0 -0.12353574837E+03 -0.38222228381E+03 -0.63085281744E+03  0.74788384314E+03  0.10100000352E+00 0. -1.
       -3    1    3    3    0  502  0.12353574837E+03  0.38222228381E+03  0.28973153515E+03  0.49527702150E+03  0.10100000352E+00 0.  1.
</event>
<event>
 5   0  0.1922125E-03  0.1185613E+04  0.7818609E-02  0.9125544E-01
        3   -1    0    0  501    0  0.00000000000E+00  0.00000000000E+00  0.70742213810E+03  0.70742214531E+03  0.10100000352E+00 0. -1.
       -3   -1    0    0    0  501  0.00000000000E+00  0.00000000000E+00 -0.49676050445E+03  0.49676051472E+03  0.10100000352E+00 0.  1.
    10030    2    1    2    0    0  0.00000000000E+00  0.00000000000E+00  0.21066163365E+03  0.12041826600E+04  0.11856127339E+04 0.  0.
        2    1    3    3  502    0 -0.13282018029E+03  0.17474443027E+03  0.66463053455E+03  0.69993611399E+03  0.25500000920E-02 0. -1.
       -2    1    3    3    0  502  0.13282018029E+03 -0.17474443027E+03 -0.45396890090E+03  0.50424654604E+03  0.25500000920E-02 0.  1.
</event>
<event>
 5   0  0.5003526E-03  0.1172974E+04  0.7818609E-02  0.9136846E-01
       -2   -1    0    0    0  501  0.00000000000E+00  0.00000000000E+00  0.43115390408E+03  0.43115390408E+03  0.25500000920E-02 0.  1.
        2   -1    0    0  501    0  0.00000000000E+00  0.00000000000E+00 -0.79778292242E+03  0.79778292243E+03  0.25500000920E-02 0. -1.
    10030    2    1    2    0    0  0.00000000000E+00  0.00000000000E+00 -0.36662901834E+03  0.12289368265E+04  0.11729743759E+04 0.  0.
        2    1    3    3  502    0  0.25349342469E+03  0.58685412333E+02  0.36737073433E+03  0.45018235242E+03  0.25500000920E-02 0.  1.
       -2    1    3    3    0  502 -0.25349342469E+03 -0.58685412333E+02 -0.73399975268E+03  0.77875447409E+03  0.25500000920E-02 0. -1.
</event>
<event>
 5   0  0.5189537E-03  0.1017980E+04  0.7818609E-02  0.9289041E-01
        2   -1    0    0  501    0  0.00000000000E+00  0.00000000000E+00  0.44440432299E+03  0.44440432300E+03  0.25500000920E-02 0. -1.
       -2   -1    0    0    0  501  0.00000000000E+00  0.00000000000E+00 -0.58296237276E+03  0.58296237276E+03  0.25500000920E-02 0.  1.
    10030    2    1    2    0    0  0.00000000000E+00  0.00000000000E+00 -0.13855804977E+03  0.10273666958E+04  0.10179803507E+04 0.  0.
        4    1    3    3  502    0  0.31656906892E+03  0.16805555608E+03 -0.43401242351E+03  0.56287391305E+03  0.12699999809E+01 0.  1.
       -4    1    3    3    0  502 -0.31656906892E+03 -0.16805555608E+03  0.29545437374E+03  0.46449278271E+03  0.12699999809E+01 0. -1.
</event>
<event>
 5   0  0.2938349E-03  0.1208752E+04  0.7818609E-02  0.9105230E-01
       -1   -1    0    0    0  501  0.00000000000E+00  0.00000000000E+00  0.18905596500E+03  0.18905596506E+03  0.50400001928E-02 0. -1.
        1   -1    0    0  501    0  0.00000000000E+00  0.00000000000E+00 -0.19320756580E+04  0.19320756580E+04  0.50400001928E-02 0.  1.
    10030    2    1    2    0    0  0.00000000000E+00  0.00000000000E+00 -0.17430196930E+04  0.21211316231E+04  0.12087521302E+04 0.  0.
        4    1    3    3  502    0 -0.25231548169E+03  0.11816017484E+03  0.69638188666E+02  0.28718638449E+03  0.12699999809E+01 0. -1.
       -4    1    3    3    0  502  0.25231548169E+03 -0.11816017484E+03 -0.18126578817E+04  0.18339452386E+04  0.12699999809E+01 0.  1.
</event>
<event>
 5   0  0.5031575E-03  0.1294670E+04  0.7818609E-02  0.9033803E-01
       -2   -1    0    0    0  501  0.00000000000E+00  0.00000000000E+00  0.44449423324E+03  0.44449423325E+03  0.25500000920E-02 0. -1.
        2   -1    0    0  501    0  0.00000000000E+00  0.00000000000E+00 -0.94273951775E+03  0.94273951775E+03  0.25500000920E-02 0.  1.
    10030    2    1    2    0    0  0.00000000000E+00  0.00000000000E+00 -0.49824528451E+03  0.13872337510E+04  0.12946695008E+04 0.  0.
        5    1    3    3  502    0  0.40524167603E+03 -0.34573194119E+03  0.14496203105E+03  0.55207560315E+03  0.46999998093E+01 0. -1.
       -5    1    3    3    0  502 -0.40524167603E+03  0.34573194119E+03 -0.64320731555E+03  0.83515814785E+03  0.46999998093E+01 0.  1.
</event>
<event>
 5   0  0.5108045E-03  0.1181736E+04  0.7818609E-02  0.9128995E-01
       -2   -1    0    0    0  501  0.00000000000E+00  0.00000000000E+00  0.28057597623E+03  0.28057597625E+03  0.25500000920E-02 0. -1.
        2   -1    0    0  501    0  0.00000000000E+00  0.00000000000E+00 -0.12443155834E+04  0.12443155834E+04  0.25500000920E-02 0.  1.
    10030    2    1    2    0    0  0.00000000000E+00  0.00000000000E+00 -0.96373960719E+03  0.15248915597E+04  0.11817361120E+04 0.  0.
        3    1    3    3  502    0 -0.53799689745E+03 -0.23642229487E+03 -0.56129791459E+03  0.81264477005E+03  0.10100000352E+00 0.  1.
       -3    1    3    3    0  502  0.53799689745E+03  0.23642229487E+03 -0.40244169261E+03  0.71224678962E+03  0.10100000352E+00 0. -1.
</event>
<event>
 5   0  0.2938349E-03  0.1201419E+04  0.7818609E-02  0.9111615E-01
       -1   -1    0    0    0  501  0.00000000000E+00  0.00000000000E+00  0.57152002470E+03  0.57152002473E+03  0.50400001928E-02 0. -1.
        1   -1    0    0  501    0  0.00000000000E+00  0.00000000000E+00 -0.63138980525E+03  0.63138980527E+03  0.50400001928E-02 0.  1.
    10030    2    1    2    0    0  0.00000000000E+00  0.00000000000E+00 -0.59869780544E+02  0.12029098300E+04  0.12014190229E+04 0.  0.
        4    1    3    3  502    0 -0.53557526043E+03  0.18315445423E+03 -0.23134088286E+03  0.61147905170E+03  0.12699999809E+01 0.  1.
       -4    1    3    3    0  502  0.53557526043E+03 -0.18315445423E+03  0.17147110231E+03  0.59143077829E+03  0.12699999809E+01 0. -1.
</event>
<event>
 5   0  0.2930868E-03  0.1181372E+04  0.7818609E-02  0.9129320E-01
        1   -1    0    0  501    0  0.00000000000E+00  0.00000000000E+00  0.74357304374E+03  0.74357304376E+03  0.50400001928E-02 0. -1.
       -1   -1    0    0    0  501  0.00000000000E+00  0.00000000000E+00 -0.46923392043E+03  0.46923392046E+03  0.50400001928E-02 0.  1.
    10030    2    1    2    0    0  0.00000000000E+00  0.00000000000E+00  0.27433912331E+03  0.12128069642E+04  0.11813715664E+04 0.  0.
        3    1    3    3  502    0  0.39531645213E+02  0.45672472127E+03 -0.24523302611E+03  0.51990332687E+03  0.10100000352E+00 0.  1.
       -3    1    3    3    0  502 -0.39531645213E+02 -0.45672472127E+03  0.51957214942E+03  0.69290363735E+03  0.10100000352E+00 0. -1.
</event>
<event>
 5   0  0.5189537E-03  0.1182317E+04  0.7818609E-02  0.9128477E-01
       -2   -1    0    0    0  501  0.00000000000E+00  0.00000000000E+00  0.20944012988E+03  0.20944012990E+03  0.25500000920E-02 0.  1.
        2   -1    0    0  501    0  0.00000000000E+00  0.00000000000E+00 -0.16685839030E+04  0.16685839030E+04  0.25500000920E-02 0. -1.
    10030    2    1    2    0    0  0.00000000000E+00  0.00000000000E+00 -0.14591437731E+04  0.18780240329E+04  0.11823170969E+04 0.  0.
        4    1    3    3  502    0 -0.58820684938E+03  0.22971651660E+02 -0.81587217772E+03  0.10060636251E+04  0.12699999809E+01 0. -1.
       -4    1    3    3    0  502  0.58820684938E+03 -0.22971651660E+02 -0.64327159539E+03  0.87196040780E+03  0.12699999809E+01 0.  1.
</event>
<event>
 5   0  0.5031575E-03  0.1202432E+04  0.7818609E-02  0.9110730E-01
        2   -1    0    0  501    0  0.00000000000E+00  0.00000000000E+00  0.63155348176E+03  0.63155348176E+03  0.25500000920E-02 0.  1.
       -2   -1    0    0    0  501  0.00000000000E+00  0.00000000000E+00 -0.57233614969E+03  0.57233614970E+03  0.25500000920E-02 0. -1.
    10030    2    1    2    0    0  0.00000000000E+00  0.00000000000E+00  0.59217332069E+02  0.12038896315E+04  0.12024323483E+04 0.  0.
        5    1    3    3  502    0 -0.44592961762E+03 -0.32059764685E+03 -0.21523366330E+03  0.58990142808E+03  0.46999998093E+01 0. -1.
       -5    1    3    3    0  502  0.44592961762E+03  0.32059764685E+03  0.27445099537E+03  0.61398820338E+03  0.46999998093E+01 0.  1.
</event>
<event>
 5   0  0.5003526E-03  0.1151276E+04  0.7818609E-02  0.9156607E-01
        2   -1    0    0  501    0  0.00000000000E+00  0.00000000000E+00  0.10324122926E+04  0.10324122926E+04  0.25500000920E-02 0.  1.
       -2   -1    0    0    0  501  0.00000000000E+00  0.00000000000E+00 -0.32095609954E+03  0.32095609955E+03  0.25500000920E-02 0. -1.
    10030    2    1    2    0    0  0.00000000000E+00  0.00000000000E+00  0.71145619311E+03  0.13533683922E+04  0.11512758533E+04 0.  0.
        2    1    3    3  502    0 -0.48902310833E+03 -0.23986836089E+03  0.57463898248E+03  0.79176410075E+03  0.25500000920E-02 0.  1.
       -2    1    3    3    0  502  0.48902310833E+03  0.23986836089E+03  0.13681721063E+03  0.56160429145E+03  0.25500000920E-02 0. -1.
</event>
<event>
 5   0  0.5003526E-03  0.1275378E+04  0.7818609E-02  0.9049322E-01
        2   -1    0    0  501    0  0.00000000000E+00  0.00000000000E+00  0.68704233080E+03  0.68704233081E+03  0.25500000920E-02 0. -1.
       -2   -1    0    0    0  501  0.00000000000E+00  0.00000000000E+00 -0.59188078286E+03  0.59188078286E+03  0.25500000920E-02 0.  1.
    10030    2    1    2    0    0  0.00000000000E+00  0.00000000000E+00  0.95161547948E+02  0.12789231137E+04  0.12753778305E+04 0.  0.
        2    1    3    3  502    0  0.53001763745E+03  0.18266394233E+03 -0.25717576886E+03  0.61678536618E+03  0.25500000920E-02 0. -1.
       -2    1    3    3    0  502 -0.53001763745E+03 -0.18266394233E+03  0.35233731681E+03  0.66213774749E+03  0.25500000920E-02 0.  1.
</event>
<event>
 5   0  0.5189537E-03  0.1208679E+04  0.7818609E-02  0.9105293E-01
        2   -1    0    0  501    0  0.00000000000E+00  0.00000000000E+00  0.49363444952E+03  0.49363444953E+03  0.25500000920E-02 0.  1.
       -2   -1    0    0    0  501  0.00000000000E+00  0.00000000000E+00 -0.73987231405E+03  0.73987231405E+03  0.25500000920E-02 0. -1.
    10030    2    1    2    0    0  0.00000000000E+00  0.00000000000E+00 -0.24623786452E+03  0.12335067636E+04  0.12086793826E+04 0.  0.
        4    1    3    3  502    0  0.48724427847E+03 -0.56082508295E+02  0.23722395615E+03  0.54482020237E+03  0.12699999809E+01 0.  1.
       -4    1    3    3    0  502 -0.48724427847E+03  0.56082508295E+02 -0.48346182068E+03  0.68868656121E+03  0.12699999809E+01 0. -1.
</event>
<event>
 5   0  0.5031575E-03  0.1189631E+04  0.7818609E-02  0.9121981E-01
        2   -1    0    0  501    0  0.00000000000E+00  0.00000000000E+00  0.77119594482E+03  0.77119594482E+03  0.25500000920E-02 0. -1.
       -2   -1    0    0    0  501  0.00000000000E+00  0.00000000000E+00 -0.45877543313E+03  0.45877543313E+03  0.25500000920E-02 0.  1.
    10030    2    1    2    0    0  0.00000000000E+00  0.00000000000E+00  0.31242051169E+03  0.12299713780E+04  0.11896314616E+04 0.  0.
        5    1    3    3  502    0 -0.17685354702E+03  0.11412711096E+02  0.74324536288E+03  0.76409632017E+03  0.46999998093E+01 0. -1.
       -5    1    3    3    0  502  0.17685354702E+03 -0.11412711096E+02 -0.43082485119E+03  0.46587505778E+03  0.46999998093E+01 0.  1.
</event>
<event>
 5   0  0.1922125E-03  0.1196041E+04  0.7818609E-02  0.9116329E-01
       -4   -1    0    0    0  501  0.00000000000E+00  0.00000000000E+00  0.28942042244E+03  0.28942320885E+03  0.12699999809E+01 0.  1.
        4   -1    0    0  501    0  0.00000000000E+00  0.00000000000E+00 -0.12356630451E+04  0.12356636977E+04  0.12699999809E+01 0. -1.
    10030    2    1    2    0    0  0.00000000000E+00  0.00000000000E+00 -0.94624262266E+03  0.15250869066E+04  0.11960413754E+04 0.  0.
        2    1    3    3  502    0  0.41160561096E+03 -0.42722315551E+03 -0.37693745017E+03  0.70286602203E+03  0.25500000920E-02 0.  1.
       -2    1    3    3    0  502 -0.41160561096E+03  0.42722315551E+03 -0.56930517249E+03  0.82222088457E+03  0.25500000920E-02 0. -1.
</event>
<event>
 5   0  0.5108045E-03  0.1199898E+04  0.7818609E-02  0.9112946E-01
        2   -1    0    0  501    0  0.00000000000E+00  0.00000000000E+00  0.14738323841E+04  0.14738323841E+04  0.25500000920E-02 0. -1.
       -2   -1    0    0    0  501  0.00000000000E+00  0.00000000000E+00 -0.24421962194E+03  0.24421962195E+03  0.25500000920E-02 0.  1.
    10030    2    1    2    0    0  0.00000000000E+00  0.00000000000E+00  0.12296127622E+04  0.17180520061E+04  0.11998979751E+04 0.  0.
        3    1    3    3  502    0  0.38732331560E+03 -0.43833268324E+03  0.42386269078E+03  0.72236727697E+03  0.10100000352E+00 0. -1.
       -3    1    3    3    0  502 -0.38732331560E+03  0.43833268324E+03  0.80575007140E+03  0.99568472910E+03  0.10100000352E+00 0.  1.
</event>
<event>
 5   0  0.2875848E-03  0.1249251E+04  0.7818609E-02  0.9070807E-01
       -1   -1    0    0    0  501  0.00000000000E+00  0.00000000000E+00  0.33600136895E+03  0.33600136899E+03  0.50400001928E-02 0.  1.
        1   -1    0    0  501    0  0.00000000000E+00  0.00000000000E+00 -0.11611763148E+04  0.11611763149E+04  0.50400001928E-02 0. -1.
    10030    2    1    2    0    0  0.00000000000E+00  0.00000000000E+00 -0.82517494589E+03  0.14971776838E+04  0.12492507057E+04 0.  0.
        1    1    3    3  502    0 -0.12904898969E+03  0.31059329150E+02  0.31890409951E+03  0.34542459145E+03  0.50400001928E-02 0.  1.
       -1    1    3    3    0  502  0.12904898969E+03 -0.31059329150E+02 -0.11440790454E+04  0.11517530924E+04  0.50400001928E-02 0. -1.
</event>
<event>
 5   0  0.2875848E-03  0.1204191E+04  0.7818609E-02  0.9109196E-01
       -1   -1    0    0    0  501  0.00000000000E+00  0.00000000000E+00  0.30540584654E+03  0.30540584658E+03  0.50400001928E-02 0.  1.
        1   -1    0    0  501    0  0.00000000000E+00  0.00000000000E+00 -0.11870078338E+04  0.11870078338E+04  0.50400001928E-02 0. -1.
    10030    2    1    2    0    0  0.00000000000E+00  0.00000000000E+00 -0.88160198728E+03  0.14924136804E+04  0.12041912346E+04 0.  0.
        1    1    3    3  502    0 -0.45815696978E+02  0.27302237787E+03 -0.11034518475E+04  0.11376494525E+04  0.50400001928E-02 0. -1.
       -1    1    3    3    0  502  0.45815696978E+02 -0.27302237787E+03  0.22184986024E+03  0.35476422793E+03  0.50400001928E-02 0.  1.
</event>
<event>
 5   0  0.5003526E-03  0.1207293E+04  0.7818609E-02  0.9106497E-01
       -2   -1    0    0    0  501  0.00000000000E+00  0.00000000000E+00  0.29442460598E+03  0.29442460599E+03  0.25500000920E-02 0. -1.
        2   -1    0    0  501    0  0.00000000000E+00  0.00000000000E+00 -0.12376319882E+04  0.12376319882E+04  0.25500000920E-02 0.  1.
    10030    2    1    2    0    0  0.00000000000E+00  0.00000000000E+00 -0.94320738221E+03  0.15320565942E+04  0.12072933537E+04 0.  0.
        2    1    3    3  502    0 -0.48650519369E+03  0.33011846417E+03 -0.64524740737E+03  0.87293168152E+03  0.25500000920E-02 0.  1.
       -2    1    3    3    0  502  0.48650519369E+03 -0.33011846417E+03 -0.29795997484E+03  0.65912491266E+03  0.25500000920E-02 0. -1.
</event>
<event>
 5   0  0.5189537E-03  0.1155274E+04  0.7818609E-02  0.9152931E-01
       -2   -1    0    0    0  501  0.00000000000E+00  0.00000000000E+00  0.62573899670E+03  0.62573899671E+03  0.25500000920E-02 0. -1.
        2   -1    0    0  501    0  0.00000000000E+00  0.00000000000E+00 -0.53323309369E+03  0.53323309370E+03  0.25500000920E-02 0.  1.
    10030    2    1    2    0    0  0.00000000000E+00  0.00000000000E+00  0.92505903010E+02  0.11589720904E+04  0.11552744108E+04 0.  0.
        4    1    3    3  502    0 -0.94833531073E+02  0.28429607510E+03 -0.44913469332E+03  0.53994559224E+03  0.12699999809E+01 0.  1.
       -4    1    3    3    0  502  0.94833531073E+02 -0.28429607510E+03  0.54164059633E+03  0.61902649816E+03  0.12699999809E+01 0. -1.
</event>
<event>
 5   0  0.2926844E-03  0.1181242E+04  0.7818609E-02  0.9129436E-01
        1   -1    0    0  501    0  0.00000000000E+00  0.00000000000E+00  0.87022318208E+03  0.87022318210E+03  0.50400001928E-02 0. -1.
       -1   -1    0    0    0  501  0.00000000000E+00  0.00000000000E+00 -0.40085488591E+03  0.40085488594E+03  0.50400001928E-02 0.  1.
    10030    2    1    2    0    0  0.00000000000E+00  0.00000000000E+00  0.46936829617E+03  0.12710780680E+04  0.11812420826E+04 0.  0.
        5    1    3    3  502    0 -0.28890841889E+03 -0.26864041921E+03 -0.23825928183E+03  0.46089621902E+03  0.46999998093E+01 0.  1.
       -5    1    3    3    0  502  0.28890841889E+03  0.26864041921E+03  0.70762757800E+03  0.81018184902E+03  0.46999998093E+01 0. -1.
</event>
<event>
 5   0  0.1922125E-03  0.1339015E+04  0.7818609E-02  0.8999186E-01
        3   -1    0    0  501    0  0.00000000000E+00  0.00000000000E+00  0.35572134403E+03  0.35572135837E+03  0.10100000352E+00 0.  1.
       -3   -1    0    0    0  501  0.00000000000E+00  0.00000000000E+00 -0.12600873958E+04  0.12600873999E+04  0.10100000352E+00 0. -1.
    10030    2    1    2    0    0  0.00000000000E+00  0.00000000000E+00 -0.90436605179E+03  0.16158087582E+04  0.13390145584E+04 0.  0.
        5    1    3    3  502    0  0.53741855388E+02  0.55091219796E+03 -0.90662849175E+03  0.10622569129E+04  0.46999998093E+01 0. -1.
       -5    1    3    3    0  502 -0.53741855388E+02 -0.55091219796E+03  0.22624399525E+01  0.55355184537E+03  0.46999998093E+01 0.  1.
</event>
<event>
 5   0  0.5467554E-03  0.1194873E+04  0.7818609E-02  0.9117356E-01
       -2   -1    0    0    0  501  0.00000000000E+00  0.00000000000E+00  0.32730822005E+03  0.32730822006E+03  0.25500000920E-02 0.  1.
        2   -1    0    0  501    0  0.00000000000E+00  0.00000000000E+00 -0.10905016233E+04  0.10905016233E+04  0.25500000920E-02 0. -1.
    10030    2    1    2    0    0  0.00000000000E+00  0.00000000000E+00 -0.76319340329E+03  0.14178098434E+04  0.11948726213E+04 0.  0.
        1    1    3    3  502    0 -0.36864550079E+03  0.30228612399E+03  0.45660016645E+02  0.47891673927E+03  0.50400001928E-02 0.  1.
       -1    1    3    3    0  502  0.36864550079E+03 -0.30228612399E+03 -0.80885341994E+03  0.93889310413E+03  0.50400001928E-02 0. -1.
</event>
<event>
 5   0  0.2926844E-03  0.1236300E+04  0.7818609E-02  0.9081664E-01
       -1   -1    0    0    0  501  0.00000000000E+00  0.00000000000E+00  0.27074233770E+03  0.27074233775E+03  0.50400001928E-02 0. -1.
        1   -1    0    0  501    0  0.00000000000E+00  0.00000000000E+00 -0.14113388218E+04  0.14113388218E+04  0.50400001928E-02 0.  1.
    10030    2    1    2    0    0  0.00000000000E+00  0.00000000000E+00 -0.11405964841E+04  0.16820811595E+04  0.12362995947E+04 0.  0.
        5    1    3    3  502    0  0.10818670585E+03 -0.19451315279E+03 -0.13549012461E+04  0.13730692650E+04  0.46999998093E+01 0.  1.
       -5    1    3    3    0  502 -0.10818670585E+03  0.19451315279E+03  0.21430476201E+03  0.30901189451E+03  0.46999998093E+01 0. -1.
</event>
<event>
 5   0  0.2938349E-03  0.1200567E+04  0.7818609E-02  0.9112361E-01
       -1   -1    0    0    0  501  0.00000000000E+00  0.00000000000E+00  0.32176739122E+03  0.32176739126E+03  0.50400001928E-02 0. -1.
        1   -1    0    0  501    0  0.00000000000E+00  0.00000000000E+00 -0.11198772713E+04  0.11198772713E+04  0.50400001928E-02 0.  1.
    10030    2    1    2    0    0  0.00000000000E+00  0.00000000000E+00 -0.79810988009E+03  0.14416446626E+04  0.12005665131E+04 0.  0.
        4    1    3    3  502    0 -0.22886254432E+03 -0.14280515695E+03  0.24487930929E+03  0.36433345449E+03  0.12699999809E+01 0. -1.
       -4    1    3    3    0  502  0.22886254432E+03  0.14280515695E+03 -0.10429891894E+04  0.10773112081E+04  0.12699999809E+01 0.  1.
</event>
<event>
 5   0  0.2875848E-03  0.1200069E+04  0.7818609E-02  0.9112796E-01
        1   -1    0    0  501    0  0.00000000000E+00  0.00000000000E+00  0.13974084068E+04  0.13974084068E+04  0.50400001928E-02 0.  1.
       -1   -1    0    0    0  501  0.00000000000E+00  0.00000000000E+00 -0.25764951787E+03  0.25764951792E+03  0.50400001928E-02 0. -1.
    10030    2    1    2    0    0  0.00000000000E+00  0.00000000000E+00  0.11397588890E+04  0.16550579248E+04  0.12000693352E+04 0.  0.
        1    1    3    3  502    0  0.27800532976E+03 -0.20681596388E+03 -0.10573046220E+03  0.36226887384E+03  0.50400001928E-02 0. -1.
       -1    1    3    3    0  502 -0.27800532976E+03  0.20681596388E+03  0.12454893512E+04  0.12927890509E+04  0.50400001928E-02 0.  1.
</event>
<event>
 5   0  0.2875848E-03  0.1227884E+04  0.7818609E-02  0.9088793E-01
       -1   -1    0    0    0  501  0.00000000000E+00  0.00000000000E+00  0.53107632435E+03  0.53107632437E+03  0.50400001928E-02 0.  1.
        1   -1    0    0  501    0  0.00000000000E+00  0.00000000000E+00 -0.70973805948E+03  0.70973805949E+03  0.50400001928E-02 0. -1.
    10030    2    1    2    0    0  0.00000000000E+00  0.00000000000E+00 -0.17866173513E+03  0.12408143839E+04  0.12278844895E+04 0.  0.
        1    1    3    3  502    0  0.19779239206E+03  0.55377722290E+03 -0.26763730542E+03  0.64608108642E+03  0.50400001928E-02 0.  1.
       -1    1    3    3    0  502 -0.19779239206E+03 -0.55377722290E+03  0.88975570286E+02  0.59473329744E+03  0.50400001928E-02 0. -1.
</event>
<event>
 5   0  0.2875848E-03  0.1207086E+04  0.7818609E-02  0.9106677E-01
       -1   -1    0    0    0  501  0.00000000000E+00  0.00000000000E+00  0.60798963945E+03  0.60798963948E+03  0.50400001928E-02 0. -1.
        1   -1    0    0  501    0  0.00000000000E+00  0.00000000000E+00 -0.59912877295E+03  0.59912877297E+03  0.50400001928E-02 0.  1.
    10030    2    1    2    0    0  0.00000000000E+00  0.00000000000E+00  0.88608665083E+01  0.12071184124E+04  0.12070858904E+04 0.  0.
        1    1    3    3  502    0 -0.60956025974E+01 -0.49899096901E+03 -0.33504143992E+03  0.60106730905E+03  0.50400001928E-02 0.  1.
       -1    1    3    3    0  502  0.60956025974E+01  0.49899096901E+03  0.34390230643E+03  0.60605110339E+03  0.50400001928E-02 0. -1.
</event>
<event>
 5   0  0.2792518E-03  0.1190817E+04  0.7818609E-02  0.9120932E-01
       -1   -1    0    0    0  501  0.00000000000E+00  0.00000000000E+00  0.44986356568E+03  0.44986356570E+03  0.50400001928E-02 0.  1.
        1   -1    0    0  501    0  0.00000000000E+00  0.00000000000E+00 -0.78804240069E+03  0.78804240071E+03  0.50400001928E-02 0. -1.
    10030    2    1    2    0    0  0.00000000000E+00  0.00000000000E+00 -0.33817883501E+03  0.12379059664E+04  0.11908174744E+04 0.  0.
        2    1    3    3  502    0 -0.27084380688E+02 -0.34220264834E+03  0.33664087665E+03  0.48079444261E+03  0.25500000920E-02 0.  1.
       -2    1    3    3    0  502  0.27084380688E+02  0.34220264834E+03 -0.67481971166E+03  0.75711152380E+03  0.25500000920E-02 0. -1.
</event>
<event>
 5   0  0.2926844E-03  0.1170908E+04  0.7818609E-02  0.9138709E-01
       -1   -1    0    0    0  501  0.00000000000E+00  0.00000000000E+00  0.26177915515E+03  0.26177915520E+03  0.50400001928E-02 0.  1.
        1   -1    0    0  501    0  0.00000000000E+00  0.00000000000E+00 -0.13093345856E+04  0.13093345856E+04  0.50400001928E-02 0. -1.
    10030    2    1    2    0    0  0.00000000000E+00  0.00000000000E+00 -0.10475554305E+04  0.15711137408E+04  0.11709081974E+04 0.  0.
        5    1    3    3  502    0 -0.28854724336E+03  0.50214757767E+03 -0.40895687884E+03  0.70899895639E+03  0.46999998093E+01 0. -1.
       -5    1    3    3    0  502  0.28854724336E+03 -0.50214757767E+03 -0.63859855164E+03  0.86211478445E+03  0.46999998093E+01 0.  1.
</event>
<event>
 5   0  0.5108045E-03  0.1196014E+04  0.7818609E-02  0.9116353E-01
        2   -1    0    0  501    0  0.00000000000E+00  0.00000000000E+00  0.46386258703E+03  0.46386258704E+03  0.25500000920E-02 0.  1.
       -2   -1    0    0    0  501  0.00000000000E+00  0.00000000000E+00 -0.77094473060E+03  0.77094473060E+03  0.25500000920E-02 0. -1.
    10030    2    1    2    0    0  0.00000000000E+00  0.00000000000E+00 -0.30708214357E+03  0.12348073176E+04  0.11960140755E+04 0.  0.
        3    1    3    3  502    0 -0.12472871054E+03 -0.82836327873E+02 -0.75127866065E+03  0.76605400893E+03  0.10100000352E+00 0. -1.
       -3    1    3    3    0  502  0.12472871054E+03  0.82836327873E+02  0.44419651708E+03  0.46875330871E+03  0.10100000352E+00 0.  1.
</event>
<event>
 5   0  0.2930868E-03  0.1194153E+04  0.7818609E-02  0.9117990E-01
       -1   -1    0    0    0  501  0.00000000000E+00  0.00000000000E+00  0.39018429946E+03  0.39018429949E+03  0.50400001928E-02 0.  1.
        1   -1    0    0  501    0  0.00000000000E+00  0.00000000000E+00 -0.91367172266E+03  0.91367172267E+03  0.50400001928E-02 0. -1.
    10030    2    1    2    0    0  0.00000000000E+00  0.00000000000E+00 -0.52348742319E+03  0.13038560222E+04  0.11941530238E+04 0.  0.
        3    1    3    3  502    0 -0.17219380868E+03 -0.50896099880E+03  0.22578786534E+02  0.53777487655E+03  0.10100000352E+00 0.  1.
       -3    1    3    3    0  502  0.17219380868E+03  0.50896099880E+03 -0.54606620973E+03  0.76608114561E+03  0.10100000352E+00 0. -1.
</event>
<event>
 5   0  0.2792518E-03  0.1197081E+04  0.7818609E-02  0.9115415E-01
       -1   -1    0    0    0  501  0.00000000000E+00  0.00000000000E+00  0.48599691430E+03  0.48599691433E+03  0.50400001928E-02 0. -1.
        1   -1    0    0  501    0  0.00000000000E+00  0.00000000000E+00 -0.73714656355E+03  0.73714656357E+03  0.50400001928E-02 0.  1.
    10030    2    1    2    0    0  0.00000000000E+00  0.00000000000E+00 -0.25114964925E+03  0.12231434779E+04  0.11970813762E+04 0.  0.
        2    1    3    3  502    0 -0.46875773968E+03  0.33322633665E+03  0.43796980338E+02  0.57679440482E+03  0.25500000920E-02 0. -1.
       -2    1    3    3    0  502  0.46875773968E+03 -0.33322633665E+03 -0.29494662959E+03  0.64634907307E+03  0.25500000920E-02 0.  1.
</event>
<event>
 5   0  0.5031575E-03  0.1199968E+04  0.7818609E-02  0.9112884E-01
       -2   -1    0    0    0  501  0.00000000000E+00  0.00000000000E+00  0.41374586098E+03  0.41374586099E+03  0.25500000920E-02 0.  1.
        2   -1    0    0  501    0  0.00000000000E+00  0.00000000000E+00 -0.87005353762E+03  0.87005353762E+03  0.25500000920E-02 0. -1.
    10030    2    1    2    0    0  0.00000000000E+00  0.00000000000E+00 -0.45630767664E+03  0.12837993986E+04  0.11999684163E+04 0.  0.
        5    1    3    3  502    0  0.47834401713E+01  0.37930061446E+03 -0.72545754552E+03  0.81865901191E+03  0.46999998093E+01 0. -1.
       -5    1    3    3    0  502 -0.47834401713E+01 -0.37930061446E+03  0.26914986888E+03  0.46514038671E+03  0.46999998093E+01 0.  1.
</event>
<event>
 5   0  0.5108045E-03  0.1208618E+04  0.7818609E-02  0.9105347E-01
        2   -1    0    0  501    0  0.00000000000E+00  0.00000000000E+00  0.77201812056E+03  0.77201812056E+03  0.25500000920E-02 0.  1.
       -2   -1    0    0    0  501  0.00000000000E+00  0.00000000000E+00 -0.47303191056E+03  0.47303191057E+03  0.25500000920E-02 0. -1.
    10030    2    1    2    0    0  0.00000000000E+00  0.00000000000E+00  0.29898621000E+03  0.12450500311E+04  0.12086177337E+04 0.  0.
        3    1    3    3  502    0  0.31739234213E+03 -0.16327172563E+02 -0.37998949113E+03  0.49537510936E+03  0.10100000352E+00 0. -1.
       -3    1    3    3    0  502 -0.31739234213E+03  0.16327172563E+02  0.67897570113E+03  0.74967492177E+03  0.10100000352E+00 0.  1.
</event>
<event>
 5   0  0.2875848E-03  0.1207764E+04  0.7818609E-02  0.9106088E-01
       -1   -1    0    0    0  501  0.00000000000E+00  0.00000000000E+00  0.43187516005E+03  0.43187516008E+03  0.50400001928E-02 0.  1.
        1   -1    0    0  501    0  0.00000000000E+00  0.00000000000E+00 -0.84439489964E+03  0.84439489965E+03  0.50400001928E-02 0. -1.
    10030    2    1    2    0    0  0.00000000000E+00  0.00000000000E+00 -0.41251973959E+03  0.12762700597E+04  0.12077635240E+04 0.  0.
        1    1    3    3  502    0 -0.85003419097E+02 -0.32981760835E+03 -0.73321128576E+03  0.80845780695E+03  0.50400001928E-02 0. -1.
       -1    1    3    3    0  502  0.85003419097E+02  0.32981760835E+03  0.32069154617E+03  0.46781225277E+03  0.50400001928E-02 0.  1.
</event>
<event>
 5   0  0.5189537E-03  0.1197166E+04  0.7818609E-02  0.9115341E-01
       -2   -1    0    0    0  501  0.00000000000E+00  0.00000000000E+00  0.56627497594E+03  0.56627497594E+03  0.25500000920E-02 0.  1.
        2   -1    0    0  501    0  0.00000000000E+00  0.00000000000E+00 -0.63273426000E+03  0.63273426000E+03  0.25500000920E-02 0. -1.
    10030    2    1    2    0    0  0.00000000000E+00  0.00000000000E+00 -0.66459284063E+02  0.11990092359E+04  0.11971659498E+04 0.  0.
        4    1    3    3  502    0  0.53657196163E+03 -0.10133727752E+03  0.21234424098E+03  0.58589282587E+03  0.12699999809E+01 0.  1.
       -4    1    3    3    0  502 -0.53657196163E+03  0.10133727752E+03 -0.27880352505E+03  0.61311641008E+03  0.12699999809E+01 0. -1.
</event>
<event>
 5   0  0.5467554E-03  0.1214932E+04  0.7818609E-02  0.9099886E-01
        2   -1    0    0  501    0  0.00000000000E+00  0.00000000000E+00  0.19989828950E+04  0.19989828950E+04  0.25500000920E-02 0. -1.
       -2   -1    0    0    0  501  0.00000000000E+00  0.00000000000E+00 -0.18460140435E+03  0.18460140437E+03  0.25500000920E-02 0.  1.
    10030    2    1    2    0    0  0.00000000000E+00  0.00000000000E+00  0.18143814906E+04  0.21835842994E+04  0.12149321787E+04 0.  0.
        1    1    3    3  502    0 -0.45056284829E+03 -0.39744483786E+03  0.10684043699E+04  0.12257475992E+04  0.50400001928E-02 0. -1.
       -1    1    3    3    0  502  0.45056284829E+03  0.39744483786E+03  0.74597712078E+03  0.95783670015E+03  0.50400001928E-02 0.  1.
</event>
<event>
 5   0  0.5108045E-03  0.1224040E+04  0.7818609E-02  0.9092070E-01
       -2   -1    0    0    0  501  0.00000000000E+00  0.00000000000E+00  0.28335893165E+03  0.28335893166E+03  0.25500000920E-02 0. -1.
        2   -1    0    0  501    0  0.00000000000E+00  0.00000000000E+00 -0.13218878491E+04  0.13218878491E+04  0.25500000920E-02 0.  1.
    10030    2    1    2    0    0  0.00000000000E+00  0.00000000000E+00 -0.10385289174E+04  0.16052467807E+04  0.12240404057E+04 0.  0.
        3    1    3    3  502    0 -0.10689683601E+03  0.57842440664E+03 -0.29760906668E+03  0.65922143056E+03  0.10100000352E+00 0. -1.
       -3    1    3    3    0  502  0.10689683601E+03 -0.57842440664E+03 -0.74091985072E+03  0.94602535015E+03  0.10100000352E+00 0.  1.
</event>
<event>
 5   0  0.2926844E-03  0.1202695E+04  0.7818609E-02  0.9110501E-01
        1   -1    0    0  501    0  0.00000000000E+00  0.00000000000E+00  0.12331821881E+04  0.12331821881E+04  0.50400001928E-02 0.  1.
       -1   -1    0    0    0  501  0.00000000000E+00  0.00000000000E+00 -0.29324040927E+03  0.29324040932E+03  0.50400001928E-02 0. -1.
    10030    2    1    2    0    0  0.00000000000E+00  0.00000000000E+00  0.93994177879E+03  0.15264225974E+04  0.12026950562E+04 0.  0.
        5    1    3    3  502    0  0.30358012194E+03 -0.11731605958E+03 -0.17177269316E+03  0.36803790075E+03  0.46999998093E+01 0. -1.
       -5    1    3    3    0  502 -0.30358012194E+03  0.11731605958E+03  0.11117144719E+04  0.11583846966E+04  0.46999998093E+01 0.  1.
</event>
<event>
 5   0  0.2792518E-03  0.1196906E+04  0.7818609E-02  0.9115569E-01
       -1   -1    0    0    0  501  0.00000000000E+00  0.00000000000E+00  0.77622963425E+03  0.77622963427E+03  0.50400001928E-02 0.  1.
        1   -1    0    0  501    0  0.00000000000E+00  0.00000000000E+00 -0.46139209989E+03  0.46139209992E+03  0.50400001928E-02 0. -1.
    10030    2    1    2    0    0  0.00000000000E+00  0.00000000000E+00  0.31483753436E+03  0.12376217342E+04  0.11969063806E+04 0.  0.
        2    1    3    3  502    0  0.98116659419E+02 -0.39104016115E+03  0.61473842390E+03  0.73514802340E+03  0.25500000920E-02 0.  1.
       -2    1    3    3    0  502 -0.98116659419E+02  0.39104016115E+03 -0.29990088954E+03  0.50247371079E+03  0.25500000920E-02 0. -1.
</event>
<event>
 5   0  0.2930868E-03  0.1213297E+04  0.7818609E-02  0.9101296E-01
        1   -1    0    0  501    0  0.00000000000E+00  0.00000000000E+00  0.57760330458E+03  0.57760330460E+03  0.50400001928E-02 0.  1.
       -1   -1    0    0    0  501  0.00000000000E+00  0.00000000000E+00 -0.63715471665E+03  0.63715471667E+03  0.50400001928E-02 0. -1.
    10030    2    1    2    0    0  0.00000000000E+00  0.00000000000E+00 -0.59551412070E+02  0.12147580213E+04  0.12132974407E+04 0.  0.
        3    1    3    3  502    0  0.53549831975E+03 -0.29899168713E+02  0.25406204087E+03  0.59346435576E+03  0.10100000352E+00 0.  1.
       -3    1    3    3    0  502 -0.53549831975E+03  0.29899168713E+02 -0.31361345294E+03  0.62129366552E+03  0.10100000352E+00 0. -1.
</event>
<event>
 5   0  0.5003526E-03  0.1220545E+04  0.7818609E-02  0.9095061E-01
        2   -1    0    0  501    0  0.00000000000E+00  0.00000000000E+00  0.22296603797E+04  0.22296603797E+04  0.25500000920E-02 0.  1.
       -2   -1    0    0    0  501  0.00000000000E+00  0.00000000000E+00 -0.16703562046E+03  0.16703562048E+03  0.25500000920E-02 0. -1.
    10030    2    1    2    0    0  0.00000000000E+00  0.00000000000E+00  0.20626247593E+04  0.23966960002E+04  0.12205452961E+04 0.  0.
        2    1    3    3  502    0  0.36416887709E+03 -0.31854496249E+03  0.17616730768E+04  0.18269050040E+04  0.25500000920E-02 0.  1.
       -2    1    3    3    0  502 -0.36416887709E+03  0.31854496249E+03  0.30095168248E+03  0.56979099621E+03  0.25500000920E-02 0. -1.
</event>
<event>
 5   0  0.5189537E-03  0.1230141E+04  0.7818609E-02  0.9086875E-01
        2   -1    0    0  501    0  0.00000000000E+00  0.00000000000E+00  0.64132845749E+03  0.64132845749E+03  0.25500000920E-02 0.  1.
       -2   -1    0    0    0  501  0.00000000000E+00  0.00000000000E+00 -0.58988791416E+03  0.58988791417E+03  0.25500000920E-02 0. -1.
    10030    2    1    2    0    0  0.00000000000E+00  0.00000000000E+00  0.51440543322E+02  0.12312163717E+04  0.12301413026E+04 0.  0.
        4    1    3    3  502    0  0.42877466280E+03 -0.43648190180E+03  0.88593409779E+02  0.61823504205E+03  0.12699999809E+01 0.  1.
       -4    1    3    3    0  502 -0.42877466280E+03  0.43648190180E+03 -0.37152866457E+02  0.61298132961E+03  0.12699999809E+01 0. -1.
</event>
<event>
 5   0  0.2792518E-03  0.1185060E+04  0.7818609E-02  0.9126035E-01
        1   -1    0    0  501    0  0.00000000000E+00  0.00000000000E+00  0.62170250570E+03  0.62170250572E+03  0.50400001928E-02 0.  1.
       -1   -1    0    0    0  501  0.00000000000E+00  0.00000000000E+00 -0.56472638397E+03  0.56472638399E+03  0.50400001928E-02 0. -1.
    10030    2    1    2    0    0  0.00000000000E+00  0.00000000000E+00  0.56976121729E+02  0.11864288897E+04  0.11850600119E+04 0.  0.
        2    1    3    3  502    0 -0.51588753587E+03 -0.28651742246E+02 -0.26190031638E+03  0.57926906332E+03  0.25500000920E-02 0. -1.
       -2    1    3    3    0  502  0.51588753587E+03  0.28651742246E+02  0.31887643811E+03  0.60715982639E+03  0.25500000920E-02 0.  1.
</event>
<event>
 5   0  0.2926844E-03  0.1176990E+04  0.7818609E-02  0.9133239E-01
        1   -1    0    0  501    0  0.00000000000E+00  0.00000000000E+00  0.91139725974E+03  0.91139725976E+03  0.50400001928E-02 0. -1.
       -1   -1    0    0    0  501  0.00000000000E+00  0.00000000000E+00 -0.37999473723E+03  0.37999473727E+03  0.50400001928E-02 0.  1.
    10030    2    1    2    0    0  0.00000000000E+00  0.00000000000E+00  0.53140252251E+03  0.12913919970E+04  0.11769896555E+04 0.  0.
        5    1    3    3  502    0  0.30196980091E+03  0.27864934031E+03  0.72792411535E+03  0.83589881160E+03  0.46999998093E+01 0. -1.
       -5    1    3    3    0  502 -0.30196980091E+03 -0.27864934031E+03 -0.19652159285E+03  0.45549318543E+03  0.46999998093E+01 0.  1.
</event>
<event>
 5   0  0.2792518E-03  0.1195755E+04  0.7818609E-02  0.9116581E-01
       -1   -1    0    0    0  501  0.00000000000E+00  0.00000000000E+00  0.35590670551E+03  0.35590670555E+03  0.50400001928E-02 0.  1.
        1   -1    0    0  501    0  0.00000000000E+00  0.00000000000E+00 -0.10043568779E+04  0.10043568779E+04  0.50400001928E-02 0. -1.
    10030    2    1    2    0    0  0.00000000000E+00  0.00000000000E+00 -0.64845017235E+03  0.13602635834E+04  0.11957547367E+04 0.  0.
        2    1    3    3  502    0 -0.51741320748E+02 -0.12361603806E+03 -0.98705236942E+03  0.99610765940E+03  0.25500000920E-02 0. -1.
       -2    1    3    3    0  502  0.51741320748E+02  0.12361603806E+03  0.33860219706E+03  0.36415592402E+03  0.25500000920E-02 0.  1.
</event>
<event>
 5   0  0.1922125E-03  0.1223261E+04  0.7818609E-02  0.9092737E-01
       -3   -1    0    0    0  501  0.00000000000E+00  0.00000000000E+00  0.44168557986E+03  0.44168559141E+03  0.10100000352E+00 0.  1.
        3   -1    0    0  501    0  0.00000000000E+00  0.00000000000E+00 -0.84696352865E+03  0.84696353468E+03  0.10100000352E+00 0. -1.
    10030    2    1    2    0    0  0.00000000000E+00  0.00000000000E+00 -0.40527794880E+03  0.12886491261E+04  0.12232605423E+04 0.  0.
        5    1    3    3  502    0  0.76710527303E+02 -0.32630772002E+02 -0.84093166697E+03  0.84506652448E+03  0.46999998093E+01 0. -1.
       -5    1    3    3    0  502 -0.76710527303E+02  0.32630772002E+02  0.43565371818E+03  0.44358260160E+03  0.46999998093E+01 0.  1.
</event>
<event>
 5   0  0.5003526E-03  0.1201755E+04  0.7818609E-02  0.9111322E-01
        2   -1    0    0  501    0  0.00000000000E+00  0.00000000000E+00  0.13538467827E+04  0.13538467827E+04  0.25500000920E-02 0. -1.
       -2   -1    0    0    0  501  0.00000000000E+00  0.00000000000E+00 -0.26668723745E+03  0.26668723746E+03  0.25500000920E-02 0.  1.
    10030    2    1    2    0    0  0.00000000000E+00  0.00000000000E+00  0.10871595452E+04  0.16205340201E+04  0.12017548143E+04 0.  0.
        2    1    3    3  502    0 -0.18510525488E+03 -0.30285288319E+03 -0.11021392915E+03  0.37165970245E+03  0.25500000920E-02 0.  1.
       -2    1    3    3    0  502  0.18510525488E+03  0.30285288319E+03  0.11973734744E+04  0.12488743177E+04  0.25500000920E-02 0. -1.
</event>
<event>
 5   0  0.5108045E-03  0.1191454E+04  0.7818609E-02  0.9120370E-01
       -2   -1    0    0    0  501  0.00000000000E+00  0.00000000000E+00  0.24333447169E+03  0.24333447171E+03  0.25500000920E-02 0. -1.
        2   -1    0    0  501    0  0.00000000000E+00  0.00000000000E+00 -0.14584488764E+04  0.14584488764E+04  0.25500000920E-02 0.  1.
    10030    2    1    2    0    0  0.00000000000E+00  0.00000000000E+00 -0.12151144047E+04  0.17017833481E+04  0.11914543833E+04 0.  0.
        3    1    3    3  502    0  0.36198460118E+03  0.11919672976E+03  0.46437837486E+02  0.38392342313E+03  0.10100000352E+00 0. -1.
       -3    1    3    3    0  502 -0.36198460118E+03 -0.11919672976E+03 -0.12615522422E+04  0.13178599250E+04  0.10100000352E+00 0.  1.
</event>
<event>
 5   0  0.5003526E-03  0.1186809E+04  0.7818609E-02  0.9124482E-01
        2   -1    0    0  501    0  0.00000000000E+00  0.00000000000E+00  0.13314548774E+04  0.13314548774E+04  0.25500000920E-02 0.  1.
       -2   -1    0    0    0  501  0.00000000000E+00  0.00000000000E+00 -0.26446924056E+03  0.26446924057E+03  0.25500000920E-02 0. -1.
    10030    2    1    2    0    0  0.00000000000E+00  0.00000000000E+00  0.10669856368E+04  0.15959241180E+04  0.11868089320E+04 0.  0.
        2    1    3    3  502    0  0.57956164531E+03 -0.53651561214E+02  0.37807062455E+03  0.69405157437E+03  0.25500000920E-02 0.  1.
       -2    1    3    3    0  502 -0.57956164531E+03  0.53651561214E+02  0.68891501229E+03  0.90187254360E+03  0.25500000920E-02 0. -1.
</event>
<event>
 5   0  0.2930868E-03  0.1041139E+04  0.7818609E-02  0.9264541E-01
       -1   -1    0    0    0  501  0.00000000000E+00  0.00000000000E+00  0.35968913275E+03  0.35968913279E+03  0.50400001928E-02 0. -1.
        1   -1    0    0  501    0  0.00000000000E+00  0.00000000000E+00 -0.75340780145E+03  0.75340780146E+03  0.50400001928E-02 0.  1.
    10030    2    1    2    0    0  0.00000000000E+00  0.00000000000E+00 -0.39371866870E+03  0.11130969343E+04  0.10411389893E+04 0.  0.
        3    1    3    3  502    0  0.18191576161E+02  0.25118627302E+03  0.29022431001E+03  0.38425985676E+03  0.10100000352E+00 0. -1.
       -3    1    3    3    0  502 -0.18191576161E+02 -0.25118627302E+03 -0.68394297871E+03  0.72883707749E+03  0.10100000352E+00 0.  1.
</event>
<event>
 5   0  0.2926844E-03  0.1139972E+04  0.7818609E-02  0.9167085E-01
       -1   -1    0    0    0  501  0.00000000000E+00  0.00000000000E+00  0.11049456052E+04  0.11049456052E+04  0.50400001928E-02 0. -1.
        1   -1    0    0  501    0  0.00000000000E+00  0.00000000000E+00 -0.29402699283E+03  0.29402699287E+03  0.50400001928E-02 0.  1.
    10030    2    1    2    0    0  0.00000000000E+00  0.00000000000E+00  0.81091861238E+03  0.13989725981E+04  0.11399716375E+04 0.  0.
        5    1    3    3  502    0  0.67261754327E+02  0.42213106026E+03  0.86813624273E+03  0.96767835647E+03  0.46999998093E+01 0. -1.
       -5    1    3    3    0  502 -0.67261754327E+02 -0.42213106026E+03 -0.57217630355E+02  0.43129424162E+03  0.46999998093E+01 0.  1.
</event>
<event>
 5   0  0.5031575E-03  0.1187614E+04  0.7818609E-02  0.9123768E-01
       -2   -1    0    0    0  501  0.00000000000E+00  0.00000000000E+00  0.70555923263E+03  0.70555923263E+03  0.25500000920E-02 0.  1.
        2   -1    0    0  501    0  0.00000000000E+00  0.00000000000E+00 -0.49975498535E+03  0.49975498536E+03  0.25500000920E-02 0. -1.
    10030    2    1    2    0    0  0.00000000000E+00  0.00000000000E+00  0.20580424727E+03  0.12053142180E+04  0.11876139844E+04 0.  0.
        5    1    3    3  502    0  0.28711973977E+02 -0.27904251840E+03  0.63405246438E+03  0.69334963915E+03  0.46999998093E+01 0.  1.
       -5    1    3    3    0  502 -0.28711973977E+02  0.27904251840E+03 -0.42824821711E+03  0.51196457883E+03  0.46999998093E+01 0. -1.
</event>
<event>
 5   0  0.2926844E-03  0.1190526E+04  0.7818609E-02  0.9121190E-01
       -1   -1    0    0    0  501  0.00000000000E+00  0.00000000000E+00  0.36252740379E+03  0.36252740382E+03  0.50400001928E-02 0.  1.
        1   -1    0    0  501    0  0.00000000000E+00  0.00000000000E+00 -0.97741031344E+03  0.97741031345E+03  0.50400001928E-02 0. -1.
    10030    2    1    2    0    0  0.00000000000E+00  0.00000000000E+00 -0.61488290965E+03  0.13399377173E+04  0.11905259735E+04 0.  0.
        5    1    3    3  502    0  0.33732276022E+03 -0.20135397665E+03  0.19587993552E+03  0.43900012256E+03  0.46999998093E+01 0.  1.
       -5    1    3    3    0  502 -0.33732276022E+03  0.20135397665E+03 -0.81076284517E+03  0.90093759471E+03  0.46999998093E+01 0. -1.
</event>
<event>
 5   0  0.2792518E-03  0.1153054E+04  0.7818609E-02  0.9154971E-01
       -1   -1    0    0    0  501  0.00000000000E+00  0.00000000000E+00  0.90277749292E+03  0.90277749294E+03  0.50400001928E-02 0. -1.
        1   -1    0    0  501    0  0.00000000000E+00  0.00000000000E+00 -0.36817870253E+03  0.36817870257E+03  0.50400001928E-02 0.  1.
    10030    2    1    2    0    0  0.00000000000E+00  0.00000000000E+00  0.53459879039E+03  0.12709561955E+04  0.11530541116E+04 0.  0.
        2    1    3    3  502    0 -0.33266333298E+03  0.36610134047E+03 -0.59101898338E+02  0.49818482414E+03  0.25500000920E-02 0.  1.
       -2    1    3    3    0  502  0.33266333298E+03 -0.36610134047E+03  0.59370068873E+03  0.77277137137E+03  0.25500000920E-02 0. -1.
</event>
<event>
 5   0  0.5031575E-03  0.1183707E+04  0.7818609E-02  0.9127239E-01
        2   -1    0    0  501    0  0.00000000000E+00  0.00000000000E+00  0.35282034177E+03  0.35282034178E+03  0.25500000920E-02 0. -1.
       -2   -1    0    0    0  501  0.00000000000E+00  0.00000000000E+00 -0.99282971819E+03  0.99282971819E+03  0.25500000920E-02 0.  1.
    10030    2    1    2    0    0  0.00000000000E+00  0.00000000000E+00 -0.64000937642E+03  0.13456500600E+04  0.11837069240E+04 0.  0.
        5    1    3    3  502    0 -0.55787346301E+03 -0.17785805147E+03 -0.41787700089E+03  0.71937442620E+03  0.46999998093E+01 0.  1.
       -5    1    3    3    0  502  0.55787346301E+03  0.17785805147E+03 -0.22213237553E+03  0.62627563378E+03  0.46999998093E+01 0. -1.
</event>
<event>
 5   0  0.2875848E-03  0.1255355E+04  0.7818609E-02  0.9065738E-01
       -1   -1    0    0    0  501  0.00000000000E+00  0.00000000000E+00  0.10270187390E+04  0.10270187390E+04  0.50400001928E-02 0.  1.
        1   -1    0    0  501    0  0.00000000000E+00  0.00000000000E+00 -0.38361407920E+03  0.38361407924E+03  0.50400001928E-02 0. -1.
    10030    2    1    2    0    0  0.00000000000E+00  0.00000000000E+00  0.64340465983E+03  0.14106328183E+04  0.12553546876E+04 0.  0.
        1    1    3    3  502    0  0.29369687585E+03  0.52860780697E+02  0.94220732753E+03  0.98833535052E+03  0.50400001928E-02 0.  1.
       -1    1    3    3    0  502 -0.29369687585E+03 -0.52860780697E+02 -0.29880266770E+03  0.42229746776E+03  0.50400001928E-02 0. -1.
</event>
<event>
 5   0  0.5108045E-03  0.1245102E+04  0.7818609E-02  0.9074270E-01
       -2   -1    0    0    0  501  0.00000000000E+00  0.00000000000E+00  0.12248932872E+04  0.12248932872E+04  0.25500000920E-02 0.  1.
        2   -1    0    0  501    0  0.00000000000E+00  0.00000000000E+00 -0.31641078116E+03  0.31641078117E+03  0.25500000920E-02 0. -1.
    10030    2    1    2    0    0  0.00000000000E+00  0.00000000000E+00  0.90848250603E+03  0.15413040684E+04  0.12451015089E+04 0.  0.
        3    1    3    3  502    0  0.33187853895E+03 -0.10882894615E+03 -0.18370362027E+03  0.39463164399E+03  0.10100000352E+00 0. -1.
       -3    1    3    3    0  502 -0.33187853895E+03  0.10882894615E+03  0.10921861263E+04  0.11466724244E+04  0.10100000352E+00 0.  1.
</event>
<event>
 5   0  0.5467554E-03  0.1194521E+04  0.7818609E-02  0.9117666E-01
        2   -1    0    0  501    0  0.00000000000E+00  0.00000000000E+00  0.16262150260E+04  0.16262150260E+04  0.25500000920E-02 0.  1.
       -2   -1    0    0    0  501  0.00000000000E+00  0.00000000000E+00 -0.21935605226E+03  0.21935605228E+03  0.25500000920E-02 0. -1.
    10030    2    1    2    0    0  0.00000000000E+00  0.00000000000E+00  0.14068589737E+04  0.18455710783E+04  0.11945210057E+04 0.  0.
        1    1    3    3  502    0  0.53480766895E+03 -0.17823940184E+03  0.10082807546E+04  0.11551703802E+04  0.50400001928E-02 0.  1.
       -1    1    3    3    0  502 -0.53480766895E+03  0.17823940184E+03  0.39857821912E+03  0.69040069809E+03  0.50400001928E-02 0. -1.
</event>
<event>
 5   0  0.5108045E-03  0.1214673E+04  0.7818609E-02  0.9100109E-01
       -2   -1    0    0    0  501  0.00000000000E+00  0.00000000000E+00  0.20434129578E+04  0.20434129578E+04  0.25500000920E-02 0. -1.
        2   -1    0    0  501    0  0.00000000000E+00  0.00000000000E+00 -0.18051054227E+03  0.18051054228E+03  0.25500000920E-02 0.  1.
    10030    2    1    2    0    0  0.00000000000E+00  0.00000000000E+00  0.18629024155E+04  0.22239235000E+04  0.12146729290E+04 0.  0.
        3    1    3    3  502    0 -0.51006798668E+03  0.21930118325E+03  0.48075942273E+03  0.73443310979E+03  0.10100000352E+00 0.  1.
       -3    1    3    3    0  502  0.51006798668E+03 -0.21930118325E+03  0.13821429928E+04  0.14894903902E+04  0.10100000352E+00 0. -1.
</event>
<event>
 5   0  0.2792518E-03  0.1192849E+04  0.7818609E-02  0.9119139E-01
       -1   -1    0    0    0  501  0.00000000000E+00  0.00000000000E+00  0.36285758604E+03  0.36285758607E+03  0.50400001928E-02 0. -1.
        1   -1    0    0  501    0  0.00000000000E+00  0.00000000000E+00 -0.98033623701E+03  0.98033623703E+03  0.50400001928E-02 0.  1.
    10030    2    1    2    0    0  0.00000000000E+00  0.00000000000E+00 -0.61747865098E+03  0.13431938231E+04  0.11928494297E+04 0.  0.
        2    1    3    3  502    0  0.17954149139E+03  0.71016488202E+02  0.32669337561E+03  0.37948260883E+03  0.25500000920E-02 0. -1.
       -2    1    3    3    0  502 -0.17954149139E+03 -0.71016488202E+02 -0.94417202658E+03  0.96371121427E+03  0.25500000920E-02 0.  1.
</event>
<event>
 5   0  0.5189537E-03  0.1016595E+04  0.7818609E-02  0.9290529E-01
       -2   -1    0    0    0  501  0.00000000000E+00  0.00000000000E+00  0.43547875298E+03  0.43547875299E+03  0.25500000920E-02 0.  1.
        2   -1    0    0  501    0  0.00000000000E+00  0.00000000000E+00 -0.59329249122E+03  0.59329249123E+03  0.25500000920E-02 0. -1.
    10030    2    1    2    0    0  0.00000000000E+00  0.00000000000E+00 -0.15781373824E+03  0.10287712442E+04  0.10165948539E+04 0.  0.
        4    1    3    3  502    0  0.75146752579E+02 -0.34680528830E+02  0.42861265982E+03  0.43653201321E+03  0.12699999809E+01 0.  1.
       -4    1    3    3    0  502 -0.75146752579E+02  0.34680528830E+02 -0.58642639806E+03  0.59223923101E+03  0.12699999809E+01 0. -1.
</event>
<event>
 5   0  0.2926844E-03  0.1206635E+04  0.7818609E-02  0.9107069E-01
       -1   -1    0    0    0  501  0.00000000000E+00  0.00000000000E+00  0.26127781521E+03  0.26127781526E+03  0.50400001928E-02 0.  1.
        1   -1    0    0  501    0  0.00000000000E+00  0.00000000000E+00 -0.13931221398E+04  0.13931221398E+04  0.50400001928E-02 0. -1.
    10030    2    1    2    0    0  0.00000000000E+00  0.00000000000E+00 -0.11318443246E+04  0.16543999550E+04  0.12066348396E+04 0.  0.
        5    1    3    3  502    0  0.38547242982E+03  0.45877282135E+03 -0.66197965117E+03  0.89291693025E+03  0.46999998093E+01 0.  1.
       -5    1    3    3    0  502 -0.38547242982E+03 -0.45877282135E+03 -0.46986467339E+03  0.76148302480E+03  0.46999998093E+01 0. -1.
</event>
<event>
 5   0  0.2792518E-03  0.1203092E+04  0.7818609E-02  0.9110154E-01
        1   -1    0    0  501    0  0.00000000000E+00  0.00000000000E+00  0.16200086629E+04  0.16200086629E+04  0.50400001928E-02 0.  1.
       -1   -1    0    0    0  501  0.00000000000E+00  0.00000000000E+00 -0.22336780886E+03  0.22336780892E+03  0.50400001928E-02 0. -1.
    10030    2    1    2    0    0  0.00000000000E+00  0.00000000000E+00  0.13966408540E+04  0.18433764718E+04  0.12030923247E+04 0.  0.
        2    1    3    3  502    0 -0.18316572152E+03 -0.40605380547E+03  0.78909499461E+02  0.45238930534E+03  0.25500000920E-02 0. -1.
       -2    1    3    3    0  502  0.18316572152E+03  0.40605380547E+03  0.13177313546E+04  0.13909871665E+04  0.25500000920E-02 0.  1.
</event>
<event>
 5   0  0.1922125E-03  0.1242958E+04  0.7818609E-02  0.9076065E-01
       -3   -1    0    0    0  501  0.00000000000E+00  0.00000000000E+00  0.92382053677E+03  0.92382054230E+03  0.10100000352E+00 0.  1.
        3   -1    0    0  501    0  0.00000000000E+00  0.00000000000E+00 -0.41808557768E+03  0.41808558988E+03  0.10100000352E+00 0. -1.
    10030    2    1    2    0    0  0.00000000000E+00  0.00000000000E+00  0.50573495910E+03  0.13419061322E+04  0.12429578507E+04 0.  0.
        3    1    3    3  502    0 -0.32631648351E+03  0.45773095931E+02 -0.31601316846E+03  0.45655443987E+03  0.10100000352E+00 0. -1.
       -3    1    3    3    0  502  0.32631648351E+03 -0.45773095931E+02  0.82174812756E+03  0.88535169230E+03  0.10100000352E+00 0.  1.
</event>
<event>
 5   0  0.2792518E-03  0.1195982E+04  0.7818609E-02  0.9116381E-01
       -1   -1    0    0    0  501  0.00000000000E+00  0.00000000000E+00  0.17856588867E+03  0.17856588874E+03  0.50400001928E-02 0.  1.
        1   -1    0    0  501    0  0.00000000000E+00  0.00000000000E+00 -0.20025851842E+04  0.20025851842E+04  0.50400001928E-02 0. -1.
    10030    2    1    2    0    0  0.00000000000E+00  0.00000000000E+00 -0.18240192955E+04  0.21811510729E+04  0.11959822794E+04 0.  0.
        2    1    3    3  502    0 -0.53767779765E+03 -0.15693604364E+03 -0.53003872616E+03  0.77114679998E+03  0.25500000920E-02 0.  1.
       -2    1    3    3    0  502  0.53767779765E+03  0.15693604364E+03 -0.12939805693E+04  0.14100042729E+04  0.25500000920E-02 0. -1.
</event>
<event>
 5   0  0.2930868E-03  0.1164116E+04  0.7818609E-02  0.9144859E-01
       -1   -1    0    0    0  501  0.00000000000E+00  0.00000000000E+00  0.18413471670E+03  0.18413471677E+03  0.50400001928E-02 0. -1.
        1   -1    0    0  501    0  0.00000000000E+00  0.00000000000E+00 -0.18399103846E+04  0.18399103847E+04  0.50400001928E-02 0.  1.
    10030    2    1    2    0    0  0.00000000000E+00  0.00000000000E+00 -0.16557756679E+04  0.20240451014E+04  0.11641157632E+04 0.  0.
        3    1    3    3  502    0  0.17126358895E+03  0.54644012590E+03 -0.10091076504E+04  0.11602699205E+04  0.10100000352E+00 0.  1.
       -3    1    3    3    0  502 -0.17126358895E+03 -0.54644012590E+03 -0.64666801758E+03  0.86377518097E+03  0.10100000352E+00 0. -1.
</event>
<event>
 5   0  0.2926844E-03  0.1206563E+04  0.7818609E-02  0.9107131E-01
       -1   -1    0    0    0  501  0.00000000000E+00  0.00000000000E+00  0.53043004949E+03  0.53043004951E+03  0.50400001928E-02 0. -1.
        1   -1    0    0  501    0  0.00000000000E+00  0.00000000000E+00 -0.68613917811E+03  0.68613917813E+03  0.50400001928E-02 0.  1.
    10030    2    1    2    0    0  0.00000000000E+00  0.00000000000E+00 -0.15570912862E+03  0.12165692276E+04  0.12065634475E+04 0.  0.
        5    1    3    3  502    0  0.38251922236E+03 -0.64004011407E+02 -0.54375706337E+03  0.66791564056E+03  0.46999998093E+01 0.  1.
       -5    1    3    3    0  502 -0.38251922236E+03  0.64004011407E+02  0.38804793475E+03  0.54865358708E+03  0.46999998093E+01 0. -1.
</event>
<event>
 5   0  0.5031575E-03  0.1216220E+04  0.7818609E-02  0.9098776E-01
       -2   -1    0    0    0  501  0.00000000000E+00  0.00000000000E+00  0.68176769032E+03  0.68176769033E+03  0.25500000920E-02 0. -1.
        2   -1    0    0  501    0  0.00000000000E+00  0.00000000000E+00 -0.54241053920E+03  0.54241053920E+03  0.25500000920E-02 0.  1.
    10030    2    1    2    0    0  0.00000000000E+00  0.00000000000E+00  0.13935715113E+03  0.12241782295E+04  0.12162203427E+04 0.  0.
        5    1    3    3  502    0 -0.56321350119E+03  0.22185155301E+03  0.11435193912E+02  0.60545884513E+03  0.46999998093E+01 0. -1.
       -5    1    3    3    0  502  0.56321350119E+03 -0.22185155301E+03  0.12792195721E+03  0.61871938440E+03  0.46999998093E+01 0.  1.
</event>
<event>
 5   0  0.2875848E-03  0.1193395E+04  0.7818609E-02  0.9118657E-01
        1   -1    0    0  501    0  0.00000000000E+00  0.00000000000E+00  0.63840937799E+03  0.63840937801E+03  0.50400001928E-02 0.  1.
       -1   -1    0    0    0  501  0.00000000000E+00  0.00000000000E+00 -0.55771113146E+03  0.55771113148E+03  0.50400001928E-02 0. -1.
    10030    2    1    2    0    0  0.00000000000E+00  0.00000000000E+00  0.80698246533E+02  0.11961205095E+04  0.11933951844E+04 0.  0.
        1    1    3    3  502    0  0.38893913850E+03  0.14306629629E+03  0.47063873555E+03  0.62709045441E+03  0.50400001928E-02 0.  1.
       -1    1    3    3    0  502 -0.38893913850E+03 -0.14306629629E+03 -0.38994048901E+03  0.56903005508E+03  0.50400001928E-02 0. -1.
</event>
<event>
 5   0  0.2926844E-03  0.1207084E+04  0.7818609E-02  0.9106679E-01
       -1   -1    0    0    0  501  0.00000000000E+00  0.00000000000E+00  0.49672602514E+03  0.49672602517E+03  0.50400001928E-02 0. -1.
        1   -1    0    0  501    0  0.00000000000E+00  0.00000000000E+00 -0.73332720461E+03  0.73332720463E+03  0.50400001928E-02 0.  1.
    10030    2    1    2    0    0  0.00000000000E+00  0.00000000000E+00 -0.23660117947E+03  0.12300532298E+04  0.12070836052E+04 0.  0.
        5    1    3    3  502    0  0.35862147312E+03 -0.35515409890E+03 -0.45550039311E+03  0.67988711789E+03  0.46999998093E+01 0.  1.
       -5    1    3    3    0  502 -0.35862147312E+03  0.35515409890E+03  0.21889921365E+03  0.55016611190E+03  0.46999998093E+01 0. -1.
</event>
<event>
 5   0  0.2938349E-03  0.1233275E+04  0.7818609E-02  0.9084219E-01
        1   -1    0    0  501    0  0.00000000000E+00  0.00000000000E+00  0.10009725184E+04  0.10009725185E+04  0.50400001928E-02 0.  1.
       -1   -1    0    0    0  501  0.00000000000E+00  0.00000000000E+00 -0.37987237523E+03  0.37987237527E+03  0.50400001928E-02 0. -1.
    10030    2    1    2    0    0  0.00000000000E+00  0.00000000000E+00  0.62110014321E+03  0.13808448937E+04  0.12332750028E+04 0.  0.
        4    1    3    3  502    0 -0.42981283820E+03 -0.23532612985E+03  0.72967092283E+03  0.87894182503E+03  0.12699999809E+01 0.  1.
       -4    1    3    3    0  502  0.42981283820E+03  0.23532612985E+03 -0.10857077962E+03  0.50190306869E+03  0.12699999809E+01 0. -1.
</event>
<event>
 5   0  0.2792518E-03  0.1153408E+04  0.7818609E-02  0.9154645E-01
        1   -1    0    0  501    0  0.00000000000E+00  0.00000000000E+00  0.28460538695E+03  0.28460538699E+03  0.50400001928E-02 0.  1.
       -1   -1    0    0    0  501  0.00000000000E+00  0.00000000000E+00 -0.11685927242E+04  0.11685927242E+04  0.50400001928E-02 0. -1.
    10030    2    1    2    0    0  0.00000000000E+00  0.00000000000E+00 -0.88398733726E+03  0.14531981112E+04  0.11534084871E+04 0.  0.
        2    1    3    3  502    0  0.24737774716E+03 -0.47850607176E+03 -0.18248769710E+03  0.56874033627E+03  0.25500000920E-02 0.  1.
       -2    1    3    3    0  502 -0.24737774716E+03  0.47850607176E+03 -0.70149964016E+03  0.88445777495E+03  0.25500000920E-02 0. -1.
</event>
<event>
 5   0  0.5003526E-03  0.1237438E+04  0.7818609E-02  0.9080704E-01
       -2   -1    0    0    0  501  0.00000000000E+00  0.00000000000E+00  0.42119404425E+03  0.42119404426E+03  0.25500000920E-02 0. -1.
        2   -1    0    0  501    0  0.00000000000E+00  0.00000000000E+00 -0.90887633924E+03  0.90887633924E+03  0.25500000920E-02 0.  1.
    10030    2    1    2    0    0  0.00000000000E+00  0.00000000000E+00 -0.48768229499E+03  0.13300703835E+04  0.12374381618E+04 0.  0.
        2    1    3    3  502    0 -0.94596409025E+02 -0.58696015940E+03 -0.59721407317E+02  0.59752602941E+03  0.25500000920E-02 0. -1.
       -2    1    3    3    0  502  0.94596409025E+02  0.58696015940E+03 -0.42796088767E+03  0.73254435409E+03  0.25500000920E-02 0.  1.
</event>
<event>
 5   0  0.5108045E-03  0.1099378E+04  0.7818609E-02  0.9205798E-01
       -2   -1    0    0    0  501  0.00000000000E+00  0.00000000000E+00  0.64566727435E+03  0.64566727436E+03  0.25500000920E-02 0.  1.
        2   -1    0    0  501    0  0.00000000000E+00  0.00000000000E+00 -0.46797792973E+03  0.46797792974E+03  0.25500000920E-02 0. -1.
    10030    2    1    2    0    0  0.00000000000E+00  0.00000000000E+00  0.17768934462E+03  0.11136452041E+04  0.10993780685E+04 0.  0.
        3    1    3    3  502    0 -0.36869205302E+03  0.39887752572E+03  0.17432528819E+03  0.57046159098E+03  0.10100000352E+00 0. -1.
       -3    1    3    3    0  502  0.36869205302E+03 -0.39887752572E+03  0.33640564290E+01  0.54318361311E+03  0.10100000352E+00 0.  1.
</event>
<event>
 5   0  0.5189537E-03  0.1208646E+04  0.7818609E-02  0.9105322E-01
       -2   -1    0    0    0  501  0.00000000000E+00  0.00000000000E+00  0.33900760378E+03  0.33900760379E+03  0.25500000920E-02 0.  1.
        2   -1    0    0  501    0  0.00000000000E+00  0.00000000000E+00 -0.10772813239E+04  0.10772813239E+04  0.25500000920E-02 0. -1.
    10030    2    1    2    0    0  0.00000000000E+00  0.00000000000E+00 -0.73827372015E+03  0.14162889277E+04  0.12086464499E+04 0.  0.
        4    1    3    3  502    0  0.45034742710E+03  0.39769170850E+03 -0.44537980355E+03  0.74788788091E+03  0.12699999809E+01 0. -1.
       -4    1    3    3    0  502 -0.45034742710E+03 -0.39769170850E+03 -0.29289391661E+03  0.66840104682E+03  0.12699999809E+01 0.  1.
</event>
<event>
 5   0  0.2926844E-03  0.1430693E+04  0.7818609E-02  0.8931896E-01
       -1   -1    0    0    0  501  0.00000000000E+00  0.00000000000E+00  0.47087524940E+03  0.47087524942E+03  0.50400001928E-02 0. -1.
        1   -1    0    0  501    0  0.00000000000E+00  0.00000000000E+00 -0.10867435464E+04  0.10867435464E+04  0.50400001928E-02 0.  1.
    10030    2    1    2    0    0  0.00000000000E+00  0.00000000000E+00 -0.61586829702E+03  0.15576187959E+04  0.14306930327E+04 0.  0.
        5    1    3    3  502    0  0.42735573252E+02 -0.40771400663E+03 -0.94614990958E+03  0.10311541019E+04  0.46999998093E+01 0.  1.
       -5    1    3    3    0  502 -0.42735573252E+02  0.40771400663E+03  0.33028161256E+03  0.52646469398E+03  0.46999998093E+01 0. -1.
</event>
<event>
 5   0  0.5467554E-03  0.1215346E+04  0.7818609E-02  0.9099529E-01
       -2   -1    0    0    0  501  0.00000000000E+00  0.00000000000E+00  0.38088455852E+03  0.38088455853E+03  0.25500000920E-02 0.  1.
        2   -1    0    0  501    0  0.00000000000E+00  0.00000000000E+00 -0.96949750470E+03  0.96949750471E+03  0.25500000920E-02 0. -1.
    10030    2    1    2    0    0  0.00000000000E+00  0.00000000000E+00 -0.58861294619E+03  0.13503820632E+04  0.12153462537E+04 0.  0.
        1    1    3    3  502    0 -0.58756917003E+03  0.49041062345E+02 -0.45769644206E+03  0.74641046916E+03  0.50400001928E-02 0. -1.
       -1    1    3    3    0  502  0.58756917003E+03 -0.49041062345E+02 -0.13091650413E+03  0.60397159407E+03  0.50400001928E-02 0.  1.
</event>
<event>
 5   0  0.5031575E-03  0.1310860E+04  0.7818609E-02  0.9020997E-01
        2   -1    0    0  501    0  0.00000000000E+00  0.00000000000E+00  0.63558220273E+03  0.63558220273E+03  0.25500000920E-02 0. -1.
       -2   -1    0    0    0  501  0.00000000000E+00  0.00000000000E+00 -0.67589753143E+03  0.67589753143E+03  0.25500000920E-02 0.  1.
    10030    2    1    2    0    0  0.00000000000E+00  0.00000000000E+00 -0.40315328701E+02  0.13114797342E+04  0.13108599343E+04 0.  0.
        5    1    3    3  502    0 -0.31926659993E+03  0.54461163754E+03  0.15608849177E+03  0.65032200089E+03  0.46999998093E+01 0.  1.
       -5    1    3    3    0  502  0.31926659993E+03 -0.54461163754E+03 -0.19640382047E+03  0.66115773328E+03  0.46999998093E+01 0. -1.
</event>
<event>
 5   0  0.2938349E-03  0.1193000E+04  0.7818609E-02  0.9119006E-01
        1   -1    0    0  501    0  0.00000000000E+00  0.00000000000E+00  0.56727575943E+03  0.56727575946E+03  0.50400001928E-02 0.  1.
       -1   -1    0    0    0  501  0.00000000000E+00  0.00000000000E+00 -0.62722932252E+03  0.62722932254E+03  0.50400001928E-02 0. -1.
    10030    2    1    2    0    0  0.00000000000E+00  0.00000000000E+00 -0.59953563088E+02  0.11945050820E+04  0.11929995646E+04 0.  0.
        4    1    3    3  502    0 -0.21374571923E+03  0.38728873332E+03  0.37069140243E+03  0.57714255101E+03  0.12699999809E+01 0.  1.
       -4    1    3    3    0  502  0.21374571923E+03 -0.38728873332E+03 -0.43064496552E+03  0.61736253099E+03  0.12699999809E+01 0. -1.
</event>
<event>
 5   0  0.2792518E-03  0.1166508E+04  0.7818609E-02  0.9142688E-01
        1   -1    0    0  501    0  0.00000000000E+00  0.00000000000E+00  0.51034501657E+03  0.51034501659E+03  0.50400001928E-02 0.  1.
       -1   -1    0    0    0  501  0.00000000000E+00  0.00000000000E+00 -0.66657858131E+03  0.66657858133E+03  0.50400001928E-02 0. -1.
    10030    2    1    2    0    0  0.00000000000E+00  0.00000000000E+00 -0.15623356474E+03  0.11769235979E+04  0.11665077062E+04 0.  0.
        2    1    3    3  502    0  0.26645468182E+03  0.38336907593E+03 -0.43083111883E+03  0.63528371520E+03  0.25500000920E-02 0. -1.
       -2    1    3    3    0  502 -0.26645468182E+03 -0.38336907593E+03  0.27459755409E+03  0.54163988272E+03  0.25500000920E-02 0.  1.
</event>
<event>
 5   0  0.2792518E-03  0.1210136E+04  0.7818609E-02  0.9104031E-01
       -1   -1    0    0    0  501  0.00000000000E+00  0.00000000000E+00  0.12503878778E+04  0.12503878778E+04  0.50400001928E-02 0. -1.
        1   -1    0    0  501    0  0.00000000000E+00  0.00000000000E+00 -0.29279479789E+03  0.29279479794E+03  0.50400001928E-02 0.  1.
    10030    2    1    2    0    0  0.00000000000E+00  0.00000000000E+00  0.95759307991E+03  0.15431826757E+04  0.12101356387E+04 0.  0.
        2    1    3    3  502    0  0.40186737824E+03  0.40602038406E+03  0.73306399036E+03  0.92937223756E+03  0.25500000920E-02 0.  1.
       -2    1    3    3    0  502 -0.40186737824E+03 -0.40602038406E+03  0.22452908954E+03  0.61381043819E+03  0.25500000920E-02 0. -1.
</event>
<event>
 5   0  0.2926844E-03  0.1272810E+04  0.7818609E-02  0.9051409E-01
        1   -1    0    0  501    0  0.00000000000E+00  0.00000000000E+00  0.17046157815E+04  0.17046157815E+04  0.50400001928E-02 0. -1.
       -1   -1    0    0    0  501  0.00000000000E+00  0.00000000000E+00 -0.23759699028E+03  0.23759699033E+03  0.50400001928E-02 0.  1.
    10030    2    1    2    0    0  0.00000000000E+00  0.00000000000E+00  0.14670187912E+04  0.19422127719E+04  0.12728104012E+04 0.  0.
        5    1    3    3  502    0  0.35530958525E+03 -0.22369166703E+03  0.37621513941E+01  0.41990368783E+03  0.46999998093E+01 0.  1.
       -5    1    3    3    0  502 -0.35530958525E+03  0.22369166703E+03  0.14632566398E+04  0.15223090840E+04  0.46999998093E+01 0. -1.
</event>
<event>
 5   0  0.2792518E-03  0.1202312E+04  0.7818609E-02  0.9110836E-01
       -1   -1    0    0    0  501  0.00000000000E+00  0.00000000000E+00  0.60531239545E+03  0.60531239547E+03  0.50400001928E-02 0. -1.
        1   -1    0    0  501    0  0.00000000000E+00  0.00000000000E+00 -0.59702766203E+03  0.59702766205E+03  0.50400001928E-02 0.  1.
    10030    2    1    2    0    0  0.00000000000E+00  0.00000000000E+00  0.82847334171E+01  0.12023400575E+04  0.12023115142E+04 0.  0.
        2    1    3    3  502    0  0.10284382482E+03 -0.53663625539E+01 -0.58814071574E+03  0.59708889762E+03  0.25500000920E-02 0.  1.
       -2    1    3    3    0  502 -0.10284382482E+03  0.53663625539E+01  0.59642544915E+03  0.60525115990E+03  0.25500000920E-02 0. -1.
</event>
<event>
 5   0  0.5003526E-03  0.1183719E+04  0.7818609E-02  0.9127228E-01
       -2   -1    0    0    0  501  0.00000000000E+00  0.00000000000E+00  0.96528320397E+03  0.96528320397E+03  0.25500000920E-02 0. -1.
        2   -1    0    0  501    0  0.00000000000E+00  0.00000000000E+00 -0.36289601888E+03  0.36289601889E+03  0.25500000920E-02 0.  1.
    10030    2    1    2    0    0  0.00000000000E+00  0.00000000000E+00  0.60238718509E+03  0.13281792229E+04  0.11837186014E+04 0.  0.
        2    1    3    3  502    0  0.47250012101E+01  0.33739379953E+03  0.84678707301E+03  0.91154004225E+03  0.25500000920E-02 0. -1.
       -2    1    3    3    0  502 -0.47250012101E+01 -0.33739379953E+03 -0.24439988792E+03  0.41663918061E+03  0.25500000920E-02 0.  1.
</event>
<event>
 5   0  0.5003526E-03  0.1233874E+04  0.7818609E-02  0.9083712E-01
        2   -1    0    0  501    0  0.00000000000E+00  0.00000000000E+00  0.44004523574E+03  0.44004523575E+03  0.25500000920E-02 0.  1.
       -2   -1    0    0    0  501  0.00000000000E+00  0.00000000000E+00 -0.86493706137E+03  0.86493706137E+03  0.25500000920E-02 0. -1.
    10030    2    1    2    0    0  0.00000000000E+00  0.00000000000E+00 -0.42489182563E+03  0.13049822971E+04  0.12338742774E+04 0.  0.
        2    1    3    3  502    0  0.31145158919E+03  0.51339419399E+03 -0.36215095489E+03  0.70123391601E+03  0.25500000920E-02 0. -1.
       -2    1    3    3    0  502 -0.31145158919E+03 -0.51339419399E+03 -0.62740870738E+02  0.60374838111E+03  0.25500000920E-02 0.  1.
</event>
<event>
 5   0  0.5108045E-03  0.1187792E+04  0.7818609E-02  0.9123610E-01
       -2   -1    0    0    0  501  0.00000000000E+00  0.00000000000E+00  0.35323094180E+03  0.35323094181E+03  0.25500000920E-02 0. -1.
        2   -1    0    0  501    0  0.00000000000E+00  0.00000000000E+00 -0.99853261101E+03  0.99853261102E+03  0.25500000920E-02 0.  1.
    10030    2    1    2    0    0  0.00000000000E+00  0.00000000000E+00 -0.64530166922E+03  0.13517635528E+04  0.11877922623E+04 0.  0.
        3    1    3    3  502    0 -0.41463140272E+03  0.41795061565E+03 -0.41161298377E+03  0.71835031555E+03  0.10100000352E+00 0. -1.
       -3    1    3    3    0  502  0.41463140272E+03 -0.41795061565E+03 -0.23368868545E+03  0.63341323727E+03  0.10100000352E+00 0.  1.
</event>
<event>
 5   0  0.2875848E-03  0.1206178E+04  0.7818609E-02  0.9107466E-01
       -1   -1    0    0    0  501  0.00000000000E+00  0.00000000000E+00  0.15345765291E+04  0.15345765291E+04  0.50400001928E-02 0.  1.
        1   -1    0    0  501    0  0.00000000000E+00  0.00000000000E+00 -0.23701415002E+03  0.23701415007E+03  0.50400001928E-02 0. -1.
    10030    2    1    2    0    0  0.00000000000E+00  0.00000000000E+00  0.12975623791E+04  0.17715906792E+04  0.12061780163E+04 0.  0.
        1    1    3    3  502    0 -0.40137280602E+03  0.39839034556E+02 -0.97576796418E+01  0.40346312151E+03  0.50400001928E-02 0. -1.
       -1    1    3    3    0  502  0.40137280602E+03 -0.39839034556E+02  0.13073200588E+04  0.13681275577E+04  0.50400001928E-02 0.  1.
</event>
<event>
 5   0  0.2792518E-03  0.1217786E+04  0.7818609E-02  0.9097430E-01
       -1   -1    0    0    0  501  0.00000000000E+00  0.00000000000E+00  0.29775556799E+03  0.29775556804E+03  0.50400001928E-02 0. -1.
        1   -1    0    0  501    0  0.00000000000E+00  0.00000000000E+00 -0.12451504085E+04  0.12451504085E+04  0.50400001928E-02 0.  1.
    10030    2    1    2    0    0  0.00000000000E+00  0.00000000000E+00 -0.94739484051E+03  0.15429059766E+04  0.12177856415E+04 0.  0.
        2    1    3    3  502    0 -0.68005913908E+02  0.55191058578E+03 -0.78794943808E+03  0.96441402727E+03  0.25500000920E-02 0.  1.
       -2    1    3    3    0  502  0.68005913908E+02 -0.55191058578E+03 -0.15944540244E+03  0.57849194928E+03  0.25500000920E-02 0. -1.
</event>
<event>
 5   0  0.2792518E-03  0.9105065E+03  0.7818609E-02  0.9412542E-01
        1   -1    0    0  501    0  0.00000000000E+00  0.00000000000E+00  0.10214140429E+04  0.10214140429E+04  0.50400001928E-02 0.  1.
       -1   -1    0    0    0  501  0.00000000000E+00  0.00000000000E+00 -0.20291038848E+03  0.20291038854E+03  0.50400001928E-02 0. -1.
    10030    2    1    2    0    0  0.00000000000E+00  0.00000000000E+00  0.81850365440E+03  0.12243244314E+04  0.91050649703E+03 0.  0.
        2    1    3    3  502    0 -0.27997011890E+03 -0.33070744974E+03  0.59704708125E+03  0.73770990371E+03  0.25500000920E-02 0. -1.
       -2    1    3    3    0  502  0.27997011890E+03  0.33070744974E+03  0.22145657315E+03  0.48661452772E+03  0.25500000920E-02 0.  1.
</event>
<event>
 5   0  0.5108045E-03  0.1204852E+04  0.7818609E-02  0.9108620E-01
       -2   -1    0    0    0  501  0.00000000000E+00  0.00000000000E+00  0.29205426019E+03  0.29205426020E+03  0.25500000920E-02 0. -1.
        2   -1    0    0  501    0  0.00000000000E+00  0.00000000000E+00 -0.12426357124E+04  0.12426357124E+04  0.25500000920E-02 0.  1.
    10030    2    1    2    0    0  0.00000000000E+00  0.00000000000E+00 -0.95058145225E+03  0.15346899726E+04  0.12048519472E+04 0.  0.
        3    1    3    3  502    0  0.15795972213E+03  0.24030169793E+03  0.19898450299E+03  0.34970133325E+03  0.10100000352E+00 0. -1.
       -3    1    3    3    0  502 -0.15795972213E+03 -0.24030169793E+03 -0.11495659552E+04  0.11849886394E+04  0.10100000352E+00 0.  1.
</event>
<event>
 5   0  0.5003526E-03  0.1198003E+04  0.7818609E-02  0.9114606E-01
       -2   -1    0    0    0  501  0.00000000000E+00  0.00000000000E+00  0.71802993024E+03  0.71802993024E+03  0.25500000920E-02 0. -1.
        2   -1    0    0  501    0  0.00000000000E+00  0.00000000000E+00 -0.49970483816E+03  0.49970483816E+03  0.25500000920E-02 0.  1.
    10030    2    1    2    0    0  0.00000000000E+00  0.00000000000E+00  0.21832509208E+03  0.12177347684E+04  0.11980033891E+04 0.  0.
        2    1    3    3  502    0  0.90403245126E+02 -0.62011559857E+02  0.70774601303E+03  0.71618614847E+03  0.25500000920E-02 0. -1.
       -2    1    3    3    0  502 -0.90403245126E+02  0.62011559857E+02 -0.48942092095E+03  0.50154861994E+03  0.25500000920E-02 0.  1.
</event>
<event>
 5   0  0.5003526E-03  0.1195067E+04  0.7818609E-02  0.9117185E-01
       -2   -1    0    0    0  501  0.00000000000E+00  0.00000000000E+00  0.22733282122E+03  0.22733282124E+03  0.25500000920E-02 0.  1.
        2   -1    0    0  501    0  0.00000000000E+00  0.00000000000E+00 -0.15705886036E+04  0.15705886036E+04  0.25500000920E-02 0. -1.
    10030    2    1    2    0    0  0.00000000000E+00  0.00000000000E+00 -0.13432557824E+04  0.17979214248E+04  0.11950670914E+04 0.  0.
        2    1    3    3  502    0  0.44648720187E+03 -0.88744270581E+02 -0.89305787901E+02  0.46389857809E+03  0.25500000920E-02 0.  1.
       -2    1    3    3    0  502 -0.44648720187E+03  0.88744270581E+02 -0.12539499945E+04  0.13340228468E+04  0.25500000920E-02 0. -1.
</event>
<event>
 5   0  0.2938349E-03  0.1459500E+04  0.7818609E-02  0.8911841E-01
        1   -1    0    0  501    0  0.00000000000E+00  0.00000000000E+00  0.91111130119E+03  0.91111130120E+03  0.50400001928E-02 0. -1.
       -1   -1    0    0    0  501  0.00000000000E+00  0.00000000000E+00 -0.58448936956E+03  0.58448936958E+03  0.50400001928E-02 0.  1.
    10030    2    1    2    0    0  0.00000000000E+00  0.00000000000E+00  0.32662193163E+03  0.14956006708E+04  0.14594997363E+04 0.  0.
        4    1    3    3  502    0 -0.70162977364E+03  0.20061962320E+03  0.16246304412E+03  0.74761515908E+03  0.12699999809E+01 0. -1.
       -4    1    3    3    0  502  0.70162977364E+03 -0.20061962320E+03  0.16415888751E+03  0.74798551171E+03  0.12699999809E+01 0.  1.
</event>
<event>
 5   0  0.1922125E-03  0.1189726E+04  0.7818609E-02  0.9121897E-01
       -3   -1    0    0    0  501  0.00000000000E+00  0.00000000000E+00  0.68115851981E+03  0.68115852730E+03  0.10100000352E+00 0.  1.
        3   -1    0    0  501    0  0.00000000000E+00  0.00000000000E+00 -0.51950051560E+03  0.51950052542E+03  0.10100000352E+00 0. -1.
    10030    2    1    2    0    0  0.00000000000E+00  0.00000000000E+00  0.16165800421E+03  0.12006590527E+04  0.11897263763E+04 0.  0.
        1    1    3    3  502    0 -0.39398168526E+03  0.26977152485E+03  0.43886221885E+03  0.64853549718E+03  0.50400001928E-02 0.  1.
       -1    1    3    3    0  502  0.39398168526E+03 -0.26977152485E+03 -0.27720421464E+03  0.55212355554E+03  0.50400001928E-02 0. -1.
</event>
<event>
 5   0  0.5467554E-03  0.1201403E+04  0.7818609E-02  0.9111630E-01
       -2   -1    0    0    0  501  0.00000000000E+00  0.00000000000E+00  0.34958851831E+03  0.34958851832E+03  0.25500000920E-02 0. -1.
        2   -1    0    0  501    0  0.00000000000E+00  0.00000000000E+00 -0.10321910378E+04  0.10321910378E+04  0.25500000920E-02 0.  1.
    10030    2    1    2    0    0  0.00000000000E+00  0.00000000000E+00 -0.68260251949E+03  0.13817795561E+04  0.12014027393E+04 0.  0.
        1    1    3    3  502    0 -0.43027301094E+03  0.41776520945E+03 -0.30180105356E+03  0.67137657847E+03  0.50400001928E-02 0.  1.
       -1    1    3    3    0  502  0.43027301094E+03 -0.41776520945E+03 -0.38080146594E+03  0.71040297765E+03  0.50400001928E-02 0. -1.
</event>
<event>
 5   0  0.5108045E-03  0.1202879E+04  0.7818609E-02  0.9110340E-01
       -2   -1    0    0    0  501  0.00000000000E+00  0.00000000000E+00  0.21636397008E+03  0.21636397010E+03  0.25500000920E-02 0.  1.
        2   -1    0    0  501    0  0.00000000000E+00  0.00000000000E+00 -0.16718565626E+04  0.16718565626E+04  0.25500000920E-02 0. -1.
    10030    2    1    2    0    0  0.00000000000E+00  0.00000000000E+00 -0.14554925925E+04  0.18882205327E+04  0.12028790850E+04 0.  0.
        3    1    3    3  502    0 -0.11819255660E+02  0.41414447425E+03 -0.14121183970E+04  0.14716432032E+04  0.10100000352E+00 0. -1.
       -3    1    3    3    0  502  0.11819255660E+02 -0.41414447425E+03 -0.43374195504E+02  0.41657732943E+03  0.10100000352E+00 0.  1.
</event>
<event>
 5   0  0.2792518E-03  0.1200736E+04  0.7818609E-02  0.9112213E-01
       -1   -1    0    0    0  501  0.00000000000E+00  0.00000000000E+00  0.24276004812E+03  0.24276004817E+03  0.50400001928E-02 0.  1.
        1   -1    0    0  501    0  0.00000000000E+00  0.00000000000E+00 -0.14847644554E+04  0.14847644554E+04  0.50400001928E-02 0. -1.
    10030    2    1    2    0    0  0.00000000000E+00  0.00000000000E+00 -0.12420044073E+04  0.17275245036E+04  0.12007355924E+04 0.  0.
        2    1    3    3  502    0 -0.19608094530E+03 -0.24045790831E+03 -0.13604740788E+04  0.13954058413E+04  0.25500000920E-02 0. -1.
       -2    1    3    3    0  502  0.19608094530E+03  0.24045790831E+03  0.11846967152E+03  0.33211866231E+03  0.25500000920E-02 0.  1.
</event>
<event>
 5   0  0.5108045E-03  0.9092102E+03  0.7818609E-02  0.9414141E-01
        2   -1    0    0  501    0  0.00000000000E+00  0.00000000000E+00  0.12526323112E+04  0.12526323112E+04  0.25500000920E-02 0. -1.
       -2   -1    0    0    0  501  0.00000000000E+00  0.00000000000E+00 -0.16498521846E+03  0.16498521848E+03  0.25500000920E-02 0.  1.
    10030    2    1    2    0    0  0.00000000000E+00  0.00000000000E+00  0.10876470927E+04  0.14176175296E+04  0.90921024087E+03 0.  0.
        3    1    3    3  502    0 -0.28572317524E+03  0.13362959445E+03  0.33396344496E+02  0.31719067989E+03  0.10100000352E+00 0.  1.
       -3    1    3    3    0  502  0.28572317524E+03 -0.13362959445E+03  0.10542507482E+04  0.11004268498E+04  0.10100000352E+00 0. -1.
</event>
<event>
 5   0  0.5003526E-03  0.1050791E+04  0.7818609E-02  0.9254528E-01
        2   -1    0    0  501    0  0.00000000000E+00  0.00000000000E+00  0.14043494934E+04  0.14043494934E+04  0.25500000920E-02 0.  1.
       -2   -1    0    0    0  501  0.00000000000E+00  0.00000000000E+00 -0.19656093401E+03  0.19656093403E+03  0.25500000920E-02 0. -1.
    10030    2    1    2    0    0  0.00000000000E+00  0.00000000000E+00  0.12077885594E+04  0.16009104274E+04  0.10507906511E+04 0.  0.
        2    1    3    3  502    0  0.29876483656E+03 -0.33748317449E+03  0.10152046848E+04  0.11107636439E+04  0.25500000920E-02 0.  1.
       -2    1    3    3    0  502 -0.29876483656E+03  0.33748317449E+03  0.19258387461E+03  0.49014678352E+03  0.25500000920E-02 0. -1.
</event>
<event>
 5   0  0.5031575E-03  0.1203632E+04  0.7818609E-02  0.9109683E-01
       -2   -1    0    0    0  501  0.00000000000E+00  0.00000000000E+00  0.26132922370E+03  0.26132922371E+03  0.25500000920E-02 0.  1.
        2   -1    0    0  501    0  0.00000000000E+00  0.00000000000E+00 -0.13859250568E+04  0.13859250568E+04  0.25500000920E-02 0. -1.
    10030    2    1    2    0    0  0.00000000000E+00  0.00000000000E+00 -0.11245958331E+04  0.16472542805E+04  0.12036323678E+04 0.  0.
        5    1    3    3  502    0 -0.33771547565E+03 -0.34316611479E+03 -0.68197202596E+02  0.48629998280E+03  0.46999998093E+01 0.  1.
       -5    1    3    3    0  502  0.33771547565E+03  0.34316611479E+03 -0.10563986305E+04  0.11609542977E+04  0.46999998093E+01 0. -1.
</event>
<event>
 5   0  0.2926844E-03  0.1205153E+04  0.7818609E-02  0.9108358E-01
        1   -1    0    0  501    0  0.00000000000E+00  0.00000000000E+00  0.10730828683E+04  0.10730828683E+04  0.50400001928E-02 0.  1.
       -1   -1    0    0    0  501  0.00000000000E+00  0.00000000000E+00 -0.33836937721E+03  0.33836937724E+03  0.50400001928E-02 0. -1.
    10030    2    1    2    0    0  0.00000000000E+00  0.00000000000E+00  0.73471349109E+03  0.14114522456E+04  0.12051529063E+04 0.  0.
        5    1    3    3  502    0 -0.87045112876E+01 -0.56705104203E+03  0.12890233068E+03  0.58160171392E+03  0.46999998093E+01 0. -1.
       -5    1    3    3    0  502  0.87045112876E+01  0.56705104203E+03  0.60581116041E+03  0.82985053164E+03  0.46999998093E+01 0.  1.
</event>
<event>
 5   0  0.2926844E-03  0.1116271E+04  0.7818609E-02  0.9189477E-01
       -1   -1    0    0    0  501  0.00000000000E+00  0.00000000000E+00  0.23177275778E+03  0.23177275784E+03  0.50400001928E-02 0. -1.
        1   -1    0    0  501    0  0.00000000000E+00  0.00000000000E+00 -0.13440545837E+04  0.13440545837E+04  0.50400001928E-02 0.  1.
    10030    2    1    2    0    0  0.00000000000E+00  0.00000000000E+00 -0.11122818259E+04  0.15758273415E+04  0.11162710021E+04 0.  0.
        5    1    3    3  502    0 -0.44472802423E+03  0.70721121160E+01 -0.80210959984E+02  0.45198331651E+03  0.46999998093E+01 0. -1.
       -5    1    3    3    0  502  0.44472802423E+03 -0.70721121160E+01 -0.10320708659E+04  0.11238440250E+04  0.46999998093E+01 0.  1.
</event>
<event>
 5   0  0.5467554E-03  0.1196611E+04  0.7818609E-02  0.9115828E-01
        2   -1    0    0  501    0  0.00000000000E+00  0.00000000000E+00  0.10479615584E+04  0.10479615584E+04  0.25500000920E-02 0. -1.
       -2   -1    0    0    0  501  0.00000000000E+00  0.00000000000E+00 -0.34158634476E+03  0.34158634477E+03  0.25500000920E-02 0.  1.
    10030    2    1    2    0    0  0.00000000000E+00  0.00000000000E+00  0.70637521363E+03  0.13895479032E+04  0.11966108109E+04 0.  0.
        1    1    3    3  502    0 -0.53233479510E+03  0.26848932495E+03  0.41127852036E+03  0.72430440633E+03  0.50400001928E-02 0.  1.
       -1    1    3    3    0  502  0.53233479510E+03 -0.26848932495E+03  0.29509669327E+03  0.66524349684E+03  0.50400001928E-02 0. -1.
</event>
<event>
 5   0  0.2938349E-03  0.1189831E+04  0.7818609E-02  0.9121804E-01
       -1   -1    0    0    0  501  0.00000000000E+00  0.00000000000E+00  0.71243324606E+03  0.71243324608E+03  0.50400001928E-02 0. -1.
        1   -1    0    0  501    0  0.00000000000E+00  0.00000000000E+00 -0.49678266006E+03  0.49678266009E+03  0.50400001928E-02 0.  1.
    10030    2    1    2    0    0  0.00000000000E+00  0.00000000000E+00  0.21565058600E+03  0.12092159062E+04  0.11898310521E+04 0.  0.
        4    1    3    3  502    0 -0.47807043375E+03  0.26635752669E+03  0.34491820105E+03  0.64689091041E+03  0.12699999809E+01 0. -1.
       -4    1    3    3    0  502  0.47807043375E+03 -0.26635752669E+03 -0.12926761504E+03  0.56232499576E+03  0.12699999809E+01 0.  1.
</event>
<event>
 5   0  0.5003526E-03  0.1220874E+04  0.7818609E-02  0.9094779E-01
        2   -1    0    0  501    0  0.00000000000E+00  0.00000000000E+00  0.10610653159E+04  0.10610653159E+04  0.25500000920E-02 0.  1.
       -2   -1    0    0    0  501  0.00000000000E+00  0.00000000000E+00 -0.35118818771E+03  0.35118818772E+03  0.25500000920E-02 0. -1.
    10030    2    1    2    0    0  0.00000000000E+00  0.00000000000E+00  0.70987712817E+03  0.14122535036E+04  0.12208744495E+04 0.  0.
        2    1    3    3  502    0  0.10723065104E+03  0.19632164187E+03 -0.30206712394E+03  0.37587916537E+03  0.25500000920E-02 0. -1.
       -2    1    3    3    0  502 -0.10723065104E+03 -0.19632164187E+03  0.10119442521E+04  0.10363743382E+04  0.25500000920E-02 0.  1.
</event>
<event>
 5   0  0.2875848E-03  0.1161145E+04  0.7818609E-02  0.9147563E-01
        1   -1    0    0  501    0  0.00000000000E+00  0.00000000000E+00  0.82401311812E+03  0.82401311814E+03  0.50400001928E-02 0.  1.
       -1   -1    0    0    0  501  0.00000000000E+00  0.00000000000E+00 -0.40905251093E+03  0.40905251096E+03  0.50400001928E-02 0. -1.
    10030    2    1    2    0    0  0.00000000000E+00  0.00000000000E+00  0.41496060720E+03  0.12330656291E+04  0.11611453570E+04 0.  0.
        1    1    3    3  502    0 -0.57145825250E+03  0.60956503554E+02  0.12001103486E+03  0.58709699215E+03  0.50400001928E-02 0. -1.
       -1    1    3    3    0  502  0.57145825250E+03 -0.60956503554E+02  0.29494957234E+03  0.64596863695E+03  0.50400001928E-02 0.  1.
</event>
<event>
 5   0  0.5189537E-03  0.1207775E+04  0.7818609E-02  0.9106078E-01
       -2   -1    0    0    0  501  0.00000000000E+00  0.00000000000E+00  0.30012075167E+03  0.30012075168E+03  0.25500000920E-02 0.  1.
        2   -1    0    0  501    0  0.00000000000E+00  0.00000000000E+00 -0.12151114272E+04  0.12151114272E+04  0.25500000920E-02 0. -1.
    10030    2    1    2    0    0  0.00000000000E+00  0.00000000000E+00 -0.91499067549E+03  0.15152321788E+04  0.12077750699E+04 0.  0.
        4    1    3    3  502    0  0.12900335602E+03 -0.50602242239E+03 -0.77012504029E+02  0.52785707962E+03  0.12699999809E+01 0.  1.
       -4    1    3    3    0  502 -0.12900335602E+03  0.50602242239E+03 -0.83797817146E+03  0.98737509923E+03  0.12699999809E+01 0. -1.
</event>
<event>
 5   0  0.2938349E-03  0.1073028E+04  0.7818609E-02  0.9231887E-01
        1   -1    0    0  501    0  0.00000000000E+00  0.00000000000E+00  0.41713728558E+03  0.41713728561E+03  0.50400001928E-02 0. -1.
       -1   -1    0    0    0  501  0.00000000000E+00  0.00000000000E+00 -0.69005350692E+03  0.69005350694E+03  0.50400001928E-02 0.  1.
    10030    2    1    2    0    0  0.00000000000E+00  0.00000000000E+00 -0.27291622134E+03  0.11071907925E+04  0.10730275799E+04 0.  0.
        4    1    3    3  502    0 -0.34874834681E+03 -0.25477499794E+03  0.19196760040E+03  0.47264032994E+03  0.12699999809E+01 0. -1.
       -4    1    3    3    0  502  0.34874834681E+03  0.25477499794E+03 -0.46488382175E+03  0.63455046261E+03  0.12699999809E+01 0.  1.
</event>
<event>
 5   0  0.1922125E-03  0.1196202E+04  0.7818609E-02  0.9116188E-01
       -4   -1    0    0    0  501  0.00000000000E+00  0.00000000000E+00  0.56442803199E+03  0.56442946078E+03  0.12699999809E+01 0. -1.
        4   -1    0    0  501    0  0.00000000000E+00  0.00000000000E+00 -0.63377985873E+03  0.63378113117E+03  0.12699999809E+01 0.  1.
    10030    2    1    2    0    0  0.00000000000E+00  0.00000000000E+00 -0.69351826735E+02  0.11982105920E+04  0.11962018838E+04 0.  0.
        1    1    3    3  502    0 -0.56154800022E+03  0.16165739796E+03  0.93035109047E+02  0.59171344620E+03  0.50400001928E-02 0. -1.
       -1    1    3    3    0  502  0.56154800022E+03 -0.16165739796E+03 -0.16238693578E+03  0.60649714576E+03  0.50400001928E-02 0.  1.
</event>
<event>
 5   0  0.2938349E-03  0.1215921E+04  0.7818609E-02  0.9099034E-01
       -1   -1    0    0    0  501  0.00000000000E+00  0.00000000000E+00  0.46553331552E+03  0.46553331555E+03  0.50400001928E-02 0. -1.
        1   -1    0    0  501    0  0.00000000000E+00  0.00000000000E+00 -0.79396211985E+03  0.79396211986E+03  0.50400001928E-02 0.  1.
    10030    2    1    2    0    0  0.00000000000E+00  0.00000000000E+00 -0.32842880433E+03  0.12594954354E+04  0.12159207508E+04 0.  0.
        4    1    3    3  502    0 -0.22264426539E+03 -0.50311900288E+03 -0.43216398531E+03  0.69961884128E+03  0.12699999809E+01 0.  1.
       -4    1    3    3    0  502  0.22264426539E+03  0.50311900288E+03  0.10373518099E+03  0.55987659413E+03  0.12699999809E+01 0. -1.
</event>
<event>
 5   0  0.2926844E-03  0.1245421E+04  0.7818609E-02  0.9074003E-01
        1   -1    0    0  501    0  0.00000000000E+00  0.00000000000E+00  0.14324399789E+04  0.14324399789E+04  0.50400001928E-02 0.  1.
       -1   -1    0    0    0  501  0.00000000000E+00  0.00000000000E+00 -0.27070460519E+03  0.27070460524E+03  0.50400001928E-02 0. -1.
    10030    2    1    2    0    0  0.00000000000E+00  0.00000000000E+00  0.11617353737E+04  0.17031445842E+04  0.12454205699E+04 0.  0.
        5    1    3    3  502    0  0.19149504679E+03  0.35984707685E+03  0.12246015937E+04  0.12906709204E+04  0.46999998093E+01 0.  1.
       -5    1    3    3    0  502 -0.19149504679E+03 -0.35984707685E+03 -0.62866219935E+02  0.41247366372E+03  0.46999998093E+01 0. -1.
</event>
<event>
 5   0  0.5467554E-03  0.1188403E+04  0.7818609E-02  0.9123069E-01
        2   -1    0    0  501    0  0.00000000000E+00  0.00000000000E+00  0.58003640318E+03  0.58003640318E+03  0.25500000920E-02 0.  1.
       -2   -1    0    0    0  501  0.00000000000E+00  0.00000000000E+00 -0.60871205670E+03  0.60871205670E+03  0.25500000920E-02 0. -1.
    10030    2    1    2    0    0  0.00000000000E+00  0.00000000000E+00 -0.28675653520E+02  0.11887484599E+04  0.11884025445E+04 0.  0.
        1    1    3    3  502    0  0.45967599132E+03 -0.35694505943E+03 -0.13421994529E+03  0.59726609328E+03  0.50400001928E-02 0. -1.
       -1    1    3    3    0  502 -0.45967599132E+03  0.35694505943E+03  0.10554429177E+03  0.59148236660E+03  0.50400001928E-02 0.  1.
</event>
<event>
 5   0  0.2926844E-03  0.1217462E+04  0.7818609E-02  0.9097708E-01
        1   -1    0    0  501    0  0.00000000000E+00  0.00000000000E+00  0.90775657756E+03  0.90775657757E+03  0.50400001928E-02 0.  1.
       -1   -1    0    0    0  501  0.00000000000E+00  0.00000000000E+00 -0.40820807409E+03  0.40820807412E+03  0.50400001928E-02 0. -1.
    10030    2    1    2    0    0  0.00000000000E+00  0.00000000000E+00  0.49954850347E+03  0.13159646517E+04  0.12174622200E+04 0.  0.
        5    1    3    3  502    0 -0.49330051448E+03  0.17847888128E+03 -0.83964500450E+02  0.53129298507E+03  0.46999998093E+01 0. -1.
       -5    1    3    3    0  502  0.49330051448E+03 -0.17847888128E+03  0.58351300392E+03  0.78467166662E+03  0.46999998093E+01 0.  1.
</event>
<event>
 5   0  0.5467554E-03  0.1183210E+04  0.7818609E-02  0.9127681E-01
       -2   -1    0    0    0  501  0.00000000000E+00  0.00000000000E+00  0.58585841521E+03  0.58585841521E+03  0.25500000920E-02 0. -1.
        2   -1    0    0  501    0  0.00000000000E+00  0.00000000000E+00 -0.59740825276E+03  0.59740825277E+03  0.25500000920E-02 0.  1.
    10030    2    1    2    0    0  0.00000000000E+00  0.00000000000E+00 -0.11549837558E+02  0.11832666680E+04  0.11832102978E+04 0.  0.
        1    1    3    3  502    0  0.99165261151E+02 -0.43513640473E+03 -0.39414791392E+03  0.59542423348E+03  0.50400001928E-02 0.  1.
       -1    1    3    3    0  502 -0.99165261151E+02  0.43513640473E+03  0.38259807637E+03  0.58784243450E+03  0.50400001928E-02 0. -1.
</event>
<event>
 5   0  0.2930868E-03  0.1203158E+04  0.7818609E-02  0.9110097E-01
       -1   -1    0    0    0  501  0.00000000000E+00  0.00000000000E+00  0.97491311665E+03  0.97491311666E+03  0.50400001928E-02 0. -1.
        1   -1    0    0  501    0  0.00000000000E+00  0.00000000000E+00 -0.37120949130E+03  0.37120949134E+03  0.50400001928E-02 0.  1.
    10030    2    1    2    0    0  0.00000000000E+00  0.00000000000E+00  0.60370362535E+03  0.13461226080E+04  0.12031575161E+04 0.  0.
        3    1    3    3  502    0 -0.22262556195E+03 -0.23184621987E+03 -0.26708158327E+03  0.41790835458E+03  0.10100000352E+00 0.  1.
       -3    1    3    3    0  502  0.22262556195E+03  0.23184621987E+03  0.87078520862E+03  0.92821425342E+03  0.10100000352E+00 0. -1.
</event>
<event>
 5   0  0.2926844E-03  0.1189863E+04  0.7818609E-02  0.9121776E-01
        1   -1    0    0  501    0  0.00000000000E+00  0.00000000000E+00  0.70557778163E+03  0.70557778165E+03  0.50400001928E-02 0.  1.
       -1   -1    0    0    0  501  0.00000000000E+00  0.00000000000E+00 -0.50163649842E+03  0.50163649845E+03  0.50400001928E-02 0. -1.
    10030    2    1    2    0    0  0.00000000000E+00  0.00000000000E+00  0.20394128321E+03  0.12072142801E+04  0.11898631312E+04 0.  0.
        5    1    3    3  502    0  0.49783357800E+03 -0.10777836931E+03 -0.20986624506E+03  0.55092683642E+03  0.46999998093E+01 0. -1.
       -5    1    3    3    0  502 -0.49783357800E+03  0.10777836931E+03  0.41380752827E+03  0.65628744367E+03  0.46999998093E+01 0.  1.
</event>
<event>
 5   0  0.5189537E-03  0.1183369E+04  0.7818609E-02  0.9127540E-01
        2   -1    0    0  501    0  0.00000000000E+00  0.00000000000E+00  0.10011549197E+04  0.10011549197E+04  0.25500000920E-02 0. -1.
       -2   -1    0    0    0  501  0.00000000000E+00  0.00000000000E+00 -0.34968645699E+03  0.34968645700E+03  0.25500000920E-02 0.  1.
    10030    2    1    2    0    0  0.00000000000E+00  0.00000000000E+00  0.65146846274E+03  0.13508413767E+04  0.11833686100E+04 0.  0.
        4    1    3    3  502    0 -0.51431801289E+03  0.60720569188E+02  0.65237453735E+03  0.83294907155E+03  0.12699999809E+01 0. -1.
       -4    1    3    3    0  502  0.51431801289E+03 -0.60720569188E+02 -0.90607460506E+00  0.51789230520E+03  0.12699999809E+01 0.  1.
</event>
<event>
 5   0  0.5003526E-03  0.1189079E+04  0.7818609E-02  0.9122470E-01
        2   -1    0    0  501    0  0.00000000000E+00  0.00000000000E+00  0.95914249250E+03  0.95914249250E+03  0.25500000920E-02 0. -1.
       -2   -1    0    0    0  501  0.00000000000E+00  0.00000000000E+00 -0.36853474898E+03  0.36853474899E+03  0.25500000920E-02 0.  1.
    10030    2    1    2    0    0  0.00000000000E+00  0.00000000000E+00  0.59060774352E+03  0.13276772415E+04  0.11890792029E+04 0.  0.
        2    1    3    3  502    0 -0.30582295836E+03  0.88215539836E+02  0.85599854999E+03  0.91325964595E+03  0.25500000920E-02 0. -1.
       -2    1    3    3    0  502  0.30582295836E+03 -0.88215539836E+02 -0.26539080646E+03  0.41441759554E+03  0.25500000920E-02 0.  1.
</event>
<event>
 5   0  0.2938349E-03  0.1150103E+04  0.7818609E-02  0.9157688E-01
        1   -1    0    0  501    0  0.00000000000E+00  0.00000000000E+00  0.45725968963E+03  0.45725968966E+03  0.50400001928E-02 0. -1.
       -1   -1    0    0    0  501  0.00000000000E+00  0.00000000000E+00 -0.72318751576E+03  0.72318751577E+03  0.50400001928E-02 0.  1.
    10030    2    1    2    0    0  0.00000000000E+00  0.00000000000E+00 -0.26592782613E+03  0.11804472054E+04  0.11501034719E+04 0.  0.
        4    1    3    3  502    0  0.27174259308E+03  0.72821598498E+02 -0.64772962550E+03  0.70618857450E+03  0.12699999809E+01 0.  1.
       -4    1    3    3    0  502 -0.27174259308E+03 -0.72821598498E+02  0.38180179937E+03  0.47425863093E+03  0.12699999809E+01 0. -1.
</event>
<event>
 5   0  0.5031575E-03  0.1206781E+04  0.7818609E-02  0.9106941E-01
        2   -1    0    0  501    0  0.00000000000E+00  0.00000000000E+00  0.15475946713E+04  0.15475946713E+04  0.25500000920E-02 0.  1.
       -2   -1    0    0    0  501  0.00000000000E+00  0.00000000000E+00 -0.23525559536E+03  0.23525559537E+03  0.25500000920E-02 0. -1.
    10030    2    1    2    0    0  0.00000000000E+00  0.00000000000E+00  0.13123390760E+04  0.17828502667E+04  0.12067813485E+04 0.  0.
        5    1    3    3  502    0 -0.27825392552E+03  0.52491417991E+03  0.50053353848E+03  0.77686295862E+03  0.46999998093E+01 0.  1.
       -5    1    3    3    0  502  0.27825392552E+03 -0.52491417991E+03  0.81180553751E+03  0.10059873081E+04  0.46999998093E+01 0. -1.
</event>
<event>
 5   0  0.2875848E-03  0.1202314E+04  0.7818609E-02  0.9110833E-01
        1   -1    0    0  501    0  0.00000000000E+00  0.00000000000E+00  0.67843199759E+03  0.67843199761E+03  0.50400001928E-02 0. -1.
       -1   -1    0    0    0  501  0.00000000000E+00  0.00000000000E+00 -0.53268389330E+03  0.53268389332E+03  0.50400001928E-02 0.  1.
    10030    2    1    2    0    0  0.00000000000E+00  0.00000000000E+00  0.14574810429E+03  0.12111158909E+04  0.12023140985E+04 0.  0.
        1    1    3    3  502    0 -0.12710092333E+03 -0.38902040883E+03 -0.37068835849E+03  0.55217875941E+03  0.50400001928E-02 0.  1.
       -1    1    3    3    0  502  0.12710092333E+03  0.38902040883E+03  0.51643646278E+03  0.65893713153E+03  0.50400001928E-02 0. -1.
</event>
<event>
 5   0  0.5189537E-03  0.1204978E+04  0.7818609E-02  0.9108511E-01
       -2   -1    0    0    0  501  0.00000000000E+00  0.00000000000E+00  0.83638224086E+03  0.83638224087E+03  0.25500000920E-02 0. -1.
        2   -1    0    0  501    0  0.00000000000E+00  0.00000000000E+00 -0.43400359148E+03  0.43400359149E+03  0.25500000920E-02 0.  1.
    10030    2    1    2    0    0  0.00000000000E+00  0.00000000000E+00  0.40237864939E+03  0.12703858324E+04  0.12049778361E+04 0.  0.
        4    1    3    3  502    0 -0.46089929360E+03  0.33018436998E+03 -0.13691262069E+02  0.56713220731E+03  0.12699999809E+01 0.  1.
       -4    1    3    3    0  502  0.46089929360E+03 -0.33018436998E+03  0.41606991145E+03  0.70325362504E+03  0.12699999809E+01 0. -1.
</event>
<event>
 5   0  0.2792518E-03  0.1203617E+04  0.7818609E-02  0.9109697E-01
       -1   -1    0    0    0  501  0.00000000000E+00  0.00000000000E+00  0.13287950600E+04  0.13287950600E+04  0.50400001928E-02 0.  1.
        1   -1    0    0  501    0  0.00000000000E+00  0.00000000000E+00 -0.27255773504E+03  0.27255773509E+03  0.50400001928E-02 0. -1.
    10030    2    1    2    0    0  0.00000000000E+00  0.00000000000E+00  0.10562373250E+04  0.16013527951E+04  0.12036168359E+04 0.  0.
        2    1    3    3  502    0  0.15123923715E+03  0.41893620168E+03 -0.10331863946E+02  0.44551946686E+03  0.25500000920E-02 0.  1.
       -2    1    3    3    0  502 -0.15123923715E+03 -0.41893620168E+03  0.10665691889E+04  0.11558333282E+04  0.25500000920E-02 0. -1.
</event>
<event>
 5   0  0.2792518E-03  0.1210663E+04  0.7818609E-02  0.9103574E-01
        1   -1    0    0  501    0  0.00000000000E+00  0.00000000000E+00  0.13392177876E+04  0.13392177876E+04  0.50400001928E-02 0.  1.
       -1   -1    0    0    0  501  0.00000000000E+00  0.00000000000E+00 -0.27361227568E+03  0.27361227573E+03  0.50400001928E-02 0. -1.
    10030    2    1    2    0    0  0.00000000000E+00  0.00000000000E+00  0.10656055120E+04  0.16128300634E+04  0.12106633331E+04 0.  0.
        2    1    3    3  502    0  0.15241595449E+03  0.39273695009E+03  0.11118882437E+04  0.11890199332E+04  0.25500000920E-02 0.  1.
       -2    1    3    3    0  502 -0.15241595449E+03 -0.39273695009E+03 -0.46282731735E+02  0.42381013015E+03  0.25500000920E-02 0. -1.
</event>
<event>
 5   0  0.5003526E-03  0.1199032E+04  0.7818609E-02  0.9113704E-01
       -2   -1    0    0    0  501  0.00000000000E+00  0.00000000000E+00  0.29703516163E+03  0.29703516164E+03  0.25500000920E-02 0.  1.
        2   -1    0    0  501    0  0.00000000000E+00  0.00000000000E+00 -0.12100234737E+04  0.12100234737E+04  0.25500000920E-02 0. -1.
    10030    2    1    2    0    0  0.00000000000E+00  0.00000000000E+00 -0.91298831206E+03  0.15070586353E+04  0.11990321398E+04 0.  0.
        2    1    3    3  502    0  0.39065679447E+03 -0.27788845422E+03 -0.40381612364E+01  0.47942781605E+03  0.25500000920E-02 0.  1.
       -2    1    3    3    0  502 -0.39065679447E+03  0.27788845422E+03 -0.90895015082E+03  0.10276308193E+04  0.25500000920E-02 0. -1.
</event>
<event>
 5   0  0.2926844E-03  0.1231820E+04  0.7818609E-02  0.9085451E-01
        1   -1    0    0  501    0  0.00000000000E+00  0.00000000000E+00  0.45330170838E+03  0.45330170841E+03  0.50400001928E-02 0.  1.
       -1   -1    0    0    0  501  0.00000000000E+00  0.00000000000E+00 -0.83684929042E+03  0.83684929044E+03  0.50400001928E-02 0. -1.
    10030    2    1    2    0    0  0.00000000000E+00  0.00000000000E+00 -0.38354758205E+03  0.12901509988E+04  0.12318201379E+04 0.  0.
        5    1    3    3  502    0  0.18855475585E+03  0.52126616827E+02  0.41987793781E+03  0.46323822467E+03  0.46999998093E+01 0.  1.
       -5    1    3    3    0  502 -0.18855475585E+03 -0.52126616827E+02 -0.80342551986E+03  0.82691277418E+03  0.46999998093E+01 0. -1.
</event>
<event>
 5   0  0.2875848E-03  0.1242081E+04  0.7818609E-02  0.9076800E-01
       -1   -1    0    0    0  501  0.00000000000E+00  0.00000000000E+00  0.28847082955E+03  0.28847082959E+03  0.50400001928E-02 0.  1.
        1   -1    0    0  501    0  0.00000000000E+00  0.00000000000E+00 -0.13370206366E+04  0.13370206366E+04  0.50400001928E-02 0. -1.
    10030    2    1    2    0    0  0.00000000000E+00  0.00000000000E+00 -0.10485498071E+04  0.16254914662E+04  0.12420812408E+04 0.  0.
        1    1    3    3  502    0  0.34174919535E+02 -0.52261265283E+03 -0.87481175057E+02  0.53098480773E+03  0.50400001928E-02 0.  1.
       -1    1    3    3    0  502 -0.34174919535E+02  0.52261265283E+03 -0.96106863202E+03  0.10945066585E+04  0.50400001928E-02 0. -1.
</event>
<event>
 5   0  0.2926844E-03  0.1187956E+04  0.7818609E-02  0.9123465E-01
        1   -1    0    0  501    0  0.00000000000E+00  0.00000000000E+00  0.44732786526E+03  0.44732786529E+03  0.50400001928E-02 0. -1.
       -1   -1    0    0    0  501  0.00000000000E+00  0.00000000000E+00 -0.78870515458E+03  0.78870515460E+03  0.50400001928E-02 0.  1.
    10030    2    1    2    0    0  0.00000000000E+00  0.00000000000E+00 -0.34137728932E+03  0.12360330199E+04  0.11879558799E+04 0.  0.
        5    1    3    3  502    0  0.25934925988E+03 -0.41101860490E+03  0.18458193203E+03  0.51989509692E+03  0.46999998093E+01 0. -1.
       -5    1    3    3    0  502 -0.25934925988E+03  0.41101860490E+03 -0.52595922135E+03  0.71613792296E+03  0.46999998093E+01 0.  1.
</event>
<event>
 5   0  0.5003526E-03  0.1143896E+04  0.7818609E-02  0.9163433E-01
        2   -1    0    0  501    0  0.00000000000E+00  0.00000000000E+00  0.48625170116E+03  0.48625170116E+03  0.25500000920E-02 0. -1.
       -2   -1    0    0    0  501  0.00000000000E+00  0.00000000000E+00 -0.67274717245E+03  0.67274717246E+03  0.25500000920E-02 0.  1.
    10030    2    1    2    0    0  0.00000000000E+00  0.00000000000E+00 -0.18649547130E+03  0.11589988736E+04  0.11438958992E+04 0.  0.
        2    1    3    3  502    0 -0.38005729127E+03  0.26858820272E+03 -0.43011497272E+03  0.63370502369E+03  0.25500000920E-02 0.  1.
       -2    1    3    3    0  502  0.38005729127E+03 -0.26858820272E+03  0.24361950143E+03  0.52529384992E+03  0.25500000920E-02 0. -1.
</event>
<event>
 5   0  0.5003526E-03  0.1182995E+04  0.7818609E-02  0.9127873E-01
        2   -1    0    0  501    0  0.00000000000E+00  0.00000000000E+00  0.12612327996E+04  0.12612327996E+04  0.25500000920E-02 0.  1.
       -2   -1    0    0    0  501  0.00000000000E+00  0.00000000000E+00 -0.27740251326E+03  0.27740251327E+03  0.25500000920E-02 0. -1.
    10030    2    1    2    0    0  0.00000000000E+00  0.00000000000E+00  0.98383028633E+03  0.15386353129E+04  0.11829947564E+04 0.  0.
        2    1    3    3  502    0 -0.29531708237E+03 -0.41320770698E+03  0.88623557894E+03  0.10214530286E+04  0.25500000920E-02 0.  1.
       -2    1    3    3    0  502  0.29531708237E+03  0.41320770698E+03  0.97594707390E+02  0.51718228427E+03  0.25500000920E-02 0. -1.
</event>
<event>
 5   0  0.2875848E-03  0.1200340E+04  0.7818609E-02  0.9112559E-01
       -1   -1    0    0    0  501  0.00000000000E+00  0.00000000000E+00  0.61216631732E+03  0.61216631734E+03  0.50400001928E-02 0. -1.
        1   -1    0    0  501    0  0.00000000000E+00  0.00000000000E+00 -0.58840898475E+03  0.58840898477E+03  0.50400001928E-02 0.  1.
    10030    2    1    2    0    0  0.00000000000E+00  0.00000000000E+00  0.23757332572E+02  0.12005753021E+04  0.12003402206E+04 0.  0.
        1    1    3    3  502    0  0.15595666948E+03 -0.57753243221E+03  0.60240677284E+02  0.60124465257E+03  0.50400001928E-02 0.  1.
       -1    1    3    3    0  502 -0.15595666948E+03  0.57753243221E+03 -0.36483344711E+02  0.59933064954E+03  0.50400001928E-02 0. -1.
</event>
<event>
 5   0  0.5108045E-03  0.1212073E+04  0.7818609E-02  0.9102355E-01
       -2   -1    0    0    0  501  0.00000000000E+00  0.00000000000E+00  0.65059990627E+03  0.65059990627E+03  0.25500000920E-02 0.  1.
        2   -1    0    0  501    0  0.00000000000E+00  0.00000000000E+00 -0.56452506096E+03  0.56452506096E+03  0.25500000920E-02 0. -1.
    10030    2    1    2    0    0  0.00000000000E+00  0.00000000000E+00  0.86074845315E+02  0.12151249672E+04  0.12120725255E+04 0.  0.
        3    1    3    3  502    0 -0.23456507174E+03 -0.51712249298E+03 -0.16925870299E+03  0.59252423104E+03  0.10100000352E+00 0. -1.
       -3    1    3    3    0  502  0.23456507174E+03  0.51712249298E+03  0.25533354830E+03  0.62260073620E+03  0.10100000352E+00 0.  1.
</event>
<event>
 5   0  0.5108045E-03  0.1386480E+04  0.7818609E-02  0.8963664E-01
       -2   -1    0    0    0  501  0.00000000000E+00  0.00000000000E+00  0.56959649227E+03  0.56959649228E+03  0.25500000920E-02 0. -1.
        2   -1    0    0  501    0  0.00000000000E+00  0.00000000000E+00 -0.84372266349E+03  0.84372266349E+03  0.25500000920E-02 0.  1.
    10030    2    1    2    0    0  0.00000000000E+00  0.00000000000E+00 -0.27412617122E+03  0.14133191558E+04  0.13864796711E+04 0.  0.
        3    1    3    3  502    0 -0.62613476402E+03  0.64251247599E+02 -0.43321859385E+03  0.76410164624E+03  0.10100000352E+00 0.  1.
       -3    1    3    3    0  502  0.62613476402E+03 -0.64251247599E+02  0.15909242263E+03  0.64921750952E+03  0.10100000352E+00 0. -1.
</event>
<event>
 5   0  0.5189537E-03  0.1170592E+04  0.7818609E-02  0.9138994E-01
       -2   -1    0    0    0  501  0.00000000000E+00  0.00000000000E+00  0.87319498650E+03  0.87319498650E+03  0.25500000920E-02 0.  1.
        2   -1    0    0  501    0  0.00000000000E+00  0.00000000000E+00 -0.39231922485E+03  0.39231922486E+03  0.25500000920E-02 0. -1.
    10030    2    1    2    0    0  0.00000000000E+00  0.00000000000E+00  0.48087576165E+03  0.12655142114E+04  0.11705916115E+04 0.  0.
        4    1    3    3  502    0 -0.51842581970E+03 -0.26427832014E+03  0.30847961139E+03  0.65861190740E+03  0.12699999809E+01 0.  1.
       -4    1    3    3    0  502  0.51842581970E+03  0.26427832014E+03  0.17239615027E+03  0.60690230396E+03  0.12699999809E+01 0. -1.
</event>
<event>
 5   0  0.2938349E-03  0.1202044E+04  0.7818609E-02  0.9111069E-01
        1   -1    0    0  501    0  0.00000000000E+00  0.00000000000E+00  0.33588617244E+03  0.33588617247E+03  0.50400001928E-02 0.  1.
       -1   -1    0    0    0  501  0.00000000000E+00  0.00000000000E+00 -0.10754466955E+04  0.10754466955E+04  0.50400001928E-02 0. -1.
    10030    2    1    2    0    0  0.00000000000E+00  0.00000000000E+00 -0.73956052304E+03  0.14113328680E+04  0.12020443823E+04 0.  0.
        4    1    3    3  502    0  0.29219608445E+02  0.59845486433E+03 -0.42515113071E+03  0.73468163650E+03  0.12699999809E+01 0. -1.
       -4    1    3    3    0  502 -0.29219608445E+02 -0.59845486433E+03 -0.31440939232E+03  0.67665123146E+03  0.12699999809E+01 0.  1.
</event>
<event>
 5   0  0.2938349E-03  0.1180901E+04  0.7818609E-02  0.9129740E-01
        1   -1    0    0  501    0  0.00000000000E+00  0.00000000000E+00  0.13503664236E+04  0.13503664237E+04  0.50400001928E-02 0.  1.
       -1   -1    0    0    0  501  0.00000000000E+00  0.00000000000E+00 -0.25817573619E+03  0.25817573624E+03  0.50400001928E-02 0. -1.
    10030    2    1    2    0    0  0.00000000000E+00  0.00000000000E+00  0.10921906875E+04  0.16085421599E+04  0.11809010892E+04 0.  0.
        4    1    3    3  502    0  0.27780568969E+03 -0.30330977816E+03  0.11231269779E+04  0.11960721735E+04  0.12699999809E+01 0.  1.
       -4    1    3    3    0  502 -0.27780568969E+03  0.30330977816E+03 -0.30936290442E+02  0.41246998644E+03  0.12699999809E+01 0. -1.
</event>
<event>
 5   0  0.5031575E-03  0.1201555E+04  0.7818609E-02  0.9111496E-01
       -2   -1    0    0    0  501  0.00000000000E+00  0.00000000000E+00  0.30939393935E+03  0.30939393936E+03  0.25500000920E-02 0. -1.
        2   -1    0    0  501    0  0.00000000000E+00  0.00000000000E+00 -0.11665827739E+04  0.11665827739E+04  0.25500000920E-02 0.  1.
    10030    2    1    2    0    0  0.00000000000E+00  0.00000000000E+00 -0.85718883458E+03  0.14759767133E+04  0.12015550591E+04 0.  0.
        5    1    3    3  502    0 -0.53230948406E+03 -0.17274511582E+03 -0.69692718257E+03  0.89382540223E+03  0.46999998093E+01 0. -1.
       -5    1    3    3    0  502  0.53230948406E+03  0.17274511582E+03 -0.16026165201E+03  0.58215131106E+03  0.46999998093E+01 0.  1.
</event>
<event>
 5   0  0.2938349E-03  0.1185069E+04  0.7818609E-02  0.9126027E-01
       -1   -1    0    0    0  501  0.00000000000E+00  0.00000000000E+00  0.42616979381E+03  0.42616979384E+03  0.50400001928E-02 0. -1.
        1   -1    0    0  501    0  0.00000000000E+00  0.00000000000E+00 -0.82384283349E+03  0.82384283351E+03  0.50400001928E-02 0.  1.
    10030    2    1    2    0    0  0.00000000000E+00  0.00000000000E+00 -0.39767303968E+03  0.12500126273E+04  0.11850686571E+04 0.  0.
        4    1    3    3  502    0 -0.29554450315E+03  0.50389351610E+03 -0.94203106123E+02  0.59171873979E+03  0.12699999809E+01 0. -1.
       -4    1    3    3    0  502  0.29554450315E+03 -0.50389351610E+03 -0.30346993356E+03  0.65829388755E+03  0.12699999809E+01 0.  1.
</event>
<event>
 5   0  0.5108045E-03  0.1218126E+04  0.7818609E-02  0.9097137E-01
        2   -1    0    0  501    0  0.00000000000E+00  0.00000000000E+00  0.19726409124E+04  0.19726409124E+04  0.25500000920E-02 0.  1.
       -2   -1    0    0    0  501  0.00000000000E+00  0.00000000000E+00 -0.18805146702E+03  0.18805146703E+03  0.25500000920E-02 0. -1.
    10030    2    1    2    0    0  0.00000000000E+00  0.00000000000E+00  0.17845894453E+04  0.21606923794E+04  0.12181264589E+04 0.  0.
        3    1    3    3  502    0 -0.56956862787E+03 -0.19532756779E+03  0.72975647533E+03  0.94610031396E+03  0.10100000352E+00 0. -1.
       -3    1    3    3    0  502  0.56956862787E+03  0.19532756779E+03  0.10548329700E+04  0.12145920654E+04  0.10100000352E+00 0.  1.
</event>
<event>
 5   0  0.5031575E-03  0.1211373E+04  0.7818609E-02  0.9102960E-01
       -2   -1    0    0    0  501  0.00000000000E+00  0.00000000000E+00  0.15836075108E+03  0.15836075110E+03  0.25500000920E-02 0. -1.
        2   -1    0    0  501    0  0.00000000000E+00  0.00000000000E+00 -0.23165837733E+04  0.23165837733E+04  0.25500000920E-02 0.  1.
    10030    2    1    2    0    0  0.00000000000E+00  0.00000000000E+00 -0.21582230222E+04  0.24749445244E+04  0.12113726863E+04 0.  0.
        5    1    3    3  502    0  0.56497649484E+03 -0.21801952385E+03 -0.10998369338E+04  0.12555454287E+04  0.46999998093E+01 0. -1.
       -5    1    3    3    0  502 -0.56497649484E+03  0.21801952385E+03 -0.10583860884E+04  0.12193990957E+04  0.46999998093E+01 0.  1.
</event>
<event>
 5   0  0.2938349E-03  0.1204649E+04  0.7818609E-02  0.9108797E-01
       -1   -1    0    0    0  501  0.00000000000E+00  0.00000000000E+00  0.50049851980E+03  0.50049851983E+03  0.50400001928E-02 0. -1.
        1   -1    0    0  501    0  0.00000000000E+00  0.00000000000E+00 -0.72486719850E+03  0.72486719851E+03  0.50400001928E-02 0.  1.
    10030    2    1    2    0    0  0.00000000000E+00  0.00000000000E+00 -0.22436867869E+03  0.12253657183E+04  0.12046492600E+04 0.  0.
        4    1    3    3  502    0  0.18526004016E+03  0.54496975097E+03 -0.29266169189E+03  0.64572888332E+03  0.12699999809E+01 0.  1.
       -4    1    3    3    0  502 -0.18526004016E+03 -0.54496975097E+03  0.68293013195E+02  0.57963683502E+03  0.12699999809E+01 0. -1.
</event>
<event>
 5   0  0.2930868E-03  0.1170777E+04  0.7818609E-02  0.9138827E-01
       -1   -1    0    0    0  501  0.00000000000E+00  0.00000000000E+00  0.30202907061E+03  0.30202907066E+03  0.50400001928E-02 0. -1.
        1   -1    0    0  501    0  0.00000000000E+00  0.00000000000E+00 -0.11345924543E+04  0.11345924543E+04  0.50400001928E-02 0.  1.
    10030    2    1    2    0    0  0.00000000000E+00  0.00000000000E+00 -0.83256338366E+03  0.14366215249E+04  0.11707773563E+04 0.  0.
        3    1    3    3  502    0  0.39316929551E+03  0.24425615557E+03  0.23475220478E+02  0.46345901722E+03  0.10100000352E+00 0. -1.
       -3    1    3    3    0  502 -0.39316929551E+03 -0.24425615557E+03 -0.85603860413E+03  0.97316250772E+03  0.10100000352E+00 0.  1.
</event>
<event>
 5   0  0.2938349E-03  0.1208476E+04  0.7818609E-02  0.9105469E-01
        1   -1    0    0  501    0  0.00000000000E+00  0.00000000000E+00  0.37079222417E+03  0.37079222421E+03  0.50400001928E-02 0.  1.
       -1   -1    0    0    0  501  0.00000000000E+00  0.00000000000E+00 -0.98465874110E+03  0.98465874111E+03  0.50400001928E-02 0. -1.
    10030    2    1    2    0    0  0.00000000000E+00  0.00000000000E+00 -0.61386651693E+03  0.13554509653E+04  0.12084764039E+04 0.  0.
        4    1    3    3  502    0 -0.41616683670E+02  0.34031075611E+03  0.25113182308E+03  0.42498489920E+03  0.12699999809E+01 0.  1.
       -4    1    3    3    0  502  0.41616683670E+02 -0.34031075611E+03 -0.86499834001E+03  0.93046606612E+03  0.12699999809E+01 0. -1.
</event>
<event>
 5   0  0.5031575E-03  0.1196958E+04  0.7818609E-02  0.9115523E-01
        2   -1    0    0  501    0  0.00000000000E+00  0.00000000000E+00  0.76877246107E+03  0.76877246107E+03  0.25500000920E-02 0.  1.
       -2   -1    0    0    0  501  0.00000000000E+00  0.00000000000E+00 -0.46590821321E+03  0.46590821321E+03  0.25500000920E-02 0. -1.
    10030    2    1    2    0    0  0.00000000000E+00  0.00000000000E+00  0.30286424786E+03  0.12346806743E+04  0.11969584850E+04 0.  0.
        5    1    3    3  502    0  0.26335523661E+03  0.42547917423E+03  0.49005638251E+03  0.70040406651E+03  0.46999998093E+01 0.  1.
       -5    1    3    3    0  502 -0.26335523661E+03 -0.42547917423E+03 -0.18719213464E+03  0.53427660778E+03  0.46999998093E+01 0. -1.
</event>
<event>
 5   0  0.2938349E-03  0.1168144E+04  0.7818609E-02  0.9141206E-01
       -1   -1    0    0    0  501  0.00000000000E+00  0.00000000000E+00  0.15351557213E+03  0.15351557221E+03  0.50400001928E-02 0.  1.
        1   -1    0    0  501    0  0.00000000000E+00  0.00000000000E+00 -0.22221847117E+04  0.22221847117E+04  0.50400001928E-02 0. -1.
    10030    2    1    2    0    0  0.00000000000E+00  0.00000000000E+00 -0.20686691396E+04  0.23757002839E+04  0.11681437540E+04 0.  0.
        4    1    3    3  502    0 -0.24382947329E+03  0.65867885714E+02  0.36708804313E+02  0.25522644774E+03  0.12699999809E+01 0.  1.
       -4    1    3    3    0  502  0.24382947329E+03 -0.65867885714E+02 -0.21053779439E+04  0.21204738362E+04  0.12699999809E+01 0. -1.
</event>
<event>
 5   0  0.1922125E-03  0.1206265E+04  0.7818609E-02  0.9107390E-01
        3   -1    0    0  501    0  0.00000000000E+00  0.00000000000E+00  0.62723752683E+03  0.62723753496E+03  0.10100000352E+00 0.  1.
       -3   -1    0    0    0  501  0.00000000000E+00  0.00000000000E+00 -0.57995400173E+03  0.57995401052E+03  0.10100000352E+00 0. -1.
    10030    2    1    2    0    0  0.00000000000E+00  0.00000000000E+00  0.47283525098E+02  0.12071915455E+04  0.12062651847E+04 0.  0.
        5    1    3    3  502    0  0.25367952806E+03 -0.17276383557E+03 -0.49593532248E+03  0.58324487132E+03  0.46999998093E+01 0. -1.
       -5    1    3    3    0  502 -0.25367952806E+03  0.17276383557E+03  0.54321884758E+03  0.62394667416E+03  0.46999998093E+01 0.  1.
</event>
<event>
 5   0  0.2792518E-03  0.1290674E+04  0.7818609E-02  0.9036993E-01
        1   -1    0    0  501    0  0.00000000000E+00  0.00000000000E+00  0.25558580598E+04  0.25558580598E+04  0.50400001928E-02 0.  1.
       -1   -1    0    0    0  501  0.00000000000E+00  0.00000000000E+00 -0.16294336191E+03  0.16294336199E+03  0.50400001928E-02 0. -1.
    10030    2    1    2    0    0  0.00000000000E+00  0.00000000000E+00  0.23929146979E+04  0.27188014218E+04  0.12906744050E+04 0.  0.
        2    1    3    3  502    0 -0.19962734921E+03  0.46265989595E+03  0.34715807561E+03  0.61190194258E+03  0.25500000920E-02 0. -1.
       -2    1    3    3    0  502  0.19962734921E+03 -0.46265989595E+03  0.20457566223E+04  0.21068994792E+04  0.25500000920E-02 0.  1.
</event>
<event>
 5   0  0.2926844E-03  0.1203775E+04  0.7818609E-02  0.9109558E-01
       -1   -1    0    0    0  501  0.00000000000E+00  0.00000000000E+00  0.33438562472E+03  0.33438562476E+03  0.50400001928E-02 0. -1.
        1   -1    0    0  501    0  0.00000000000E+00  0.00000000000E+00 -0.10833863982E+04  0.10833863982E+04  0.50400001928E-02 0.  1.
    10030    2    1    2    0    0  0.00000000000E+00  0.00000000000E+00 -0.74900077349E+03  0.14177720230E+04  0.12037754568E+04 0.  0.
        5    1    3    3  502    0 -0.35004786509E+03  0.35797096003E+03  0.18899921244E+02  0.50105490028E+03  0.46999998093E+01 0. -1.
       -5    1    3    3    0  502  0.35004786509E+03 -0.35797096003E+03 -0.76790069474E+03  0.91671712270E+03  0.46999998093E+01 0.  1.
</event>
<event>
 5   0  0.5003526E-03  0.1139468E+04  0.7818609E-02  0.9167555E-01
       -2   -1    0    0    0  501  0.00000000000E+00  0.00000000000E+00  0.18368906234E+03  0.18368906236E+03  0.25500000920E-02 0.  1.
        2   -1    0    0  501    0  0.00000000000E+00  0.00000000000E+00 -0.17671001722E+04  0.17671001722E+04  0.25500000920E-02 0. -1.
    10030    2    1    2    0    0  0.00000000000E+00  0.00000000000E+00 -0.15834111098E+04  0.19507892345E+04  0.11394682509E+04 0.  0.
        2    1    3    3  502    0  0.30744985562E+03 -0.35263488131E+03 -0.13483618315E+04  0.14272198156E+04  0.25500000920E-02 0. -1.
       -2    1    3    3    0  502 -0.30744985562E+03  0.35263488131E+03 -0.23504927830E+03  0.52356941897E+03  0.25500000920E-02 0.  1.
</event>
<event>
 5   0  0.5189537E-03  0.1208485E+04  0.7818609E-02  0.9105462E-01
       -2   -1    0    0    0  501  0.00000000000E+00  0.00000000000E+00  0.83598825046E+03  0.83598825047E+03  0.25500000920E-02 0. -1.
        2   -1    0    0  501    0  0.00000000000E+00  0.00000000000E+00 -0.43673937991E+03  0.43673937992E+03  0.25500000920E-02 0.  1.
    10030    2    1    2    0    0  0.00000000000E+00  0.00000000000E+00  0.39924887055E+03  0.12727276304E+04  0.12084849856E+04 0.  0.
        4    1    3    3  502    0  0.76755083023E+02 -0.21526086157E+03  0.78871528823E+03  0.82115893717E+03  0.12699999809E+01 0. -1.
       -4    1    3    3    0  502 -0.76755083023E+02  0.21526086157E+03 -0.38946641768E+03  0.45156869322E+03  0.12699999809E+01 0.  1.
</event>
<event>
 5   0  0.5108045E-03  0.1206633E+04  0.7818609E-02  0.9107071E-01
       -2   -1    0    0    0  501  0.00000000000E+00  0.00000000000E+00  0.31664954042E+03  0.31664954043E+03  0.25500000920E-02 0. -1.
        2   -1    0    0  501    0  0.00000000000E+00  0.00000000000E+00 -0.11495060380E+04  0.11495060380E+04  0.25500000920E-02 0.  1.
    10030    2    1    2    0    0  0.00000000000E+00  0.00000000000E+00 -0.83285649760E+03  0.14661555785E+04  0.12066326014E+04 0.  0.
        3    1    3    3  502    0 -0.47961119616E+03 -0.95830304346E+02 -0.84564616696E+03  0.97689702456E+03  0.10100000352E+00 0.  1.
       -3    1    3    3    0  502  0.47961119616E+03  0.95830304346E+02  0.12789669355E+02  0.48925855389E+03  0.10100000352E+00 0. -1.
</event>
<event>
 5   0  0.2875848E-03  0.1151739E+04  0.7818609E-02  0.9156181E-01
        1   -1    0    0  501    0  0.00000000000E+00  0.00000000000E+00  0.76976233819E+03  0.76976233821E+03  0.50400001928E-02 0.  1.
       -1   -1    0    0    0  501  0.00000000000E+00  0.00000000000E+00 -0.43081547744E+03  0.43081547747E+03  0.50400001928E-02 0. -1.
    10030    2    1    2    0    0  0.00000000000E+00  0.00000000000E+00  0.33894686075E+03  0.12005778157E+04  0.11517387365E+04 0.  0.
        1    1    3    3  502    0  0.13982356315E+03 -0.27520853065E+03  0.67623131401E+03  0.74335668035E+03  0.50400001928E-02 0.  1.
       -1    1    3    3    0  502 -0.13982356315E+03  0.27520853065E+03 -0.33728445326E+03  0.45722113533E+03  0.50400001928E-02 0. -1.
</event>
<event>
 5   0  0.2930868E-03  0.1195480E+04  0.7818609E-02  0.9116822E-01
       -1   -1    0    0    0  501  0.00000000000E+00  0.00000000000E+00  0.19736815767E+03  0.19736815774E+03  0.50400001928E-02 0.  1.
        1   -1    0    0  501    0  0.00000000000E+00  0.00000000000E+00 -0.18102863667E+04  0.18102863667E+04  0.50400001928E-02 0. -1.
    10030    2    1    2    0    0  0.00000000000E+00  0.00000000000E+00 -0.16129182090E+04  0.20076545244E+04  0.11954796278E+04 0.  0.
        3    1    3    3  502    0 -0.41626627647E+02 -0.40711600553E+03 -0.15381269376E+04  0.15916377428E+04  0.10100000352E+00 0. -1.
       -3    1    3    3    0  502  0.41626627647E+02  0.40711600553E+03 -0.74791271435E+02  0.41601678160E+03  0.10100000352E+00 0.  1.
</event>
<event>
 5   0  0.2926844E-03  0.1461033E+04  0.7818609E-02  0.8910787E-01
       -1   -1    0    0    0  501  0.00000000000E+00  0.00000000000E+00  0.49621898141E+03  0.49621898144E+03  0.50400001928E-02 0.  1.
        1   -1    0    0  501    0  0.00000000000E+00  0.00000000000E+00 -0.10754419270E+04  0.10754419270E+04  0.50400001928E-02 0. -1.
    10030    2    1    2    0    0  0.00000000000E+00  0.00000000000E+00 -0.57922294562E+03  0.15716609085E+04  0.14610334666E+04 0.  0.
        5    1    3    3  502    0 -0.32908615025E+03  0.57260931987E+03 -0.62542436378E+03  0.90959158543E+03  0.46999998093E+01 0. -1.
       -5    1    3    3    0  502  0.32908615025E+03 -0.57260931987E+03  0.46201418158E+02  0.66206932305E+03  0.46999998093E+01 0.  1.
</event>
<event>
 5   0  0.2926844E-03  0.1176382E+04  0.7818609E-02  0.9133784E-01
       -1   -1    0    0    0  501  0.00000000000E+00  0.00000000000E+00  0.38903753587E+03  0.38903753590E+03  0.50400001928E-02 0.  1.
        1   -1    0    0  501    0  0.00000000000E+00  0.00000000000E+00 -0.88929389831E+03  0.88929389832E+03  0.50400001928E-02 0. -1.
    10030    2    1    2    0    0  0.00000000000E+00  0.00000000000E+00 -0.50025636244E+03  0.12783314342E+04  0.11763820925E+04 0.  0.
        5    1    3    3  502    0  0.35956828984E+03 -0.78978643859E+02  0.24834086600E+03  0.44409712561E+03  0.46999998093E+01 0.  1.
       -5    1    3    3    0  502 -0.35956828984E+03  0.78978643859E+02 -0.74859722844E+03  0.83423430862E+03  0.46999998093E+01 0. -1.
</event>
<event>
 5   0  0.5003526E-03  0.1141347E+04  0.7818609E-02  0.9165803E-01
       -2   -1    0    0    0  501  0.00000000000E+00  0.00000000000E+00  0.36300386804E+03  0.36300386805E+03  0.25500000920E-02 0.  1.
        2   -1    0    0  501    0  0.00000000000E+00  0.00000000000E+00 -0.89714840935E+03  0.89714840936E+03  0.25500000920E-02 0. -1.
    10030    2    1    2    0    0  0.00000000000E+00  0.00000000000E+00 -0.53414454131E+03  0.12601522774E+04  0.11413471738E+04 0.  0.
        2    1    3    3  502    0  0.50063418724E+03  0.23513662910E+02 -0.56839202533E+03  0.75779745067E+03  0.25500000920E-02 0. -1.
       -2    1    3    3    0  502 -0.50063418724E+03 -0.23513662910E+02  0.34247484017E+02  0.50235482674E+03  0.25500000920E-02 0.  1.
</event>
<event>
 5   0  0.5003526E-03  0.1197292E+04  0.7818609E-02  0.9115230E-01
        2   -1    0    0  501    0  0.00000000000E+00  0.00000000000E+00  0.69259954508E+03  0.69259954508E+03  0.25500000920E-02 0.  1.
       -2   -1    0    0    0  501  0.00000000000E+00  0.00000000000E+00 -0.51743799029E+03  0.51743799029E+03  0.25500000920E-02 0. -1.
    10030    2    1    2    0    0  0.00000000000E+00  0.00000000000E+00  0.17516155479E+03  0.12100375354E+04  0.11972924733E+04 0.  0.
        2    1    3    3  502    0  0.12276040652E+01  0.33052434719E+03 -0.41686110561E+03  0.53199721096E+03  0.25500000920E-02 0. -1.
       -2    1    3    3    0  502 -0.12276040652E+01 -0.33052434719E+03  0.59202266040E+03  0.67804032441E+03  0.25500000920E-02 0.  1.
</event>
<event>
 5   0  0.2930868E-03  0.1204706E+04  0.7818609E-02  0.9108747E-01
       -1   -1    0    0    0  501  0.00000000000E+00  0.00000000000E+00  0.16207455026E+03  0.16207455034E+03  0.50400001928E-02 0.  1.
        1   -1    0    0  501    0  0.00000000000E+00  0.00000000000E+00 -0.22386565821E+04  0.22386565821E+04  0.50400001928E-02 0. -1.
    10030    2    1    2    0    0  0.00000000000E+00  0.00000000000E+00 -0.20765820319E+04  0.24007311325E+04  0.12047062029E+04 0.  0.
        3    1    3    3  502    0 -0.40483573556E+03 -0.23017568743E+03 -0.27695917730E+03  0.54182950820E+03  0.10100000352E+00 0.  1.
       -3    1    3    3    0  502  0.40483573556E+03  0.23017568743E+03 -0.17996228546E+04  0.18589016243E+04  0.10100000352E+00 0. -1.
</event>
<event>
 5   0  0.2875848E-03  0.1252721E+04  0.7818609E-02  0.9067921E-01
        1   -1    0    0  501    0  0.00000000000E+00  0.00000000000E+00  0.62101174996E+03  0.62101174998E+03  0.50400001928E-02 0. -1.
       -1   -1    0    0    0  501  0.00000000000E+00  0.00000000000E+00 -0.63175557030E+03  0.63175557032E+03  0.50400001928E-02 0.  1.
    10030    2    1    2    0    0  0.00000000000E+00  0.00000000000E+00 -0.10743820341E+02  0.12527673203E+04  0.12527212496E+04 0.  0.
        1    1    3    3  502    0  0.27361335609E+03 -0.49052000479E+03  0.27186290265E+03  0.62400607496E+03  0.50400001928E-02 0. -1.
       -1    1    3    3    0  502 -0.27361335609E+03  0.49052000479E+03 -0.28260672299E+03  0.62876124533E+03  0.50400001928E-02 0.  1.
</event>
<event>
 5   0  0.5108045E-03  0.1237938E+04  0.7818609E-02  0.9080283E-01
       -2   -1    0    0    0  501  0.00000000000E+00  0.00000000000E+00  0.41421994829E+03  0.41421994830E+03  0.25500000920E-02 0.  1.
        2   -1    0    0  501    0  0.00000000000E+00  0.00000000000E+00 -0.92492503729E+03  0.92492503730E+03  0.25500000920E-02 0. -1.
    10030    2    1    2    0    0  0.00000000000E+00  0.00000000000E+00 -0.51070508900E+03  0.13391449856E+04  0.12379376416E+04 0.  0.
        3    1    3    3  502    0  0.16104029161E+03  0.53816910604E+03 -0.53653062211E+03  0.77680440323E+03  0.10100000352E+00 0. -1.
       -3    1    3    3    0  502 -0.16104029161E+03 -0.53816910604E+03  0.25825533105E+02  0.56234058237E+03  0.10100000352E+00 0.  1.
</event>
<event>
 5   0  0.5031575E-03  0.1197764E+04  0.7818609E-02  0.9114816E-01
        2   -1    0    0  501    0  0.00000000000E+00  0.00000000000E+00  0.18110614135E+04  0.18110614135E+04  0.25500000920E-02 0.  1.
       -2   -1    0    0    0  501  0.00000000000E+00  0.00000000000E+00 -0.19803838302E+03  0.19803838304E+03  0.25500000920E-02 0. -1.
    10030    2    1    2    0    0  0.00000000000E+00  0.00000000000E+00  0.16130230305E+04  0.20090997966E+04  0.11977640400E+04 0.  0.
        5    1    3    3  502    0  0.39525517067E+03 -0.17098454431E+03  0.15045399476E+04  0.15649680215E+04  0.46999998093E+01 0.  1.
       -5    1    3    3    0  502 -0.39525517067E+03  0.17098454431E+03  0.10848308287E+03  0.44413177504E+03  0.46999998093E+01 0. -1.
</event>
<event>
 5   0  0.2792518E-03  0.1205037E+04  0.7818609E-02  0.9108459E-01
        1   -1    0    0  501    0  0.00000000000E+00  0.00000000000E+00  0.94264459079E+03  0.94264459081E+03  0.50400001928E-02 0. -1.
       -1   -1    0    0    0  501  0.00000000000E+00  0.00000000000E+00 -0.38511703930E+03  0.38511703933E+03  0.50400001928E-02 0.  1.
    10030    2    1    2    0    0  0.00000000000E+00  0.00000000000E+00  0.55752755150E+03  0.13277616301E+04  0.12050369188E+04 0.  0.
        2    1    3    3  502    0  0.17923298699E+02  0.35769516117E+03  0.81263083690E+03  0.88805177217E+03  0.25500000920E-02 0. -1.
       -2    1    3    3    0  502 -0.17923298699E+02 -0.35769516117E+03 -0.25510328540E+03  0.43970985797E+03  0.25500000920E-02 0.  1.
</event>
<event>
 5   0  0.2792518E-03  0.1164945E+04  0.7818609E-02  0.9144106E-01
        1   -1    0    0  501    0  0.00000000000E+00  0.00000000000E+00  0.48284894329E+03  0.48284894331E+03  0.50400001928E-02 0. -1.
       -1   -1    0    0    0  501  0.00000000000E+00  0.00000000000E+00 -0.70265114228E+03  0.70265114230E+03  0.50400001928E-02 0.  1.
    10030    2    1    2    0    0  0.00000000000E+00  0.00000000000E+00 -0.21980219900E+03  0.11855000856E+04  0.11649452546E+04 0.  0.
        2    1    3    3  502    0 -0.20043107660E+03 -0.42584964343E+03 -0.45910861918E+03  0.65749620492E+03  0.25500000920E-02 0.  1.
       -2    1    3    3    0  502  0.20043107660E+03  0.42584964343E+03  0.23930642019E+03  0.52800388069E+03  0.25500000920E-02 0. -1.
</event>
<event>
 5   0  0.2930868E-03  0.7930343E+03  0.7818609E-02  0.9570155E-01
        1   -1    0    0  501    0  0.00000000000E+00  0.00000000000E+00  0.26462383198E+03  0.26462383202E+03  0.50400001928E-02 0. -1.
       -1   -1    0    0    0  501  0.00000000000E+00  0.00000000000E+00 -0.59414852373E+03  0.59414852375E+03  0.50400001928E-02 0.  1.
    10030    2    1    2    0    0  0.00000000000E+00  0.00000000000E+00 -0.32952469175E+03  0.85877235577E+03  0.79303432244E+03 0.  0.
        3    1    3    3  502    0  0.13059074172E+03 -0.14155522600E+03 -0.54009736477E+03  0.57340822933E+03  0.10100000352E+00 0.  1.
       -3    1    3    3    0  502 -0.13059074172E+03  0.14155522600E+03  0.21057267302E+03  0.28536412644E+03  0.10100000352E+00 0. -1.
</event>
<event>
 5   0  0.5108045E-03  0.1190893E+04  0.7818609E-02  0.9120866E-01
        2   -1    0    0  501    0  0.00000000000E+00  0.00000000000E+00  0.21084417491E+04  0.21084417491E+04  0.25500000920E-02 0. -1.
       -2   -1    0    0    0  501  0.00000000000E+00  0.00000000000E+00 -0.16816037981E+03  0.16816037983E+03  0.25500000920E-02 0.  1.
    10030    2    1    2    0    0  0.00000000000E+00  0.00000000000E+00  0.19402813692E+04  0.22766021289E+04  0.11908927162E+04 0.  0.
        3    1    3    3  502    0  0.27662077959E+03 -0.40510688561E+03  0.32489460897E+03  0.58837671742E+03  0.10100000352E+00 0.  1.
       -3    1    3    3    0  502 -0.27662077959E+03  0.40510688561E+03  0.16153867603E+04  0.16882254115E+04  0.10100000352E+00 0. -1.
</event>
<event>
 5   0  0.2926844E-03  0.9367255E+03  0.7818609E-02  0.9380802E-01
       -1   -1    0    0    0  501  0.00000000000E+00  0.00000000000E+00  0.31867908356E+03  0.31867908360E+03  0.50400001928E-02 0. -1.
        1   -1    0    0  501    0  0.00000000000E+00  0.00000000000E+00 -0.68835292228E+03  0.68835292229E+03  0.50400001928E-02 0.  1.
    10030    2    1    2    0    0  0.00000000000E+00  0.00000000000E+00 -0.36967383871E+03  0.10070320059E+04  0.93672552750E+03 0.  0.
        5    1    3    3  502    0 -0.23203738885E+03  0.23548073275E+03  0.17179818777E+03  0.37259795040E+03  0.46999998093E+01 0. -1.
       -5    1    3    3    0  502  0.23203738885E+03 -0.23548073275E+03 -0.54147202648E+03  0.63443405550E+03  0.46999998093E+01 0.  1.
</event>
<event>
 5   0  0.2792518E-03  0.1195381E+04  0.7818609E-02  0.9116909E-01
       -1   -1    0    0    0  501  0.00000000000E+00  0.00000000000E+00  0.28088923603E+03  0.28088923607E+03  0.50400001928E-02 0. -1.
        1   -1    0    0  501    0  0.00000000000E+00  0.00000000000E+00 -0.12717965337E+04  0.12717965337E+04  0.50400001928E-02 0.  1.
    10030    2    1    2    0    0  0.00000000000E+00  0.00000000000E+00 -0.99090729763E+03  0.15526857697E+04  0.11953810384E+04 0.  0.
        2    1    3    3  502    0  0.59627646526E+03 -0.40803592214E+02 -0.50173699038E+03  0.78035284563E+03  0.25500000920E-02 0.  1.
       -2    1    3    3    0  502 -0.59627646526E+03  0.40803592214E+02 -0.48917030725E+03  0.77233292411E+03  0.25500000920E-02 0. -1.
</event>
<event>
 5   0  0.5108045E-03  0.1193971E+04  0.7818609E-02  0.9118150E-01
        2   -1    0    0  501    0  0.00000000000E+00  0.00000000000E+00  0.63509875085E+03  0.63509875086E+03  0.25500000920E-02 0. -1.
       -2   -1    0    0    0  501  0.00000000000E+00  0.00000000000E+00 -0.56115925843E+03  0.56115925844E+03  0.25500000920E-02 0.  1.
    10030    2    1    2    0    0  0.00000000000E+00  0.00000000000E+00  0.73939492418E+02  0.11962580093E+04  0.11939707602E+04 0.  0.
        3    1    3    3  502    0 -0.29875556927E+02  0.51545707447E+03  0.33721528564E+03  0.61668687646E+03  0.10100000352E+00 0. -1.
       -3    1    3    3    0  502  0.29875556927E+02 -0.51545707447E+03 -0.26327579323E+03  0.57957113284E+03  0.10100000352E+00 0.  1.
</event>
<event>
 5   0  0.5031575E-03  0.1215136E+04  0.7818609E-02  0.9099710E-01
       -2   -1    0    0    0  501  0.00000000000E+00  0.00000000000E+00  0.12609072088E+04  0.12609072088E+04  0.25500000920E-02 0.  1.
        2   -1    0    0  501    0  0.00000000000E+00  0.00000000000E+00 -0.29275680075E+03  0.29275680076E+03  0.25500000920E-02 0. -1.
    10030    2    1    2    0    0  0.00000000000E+00  0.00000000000E+00  0.96815040807E+03  0.15536640096E+04  0.12151364705E+04 0.  0.
        5    1    3    3  502    0 -0.10915845308E+03 -0.40506245947E+03  0.10459665165E+04  0.11269690358E+04  0.46999998093E+01 0.  1.
       -5    1    3    3    0  502  0.10915845308E+03  0.40506245947E+03 -0.77816108420E+02  0.42669497382E+03  0.46999998093E+01 0. -1.
</event>
<event>
 5   0  0.5031575E-03  0.1201025E+04  0.7818609E-02  0.9111960E-01
        2   -1    0    0  501    0  0.00000000000E+00  0.00000000000E+00  0.95708242487E+03  0.95708242487E+03  0.25500000920E-02 0. -1.
       -2   -1    0    0    0  501  0.00000000000E+00  0.00000000000E+00 -0.37678612151E+03  0.37678612152E+03  0.25500000920E-02 0.  1.
    10030    2    1    2    0    0  0.00000000000E+00  0.00000000000E+00  0.58029630336E+03  0.13338685464E+04  0.12010251868E+04 0.  0.
        5    1    3    3  502    0 -0.26912691596E+03 -0.48947346005E+03  0.45361112365E+02  0.56044026042E+03  0.46999998093E+01 0.  1.
       -5    1    3    3    0  502  0.26912691596E+03  0.48947346005E+03  0.53493519099E+03  0.77342828598E+03  0.46999998093E+01 0. -1.
</event>
<event>
 5   0  0.5031575E-03  0.1346600E+04  0.7818609E-02  0.8993406E-01
       -2   -1    0    0    0  501  0.00000000000E+00  0.00000000000E+00  0.21808506904E+03  0.21808506906E+03  0.25500000920E-02 0.  1.
        2   -1    0    0  501    0  0.00000000000E+00  0.00000000000E+00 -0.20786964802E+04  0.20786964802E+04  0.25500000920E-02 0. -1.
    10030    2    1    2    0    0  0.00000000000E+00  0.00000000000E+00 -0.18606114111E+04  0.22967815492E+04  0.13465996664E+04 0.  0.
        5    1    3    3  502    0 -0.41632748681E+03 -0.52586372905E+03 -0.83013308388E+03  0.10672414276E+04  0.46999998093E+01 0.  1.
       -5    1    3    3    0  502  0.41632748681E+03  0.52586372905E+03 -0.10304783272E+04  0.12295401216E+04  0.46999998093E+01 0. -1.
</event>
<event>
 5   0  0.5003526E-03  0.1137382E+04  0.7818609E-02  0.9169504E-01
       -2   -1    0    0    0  501  0.00000000000E+00  0.00000000000E+00  0.34856897848E+03  0.34856897849E+03  0.25500000920E-02 0. -1.
        2   -1    0    0  501    0  0.00000000000E+00  0.00000000000E+00 -0.92782030597E+03  0.92782030597E+03  0.25500000920E-02 0.  1.
    10030    2    1    2    0    0  0.00000000000E+00  0.00000000000E+00 -0.57925132748E+03  0.12763892845E+04  0.11373818642E+04 0.  0.
        2    1    3    3  502    0 -0.52259398548E+03 -0.21203095188E+03 -0.37169171509E+03  0.67543787967E+03  0.25500000920E-02 0.  1.
       -2    1    3    3    0  502  0.52259398548E+03  0.21203095188E+03 -0.20755961239E+03  0.60095140479E+03  0.25500000920E-02 0. -1.
</event>
<event>
 5   0  0.5189537E-03  0.1211252E+04  0.7818609E-02  0.9103065E-01
        2   -1    0    0  501    0  0.00000000000E+00  0.00000000000E+00  0.76554754162E+03  0.76554754163E+03  0.25500000920E-02 0.  1.
       -2   -1    0    0    0  501  0.00000000000E+00  0.00000000000E+00 -0.47911139685E+03  0.47911139686E+03  0.25500000920E-02 0. -1.
    10030    2    1    2    0    0  0.00000000000E+00  0.00000000000E+00  0.28643614477E+03  0.12446589385E+04  0.12112515049E+04 0.  0.
        4    1    3    3  502    0 -0.32645763378E+03  0.45772226509E+03  0.37458740538E+03  0.67557501122E+03  0.12699999809E+01 0.  1.
       -4    1    3    3    0  502  0.32645763378E+03 -0.45772226509E+03 -0.88151260616E+02  0.56908392726E+03  0.12699999809E+01 0. -1.
</event>
<event>
 5   0  0.5031575E-03  0.1114172E+04  0.7818609E-02  0.9191488E-01
       -2   -1    0    0    0  501  0.00000000000E+00  0.00000000000E+00  0.62255886048E+03  0.62255886048E+03  0.25500000920E-02 0.  1.
        2   -1    0    0  501    0  0.00000000000E+00  0.00000000000E+00 -0.49849889273E+03  0.49849889274E+03  0.25500000920E-02 0. -1.
    10030    2    1    2    0    0  0.00000000000E+00  0.00000000000E+00  0.12405996774E+03  0.11210577532E+04  0.11141721637E+04 0.  0.
        5    1    3    3  502    0  0.42446159277E+03  0.40871707471E+01 -0.30094652629E+03  0.52036069258E+03  0.46999998093E+01 0. -1.
       -5    1    3    3    0  502 -0.42446159277E+03 -0.40871707471E+01  0.42500649403E+03  0.60069706064E+03  0.46999998093E+01 0.  1.
</event>
<event>
 5   0  0.5031575E-03  0.1203012E+04  0.7818609E-02  0.9110224E-01
        2   -1    0    0  501    0  0.00000000000E+00  0.00000000000E+00  0.11837166654E+04  0.11837166654E+04  0.25500000920E-02 0.  1.
       -2   -1    0    0    0  501  0.00000000000E+00  0.00000000000E+00 -0.30565532032E+03  0.30565532033E+03  0.25500000920E-02 0. -1.
    10030    2    1    2    0    0  0.00000000000E+00  0.00000000000E+00  0.87806134511E+03  0.14893719858E+04  0.12030117149E+04 0.  0.
        5    1    3    3  502    0 -0.32192748847E+03 -0.37887694539E+02 -0.18824501841E+03  0.37487472866E+03  0.46999998093E+01 0. -1.
       -5    1    3    3    0  502  0.32192748847E+03  0.37887694539E+02  0.10663063635E+04  0.11144972571E+04  0.46999998093E+01 0.  1.
</event>
<event>
 5   0  0.5467554E-03  0.1169195E+04  0.7818609E-02  0.9140256E-01
       -2   -1    0    0    0  501  0.00000000000E+00  0.00000000000E+00  0.23797609670E+03  0.23797609672E+03  0.25500000920E-02 0. -1.
        2   -1    0    0  501    0  0.00000000000E+00  0.00000000000E+00 -0.14360855698E+04  0.14360855698E+04  0.25500000920E-02 0.  1.
    10030    2    1    2    0    0  0.00000000000E+00  0.00000000000E+00 -0.11981094731E+04  0.16740616665E+04  0.11691946603E+04 0.  0.
        1    1    3    3  502    0  0.14351698356E+03  0.49370703938E+03 -0.99742226243E+03  0.11221385542E+04  0.50400001928E-02 0.  1.
       -1    1    3    3    0  502 -0.14351698356E+03 -0.49370703938E+03 -0.20068721064E+03  0.55192311225E+03  0.50400001928E-02 0. -1.
</event>
<event>
 5   0  0.1922125E-03  0.1170826E+04  0.7818609E-02  0.9138783E-01
       -3   -1    0    0    0  501  0.00000000000E+00  0.00000000000E+00  0.10662326505E+04  0.10662326553E+04  0.10100000352E+00 0. -1.
        3   -1    0    0  501    0  0.00000000000E+00  0.00000000000E+00 -0.32141968446E+03  0.32141970033E+03  0.10100000352E+00 0.  1.
    10030    2    1    2    0    0  0.00000000000E+00  0.00000000000E+00  0.74481296601E+03  0.13876523556E+04  0.11708256513E+04 0.  0.
        3    1    3    3  502    0 -0.55343377667E+03 -0.66689543800E+02  0.58432626004E+03  0.80757267709E+03  0.10100000352E+00 0. -1.
       -3    1    3    3    0  502  0.55343377667E+03  0.66689543800E+02  0.16048670597E+03  0.58007967850E+03  0.10100000352E+00 0.  1.
</event>
<event>
 5   0  0.5467554E-03  0.1198756E+04  0.7818609E-02  0.9113946E-01
       -2   -1    0    0    0  501  0.00000000000E+00  0.00000000000E+00  0.36800895985E+03  0.36800895986E+03  0.25500000920E-02 0.  1.
        2   -1    0    0  501    0  0.00000000000E+00  0.00000000000E+00 -0.97621050036E+03  0.97621050036E+03  0.25500000920E-02 0. -1.
    10030    2    1    2    0    0  0.00000000000E+00  0.00000000000E+00 -0.60820154051E+03  0.13442194602E+04  0.11987563737E+04 0.  0.
        1    1    3    3  502    0  0.13194511956E+03 -0.19545281364E+03  0.31380295001E+03  0.39253484992E+03  0.50400001928E-02 0.  1.
       -1    1    3    3    0  502 -0.13194511956E+03  0.19545281364E+03 -0.92200449052E+03  0.95168461031E+03  0.50400001928E-02 0. -1.
</event>
<event>
 5   0  0.2792518E-03  0.1211377E+04  0.7818609E-02  0.9102956E-01
       -1   -1    0    0    0  501  0.00000000000E+00  0.00000000000E+00  0.81526513705E+03  0.81526513707E+03  0.50400001928E-02 0.  1.
        1   -1    0    0  501    0  0.00000000000E+00  0.00000000000E+00 -0.44998687460E+03  0.44998687463E+03  0.50400001928E-02 0. -1.
    10030    2    1    2    0    0  0.00000000000E+00  0.00000000000E+00  0.36527826245E+03  0.12652520117E+04  0.12113770858E+04 0.  0.
        2    1    3    3  502    0  0.37280741844E+02  0.55274994957E+03 -0.73067780860E+02  0.55880341898E+03  0.25500000920E-02 0. -1.
       -2    1    3    3    0  502 -0.37280741844E+02 -0.55274994957E+03  0.43834604331E+03  0.70644859272E+03  0.25500000920E-02 0.  1.
</event>
<event>
 5   0  0.5108045E-03  0.1218417E+04  0.7818609E-02  0.9096887E-01
        2   -1    0    0  501    0  0.00000000000E+00  0.00000000000E+00  0.11792866368E+04  0.11792866368E+04  0.25500000920E-02 0.  1.
       -2   -1    0    0    0  501  0.00000000000E+00  0.00000000000E+00 -0.31471150193E+03  0.31471150194E+03  0.25500000920E-02 0. -1.
    10030    2    1    2    0    0  0.00000000000E+00  0.00000000000E+00  0.86457513485E+03  0.14939981387E+04  0.12184171185E+04 0.  0.
        3    1    3    3  502    0 -0.37107612938E+03 -0.83108113482E+02  0.10158905568E+04  0.10847294990E+04  0.10100000352E+00 0.  1.
       -3    1    3    3    0  502  0.37107612938E+03  0.83108113482E+02 -0.15131542199E+03  0.40926863972E+03  0.10100000352E+00 0. -1.
</event>
<event>
 5   0  0.2938349E-03  0.1171019E+04  0.7818609E-02  0.9138609E-01
       -1   -1    0    0    0  501  0.00000000000E+00  0.00000000000E+00  0.16488076516E+03  0.16488076524E+03  0.50400001928E-02 0. -1.
        1   -1    0    0  501    0  0.00000000000E+00  0.00000000000E+00 -0.20792081896E+04  0.20792081896E+04  0.50400001928E-02 0.  1.
    10030    2    1    2    0    0  0.00000000000E+00  0.00000000000E+00 -0.19143274245E+04  0.22440889549E+04  0.11710191072E+04 0.  0.
        4    1    3    3  502    0 -0.99280272601E+02 -0.43486288589E+03 -0.16840096624E+04  0.17420827931E+04  0.12699999809E+01 0.  1.
       -4    1    3    3    0  502  0.99280272601E+02  0.43486288589E+03 -0.23031776209E+03  0.50200616180E+03  0.12699999809E+01 0. -1.
</event>
<event>
 5   0  0.2875848E-03  0.1140059E+04  0.7818609E-02  0.9167004E-01
        1   -1    0    0  501    0  0.00000000000E+00  0.00000000000E+00  0.50467676256E+03  0.50467676258E+03  0.50400001928E-02 0. -1.
       -1   -1    0    0    0  501  0.00000000000E+00  0.00000000000E+00 -0.64384532499E+03  0.64384532501E+03  0.50400001928E-02 0.  1.
    10030    2    1    2    0    0  0.00000000000E+00  0.00000000000E+00 -0.13916856244E+03  0.11485220876E+04  0.11400592515E+04 0.  0.
        1    1    3    3  502    0 -0.31944990620E+03  0.35223022960E+03  0.24710475488E+03  0.53588724292E+03  0.50400001928E-02 0. -1.
       -1    1    3    3    0  502  0.31944990620E+03 -0.35223022960E+03 -0.38627331732E+03  0.61263484468E+03  0.50400001928E-02 0.  1.
</event>
<event>
 5   0  0.2926844E-03  0.1199745E+04  0.7818609E-02  0.9113080E-01
        1   -1    0    0  501    0  0.00000000000E+00  0.00000000000E+00  0.20888474714E+04  0.20888474714E+04  0.50400001928E-02 0.  1.
       -1   -1    0    0    0  501  0.00000000000E+00  0.00000000000E+00 -0.17227051613E+03  0.17227051620E+03  0.50400001928E-02 0. -1.
    10030    2    1    2    0    0  0.00000000000E+00  0.00000000000E+00  0.19165769552E+04  0.22611179876E+04  0.11997446930E+04 0.  0.
        5    1    3    3  502    0 -0.39484230691E+03 -0.43989747523E+03  0.76595551303E+03  0.96753303509E+03  0.46999998093E+01 0.  1.
       -5    1    3    3    0  502  0.39484230691E+03  0.43989747523E+03  0.11506214422E+04  0.12935849525E+04  0.46999998093E+01 0. -1.
</event>
<event>
 5   0  0.5189537E-03  0.1203299E+04  0.7818609E-02  0.9109974E-01
       -2   -1    0    0    0  501  0.00000000000E+00  0.00000000000E+00  0.53970945051E+03  0.53970945052E+03  0.25500000920E-02 0.  1.
        2   -1    0    0  501    0  0.00000000000E+00  0.00000000000E+00 -0.67069822766E+03  0.67069822767E+03  0.25500000920E-02 0. -1.
    10030    2    1    2    0    0  0.00000000000E+00  0.00000000000E+00 -0.13098877715E+03  0.12104076782E+04  0.12032990849E+04 0.  0.
        4    1    3    3  502    0  0.50868767435E+02 -0.48800803930E+03  0.28475951459E+03  0.56729980783E+03  0.12699999809E+01 0.  1.
       -4    1    3    3    0  502 -0.50868767435E+02  0.48800803930E+03 -0.41574829174E+03  0.64310787035E+03  0.12699999809E+01 0. -1.
</event>
<event>
 5   0  0.2792518E-03  0.1204469E+04  0.7818609E-02  0.9108954E-01
       -1   -1    0    0    0  501  0.00000000000E+00  0.00000000000E+00  0.33528939200E+03  0.33528939203E+03  0.50400001928E-02 0. -1.
        1   -1    0    0  501    0  0.00000000000E+00  0.00000000000E+00 -0.10817117506E+04  0.10817117506E+04  0.50400001928E-02 0.  1.
    10030    2    1    2    0    0  0.00000000000E+00  0.00000000000E+00 -0.74642235863E+03  0.14170011427E+04  0.12044691365E+04 0.  0.
        2    1    3    3  502    0 -0.49289568783E+03  0.20410477519E+03 -0.70194830719E+03  0.88166679892E+03  0.25500000920E-02 0.  1.
       -2    1    3    3    0  502  0.49289568783E+03 -0.20410477519E+03 -0.44474051437E+02  0.53533434375E+03  0.25500000920E-02 0. -1.
</event>
<event>
 5   0  0.5003526E-03  0.1186594E+04  0.7818609E-02  0.9124672E-01
        2   -1    0    0  501    0  0.00000000000E+00  0.00000000000E+00  0.12079174636E+04  0.12079174636E+04  0.25500000920E-02 0.  1.
       -2   -1    0    0    0  501  0.00000000000E+00  0.00000000000E+00 -0.29141187416E+03  0.29141187417E+03  0.25500000920E-02 0. -1.
    10030    2    1    2    0    0  0.00000000000E+00  0.00000000000E+00  0.91650558946E+03  0.14993293378E+04  0.11865942725E+04 0.  0.
        2    1    3    3  502    0  0.18340480530E+01 -0.48820484528E+03  0.32274516112E+02  0.48927393051E+03  0.25500000920E-02 0. -1.
       -2    1    3    3    0  502 -0.18340480530E+01  0.48820484528E+03  0.88423107335E+03  0.10100554073E+04  0.25500000920E-02 0.  1.
</event>
<event>
 5   0  0.5108045E-03  0.1217307E+04  0.7818609E-02  0.9097841E-01
       -2   -1    0    0    0  501  0.00000000000E+00  0.00000000000E+00  0.49496995636E+03  0.49496995637E+03  0.25500000920E-02 0. -1.
        2   -1    0    0  501    0  0.00000000000E+00  0.00000000000E+00 -0.74844736975E+03  0.74844736976E+03  0.25500000920E-02 0.  1.
    10030    2    1    2    0    0  0.00000000000E+00  0.00000000000E+00 -0.25347741339E+03  0.12434173261E+04  0.12173068010E+04 0.  0.
        3    1    3    3  502    0  0.21666374718E+03 -0.25644617132E+03 -0.64532037231E+03  0.72742436806E+03  0.10100000352E+00 0.  1.
       -3    1    3    3    0  502 -0.21666374718E+03  0.25644617132E+03  0.39184295891E+03  0.51599295807E+03  0.10100000352E+00 0. -1.
</event>
<event>
 5   0  0.5031575E-03  0.1157349E+04  0.7818609E-02  0.9151030E-01
       -2   -1    0    0    0  501  0.00000000000E+00  0.00000000000E+00  0.22164966779E+03  0.22164966781E+03  0.25500000920E-02 0.  1.
        2   -1    0    0  501    0  0.00000000000E+00  0.00000000000E+00 -0.15107819166E+04  0.15107819166E+04  0.25500000920E-02 0. -1.
    10030    2    1    2    0    0  0.00000000000E+00  0.00000000000E+00 -0.12891322488E+04  0.17324315844E+04  0.11573492298E+04 0.  0.
        5    1    3    3  502    0 -0.35178636588E+03  0.44596148323E+03 -0.80995064589E+03  0.98928126966E+03  0.46999998093E+01 0. -1.
       -5    1    3    3    0  502  0.35178636588E+03 -0.44596148323E+03 -0.47918160294E+03  0.74315031476E+03  0.46999998093E+01 0.  1.
</event>
<event>
 5   0  0.2792518E-03  0.1227499E+04  0.7818609E-02  0.9089121E-01
       -1   -1    0    0    0  501  0.00000000000E+00  0.00000000000E+00  0.37359286483E+03  0.37359286486E+03  0.50400001928E-02 0.  1.
        1   -1    0    0  501    0  0.00000000000E+00  0.00000000000E+00 -0.10082864172E+04  0.10082864172E+04  0.50400001928E-02 0. -1.
    10030    2    1    2    0    0  0.00000000000E+00  0.00000000000E+00 -0.63469355234E+03  0.13818792820E+04  0.12274992647E+04 0.  0.
        2    1    3    3  502    0 -0.27368003825E+03  0.36503084684E+03  0.14482219354E+03  0.47866663789E+03  0.25500000920E-02 0.  1.
       -2    1    3    3    0  502  0.27368003825E+03 -0.36503084684E+03 -0.77951574587E+03  0.90321264415E+03  0.25500000920E-02 0. -1.
</event>
<event>
 5   0  0.2938349E-03  0.1193455E+04  0.7818609E-02  0.9118605E-01
       -1   -1    0    0    0  501  0.00000000000E+00  0.00000000000E+00  0.49336658663E+03  0.49336658665E+03  0.50400001928E-02 0. -1.
        1   -1    0    0  501    0  0.00000000000E+00  0.00000000000E+00 -0.72174267986E+03  0.72174267987E+03  0.50400001928E-02 0.  1.
    10030    2    1    2    0    0  0.00000000000E+00  0.00000000000E+00 -0.22837609323E+03  0.12151092665E+04  0.11934550220E+04 0.  0.
        4    1    3    3  502    0  0.28837106183E+03  0.20315930192E+03 -0.60422173028E+03  0.69965497462E+03  0.12699999809E+01 0.  1.
       -4    1    3    3    0  502 -0.28837106183E+03 -0.20315930192E+03  0.37584563706E+03  0.51545429191E+03  0.12699999809E+01 0. -1.
</event>
<event>
 5   0  0.5189537E-03  0.1202865E+04  0.7818609E-02  0.9110352E-01
       -2   -1    0    0    0  501  0.00000000000E+00  0.00000000000E+00  0.33780025648E+03  0.33780025649E+03  0.25500000920E-02 0.  1.
        2   -1    0    0  501    0  0.00000000000E+00  0.00000000000E+00 -0.10708135626E+04  0.10708135626E+04  0.25500000920E-02 0. -1.
    10030    2    1    2    0    0  0.00000000000E+00  0.00000000000E+00 -0.73301330614E+03  0.14086138191E+04  0.12028650732E+04 0.  0.
        4    1    3    3  502    0 -0.21543211104E+03  0.84182734746E+02  0.28363302977E+03  0.36598775358E+03  0.12699999809E+01 0.  1.
       -4    1    3    3    0  502  0.21543211104E+03 -0.84182734746E+02 -0.10166463359E+04  0.10426260655E+04  0.12699999809E+01 0. -1.
</event>
<event>
 5   0  0.5108045E-03  0.1196241E+04  0.7818609E-02  0.9116153E-01
        2   -1    0    0  501    0  0.00000000000E+00  0.00000000000E+00  0.11390703225E+04  0.11390703225E+04  0.25500000920E-02 0.  1.
       -2   -1    0    0    0  501  0.00000000000E+00  0.00000000000E+00 -0.31407036428E+03  0.31407036429E+03  0.25500000920E-02 0. -1.
    10030    2    1    2    0    0  0.00000000000E+00  0.00000000000E+00  0.82499995818E+03  0.14531406867E+04  0.11962411649E+04 0.  0.
        3    1    3    3  502    0 -0.25577045967E+03 -0.44806455230E+03  0.78008721950E+03  0.93526277125E+03  0.10100000352E+00 0.  1.
       -3    1    3    3    0  502  0.25577045967E+03  0.44806455230E+03  0.44912738682E+02  0.51787791550E+03  0.10100000352E+00 0. -1.
</event>
<event>
 5   0  0.2875848E-03  0.1222024E+04  0.7818609E-02  0.9093794E-01
       -1   -1    0    0    0  501  0.00000000000E+00  0.00000000000E+00  0.13392145472E+04  0.13392145472E+04  0.50400001928E-02 0.  1.
        1   -1    0    0  501    0  0.00000000000E+00  0.00000000000E+00 -0.27877232518E+03  0.27877232522E+03  0.50400001928E-02 0. -1.
    10030    2    1    2    0    0  0.00000000000E+00  0.00000000000E+00  0.10604422220E+04  0.16179868724E+04  0.12220244732E+04 0.  0.
        1    1    3    3  502    0 -0.29508027055E+03 -0.19520716260E+03  0.11897882534E+04  0.12412792958E+04  0.50400001928E-02 0.  1.
       -1    1    3    3    0  502  0.29508027055E+03  0.19520716260E+03 -0.12934603136E+03  0.37670757658E+03  0.50400001928E-02 0. -1.
</event>
<event>
 5   0  0.2930868E-03  0.1153145E+04  0.7818609E-02  0.9154887E-01
       -1   -1    0    0    0  501  0.00000000000E+00  0.00000000000E+00  0.36659929737E+03  0.36659929740E+03  0.50400001928E-02 0.  1.
        1   -1    0    0  501    0  0.00000000000E+00  0.00000000000E+00 -0.90680933434E+03  0.90680933436E+03  0.50400001928E-02 0. -1.
    10030    2    1    2    0    0  0.00000000000E+00  0.00000000000E+00 -0.54021003698E+03  0.12734086318E+04  0.11531446828E+04 0.  0.
        3    1    3    3  502    0  0.20409898724E+03 -0.27651207135E+02 -0.86479958568E+03  0.88898780613E+03  0.10100000352E+00 0. -1.
       -3    1    3    3    0  502 -0.20409898724E+03  0.27651207135E+02  0.32458954870E+03  0.38442082563E+03  0.10100000352E+00 0.  1.
</event>
<event>
 5   0  0.2792518E-03  0.1214153E+04  0.7818609E-02  0.9100558E-01
        1   -1    0    0  501    0  0.00000000000E+00  0.00000000000E+00  0.71911588955E+03  0.71911588957E+03  0.50400001928E-02 0.  1.
       -1   -1    0    0    0  501  0.00000000000E+00  0.00000000000E+00 -0.51249317459E+03  0.51249317461E+03  0.50400001928E-02 0. -1.
    10030    2    1    2    0    0  0.00000000000E+00  0.00000000000E+00  0.20662271497E+03  0.12316090642E+04  0.12141531784E+04 0.  0.
        2    1    3    3  502    0  0.15588697224E+03  0.27333313214E+03  0.62993838129E+03  0.70415489309E+03  0.25500000920E-02 0.  1.
       -2    1    3    3    0  502 -0.15588697224E+03 -0.27333313214E+03 -0.42331566632E+03  0.52745417109E+03  0.25500000920E-02 0. -1.
</event>
<event>
 5   0  0.2792518E-03  0.1211712E+04  0.7818609E-02  0.9102666E-01
       -1   -1    0    0    0  501  0.00000000000E+00  0.00000000000E+00  0.60504182895E+03  0.60504182897E+03  0.50400001928E-02 0. -1.
        1   -1    0    0  501    0  0.00000000000E+00  0.00000000000E+00 -0.60667171164E+03  0.60667171166E+03  0.50400001928E-02 0.  1.
    10030    2    1    2    0    0  0.00000000000E+00  0.00000000000E+00 -0.16298826977E+01  0.12117135406E+04  0.12117124444E+04 0.  0.
        2    1    3    3  502    0 -0.49150171435E+03  0.87525251400E+02  0.34244497525E+03  0.60539504947E+03  0.25500000920E-02 0. -1.
       -2    1    3    3    0  502  0.49150171435E+03 -0.87525251400E+02 -0.34407485795E+03  0.60631849116E+03  0.25500000920E-02 0.  1.
</event>
<event>
 5   0  0.5031575E-03  0.1219744E+04  0.7818609E-02  0.9095748E-01
        2   -1    0    0  501    0  0.00000000000E+00  0.00000000000E+00  0.15549467472E+04  0.15549467472E+04  0.25500000920E-02 0. -1.
       -2   -1    0    0    0  501  0.00000000000E+00  0.00000000000E+00 -0.23920033075E+03  0.23920033077E+03  0.25500000920E-02 0.  1.
    10030    2    1    2    0    0  0.00000000000E+00  0.00000000000E+00  0.13157464165E+04  0.17941470780E+04  0.12197438686E+04 0.  0.
        5    1    3    3  502    0  0.47091331935E+03  0.18752701878E+03  0.15906835600E+03  0.53127259386E+03  0.46999998093E+01 0.  1.
       -5    1    3    3    0  502 -0.47091331935E+03 -0.18752701878E+03  0.11566780605E+04  0.12628744841E+04  0.46999998093E+01 0. -1.
</event>
<event>
 5   0  0.2926844E-03  0.1216794E+04  0.7818609E-02  0.9098283E-01
       -1   -1    0    0    0  501  0.00000000000E+00  0.00000000000E+00  0.94850425376E+03  0.94850425377E+03  0.50400001928E-02 0. -1.
        1   -1    0    0  501    0  0.00000000000E+00  0.00000000000E+00 -0.39024272453E+03  0.39024272456E+03  0.50400001928E-02 0.  1.
    10030    2    1    2    0    0  0.00000000000E+00  0.00000000000E+00  0.55826152923E+03  0.13387469783E+04  0.12167939583E+04 0.  0.
        5    1    3    3  502    0  0.36678581028E+03 -0.39502592849E+03 -0.31178448813E+02  0.53997361090E+03  0.46999998093E+01 0.  1.
       -5    1    3    3    0  502 -0.36678581028E+03  0.39502592849E+03  0.58943997804E+03  0.79877336743E+03  0.46999998093E+01 0. -1.
</event>
<event>
 5   0  0.2930868E-03  0.1215523E+04  0.7818609E-02  0.9099377E-01
        1   -1    0    0  501    0  0.00000000000E+00  0.00000000000E+00  0.40934703530E+03  0.40934703533E+03  0.50400001928E-02 0. -1.
       -1   -1    0    0    0  501  0.00000000000E+00  0.00000000000E+00 -0.90234970434E+03  0.90234970436E+03  0.50400001928E-02 0.  1.
    10030    2    1    2    0    0  0.00000000000E+00  0.00000000000E+00 -0.49300266905E+03  0.13116967397E+04  0.12155232228E+04 0.  0.
        3    1    3    3  502    0 -0.54214909001E+03  0.22535073499E+03 -0.77022365226E+02  0.59214951195E+03  0.10100000352E+00 0.  1.
       -3    1    3    3    0  502  0.54214909001E+03 -0.22535073499E+03 -0.41598030382E+03  0.71954722773E+03  0.10100000352E+00 0. -1.
</event>
<event>
 5   0  0.2926844E-03  0.1175143E+04  0.7818609E-02  0.9134897E-01
       -1   -1    0    0    0  501  0.00000000000E+00  0.00000000000E+00  0.22395503817E+03  0.22395503822E+03  0.50400001928E-02 0. -1.
        1   -1    0    0  501    0  0.00000000000E+00  0.00000000000E+00 -0.15415599124E+04  0.15415599124E+04  0.50400001928E-02 0.  1.
    10030    2    1    2    0    0  0.00000000000E+00  0.00000000000E+00 -0.13176048742E+04  0.17655149506E+04  0.11751427302E+04 0.  0.
        5    1    3    3  502    0  0.14632706359E+03 -0.40100232831E+03 -0.52234706099E+02  0.43007561122E+03  0.46999998093E+01 0. -1.
       -5    1    3    3    0  502 -0.14632706359E+03  0.40100232831E+03 -0.12653701681E+04  0.13354393394E+04  0.46999998093E+01 0.  1.
</event>
<event>
 5   0  0.2875848E-03  0.1213765E+04  0.7818609E-02  0.9100893E-01
        1   -1    0    0  501    0  0.00000000000E+00  0.00000000000E+00  0.70954196809E+03  0.70954196811E+03  0.50400001928E-02 0.  1.
       -1   -1    0    0    0  501  0.00000000000E+00  0.00000000000E+00 -0.51907609395E+03  0.51907609398E+03  0.50400001928E-02 0. -1.
    10030    2    1    2    0    0  0.00000000000E+00  0.00000000000E+00  0.19046587414E+03  0.12286180621E+04  0.12137648427E+04 0.  0.
        1    1    3    3  502    0  0.53694404917E+03  0.27882812511E+03  0.47194432080E+02  0.60686188687E+03  0.50400001928E-02 0.  1.
       -1    1    3    3    0  502 -0.53694404917E+03 -0.27882812511E+03  0.14327144206E+03  0.62175617522E+03  0.50400001928E-02 0. -1.
</event>
<event>
 5   0  0.5003526E-03  0.1207639E+04  0.7818609E-02  0.9106196E-01
       -2   -1    0    0    0  501  0.00000000000E+00  0.00000000000E+00  0.31047172054E+03  0.31047172055E+03  0.25500000920E-02 0. -1.
        2   -1    0    0  501    0  0.00000000000E+00  0.00000000000E+00 -0.11743355592E+04  0.11743355592E+04  0.25500000920E-02 0.  1.
    10030    2    1    2    0    0  0.00000000000E+00  0.00000000000E+00 -0.86386383865E+03  0.14848072797E+04  0.12076389884E+04 0.  0.
        2    1    3    3  502    0 -0.20034291593E+03 -0.29258888616E+03 -0.10328258324E+04  0.10920049177E+04  0.25500000920E-02 0.  1.
       -2    1    3    3    0  502  0.20034291593E+03  0.29258888616E+03  0.16896199374E+03  0.39280236202E+03  0.25500000920E-02 0. -1.
</event>
<event>
 5   0  0.5467554E-03  0.1218118E+04  0.7818609E-02  0.9097144E-01
       -2   -1    0    0    0  501  0.00000000000E+00  0.00000000000E+00  0.33983817295E+03  0.33983817296E+03  0.25500000920E-02 0. -1.
        2   -1    0    0  501    0  0.00000000000E+00  0.00000000000E+00 -0.10915578975E+04  0.10915578975E+04  0.25500000920E-02 0.  1.
    10030    2    1    2    0    0  0.00000000000E+00  0.00000000000E+00 -0.75171972459E+03  0.14313960705E+04  0.12181182891E+04 0.  0.
        1    1    3    3  502    0 -0.73108675882E+02 -0.38445391169E+03 -0.92426641741E+03  0.10037021964E+04  0.50400001928E-02 0.  1.
       -1    1    3    3    0  502  0.73108675882E+02  0.38445391169E+03  0.17254669282E+03  0.42769387409E+03  0.50400001928E-02 0. -1.
</event>
<event>
 5   0  0.1922125E-03  0.1195314E+04  0.7818609E-02  0.9116968E-01
        3   -1    0    0  501    0  0.00000000000E+00  0.00000000000E+00  0.88778119161E+03  0.88778119736E+03  0.10100000352E+00 0. -1.
       -3   -1    0    0    0  501  0.00000000000E+00  0.00000000000E+00 -0.40234477450E+03  0.40234478718E+03  0.10100000352E+00 0.  1.
    10030    2    1    2    0    0  0.00000000000E+00  0.00000000000E+00  0.48543641711E+03  0.12901259845E+04  0.11953144109E+04 0.  0.
        2    1    3    3  502    0 -0.41375134042E+03 -0.27588118496E+03  0.60051466867E+03  0.77969126403E+03  0.25500000920E-02 0. -1.
       -2    1    3    3    0  502  0.41375134042E+03  0.27588118496E+03 -0.11507825156E+03  0.51043472051E+03  0.25500000920E-02 0.  1.
</event>
<event>
 5   0  0.2792518E-03  0.1185112E+04  0.7818609E-02  0.9125989E-01
       -1   -1    0    0    0  501  0.00000000000E+00  0.00000000000E+00  0.75304021702E+03  0.75304021703E+03  0.50400001928E-02 0. -1.
        1   -1    0    0  501    0  0.00000000000E+00  0.00000000000E+00 -0.46627351860E+03  0.46627351863E+03  0.50400001928E-02 0.  1.
    10030    2    1    2    0    0  0.00000000000E+00  0.00000000000E+00  0.28676669841E+03  0.12193137357E+04  0.11851121663E+04 0.  0.
        2    1    3    3  502    0  0.43114403388E+03  0.23485614989E+03 -0.19797494672E+03  0.52937384581E+03  0.25500000920E-02 0.  1.
       -2    1    3    3    0  502 -0.43114403388E+03 -0.23485614989E+03  0.48474164513E+03  0.68993988986E+03  0.25500000920E-02 0. -1.
</event>
<event>
 5   0  0.2930868E-03  0.1199815E+04  0.7818609E-02  0.9113018E-01
        1   -1    0    0  501    0  0.00000000000E+00  0.00000000000E+00  0.13551144448E+04  0.13551144448E+04  0.50400001928E-02 0.  1.
       -1   -1    0    0    0  501  0.00000000000E+00  0.00000000000E+00 -0.26557840580E+03  0.26557840585E+03  0.50400001928E-02 0. -1.
    10030    2    1    2    0    0  0.00000000000E+00  0.00000000000E+00  0.10895360390E+04  0.16206928507E+04  0.11998152091E+04 0.  0.
        3    1    3    3  502    0  0.46197855179E+03  0.23168385473E+03  0.95623137869E+03  0.10869590842E+04  0.10100000352E+00 0.  1.
       -3    1    3    3    0  502 -0.46197855179E+03 -0.23168385473E+03  0.13330466034E+03  0.53373376652E+03  0.10100000352E+00 0. -1.
</event>
<event>
 5   0  0.5003526E-03  0.7704546E+03  0.7818609E-02  0.9603796E-01
       -2   -1    0    0    0  501  0.00000000000E+00  0.00000000000E+00  0.33437541886E+03  0.33437541887E+03  0.25500000920E-02 0. -1.
        2   -1    0    0  501    0  0.00000000000E+00  0.00000000000E+00 -0.44381275960E+03  0.44381275961E+03  0.25500000920E-02 0.  1.
    10030    2    1    2    0    0  0.00000000000E+00  0.00000000000E+00 -0.10943734074E+03  0.77818817848E+03  0.77045461227E+03 0.  0.
        2    1    3    3  502    0  0.92088192433E+02  0.35369891136E+03  0.68227943315E+02  0.37180399049E+03  0.25500000920E-02 0. -1.
       -2    1    3    3    0  502 -0.92088192433E+02 -0.35369891136E+03 -0.17766528405E+03  0.40638418799E+03  0.25500000920E-02 0.  1.
</event>
<event>
 5   0  0.5108045E-03  0.1212108E+04  0.7818609E-02  0.9102324E-01
        2   -1    0    0  501    0  0.00000000000E+00  0.00000000000E+00  0.10740614038E+04  0.10740614038E+04  0.25500000920E-02 0. -1.
       -2   -1    0    0    0  501  0.00000000000E+00  0.00000000000E+00 -0.34197449063E+03  0.34197449064E+03  0.25500000920E-02 0.  1.
    10030    2    1    2    0    0  0.00000000000E+00  0.00000000000E+00  0.73208691316E+03  0.14160358944E+04  0.12121082484E+04 0.  0.
        3    1    3    3  502    0 -0.45731902104E+03 -0.38195511901E+03  0.49545595432E+03  0.77492387549E+03  0.10100000352E+00 0. -1.
       -3    1    3    3    0  502  0.45731902104E+03  0.38195511901E+03  0.23663095885E+03  0.64111201894E+03  0.10100000352E+00 0.  1.
</event>
<event>
 5   0  0.2875848E-03  0.1197101E+04  0.7818609E-02  0.9115398E-01
        1   -1    0    0  501    0  0.00000000000E+00  0.00000000000E+00  0.40740944793E+03  0.40740944796E+03  0.50400001928E-02 0. -1.
       -1   -1    0    0    0  501  0.00000000000E+00  0.00000000000E+00 -0.87936770127E+03  0.87936770128E+03  0.50400001928E-02 0.  1.
    10030    2    1    2    0    0  0.00000000000E+00  0.00000000000E+00 -0.47195825334E+03  0.12867771492E+04  0.11971010145E+04 0.  0.
        1    1    3    3  502    0 -0.37558867112E+03  0.17705223515E+03 -0.69937473603E+03  0.81335070251E+03  0.50400001928E-02 0.  1.
       -1    1    3    3    0  502  0.37558867112E+03 -0.17705223515E+03  0.22741648269E+03  0.47342644674E+03  0.50400001928E-02 0. -1.
</event>
<event>
 5   0  0.5003526E-03  0.1208530E+04  0.7818609E-02  0.9105423E-01
        2   -1    0    0  501    0  0.00000000000E+00  0.00000000000E+00  0.10090816102E+04  0.10090816102E+04  0.25500000920E-02 0. -1.
       -2   -1    0    0    0  501  0.00000000000E+00  0.00000000000E+00 -0.36184973691E+03  0.36184973692E+03  0.25500000920E-02 0.  1.
    10030    2    1    2    0    0  0.00000000000E+00  0.00000000000E+00  0.64723187326E+03  0.13709313471E+04  0.12085295448E+04 0.  0.
        2    1    3    3  502    0 -0.36457326298E+02  0.59909471883E+03  0.40296006896E+03  0.72292491723E+03  0.25500000920E-02 0.  1.
       -2    1    3    3    0  502  0.36457326298E+02 -0.59909471883E+03  0.24427180430E+03  0.64800642987E+03  0.25500000920E-02 0. -1.
</event>
<event>
 5   0  0.2938349E-03  0.1202006E+04  0.7818609E-02  0.9111102E-01
        1   -1    0    0  501    0  0.00000000000E+00  0.00000000000E+00  0.11942227233E+04  0.11942227233E+04  0.50400001928E-02 0. -1.
       -1   -1    0    0    0  501  0.00000000000E+00  0.00000000000E+00 -0.30246022775E+03  0.30246022780E+03  0.50400001928E-02 0.  1.
    10030    2    1    2    0    0  0.00000000000E+00  0.00000000000E+00  0.89176249554E+03  0.14966829511E+04  0.12020064508E+04 0.  0.
        4    1    3    3  502    0 -0.43899393818E+02 -0.58564264950E+03  0.28691652647E+03  0.65362617431E+03  0.12699999809E+01 0.  1.
       -4    1    3    3    0  502  0.43899393818E+02  0.58564264950E+03  0.60484596907E+03  0.84305677679E+03  0.12699999809E+01 0. -1.
</event>
<event>
 5   0  0.2930868E-03  0.1189227E+04  0.7818609E-02  0.9122339E-01
        1   -1    0    0  501    0  0.00000000000E+00  0.00000000000E+00  0.87650956644E+03  0.87650956645E+03  0.50400001928E-02 0. -1.
       -1   -1    0    0    0  501  0.00000000000E+00  0.00000000000E+00 -0.40337838134E+03  0.40337838138E+03  0.50400001928E-02 0.  1.
    10030    2    1    2    0    0  0.00000000000E+00  0.00000000000E+00  0.47313118509E+03  0.12798879478E+04  0.11892266566E+04 0.  0.
        3    1    3    3  502    0  0.28063185897E+03  0.40180716074E+03 -0.12579471053E+03  0.50599165417E+03  0.10100000352E+00 0.  1.
       -3    1    3    3    0  502 -0.28063185897E+03 -0.40180716074E+03  0.59892589562E+03  0.77389629366E+03  0.10100000352E+00 0. -1.
</event>
<event>
 5   0  0.5031575E-03  0.1172418E+04  0.7818609E-02  0.9137348E-01
        2   -1    0    0  501    0  0.00000000000E+00  0.00000000000E+00  0.28715436187E+03  0.28715436188E+03  0.25500000920E-02 0.  1.
       -2   -1    0    0    0  501  0.00000000000E+00  0.00000000000E+00 -0.11967115598E+04  0.11967115598E+04  0.25500000920E-02 0. -1.
    10030    2    1    2    0    0  0.00000000000E+00  0.00000000000E+00 -0.90955719795E+03  0.14838659217E+04  0.11724179192E+04 0.  0.
        5    1    3    3  502    0  0.39095903417E+03  0.39007419157E+03 -0.70347725322E+03  0.89437641803E+03  0.46999998093E+01 0.  1.
       -5    1    3    3    0  502 -0.39095903417E+03 -0.39007419157E+03 -0.20607994473E+03  0.58948950368E+03  0.46999998093E+01 0. -1.
</event>
<event>
 5   0  0.5003526E-03  0.1219267E+04  0.7818609E-02  0.9096157E-01
        2   -1    0    0  501    0  0.00000000000E+00  0.00000000000E+00  0.67244667043E+03  0.67244667043E+03  0.25500000920E-02 0. -1.
       -2   -1    0    0    0  501  0.00000000000E+00  0.00000000000E+00 -0.55268789114E+03  0.55268789115E+03  0.25500000920E-02 0.  1.
    10030    2    1    2    0    0  0.00000000000E+00  0.00000000000E+00  0.11975877929E+03  0.12251345616E+04  0.12192672097E+04 0.  0.
        2    1    3    3  502    0 -0.30225663212E+03 -0.43413824086E+03  0.36435248753E+03  0.64232999231E+03  0.25500000920E-02 0. -1.
       -2    1    3    3    0  502  0.30225663212E+03  0.43413824086E+03 -0.24459370825E+03  0.58280456927E+03  0.25500000920E-02 0.  1.
</event>
<event>
 5   0  0.1922125E-03  0.1120838E+04  0.7818609E-02  0.9185117E-01
       -3   -1    0    0    0  501  0.00000000000E+00  0.00000000000E+00  0.57657606927E+03  0.57657607811E+03  0.10100000352E+00 0. -1.
        3   -1    0    0  501    0  0.00000000000E+00  0.00000000000E+00 -0.54471452234E+03  0.54471453170E+03  0.10100000352E+00 0.  1.
    10030    2    1    2    0    0  0.00000000000E+00  0.00000000000E+00  0.31861546930E+02  0.11212906098E+04  0.11208378444E+04 0.  0.
        1    1    3    3  502    0  0.41901103695E+03  0.13827387295E+03  0.36158366596E+03  0.57046705474E+03  0.50400001928E-02 0. -1.
       -1    1    3    3    0  502 -0.41901103695E+03 -0.13827387295E+03 -0.32972211903E+03  0.55082355508E+03  0.50400001928E-02 0.  1.
</event>
<event>
 5   0  0.2926844E-03  0.1201993E+04  0.7818609E-02  0.9111114E-01
        1   -1    0    0  501    0  0.00000000000E+00  0.00000000000E+00  0.66893333359E+03  0.66893333361E+03  0.50400001928E-02 0. -1.
       -1   -1    0    0    0  501  0.00000000000E+00  0.00000000000E+00 -0.53995955705E+03  0.53995955707E+03  0.50400001928E-02 0.  1.
    10030    2    1    2    0    0  0.00000000000E+00  0.00000000000E+00  0.12897377655E+03  0.12088928907E+04  0.12019932554E+04 0.  0.
        5    1    3    3  502    0  0.18178463856E+03 -0.30911450350E+03  0.54951797248E+03  0.65619320567E+03  0.46999998093E+01 0. -1.
       -5    1    3    3    0  502 -0.18178463856E+03  0.30911450350E+03 -0.42054419593E+03  0.55269968502E+03  0.46999998093E+01 0.  1.
</event>
<event>
 5   0  0.2792518E-03  0.1215606E+04  0.7818609E-02  0.9099306E-01
        1   -1    0    0  501    0  0.00000000000E+00  0.00000000000E+00  0.28639810027E+04  0.28639810027E+04  0.50400001928E-02 0.  1.
       -1   -1    0    0    0  501  0.00000000000E+00  0.00000000000E+00 -0.12898977081E+03  0.12898977091E+03  0.50400001928E-02 0. -1.
    10030    2    1    2    0    0  0.00000000000E+00  0.00000000000E+00  0.27349912318E+04  0.29929707736E+04  0.12156056158E+04 0.  0.
        2    1    3    3  502    0  0.44510219553E+03 -0.31837238464E+03  0.20186669860E+04  0.20915289480E+04  0.25500000920E-02 0. -1.
       -2    1    3    3    0  502 -0.44510219553E+03  0.31837238464E+03  0.71632424582E+03  0.90144182559E+03  0.25500000920E-02 0.  1.
</event>
<event>
 5   0  0.2875848E-03  0.1199334E+04  0.7818609E-02  0.9113439E-01
       -1   -1    0    0    0  501  0.00000000000E+00  0.00000000000E+00  0.25275754973E+03  0.25275754978E+03  0.50400001928E-02 0.  1.
        1   -1    0    0  501    0  0.00000000000E+00  0.00000000000E+00 -0.14227100646E+04  0.14227100646E+04  0.50400001928E-02 0. -1.
    10030    2    1    2    0    0  0.00000000000E+00  0.00000000000E+00 -0.11699525149E+04  0.16754676144E+04  0.11993343320E+04 0.  0.
        1    1    3    3  502    0 -0.22718180882E+03  0.27346279917E+03  0.89655497997E+02  0.36664913083E+03  0.50400001928E-02 0.  1.
       -1    1    3    3    0  502  0.22718180882E+03 -0.27346279917E+03 -0.12596080129E+04  0.13088184836E+04  0.50400001928E-02 0. -1.
</event>
<event>
 5   0  0.5003526E-03  0.1194895E+04  0.7818609E-02  0.9117337E-01
        2   -1    0    0  501    0  0.00000000000E+00  0.00000000000E+00  0.46599628021E+03  0.46599628022E+03  0.25500000920E-02 0. -1.
       -2   -1    0    0    0  501  0.00000000000E+00  0.00000000000E+00 -0.76597911485E+03  0.76597911486E+03  0.25500000920E-02 0.  1.
    10030    2    1    2    0    0  0.00000000000E+00  0.00000000000E+00 -0.29998283464E+03  0.12319753951E+04  0.11948948376E+04 0.  0.
        2    1    3    3  502    0  0.20494070889E+03  0.34405598564E+03  0.30712727737E+03  0.50468047310E+03  0.25500000920E-02 0. -1.
       -2    1    3    3    0  502 -0.20494070889E+03 -0.34405598564E+03 -0.60711011201E+03  0.72729492198E+03  0.25500000920E-02 0.  1.
</event>
<event>
 5   0  0.2875848E-03  0.1193371E+04  0.7818609E-02  0.9118679E-01
       -1   -1    0    0    0  501  0.00000000000E+00  0.00000000000E+00  0.71441475579E+03  0.71441475581E+03  0.50400001928E-02 0. -1.
        1   -1    0    0  501    0  0.00000000000E+00  0.00000000000E+00 -0.49835680301E+03  0.49835680303E+03  0.50400001928E-02 0.  1.
    10030    2    1    2    0    0  0.00000000000E+00  0.00000000000E+00  0.21605795278E+03  0.12127715588E+04  0.11933707785E+04 0.  0.
        1    1    3    3  502    0 -0.54525135728E+03 -0.11525256209E+03  0.32468788872E+03  0.64498404692E+03  0.50400001928E-02 0. -1.
       -1    1    3    3    0  502  0.54525135728E+03  0.11525256209E+03 -0.10862993594E+03  0.56778751192E+03  0.50400001928E-02 0.  1.
</event>
<event>
 5   0  0.1922125E-03  0.1163713E+04  0.7818609E-02  0.9145225E-01
        4   -1    0    0  501    0  0.00000000000E+00  0.00000000000E+00  0.67378705263E+03  0.67378824952E+03  0.12699999809E+01 0. -1.
       -4   -1    0    0    0  501  0.00000000000E+00  0.00000000000E+00 -0.50246609797E+03  0.50246770295E+03  0.12699999809E+01 0.  1.
    10030    2    1    2    0    0  0.00000000000E+00  0.00000000000E+00  0.17132095466E+03  0.11762559525E+04  0.11637126777E+04 0.  0.
        4    1    3    3  502    0  0.28062100700E+03 -0.79538895558E+02 -0.42323481388E+03  0.51400769066E+03  0.12699999809E+01 0.  1.
       -4    1    3    3    0  502 -0.28062100700E+03  0.79538895558E+02  0.59455576854E+03  0.66224826181E+03  0.12699999809E+01 0. -1.
</event>
<event>
 5   0  0.2930868E-03  0.1008415E+04  0.7818609E-02  0.9299363E-01
       -1   -1    0    0    0  501  0.00000000000E+00  0.00000000000E+00  0.66207822721E+03  0.66207822723E+03  0.50400001928E-02 0.  1.
        1   -1    0    0  501    0  0.00000000000E+00  0.00000000000E+00 -0.38398093416E+03  0.38398093419E+03  0.50400001928E-02 0. -1.
    10030    2    1    2    0    0  0.00000000000E+00  0.00000000000E+00  0.27809729306E+03  0.10460591614E+04  0.10084154227E+04 0.  0.
        3    1    3    3  502    0 -0.25130484743E+03 -0.43662450984E+03  0.16056709984E+03  0.52875031223E+03  0.10100000352E+00 0. -1.
       -3    1    3    3    0  502  0.25130484743E+03  0.43662450984E+03  0.11753019321E+03  0.51730884919E+03  0.10100000352E+00 0.  1.
</event>
<event>
 5   0  0.1922125E-03  0.1210915E+04  0.7818609E-02  0.9103356E-01
        3   -1    0    0  501    0  0.00000000000E+00  0.00000000000E+00  0.42164749847E+03  0.42164751057E+03  0.10100000352E+00 0. -1.
       -3   -1    0    0    0  501  0.00000000000E+00  0.00000000000E+00 -0.86939574715E+03  0.86939575302E+03  0.10100000352E+00 0.  1.
    10030    2    1    2    0    0  0.00000000000E+00  0.00000000000E+00 -0.44774824868E+03  0.12910432636E+04  0.12109146189E+04 0.  0.
        1    1    3    3  502    0  0.12753801603E+03  0.86737952490E+02 -0.84809860703E+03  0.86200966654E+03  0.50400001928E-02 0.  1.
       -1    1    3    3    0  502 -0.12753801603E+03 -0.86737952490E+02  0.40035035835E+03  0.42903359704E+03  0.50400001928E-02 0. -1.
</event>
<event>
 5   0  0.2926844E-03  0.1190187E+04  0.7818609E-02  0.9121489E-01
        1   -1    0    0  501    0  0.00000000000E+00  0.00000000000E+00  0.15015204249E+04  0.15015204249E+04  0.50400001928E-02 0. -1.
       -1   -1    0    0    0  501  0.00000000000E+00  0.00000000000E+00 -0.23585195787E+03  0.23585195793E+03  0.50400001928E-02 0.  1.
    10030    2    1    2    0    0  0.00000000000E+00  0.00000000000E+00  0.12656684670E+04  0.17373723829E+04  0.11901874341E+04 0.  0.
        5    1    3    3  502    0  0.42328633657E+03 -0.33245730404E+03  0.26234811858E+03  0.59878861634E+03  0.46999998093E+01 0.  1.
       -5    1    3    3    0  502 -0.42328633657E+03  0.33245730404E+03  0.10033203485E+04  0.11385837665E+04  0.46999998093E+01 0. -1.
</event>
<event>
 5   0  0.5003526E-03  0.1162587E+04  0.7818609E-02  0.9146249E-01
        2   -1    0    0  501    0  0.00000000000E+00  0.00000000000E+00  0.51241431375E+03  0.51241431376E+03  0.25500000920E-02 0.  1.
       -2   -1    0    0    0  501  0.00000000000E+00  0.00000000000E+00 -0.65943162864E+03  0.65943162865E+03  0.25500000920E-02 0. -1.
    10030    2    1    2    0    0  0.00000000000E+00  0.00000000000E+00 -0.14701731489E+03  0.11718459424E+04  0.11625871244E+04 0.  0.
        2    1    3    3  502    0 -0.16492116859E+03  0.54385715136E+03  0.49622352863E+02  0.57047521493E+03  0.25500000920E-02 0.  1.
       -2    1    3    3    0  502  0.16492116859E+03 -0.54385715136E+03 -0.19663966775E+03  0.60137072748E+03  0.25500000920E-02 0. -1.
</event>
<event>
 5   0  0.1922125E-03  0.1204218E+04  0.7818609E-02  0.9109173E-01
        3   -1    0    0  501    0  0.00000000000E+00  0.00000000000E+00  0.35932591086E+03  0.35932592505E+03  0.10100000352E+00 0. -1.
       -3   -1    0    0    0  501  0.00000000000E+00  0.00000000000E+00 -0.10089312463E+04  0.10089312513E+04  0.10100000352E+00 0.  1.
    10030    2    1    2    0    0  0.00000000000E+00  0.00000000000E+00 -0.64960533543E+03  0.13682571764E+04  0.12042178411E+04 0.  0.
        1    1    3    3  502    0  0.34070366223E+03 -0.65955856125E+02  0.23426637699E+03  0.41870024579E+03  0.50400001928E-02 0. -1.
       -1    1    3    3    0  502 -0.34070366223E+03  0.65955856125E+02 -0.88387171242E+03  0.94955693060E+03  0.50400001928E-02 0.  1.
</event>
<event>
 5   0  0.2875848E-03  0.1094927E+04  0.7818609E-02  0.9210150E-01
        1   -1    0    0  501    0  0.00000000000E+00  0.00000000000E+00  0.24433769235E+03  0.24433769240E+03  0.50400001928E-02 0. -1.
       -1   -1    0    0    0  501  0.00000000000E+00  0.00000000000E+00 -0.12266479069E+04  0.12266479069E+04  0.50400001928E-02 0.  1.
    10030    2    1    2    0    0  0.00000000000E+00  0.00000000000E+00 -0.98231021458E+03  0.14709855993E+04  0.10949270641E+04 0.  0.
        1    1    3    3  502    0  0.16595174764E+03  0.34804500348E+03  0.30965306711E+02  0.38682574532E+03  0.50400001928E-02 0. -1.
       -1    1    3    3    0  502 -0.16595174764E+03 -0.34804500348E+03 -0.10132755213E+04  0.10841598540E+04  0.50400001928E-02 0.  1.
</event>
<event>
 5   0  0.5003526E-03  0.1284076E+04  0.7818609E-02  0.9042289E-01
       -2   -1    0    0    0  501  0.00000000000E+00  0.00000000000E+00  0.89497631674E+03  0.89497631674E+03  0.25500000920E-02 0. -1.
        2   -1    0    0  501    0  0.00000000000E+00  0.00000000000E+00 -0.46058510520E+03  0.46058510521E+03  0.25500000920E-02 0.  1.
    10030    2    1    2    0    0  0.00000000000E+00  0.00000000000E+00  0.43439121154E+03  0.13555614220E+04  0.12840759495E+04 0.  0.
        2    1    3    3  502    0 -0.81243902545E+02 -0.16352980315E+03  0.86698663059E+03  0.88600698973E+03  0.25500000920E-02 0. -1.
       -2    1    3    3    0  502  0.81243902545E+02  0.16352980315E+03 -0.43259541906E+03  0.46955443222E+03  0.25500000920E-02 0.  1.
</event>
<event>
 5   0  0.2792518E-03  0.1188474E+04  0.7818609E-02  0.9123006E-01
        1   -1    0    0  501    0  0.00000000000E+00  0.00000000000E+00  0.65777323075E+03  0.65777323077E+03  0.50400001928E-02 0. -1.
       -1   -1    0    0    0  501  0.00000000000E+00  0.00000000000E+00 -0.53683763304E+03  0.53683763306E+03  0.50400001928E-02 0.  1.
    10030    2    1    2    0    0  0.00000000000E+00  0.00000000000E+00  0.12093559771E+03  0.11946108638E+04  0.11884736838E+04 0.  0.
        2    1    3    3  502    0  0.27880262464E+03  0.22269653024E+03  0.53809814516E+03  0.64565800694E+03  0.25500000920E-02 0. -1.
       -2    1    3    3    0  502 -0.27880262464E+03 -0.22269653024E+03 -0.41716254745E+03  0.54895285689E+03  0.25500000920E-02 0.  1.
</event>
<event>
 5   0  0.2792518E-03  0.1206531E+04  0.7818609E-02  0.9107159E-01
        1   -1    0    0  501    0  0.00000000000E+00  0.00000000000E+00  0.14732674729E+04  0.14732674729E+04  0.50400001928E-02 0.  1.
       -1   -1    0    0    0  501  0.00000000000E+00  0.00000000000E+00 -0.24702195958E+03  0.24702195963E+03  0.50400001928E-02 0. -1.
    10030    2    1    2    0    0  0.00000000000E+00  0.00000000000E+00  0.12262455133E+04  0.17202894325E+04  0.12065312564E+04 0.  0.
        2    1    3    3  502    0  0.27429337450E+03 -0.49414363481E+03  0.31229747397E+03  0.64571239680E+03  0.25500000920E-02 0. -1.
       -2    1    3    3    0  502 -0.27429337450E+03  0.49414363481E+03  0.91394803935E+03  0.10745770357E+04  0.25500000920E-02 0.  1.
</event>
<event>
 5   0  0.2938349E-03  0.1200408E+04  0.7818609E-02  0.9112500E-01
        1   -1    0    0  501    0  0.00000000000E+00  0.00000000000E+00  0.68724435929E+03  0.68724435930E+03  0.50400001928E-02 0.  1.
       -1   -1    0    0    0  501  0.00000000000E+00  0.00000000000E+00 -0.52418729085E+03  0.52418729087E+03  0.50400001928E-02 0. -1.
    10030    2    1    2    0    0  0.00000000000E+00  0.00000000000E+00  0.16305706844E+03  0.12114316502E+04  0.12004078621E+04 0.  0.
        4    1    3    3  502    0 -0.51109181288E+03 -0.21379424648E+03  0.31456102571E+03  0.63708168457E+03  0.12699999809E+01 0.  1.
       -4    1    3    3    0  502  0.51109181288E+03  0.21379424648E+03 -0.15150395728E+03  0.57434996560E+03  0.12699999809E+01 0. -1.
</event>
<event>
 5   0  0.2938349E-03  0.1198839E+04  0.7818609E-02  0.9113873E-01
       -1   -1    0    0    0  501  0.00000000000E+00  0.00000000000E+00  0.33886955757E+03  0.33886955761E+03  0.50400001928E-02 0.  1.
        1   -1    0    0  501    0  0.00000000000E+00  0.00000000000E+00 -0.10603016166E+04  0.10603016166E+04  0.50400001928E-02 0. -1.
    10030    2    1    2    0    0  0.00000000000E+00  0.00000000000E+00 -0.72143205900E+03  0.13991711742E+04  0.11988393383E+04 0.  0.
        4    1    3    3  502    0 -0.25170868721E+03 -0.86887074956E+02 -0.98748033344E+03  0.10227539532E+04  0.12699999809E+01 0. -1.
       -4    1    3    3    0  502  0.25170868721E+03  0.86887074956E+02  0.26604827444E+03  0.37641722097E+03  0.12699999809E+01 0.  1.
</event>
<event>
 5   0  0.2926844E-03  0.1189036E+04  0.7818609E-02  0.9122508E-01
        1   -1    0    0  501    0  0.00000000000E+00  0.00000000000E+00  0.16015064799E+04  0.16015064799E+04  0.50400001928E-02 0.  1.
       -1   -1    0    0    0  501  0.00000000000E+00  0.00000000000E+00 -0.22069932002E+03  0.22069932008E+03  0.50400001928E-02 0. -1.
    10030    2    1    2    0    0  0.00000000000E+00  0.00000000000E+00  0.13808071599E+04  0.18222058000E+04  0.11890355607E+04 0.  0.
        5    1    3    3  502    0 -0.29428027799E+03 -0.44256400524E+03  0.28215350107E+03  0.60174452130E+03  0.46999998093E+01 0. -1.
       -5    1    3    3    0  502  0.29428027799E+03  0.44256400524E+03  0.10986536588E+04  0.12204612787E+04  0.46999998093E+01 0.  1.
</event>
<event>
 5   0  0.2930868E-03  0.1174893E+04  0.7818609E-02  0.9135121E-01
       -1   -1    0    0    0  501  0.00000000000E+00  0.00000000000E+00  0.59270052677E+03  0.59270052679E+03  0.50400001928E-02 0. -1.
        1   -1    0    0  501    0  0.00000000000E+00  0.00000000000E+00 -0.58223904189E+03  0.58223904192E+03  0.50400001928E-02 0.  1.
    10030    2    1    2    0    0  0.00000000000E+00  0.00000000000E+00  0.10461484874E+02  0.11749395687E+04  0.11748929940E+04 0.  0.
        3    1    3    3  502    0  0.58778463287E+02 -0.95924456203E+02 -0.57136558501E+03  0.58233585754E+03  0.10100000352E+00 0.  1.
       -3    1    3    3    0  502 -0.58778463287E+02  0.95924456203E+02  0.58182706988E+03  0.59260371117E+03  0.10100000352E+00 0. -1.
</event>
<event>
 5   0  0.5031575E-03  0.1234296E+04  0.7818609E-02  0.9083356E-01
        2   -1    0    0  501    0  0.00000000000E+00  0.00000000000E+00  0.16858008080E+04  0.16858008080E+04  0.25500000920E-02 0.  1.
       -2   -1    0    0    0  501  0.00000000000E+00  0.00000000000E+00 -0.22592929204E+03  0.22592929205E+03  0.25500000920E-02 0. -1.
    10030    2    1    2    0    0  0.00000000000E+00  0.00000000000E+00  0.14598715160E+04  0.19117301000E+04  0.12342962093E+04 0.  0.
        5    1    3    3  502    0  0.14601812490E+03  0.54231419342E+01  0.16585942193E+04  0.16650247979E+04  0.46999998093E+01 0.  1.
       -5    1    3    3    0  502 -0.14601812490E+03 -0.54231419342E+01 -0.19872270337E+03  0.24670530213E+03  0.46999998093E+01 0. -1.
</event>
<event>
 5   0  0.2926844E-03  0.1170028E+04  0.7818609E-02  0.9139503E-01
       -1   -1    0    0    0  501  0.00000000000E+00  0.00000000000E+00  0.24116083139E+03  0.24116083144E+03  0.50400001928E-02 0. -1.
        1   -1    0    0  501    0  0.00000000000E+00  0.00000000000E+00 -0.14191409486E+04  0.14191409486E+04  0.50400001928E-02 0.  1.
    10030    2    1    2    0    0  0.00000000000E+00  0.00000000000E+00 -0.11779801172E+04  0.16603017801E+04  0.11700277109E+04 0.  0.
        5    1    3    3  502    0  0.37813404994E+03 -0.31981256963E+03 -0.10308382062E+04  0.11436410874E+04  0.46999998093E+01 0.  1.
       -5    1    3    3    0  502 -0.37813404994E+03  0.31981256963E+03 -0.14714191108E+03  0.51666069273E+03  0.46999998093E+01 0. -1.
</event>
<event>
 5   0  0.5467554E-03  0.1214845E+04  0.7818609E-02  0.9099961E-01
       -2   -1    0    0    0  501  0.00000000000E+00  0.00000000000E+00  0.43312828737E+03  0.43312828738E+03  0.25500000920E-02 0.  1.
        2   -1    0    0  501    0  0.00000000000E+00  0.00000000000E+00 -0.85185343211E+03  0.85185343212E+03  0.25500000920E-02 0. -1.
    10030    2    1    2    0    0  0.00000000000E+00  0.00000000000E+00 -0.41872514474E+03  0.12849817195E+04  0.12148445467E+04 0.  0.
        1    1    3    3  502    0  0.48906524243E+02 -0.59667027764E+02  0.42792496420E+03  0.43482384632E+03  0.50400001928E-02 0.  1.
       -1    1    3    3    0  502 -0.48906524243E+02  0.59667027764E+02 -0.84665010894E+03  0.85015787317E+03  0.50400001928E-02 0. -1.
</event>
<event>
 5   0  0.2930868E-03  0.1208157E+04  0.7818609E-02  0.9105747E-01
       -1   -1    0    0    0  501  0.00000000000E+00  0.00000000000E+00  0.11800764355E+04  0.11800764355E+04  0.50400001928E-02 0.  1.
        1   -1    0    0  501    0  0.00000000000E+00  0.00000000000E+00 -0.30922645041E+03  0.30922645045E+03  0.50400001928E-02 0. -1.
    10030    2    1    2    0    0  0.00000000000E+00  0.00000000000E+00  0.87084998504E+03  0.14893028859E+04  0.12081570219E+04 0.  0.
        3    1    3    3  502    0  0.22732508359E+02  0.17191928331E+03 -0.27788270100E+03  0.32755428959E+03  0.10100000352E+00 0. -1.
       -3    1    3    3    0  502 -0.22732508359E+02 -0.17191928331E+03  0.11487326860E+04  0.11617485963E+04  0.10100000352E+00 0.  1.
</event>
<event>
 5   0  0.2938349E-03  0.1244941E+04  0.7818609E-02  0.9074404E-01
       -1   -1    0    0    0  501  0.00000000000E+00  0.00000000000E+00  0.32031692231E+03  0.32031692235E+03  0.50400001928E-02 0.  1.
        1   -1    0    0  501    0  0.00000000000E+00  0.00000000000E+00 -0.12096440035E+04  0.12096440035E+04  0.50400001928E-02 0. -1.
    10030    2    1    2    0    0  0.00000000000E+00  0.00000000000E+00 -0.88932708122E+03  0.15299609259E+04  0.12449408730E+04 0.  0.
        4    1    3    3  502    0 -0.43734538772E+03 -0.98428424431E+02 -0.97540271914E+03  0.10734855473E+04  0.12699999809E+01 0. -1.
       -4    1    3    3    0  502  0.43734538772E+03  0.98428424431E+02  0.86075637920E+02  0.45647537857E+03  0.12699999809E+01 0.  1.
</event>
<event>
 5   0  0.5467554E-03  0.1185149E+04  0.7818609E-02  0.9125956E-01
        2   -1    0    0  501    0  0.00000000000E+00  0.00000000000E+00  0.73673151123E+03  0.73673151123E+03  0.25500000920E-02 0.  1.
       -2   -1    0    0    0  501  0.00000000000E+00  0.00000000000E+00 -0.47662480426E+03  0.47662480427E+03  0.25500000920E-02 0. -1.
    10030    2    1    2    0    0  0.00000000000E+00  0.00000000000E+00  0.26010670696E+03  0.12133563155E+04  0.11851489566E+04 0.  0.
        1    1    3    3  502    0  0.32366251300E+03 -0.48938556586E+03  0.45078772783E+02  0.58846219095E+03  0.50400001928E-02 0.  1.
       -1    1    3    3    0  502 -0.32366251300E+03  0.48938556586E+03  0.21502793418E+03  0.62489412455E+03  0.50400001928E-02 0. -1.
</event>
<event>
 5   0  0.5031575E-03  0.1350051E+04  0.7818609E-02  0.8990789E-01
        2   -1    0    0  501    0  0.00000000000E+00  0.00000000000E+00  0.48467633137E+03  0.48467633138E+03  0.25500000920E-02 0. -1.
       -2   -1    0    0    0  501  0.00000000000E+00  0.00000000000E+00 -0.94013197758E+03  0.94013197758E+03  0.25500000920E-02 0.  1.
    10030    2    1    2    0    0  0.00000000000E+00  0.00000000000E+00 -0.45545564620E+03  0.14248083090E+04  0.13500514330E+04 0.  0.
        5    1    3    3  502    0  0.10880064966E+03  0.34915466207E+03 -0.82649858875E+03  0.90380781509E+03  0.46999998093E+01 0.  1.
       -5    1    3    3    0  502 -0.10880064966E+03 -0.34915466207E+03  0.37104294254E+03  0.52100049388E+03  0.46999998093E+01 0. -1.
</event>
<event>
 5   0  0.5467554E-03  0.1212709E+04  0.7818609E-02  0.9101805E-01
        2   -1    0    0  501    0  0.00000000000E+00  0.00000000000E+00  0.76808731194E+03  0.76808731195E+03  0.25500000920E-02 0. -1.
       -2   -1    0    0    0  501  0.00000000000E+00  0.00000000000E+00 -0.47867667787E+03  0.47867667787E+03  0.25500000920E-02 0.  1.
    10030    2    1    2    0    0  0.00000000000E+00  0.00000000000E+00  0.28941063408E+03  0.12467639898E+04  0.12127085104E+04 0.  0.
        1    1    3    3  502    0 -0.33758620645E+02  0.53758895611E+03 -0.14154486950E+03  0.55693489773E+03  0.50400001928E-02 0.  1.
       -1    1    3    3    0  502  0.33758620645E+02 -0.53758895611E+03  0.43095550358E+03  0.68982909209E+03  0.50400001928E-02 0. -1.
</event>
<event>
 5   0  0.5108045E-03  0.1164116E+04  0.7818609E-02  0.9144859E-01
        2   -1    0    0  501    0  0.00000000000E+00  0.00000000000E+00  0.41046249009E+03  0.41046249010E+03  0.25500000920E-02 0. -1.
       -2   -1    0    0    0  501  0.00000000000E+00  0.00000000000E+00 -0.82539018603E+03  0.82539018604E+03  0.25500000920E-02 0.  1.
    10030    2    1    2    0    0  0.00000000000E+00  0.00000000000E+00 -0.41492769594E+03  0.12358526761E+04  0.11641163362E+04 0.  0.
        3    1    3    3  502    0 -0.23492337940E+03  0.49952992485E+03 -0.11501467489E+02  0.55213352911E+03  0.10100000352E+00 0. -1.
       -3    1    3    3    0  502  0.23492337940E+03 -0.49952992485E+03 -0.40342622845E+03  0.68371914703E+03  0.10100000352E+00 0.  1.
</event>
<event>
 5   0  0.5003526E-03  0.1346364E+04  0.7818609E-02  0.8993585E-01
        2   -1    0    0  501    0  0.00000000000E+00  0.00000000000E+00  0.17112825776E+04  0.17112825776E+04  0.25500000920E-02 0.  1.
       -2   -1    0    0    0  501  0.00000000000E+00  0.00000000000E+00 -0.26481560035E+03  0.26481560036E+03  0.25500000920E-02 0. -1.
    10030    2    1    2    0    0  0.00000000000E+00  0.00000000000E+00  0.14464669773E+04  0.19760981780E+04  0.13463644724E+04 0.  0.
        2    1    3    3  502    0  0.25935191514E+02  0.14859459247E+03  0.16861591717E+04  0.16928927135E+04  0.25500000920E-02 0.  1.
       -2    1    3    3    0  502 -0.25935191514E+02 -0.14859459247E+03 -0.23969219440E+03  0.28320546452E+03  0.25500000920E-02 0. -1.
</event>
<event>
 5   0  0.5467554E-03  0.1224852E+04  0.7818609E-02  0.9091377E-01
       -2   -1    0    0    0  501  0.00000000000E+00  0.00000000000E+00  0.30167971698E+03  0.30167971699E+03  0.25500000920E-02 0. -1.
        2   -1    0    0  501    0  0.00000000000E+00  0.00000000000E+00 -0.12432582530E+04  0.12432582530E+04  0.25500000920E-02 0.  1.
    10030    2    1    2    0    0  0.00000000000E+00  0.00000000000E+00 -0.94157853602E+03  0.15449379700E+04  0.12248523142E+04 0.  0.
        1    1    3    3  502    0  0.27964824277E+02  0.35659956210E+03  0.15623120802E+03  0.39032482559E+03  0.50400001928E-02 0. -1.
       -1    1    3    3    0  502 -0.27964824277E+02 -0.35659956210E+03 -0.10978097440E+04  0.11546131444E+04  0.50400001928E-02 0.  1.
</event>
<event>
 5   0  0.2926844E-03  0.1184618E+04  0.7818609E-02  0.9126428E-01
        1   -1    0    0  501    0  0.00000000000E+00  0.00000000000E+00  0.80959286762E+03  0.80959286763E+03  0.50400001928E-02 0.  1.
       -1   -1    0    0    0  501  0.00000000000E+00  0.00000000000E+00 -0.43334148041E+03  0.43334148043E+03  0.50400001928E-02 0. -1.
    10030    2    1    2    0    0  0.00000000000E+00  0.00000000000E+00  0.37625138721E+03  0.12429343481E+04  0.11846183720E+04 0.  0.
        5    1    3    3  502    0  0.98505309949E+02 -0.18660134764E+03 -0.39254832363E+03  0.44569006654E+03  0.46999998093E+01 0. -1.
       -5    1    3    3    0  502 -0.98505309949E+02  0.18660134764E+03  0.76879971085E+03  0.79724428152E+03  0.46999998093E+01 0.  1.
</event>
<event>
 5   0  0.2926844E-03  0.1228414E+04  0.7818609E-02  0.9088343E-01
       -1   -1    0    0    0  501  0.00000000000E+00  0.00000000000E+00  0.30249936518E+03  0.30249936522E+03  0.50400001928E-02 0. -1.
        1   -1    0    0  501    0  0.00000000000E+00  0.00000000000E+00 -0.12471107087E+04  0.12471107087E+04  0.50400001928E-02 0.  1.
    10030    2    1    2    0    0  0.00000000000E+00  0.00000000000E+00 -0.94461134351E+03  0.15496100739E+04  0.12284139330E+04 0.  0.
        5    1    3    3  502    0 -0.25620050934E+03  0.40758008835E+03 -0.95343435590E+03  0.10680914710E+04  0.46999998093E+01 0.  1.
       -5    1    3    3    0  502  0.25620050934E+03 -0.40758008835E+03  0.88230123950E+01  0.48151860291E+03  0.46999998093E+01 0. -1.
</event>
<event>
 5   0  0.5003526E-03  0.1214104E+04  0.7818609E-02  0.9100600E-01
        2   -1    0    0  501    0  0.00000000000E+00  0.00000000000E+00  0.13106949900E+04  0.13106949900E+04  0.25500000920E-02 0.  1.
       -2   -1    0    0    0  501  0.00000000000E+00  0.00000000000E+00 -0.28115802490E+03  0.28115802491E+03  0.25500000920E-02 0. -1.
    10030    2    1    2    0    0  0.00000000000E+00  0.00000000000E+00  0.10295369651E+04  0.15918530149E+04  0.12141044677E+04 0.  0.
        2    1    3    3  502    0  0.29024734476E+03  0.40774652664E+03  0.64357083447E+02  0.50462122956E+03  0.25500000920E-02 0. -1.
       -2    1    3    3    0  502 -0.29024734476E+03 -0.40774652664E+03  0.96517988161E+03  0.10872317853E+04  0.25500000920E-02 0.  1.
</event>
<event>
 5   0  0.2930868E-03  0.1181157E+04  0.7818609E-02  0.9129511E-01
        1   -1    0    0  501    0  0.00000000000E+00  0.00000000000E+00  0.10675733822E+04  0.10675733822E+04  0.50400001928E-02 0.  1.
       -1   -1    0    0    0  501  0.00000000000E+00  0.00000000000E+00 -0.32670638930E+03  0.32670638934E+03  0.50400001928E-02 0. -1.
    10030    2    1    2    0    0  0.00000000000E+00  0.00000000000E+00  0.74086699287E+03  0.13942797715E+04  0.11811571361E+04 0.  0.
        3    1    3    3  502    0 -0.22687401097E+03  0.19888468149E+03  0.96973687449E+03  0.10155868005E+04  0.10100000352E+00 0.  1.
       -3    1    3    3    0  502  0.22687401097E+03 -0.19888468149E+03 -0.22886988162E+03  0.37869297102E+03  0.10100000352E+00 0. -1.
</event>
<event>
 5   0  0.2926844E-03  0.1387723E+04  0.7818609E-02  0.8962754E-01
       -1   -1    0    0    0  501  0.00000000000E+00  0.00000000000E+00  0.59156565680E+03  0.59156565682E+03  0.50400001928E-02 0. -1.
        1   -1    0    0  501    0  0.00000000000E+00  0.00000000000E+00 -0.81384669501E+03  0.81384669503E+03  0.50400001928E-02 0.  1.
    10030    2    1    2    0    0  0.00000000000E+00  0.00000000000E+00 -0.22228103821E+03  0.14054123518E+04  0.13877229618E+04 0.  0.
        5    1    3    3  502    0 -0.17687667469E+03  0.98090349296E+02 -0.78331363770E+03  0.80901756451E+03  0.46999998093E+01 0.  1.
       -5    1    3    3    0  502  0.17687667469E+03 -0.98090349296E+02  0.56103259949E+03  0.59639478734E+03  0.46999998093E+01 0. -1.
</event>
<event>
 5   0  0.1922125E-03  0.7445766E+03  0.7818609E-02  0.9643897E-01
       -4   -1    0    0    0  501  0.00000000000E+00  0.00000000000E+00  0.95042536132E+03  0.95042620983E+03  0.12699999809E+01 0. -1.
        4   -1    0    0  501    0  0.00000000000E+00  0.00000000000E+00 -0.14582426369E+03  0.14582979387E+03  0.12699999809E+01 0.  1.
    10030    2    1    2    0    0  0.00000000000E+00  0.00000000000E+00  0.80460109763E+03  0.10962560037E+04  0.74457659066E+03 0.  0.
        3    1    3    3  502    0 -0.19074693420E+03 -0.26206845562E+03  0.67191750751E+03  0.74601435337E+03  0.10100000352E+00 0. -1.
       -3    1    3    3    0  502  0.19074693420E+03  0.26206845562E+03  0.13268359012E+03  0.35024165033E+03  0.10100000352E+00 0.  1.
</event>
<event>
 5   0  0.5108045E-03  0.1200513E+04  0.7818609E-02  0.9112408E-01
       -2   -1    0    0    0  501  0.00000000000E+00  0.00000000000E+00  0.49994186834E+03  0.49994186834E+03  0.25500000920E-02 0.  1.
        2   -1    0    0  501    0  0.00000000000E+00  0.00000000000E+00 -0.72069966237E+03  0.72069966237E+03  0.25500000920E-02 0. -1.
    10030    2    1    2    0    0  0.00000000000E+00  0.00000000000E+00 -0.22075779403E+03  0.12206415307E+04  0.12005131165E+04 0.  0.
        3    1    3    3  502    0  0.22399845678E+03 -0.75507074249E+02 -0.67138280022E+03  0.71178051501E+03  0.10100000352E+00 0. -1.
       -3    1    3    3    0  502 -0.22399845678E+03  0.75507074249E+02  0.45062500619E+03  0.50886101571E+03  0.10100000352E+00 0.  1.
</event>
<event>
 5   0  0.1922125E-03  0.1216164E+04  0.7818609E-02  0.9098825E-01
        3   -1    0    0  501    0  0.00000000000E+00  0.00000000000E+00  0.43282719676E+03  0.43282720854E+03  0.10100000352E+00 0. -1.
       -3   -1    0    0    0  501  0.00000000000E+00  0.00000000000E+00 -0.85429845822E+03  0.85429846419E+03  0.10100000352E+00 0.  1.
    10030    2    1    2    0    0  0.00000000000E+00  0.00000000000E+00 -0.42147126146E+03  0.12871256727E+04  0.12161638348E+04 0.  0.
        2    1    3    3  502    0 -0.54804058531E+02 -0.46240359483E+03  0.20316276201E+03  0.50803117741E+03  0.25500000920E-02 0. -1.
       -2    1    3    3    0  502  0.54804058531E+02  0.46240359483E+03 -0.62463402348E+03  0.77909449532E+03  0.25500000920E-02 0.  1.
</event>
<event>
 5   0  0.5003526E-03  0.1201111E+04  0.7818609E-02  0.9111884E-01
       -2   -1    0    0    0  501  0.00000000000E+00  0.00000000000E+00  0.35003808032E+03  0.35003808033E+03  0.25500000920E-02 0. -1.
        2   -1    0    0  501    0  0.00000000000E+00  0.00000000000E+00 -0.10303654824E+04  0.10303654824E+04  0.25500000920E-02 0.  1.
    10030    2    1    2    0    0  0.00000000000E+00  0.00000000000E+00 -0.68032740210E+03  0.13804035627E+04  0.12011114112E+04 0.  0.
        2    1    3    3  502    0  0.49633985313E+02  0.21718768254E+03 -0.98111658561E+03  0.10060933240E+04  0.25500000920E-02 0.  1.
       -2    1    3    3    0  502 -0.49633985313E+02 -0.21718768254E+03  0.30078918351E+03  0.37431023880E+03  0.25500000920E-02 0. -1.
</event>
<event>
 5   0  0.2875848E-03  0.1206762E+04  0.7818609E-02  0.9106959E-01
       -1   -1    0    0    0  501  0.00000000000E+00  0.00000000000E+00  0.22151753509E+03  0.22151753514E+03  0.50400001928E-02 0. -1.
        1   -1    0    0  501    0  0.00000000000E+00  0.00000000000E+00 -0.16435192512E+04  0.16435192512E+04  0.50400001928E-02 0.  1.
    10030    2    1    2    0    0  0.00000000000E+00  0.00000000000E+00 -0.14220017161E+04  0.18650367863E+04  0.12067615066E+04 0.  0.
        1    1    3    3  502    0 -0.19600996730E+03  0.50583775345E+03 -0.11192458209E+04  0.12437857322E+04  0.50400001928E-02 0.  1.
       -1    1    3    3    0  502  0.19600996730E+03 -0.50583775345E+03 -0.30275589518E+03  0.62125105407E+03  0.50400001928E-02 0. -1.
</event>
<event>
 5   0  0.1922125E-03  0.1190660E+04  0.7818609E-02  0.9121071E-01
        3   -1    0    0  501    0  0.00000000000E+00  0.00000000000E+00  0.44215456805E+03  0.44215457958E+03  0.10100000352E+00 0. -1.
       -3   -1    0    0    0  501  0.00000000000E+00  0.00000000000E+00 -0.80157019942E+03  0.80157020578E+03  0.10100000352E+00 0.  1.
    10030    2    1    2    0    0  0.00000000000E+00  0.00000000000E+00 -0.35941563137E+03  0.12437247854E+04  0.11906602142E+04 0.  0.
        5    1    3    3  502    0 -0.57777687670E+03  0.10177998518E+03 -0.28525855168E+03  0.65236478748E+03  0.46999998093E+01 0.  1.
       -5    1    3    3    0  502  0.57777687670E+03 -0.10177998518E+03 -0.74157079696E+02  0.59135999789E+03  0.46999998093E+01 0. -1.
</event>
<event>
 5   0  0.5108045E-03  0.1135833E+04  0.7818609E-02  0.9170953E-01
       -2   -1    0    0    0  501  0.00000000000E+00  0.00000000000E+00  0.47137995484E+03  0.47137995485E+03  0.25500000920E-02 0. -1.
        2   -1    0    0  501    0  0.00000000000E+00  0.00000000000E+00 -0.68422343991E+03  0.68422343992E+03  0.25500000920E-02 0.  1.
    10030    2    1    2    0    0  0.00000000000E+00  0.00000000000E+00 -0.21284348507E+03  0.11556033948E+04  0.11358331114E+04 0.  0.
        3    1    3    3  502    0  0.47338961573E+03 -0.27161333375E+03 -0.26618257893E+03  0.60722706369E+03  0.10100000352E+00 0.  1.
       -3    1    3    3    0  502 -0.47338961573E+03  0.27161333375E+03  0.53339093861E+02  0.54837633108E+03  0.10100000352E+00 0. -1.
</event>
<event>
 5   0  0.2792518E-03  0.1326524E+04  0.7818609E-02  0.9008792E-01
        1   -1    0    0  501    0  0.00000000000E+00  0.00000000000E+00  0.70706231823E+03  0.70706231825E+03  0.50400001928E-02 0. -1.
       -1   -1    0    0    0  501  0.00000000000E+00  0.00000000000E+00 -0.62217485867E+03  0.62217485869E+03  0.50400001928E-02 0.  1.
    10030    2    1    2    0    0  0.00000000000E+00  0.00000000000E+00  0.84887459561E+02  0.13292371769E+04  0.13265238753E+04 0.  0.
        2    1    3    3  502    0  0.31641633616E+03 -0.31200831405E+03 -0.45095341576E+03  0.63310936576E+03  0.25500000920E-02 0.  1.
       -2    1    3    3    0  502 -0.31641633616E+03  0.31200831405E+03  0.53584087532E+03  0.69612781117E+03  0.25500000920E-02 0. -1.
</event>
<event>
 5   0  0.2930868E-03  0.1171568E+04  0.7818609E-02  0.9138113E-01
        1   -1    0    0  501    0  0.00000000000E+00  0.00000000000E+00  0.62738499184E+03  0.62738499186E+03  0.50400001928E-02 0.  1.
       -1   -1    0    0    0  501  0.00000000000E+00  0.00000000000E+00 -0.54694180187E+03  0.54694180189E+03  0.50400001928E-02 0. -1.
    10030    2    1    2    0    0  0.00000000000E+00  0.00000000000E+00  0.80443189972E+02  0.11743267938E+04  0.11715683129E+04 0.  0.
        3    1    3    3  502    0  0.16650684118E+03 -0.26480168162E+02  0.60253921115E+03  0.62568301771E+03  0.10100000352E+00 0.  1.
       -3    1    3    3    0  502 -0.16650684118E+03  0.26480168162E+02 -0.52209602118E+03  0.54864377605E+03  0.10100000352E+00 0. -1.
</event>
<event>
 5   0  0.2926844E-03  0.1215295E+04  0.7818609E-02  0.9099573E-01
        1   -1    0    0  501    0  0.00000000000E+00  0.00000000000E+00  0.86313387491E+03  0.86313387492E+03  0.50400001928E-02 0.  1.
       -1   -1    0    0    0  501  0.00000000000E+00  0.00000000000E+00 -0.42778507244E+03  0.42778507247E+03  0.50400001928E-02 0. -1.
    10030    2    1    2    0    0  0.00000000000E+00  0.00000000000E+00  0.43534880247E+03  0.12909189474E+04  0.12152954986E+04 0.  0.
        5    1    3    3  502    0  0.37926042751E+02 -0.31117082067E+03 -0.33524278218E+03  0.45899398401E+03  0.46999998093E+01 0. -1.
       -5    1    3    3    0  502 -0.37926042751E+02  0.31117082067E+03  0.77059158465E+03  0.83192496338E+03  0.46999998093E+01 0.  1.
</event>
<event>
 5   0  0.2792518E-03  0.1183903E+04  0.7818609E-02  0.9127064E-01
        1   -1    0    0  501    0  0.00000000000E+00  0.00000000000E+00  0.13599665075E+04  0.13599665076E+04  0.50400001928E-02 0. -1.
       -1   -1    0    0    0  501  0.00000000000E+00  0.00000000000E+00 -0.25765820879E+03  0.25765820884E+03  0.50400001928E-02 0.  1.
    10030    2    1    2    0    0  0.00000000000E+00  0.00000000000E+00  0.11023082988E+04  0.16176247164E+04  0.11839029257E+04 0.  0.
        2    1    3    3  502    0  0.40871001097E+03  0.56118647471E+02  0.11311904456E+04  0.12040701806E+04  0.25500000920E-02 0. -1.
       -2    1    3    3    0  502 -0.40871001097E+03 -0.56118647471E+02 -0.28882146812E+02  0.41355453579E+03  0.25500000920E-02 0.  1.
</event>
<event>
 5   0  0.5189537E-03  0.1166105E+04  0.7818609E-02  0.9143054E-01
       -2   -1    0    0    0  501  0.00000000000E+00  0.00000000000E+00  0.33583525766E+03  0.33583525767E+03  0.25500000920E-02 0.  1.
        2   -1    0    0  501    0  0.00000000000E+00  0.00000000000E+00 -0.10122522925E+04  0.10122522925E+04  0.25500000920E-02 0. -1.
    10030    2    1    2    0    0  0.00000000000E+00  0.00000000000E+00 -0.67641703482E+03  0.13480875501E+04  0.11661046428E+04 0.  0.
        4    1    3    3  502    0  0.46869869979E+03  0.28540056406E+03 -0.56597428076E+03  0.78832763020E+03  0.12699999809E+01 0.  1.
       -4    1    3    3    0  502 -0.46869869979E+03 -0.28540056406E+03 -0.11044275406E+03  0.55975991995E+03  0.12699999809E+01 0. -1.
</event>
<event>
 5   0  0.2938349E-03  0.1216450E+04  0.7818609E-02  0.9098579E-01
        1   -1    0    0  501    0  0.00000000000E+00  0.00000000000E+00  0.76517361866E+03  0.76517361868E+03  0.50400001928E-02 0. -1.
       -1   -1    0    0    0  501  0.00000000000E+00  0.00000000000E+00 -0.48346875731E+03  0.48346875734E+03  0.50400001928E-02 0.  1.
    10030    2    1    2    0    0  0.00000000000E+00  0.00000000000E+00  0.28170486135E+03  0.12486423760E+04  0.12164498158E+04 0.  0.
        4    1    3    3  502    0  0.43031107110E+03 -0.75864306020E+02 -0.29344379484E+03  0.52634008442E+03  0.12699999809E+01 0.  1.
       -4    1    3    3    0  502 -0.43031107110E+03  0.75864306020E+02  0.57514865619E+03  0.72230229160E+03  0.12699999809E+01 0. -1.
</event>
<event>
 5   0  0.2926844E-03  0.1194531E+04  0.7818609E-02  0.9117657E-01
        1   -1    0    0  501    0  0.00000000000E+00  0.00000000000E+00  0.50400558736E+03  0.50400558738E+03  0.50400001928E-02 0.  1.
       -1   -1    0    0    0  501  0.00000000000E+00  0.00000000000E+00 -0.70778154388E+03  0.70778154390E+03  0.50400001928E-02 0. -1.
    10030    2    1    2    0    0  0.00000000000E+00  0.00000000000E+00 -0.20377595652E+03  0.12117871313E+04  0.11945306238E+04 0.  0.
        5    1    3    3  502    0  0.38012448801E+03  0.26592115405E+03 -0.48348037413E+03  0.67006271999E+03  0.46999998093E+01 0. -1.
       -5    1    3    3    0  502 -0.38012448801E+03 -0.26592115405E+03  0.27970441761E+03  0.54172441129E+03  0.46999998093E+01 0.  1.
</event>
<event>
 5   0  0.2792518E-03  0.1184961E+04  0.7818609E-02  0.9126123E-01
        1   -1    0    0  501    0  0.00000000000E+00  0.00000000000E+00  0.48463131177E+03  0.48463131180E+03  0.50400001928E-02 0. -1.
       -1   -1    0    0    0  501  0.00000000000E+00  0.00000000000E+00 -0.72433050382E+03  0.72433050384E+03  0.50400001928E-02 0.  1.
    10030    2    1    2    0    0  0.00000000000E+00  0.00000000000E+00 -0.23969919205E+03  0.12089618156E+04  0.11849611677E+04 0.  0.
        2    1    3    3  502    0 -0.50059979557E+03 -0.84498541546E+02 -0.43147524024E+03  0.66626649457E+03  0.25500000920E-02 0. -1.
       -2    1    3    3    0  502  0.50059979557E+03  0.84498541546E+02  0.19177604819E+03  0.54269532107E+03  0.25500000920E-02 0.  1.
</event>
<event>
 5   0  0.5467554E-03  0.1200901E+04  0.7818609E-02  0.9112068E-01
        2   -1    0    0  501    0  0.00000000000E+00  0.00000000000E+00  0.19494734746E+04  0.19494734746E+04  0.25500000920E-02 0. -1.
       -2   -1    0    0    0  501  0.00000000000E+00  0.00000000000E+00 -0.18494259845E+03  0.18494259847E+03  0.25500000920E-02 0.  1.
    10030    2    1    2    0    0  0.00000000000E+00  0.00000000000E+00  0.17645308762E+04  0.21344160731E+04  0.12009008119E+04 0.  0.
        1    1    3    3  502    0 -0.17029387012E+03 -0.13101192916E+03 -0.11427981432E+03  0.24335982366E+03  0.50400001928E-02 0.  1.
       -1    1    3    3    0  502  0.17029387012E+03  0.13101192916E+03  0.18788106905E+04  0.18910562495E+04  0.50400001928E-02 0. -1.
</event>
<event>
 5   0  0.5108045E-03  0.1177851E+04  0.7818609E-02  0.9132467E-01
       -2   -1    0    0    0  501  0.00000000000E+00  0.00000000000E+00  0.47371471465E+03  0.47371471466E+03  0.25500000920E-02 0.  1.
        2   -1    0    0  501    0  0.00000000000E+00  0.00000000000E+00 -0.73215662765E+03  0.73215662766E+03  0.25500000920E-02 0. -1.
    10030    2    1    2    0    0  0.00000000000E+00  0.00000000000E+00 -0.25844191300E+03  0.12058713423E+04  0.11778512095E+04 0.  0.
        3    1    3    3  502    0 -0.41562434103E+03  0.87474002630E+02  0.28845249329E+03  0.51342004741E+03  0.10100000352E+00 0.  1.
       -3    1    3    3    0  502  0.41562434103E+03 -0.87474002630E+02 -0.54689440629E+03  0.69245129491E+03  0.10100000352E+00 0. -1.
</event>
<event>
 5   0  0.5108045E-03  0.1150585E+04  0.7818609E-02  0.9157244E-01
       -2   -1    0    0    0  501  0.00000000000E+00  0.00000000000E+00  0.25642014696E+03  0.25642014697E+03  0.25500000920E-02 0.  1.
        2   -1    0    0  501    0  0.00000000000E+00  0.00000000000E+00 -0.12907008934E+04  0.12907008934E+04  0.25500000920E-02 0. -1.
    10030    2    1    2    0    0  0.00000000000E+00  0.00000000000E+00 -0.10342807464E+04  0.15471210403E+04  0.11505854384E+04 0.  0.
        3    1    3    3  502    0  0.12528036732E+03 -0.26444302759E+03  0.14887833498E+03  0.32831395661E+03  0.10100000352E+00 0.  1.
       -3    1    3    3    0  502 -0.12528036732E+03  0.26444302759E+03 -0.11831590814E+04  0.12188070837E+04  0.10100000352E+00 0. -1.
</event>
<event>
 5   0  0.2938349E-03  0.1251555E+04  0.7818609E-02  0.9068890E-01
       -1   -1    0    0    0  501  0.00000000000E+00  0.00000000000E+00  0.57541715073E+03  0.57541715075E+03  0.50400001928E-02 0.  1.
        1   -1    0    0  501    0  0.00000000000E+00  0.00000000000E+00 -0.68054486814E+03  0.68054486816E+03  0.50400001928E-02 0. -1.
    10030    2    1    2    0    0  0.00000000000E+00  0.00000000000E+00 -0.10512771741E+03  0.12559620189E+04  0.12515545358E+04 0.  0.
        4    1    3    3  502    0 -0.61230767124E+03 -0.12265063203E+03 -0.12027121729E+02  0.62458796526E+03  0.12699999809E+01 0.  1.
       -4    1    3    3    0  502  0.61230767124E+03  0.12265063203E+03 -0.93100595683E+02  0.63137405364E+03  0.12699999809E+01 0. -1.
</event>
<event>
 5   0  0.5467554E-03  0.1150109E+04  0.7818609E-02  0.9157683E-01
        2   -1    0    0  501    0  0.00000000000E+00  0.00000000000E+00  0.68298073410E+03  0.68298073410E+03  0.25500000920E-02 0.  1.
       -2   -1    0    0    0  501  0.00000000000E+00  0.00000000000E+00 -0.48418322247E+03  0.48418322247E+03  0.25500000920E-02 0. -1.
    10030    2    1    2    0    0  0.00000000000E+00  0.00000000000E+00  0.19879751163E+03  0.11671639566E+04  0.11501092343E+04 0.  0.
        1    1    3    3  502    0  0.45010888933E+03 -0.16567928291E+03 -0.22254386129E+03  0.52874701632E+03  0.50400001928E-02 0. -1.
       -1    1    3    3    0  502 -0.45010888933E+03  0.16567928291E+03  0.42134137293E+03  0.63841694026E+03  0.50400001928E-02 0.  1.
</event>
<event>
 5   0  0.2792518E-03  0.1189880E+04  0.7818609E-02  0.9121761E-01
        1   -1    0    0  501    0  0.00000000000E+00  0.00000000000E+00  0.85963911315E+03  0.85963911316E+03  0.50400001928E-02 0. -1.
       -1   -1    0    0    0  501  0.00000000000E+00  0.00000000000E+00 -0.41174664658E+03  0.41174664661E+03  0.50400001928E-02 0.  1.
    10030    2    1    2    0    0  0.00000000000E+00  0.00000000000E+00  0.44789246657E+03  0.12713857598E+04  0.11898798631E+04 0.  0.
        2    1    3    3  502    0  0.22991883141E+03 -0.12196602530E+03  0.79558349586E+03  0.83707316242E+03  0.25500000920E-02 0. -1.
       -2    1    3    3    0  502 -0.22991883141E+03  0.12196602530E+03 -0.34769102929E+03  0.43431259735E+03  0.25500000920E-02 0.  1.
</event>
<event>
 5   0  0.2875848E-03  0.1201463E+04  0.7818609E-02  0.9111577E-01
       -1   -1    0    0    0  501  0.00000000000E+00  0.00000000000E+00  0.39045825232E+03  0.39045825235E+03  0.50400001928E-02 0. -1.
        1   -1    0    0  501    0  0.00000000000E+00  0.00000000000E+00 -0.92424287838E+03  0.92424287839E+03  0.50400001928E-02 0.  1.
    10030    2    1    2    0    0  0.00000000000E+00  0.00000000000E+00 -0.53378462606E+03  0.13147011307E+04  0.12014628734E+04 0.  0.
        1    1    3    3  502    0 -0.24656674440E+03  0.15531265889E+03 -0.84172386397E+03  0.89073915635E+03  0.50400001928E-02 0.  1.
       -1    1    3    3    0  502  0.24656674440E+03 -0.15531265889E+03  0.30793923791E+03  0.42396197439E+03  0.50400001928E-02 0. -1.
</event>
<event>
 5   0  0.2926844E-03  0.1214565E+04  0.7818609E-02  0.9100203E-01
       -1   -1    0    0    0  501  0.00000000000E+00  0.00000000000E+00  0.47774191645E+03  0.47774191647E+03  0.50400001928E-02 0. -1.
        1   -1    0    0  501    0  0.00000000000E+00  0.00000000000E+00 -0.77194817218E+03  0.77194817219E+03  0.50400001928E-02 0.  1.
    10030    2    1    2    0    0  0.00000000000E+00  0.00000000000E+00 -0.29420625573E+03  0.12496900887E+04  0.12145649414E+04 0.  0.
        5    1    3    3  502    0  0.19735060879E+03  0.54908423765E+03 -0.32028336446E+03  0.66561571975E+03  0.46999998093E+01 0. -1.
       -5    1    3    3    0  502 -0.19735060879E+03 -0.54908423765E+03  0.26077108728E+02  0.58407436892E+03  0.46999998093E+01 0.  1.
</event>
<event>
 5   0  0.5003526E-03  0.1191600E+04  0.7818609E-02  0.9120241E-01
        2   -1    0    0  501    0  0.00000000000E+00  0.00000000000E+00  0.10270710681E+04  0.10270710682E+04  0.25500000920E-02 0. -1.
       -2   -1    0    0    0  501  0.00000000000E+00  0.00000000000E+00 -0.34562136488E+03  0.34562136489E+03  0.25500000920E-02 0.  1.
    10030    2    1    2    0    0  0.00000000000E+00  0.00000000000E+00  0.68144970327E+03  0.13726924330E+04  0.11916001081E+04 0.  0.
        2    1    3    3  502    0 -0.48960907458E+03  0.60974465510E+02  0.72546138218E+03  0.87734209314E+03  0.25500000920E-02 0. -1.
       -2    1    3    3    0  502  0.48960907458E+03 -0.60974465510E+02 -0.44011678910E+02  0.49535033990E+03  0.25500000920E-02 0.  1.
</event>
<event>
 5   0  0.5467554E-03  0.1211970E+04  0.7818609E-02  0.9102443E-01
       -2   -1    0    0    0  501  0.00000000000E+00  0.00000000000E+00  0.75593096297E+03  0.75593096297E+03  0.25500000920E-02 0. -1.
        2   -1    0    0  501    0  0.00000000000E+00  0.00000000000E+00 -0.48578210239E+03  0.48578210240E+03  0.25500000920E-02 0.  1.
    10030    2    1    2    0    0  0.00000000000E+00  0.00000000000E+00  0.27014886058E+03  0.12417130654E+04  0.12119698552E+04 0.  0.
        1    1    3    3  502    0 -0.16353354465E+03 -0.20655590051E+02 -0.46237266661E+03  0.49087509254E+03  0.50400001928E-02 0.  1.
       -1    1    3    3    0  502  0.16353354465E+03  0.20655590051E+02  0.73252152719E+03  0.75083797283E+03  0.50400001928E-02 0. -1.
</event>
<event>
 5   0  0.5031575E-03  0.1180661E+04  0.7818609E-02  0.9129954E-01
        2   -1    0    0  501    0  0.00000000000E+00  0.00000000000E+00  0.98871854914E+03  0.98871854914E+03  0.25500000920E-02 0. -1.
       -2   -1    0    0    0  501  0.00000000000E+00  0.00000000000E+00 -0.35246671428E+03  0.35246671429E+03  0.25500000920E-02 0.  1.
    10030    2    1    2    0    0  0.00000000000E+00  0.00000000000E+00  0.63625183486E+03  0.13411852634E+04  0.11806614729E+04 0.  0.
        5    1    3    3  502    0  0.51868087481E+03 -0.19681489192E+03  0.54730398493E+03  0.77931360408E+03  0.46999998093E+01 0.  1.
       -5    1    3    3    0  502 -0.51868087481E+03  0.19681489192E+03  0.88947849921E+02  0.56187165935E+03  0.46999998093E+01 0. -1.
</event>
<event>
 5   0  0.1922125E-03  0.1194254E+04  0.7818609E-02  0.9117901E-01
        3   -1    0    0  501    0  0.00000000000E+00  0.00000000000E+00  0.70966939070E+03  0.70966939789E+03  0.10100000352E+00 0.  1.
       -3   -1    0    0    0  501  0.00000000000E+00  0.00000000000E+00 -0.50243234366E+03  0.50243235381E+03  0.10100000352E+00 0. -1.
    10030    2    1    2    0    0  0.00000000000E+00  0.00000000000E+00  0.20723704705E+03  0.12121017517E+04  0.11942543543E+04 0.  0.
        3    1    3    3  502    0  0.35612910647E+00  0.10416371665E+03  0.70037703779E+03  0.70808065357E+03  0.10100000352E+00 0.  1.
       -3    1    3    3    0  502 -0.35612910647E+00 -0.10416371665E+03 -0.49313999074E+03  0.50402109813E+03  0.10100000352E+00 0. -1.
</event>
<event>
 5   0  0.2792518E-03  0.1187521E+04  0.7818609E-02  0.9123850E-01
        1   -1    0    0  501    0  0.00000000000E+00  0.00000000000E+00  0.11545972317E+04  0.11545972317E+04  0.50400001928E-02 0. -1.
       -1   -1    0    0    0  501  0.00000000000E+00  0.00000000000E+00 -0.30534575282E+03  0.30534575287E+03  0.50400001928E-02 0.  1.
    10030    2    1    2    0    0  0.00000000000E+00  0.00000000000E+00  0.84925147887E+03  0.14599429846E+04  0.11875207130E+04 0.  0.
        2    1    3    3  502    0 -0.31873450271E+03  0.22786796804E+03 -0.12385372827E+03  0.41091999233E+03  0.25500000920E-02 0.  1.
       -2    1    3    3    0  502  0.31873450271E+03 -0.22786796804E+03  0.97310520715E+03  0.10490229922E+04  0.25500000920E-02 0. -1.
</event>
<event>
 5   0  0.5189537E-03  0.1182017E+04  0.7818609E-02  0.9128744E-01
       -2   -1    0    0    0  501  0.00000000000E+00  0.00000000000E+00  0.34508025354E+03  0.34508025355E+03  0.25500000920E-02 0. -1.
        2   -1    0    0  501    0  0.00000000000E+00  0.00000000000E+00 -0.10122026617E+04  0.10122026617E+04  0.25500000920E-02 0.  1.
    10030    2    1    2    0    0  0.00000000000E+00  0.00000000000E+00 -0.66712240820E+03  0.13572829153E+04  0.11820171761E+04 0.  0.
        4    1    3    3  502    0 -0.31124242240E+03 -0.48284878588E+02  0.24067624769E+03  0.39639619588E+03  0.12699999809E+01 0. -1.
       -4    1    3    3    0  502  0.31124242240E+03  0.48284878588E+02 -0.90779865589E+03  0.96088671941E+03  0.12699999809E+01 0.  1.
</event>
<event>
 5   0  0.5467554E-03  0.1275006E+04  0.7818609E-02  0.9049624E-01
        2   -1    0    0  501    0  0.00000000000E+00  0.00000000000E+00  0.98003927137E+03  0.98003927138E+03  0.25500000920E-02 0. -1.
       -2   -1    0    0    0  501  0.00000000000E+00  0.00000000000E+00 -0.41468724162E+03  0.41468724162E+03  0.25500000920E-02 0.  1.
    10030    2    1    2    0    0  0.00000000000E+00  0.00000000000E+00  0.56535202976E+03  0.13947265130E+04  0.12750055406E+04 0.  0.
        1    1    3    3  502    0 -0.19158612380E+03  0.56386071410E+03  0.53156046009E+03  0.79824850172E+03  0.50400001928E-02 0. -1.
       -1    1    3    3    0  502  0.19158612380E+03 -0.56386071410E+03  0.33791569667E+02  0.59647801128E+03  0.50400001928E-02 0.  1.
</event>
<event>
 5   0  0.2875848E-03  0.1197408E+04  0.7818609E-02  0.9115128E-01
       -1   -1    0    0    0  501  0.00000000000E+00  0.00000000000E+00  0.78523101799E+03  0.78523101800E+03  0.50400001928E-02 0. -1.
        1   -1    0    0  501    0  0.00000000000E+00  0.00000000000E+00 -0.45648560373E+03  0.45648560376E+03  0.50400001928E-02 0.  1.
    10030    2    1    2    0    0  0.00000000000E+00  0.00000000000E+00  0.32874541426E+03  0.12417166218E+04  0.11974082935E+04 0.  0.
        1    1    3    3  502    0  0.41524747578E+03 -0.24993718082E+03 -0.20012716509E+03  0.52435669418E+03  0.50400001928E-02 0.  1.
       -1    1    3    3    0  502 -0.41524747578E+03  0.24993718082E+03  0.52887257934E+03  0.71735992759E+03  0.50400001928E-02 0. -1.
</event>
<event>
 5   0  0.2926844E-03  0.1215626E+04  0.7818609E-02  0.9099288E-01
        1   -1    0    0  501    0  0.00000000000E+00  0.00000000000E+00  0.74171817730E+03  0.74171817732E+03  0.50400001928E-02 0.  1.
       -1   -1    0    0    0  501  0.00000000000E+00  0.00000000000E+00 -0.49808229996E+03  0.49808229998E+03  0.50400001928E-02 0. -1.
    10030    2    1    2    0    0  0.00000000000E+00  0.00000000000E+00  0.24363587734E+03  0.12398004773E+04  0.12156260868E+04 0.  0.
        5    1    3    3  502    0 -0.16060412112E+03  0.65599283596E+02  0.71591173454E+03  0.73664689735E+03  0.46999998093E+01 0.  1.
       -5    1    3    3    0  502  0.16060412112E+03 -0.65599283596E+02 -0.47227585720E+03  0.50315357995E+03  0.46999998093E+01 0. -1.
</event>
<event>
 5   0  0.5031575E-03  0.1162302E+04  0.7818609E-02  0.9146509E-01
       -2   -1    0    0    0  501  0.00000000000E+00  0.00000000000E+00  0.41910292413E+03  0.41910292414E+03  0.25500000920E-02 0. -1.
        2   -1    0    0  501    0  0.00000000000E+00  0.00000000000E+00 -0.80585549973E+03  0.80585549973E+03  0.25500000920E-02 0.  1.
    10030    2    1    2    0    0  0.00000000000E+00  0.00000000000E+00 -0.38675257560E+03  0.12249584239E+04  0.11623018478E+04 0.  0.
        5    1    3    3  502    0  0.20459276737E+02  0.45906848923E+03  0.18154203334E+03  0.49410733619E+03  0.46999998093E+01 0. -1.
       -5    1    3    3    0  502 -0.20459276737E+02 -0.45906848923E+03 -0.56829460894E+03  0.73085108768E+03  0.46999998093E+01 0.  1.
</event>
<event>
 5   0  0.5031575E-03  0.1213891E+04  0.7818609E-02  0.9100784E-01
       -2   -1    0    0    0  501  0.00000000000E+00  0.00000000000E+00  0.31773894899E+03  0.31773894900E+03  0.25500000920E-02 0.  1.
        2   -1    0    0  501    0  0.00000000000E+00  0.00000000000E+00 -0.11593875322E+04  0.11593875322E+04  0.25500000920E-02 0. -1.
    10030    2    1    2    0    0  0.00000000000E+00  0.00000000000E+00 -0.84164858323E+03  0.14771264812E+04  0.12138905650E+04 0.  0.
        5    1    3    3  502    0  0.33673800445E+03  0.63441067443E+02 -0.10303975308E+04  0.10858906088E+04  0.46999998093E+01 0. -1.
       -5    1    3    3    0  502 -0.33673800445E+03 -0.63441067443E+02  0.18874894760E+03  0.39123587246E+03  0.46999998093E+01 0.  1.
</event>
<event>
 5   0  0.5031575E-03  0.1149272E+04  0.7818609E-02  0.9158456E-01
        2   -1    0    0  501    0  0.00000000000E+00  0.00000000000E+00  0.70839090970E+03  0.70839090971E+03  0.25500000920E-02 0. -1.
       -2   -1    0    0    0  501  0.00000000000E+00  0.00000000000E+00 -0.46613587955E+03  0.46613587956E+03  0.25500000920E-02 0.  1.
    10030    2    1    2    0    0  0.00000000000E+00  0.00000000000E+00  0.24225503015E+03  0.11745267893E+04  0.11492718038E+04 0.  0.
        5    1    3    3  502    0  0.25171105622E+03 -0.51490426305E+03  0.78996937150E+02  0.57857364441E+03  0.46999998093E+01 0.  1.
       -5    1    3    3    0  502 -0.25171105622E+03  0.51490426305E+03  0.16325809300E+03  0.59595314485E+03  0.46999998093E+01 0. -1.
</event>
<event>
 5   0  0.5189537E-03  0.1227628E+04  0.7818609E-02  0.9089012E-01
        2   -1    0    0  501    0  0.00000000000E+00  0.00000000000E+00  0.14235137318E+04  0.14235137318E+04  0.25500000920E-02 0. -1.
       -2   -1    0    0    0  501  0.00000000000E+00  0.00000000000E+00 -0.26467431809E+03  0.26467431810E+03  0.25500000920E-02 0.  1.
    10030    2    1    2    0    0  0.00000000000E+00  0.00000000000E+00  0.11588394138E+04  0.16881880499E+04  0.12276278366E+04 0.  0.
        4    1    3    3  502    0  0.23686221154E+03  0.47754294698E+03  0.99791889407E+03  0.11313685100E+04  0.12699999809E+01 0. -1.
       -4    1    3    3    0  502 -0.23686221154E+03 -0.47754294698E+03  0.16092051969E+03  0.55681953991E+03  0.12699999809E+01 0.  1.
</event>
<event>
 5   0  0.5189537E-03  0.1069164E+04  0.7818609E-02  0.9235779E-01
       -2   -1    0    0    0  501  0.00000000000E+00  0.00000000000E+00  0.65871867237E+03  0.65871867237E+03  0.25500000920E-02 0. -1.
        2   -1    0    0  501    0  0.00000000000E+00  0.00000000000E+00 -0.43383909065E+03  0.43383909066E+03  0.25500000920E-02 0.  1.
    10030    2    1    2    0    0  0.00000000000E+00  0.00000000000E+00  0.22487958171E+03  0.10925577630E+04  0.10691639908E+04 0.  0.
        4    1    3    3  502    0  0.53400581641E+03 -0.17045158115E+02  0.94058790528E+02  0.54249554684E+03  0.12699999809E+01 0.  1.
       -4    1    3    3    0  502 -0.53400581641E+03  0.17045158115E+02  0.13082079118E+03  0.55006221619E+03  0.12699999809E+01 0. -1.
</event>
<event>
 5   0  0.2926844E-03  0.1238615E+04  0.7818609E-02  0.9079712E-01
       -1   -1    0    0    0  501  0.00000000000E+00  0.00000000000E+00  0.14720249546E+03  0.14720249554E+03  0.50400001928E-02 0. -1.
        1   -1    0    0  501    0  0.00000000000E+00  0.00000000000E+00 -0.26055399746E+04  0.26055399746E+04  0.50400001928E-02 0.  1.
    10030    2    1    2    0    0  0.00000000000E+00  0.00000000000E+00 -0.24583374791E+04  0.27527424701E+04  0.12386153340E+04 0.  0.
        5    1    3    3  502    0 -0.49500343992E+02 -0.13238974883E+03 -0.25691748096E+04  0.25730640533E+04  0.46999998093E+01 0.  1.
       -5    1    3    3    0  502  0.49500343992E+02  0.13238974883E+03  0.11083733053E+03  0.17967841687E+03  0.46999998093E+01 0. -1.
</event>
<event>
 5   0  0.5108045E-03  0.1178156E+04  0.7818609E-02  0.9132195E-01
        2   -1    0    0  501    0  0.00000000000E+00  0.00000000000E+00  0.13497390866E+04  0.13497390866E+04  0.25500000920E-02 0. -1.
       -2   -1    0    0    0  501  0.00000000000E+00  0.00000000000E+00 -0.25709607628E+03  0.25709607629E+03  0.25500000920E-02 0.  1.
    10030    2    1    2    0    0  0.00000000000E+00  0.00000000000E+00  0.10926430103E+04  0.16068351629E+04  0.11781555469E+04 0.  0.
        3    1    3    3  502    0  0.27606733399E+03 -0.27457068997E+03  0.11492176477E+04  0.12133851197E+04  0.10100000352E+00 0. -1.
       -3    1    3    3    0  502 -0.27606733399E+03  0.27457068997E+03 -0.56574637407E+02  0.39345004319E+03  0.10100000352E+00 0.  1.
</event>
<event>
 5   0  0.5003526E-03  0.1200215E+04  0.7818609E-02  0.9112669E-01
        2   -1    0    0  501    0  0.00000000000E+00  0.00000000000E+00  0.15338565909E+04  0.15338565909E+04  0.25500000920E-02 0. -1.
       -2   -1    0    0    0  501  0.00000000000E+00  0.00000000000E+00 -0.23478655596E+03  0.23478655598E+03  0.25500000920E-02 0.  1.
    10030    2    1    2    0    0  0.00000000000E+00  0.00000000000E+00  0.12990700349E+04  0.17686431469E+04  0.12002148247E+04 0.  0.
        2    1    3    3  502    0 -0.13602109743E+03  0.52646938803E+03  0.10236600618E+04  0.11591167662E+04  0.25500000920E-02 0. -1.
       -2    1    3    3    0  502  0.13602109743E+03 -0.52646938803E+03  0.27540997315E+03  0.60952638072E+03  0.25500000920E-02 0.  1.
</event>
<event>
 5   0  0.2930868E-03  0.1076885E+04  0.7818609E-02  0.9228018E-01
        1   -1    0    0  501    0  0.00000000000E+00  0.00000000000E+00  0.11705379663E+04  0.11705379663E+04  0.50400001928E-02 0. -1.
       -1   -1    0    0    0  501  0.00000000000E+00  0.00000000000E+00 -0.24768148685E+03  0.24768148690E+03  0.50400001928E-02 0.  1.
    10030    2    1    2    0    0  0.00000000000E+00  0.00000000000E+00  0.92285647942E+03  0.14182194532E+04  0.10768854794E+04 0.  0.
        3    1    3    3  502    0  0.67105945511E+02  0.20715762931E+03 -0.18710546077E+03  0.28709920751E+03  0.10100000352E+00 0.  1.
       -3    1    3    3    0  502 -0.67105945511E+02 -0.20715762931E+03  0.11099619402E+04  0.11311202457E+04  0.10100000352E+00 0. -1.
</event>
<event>
 5   0  0.5031575E-03  0.1201744E+04  0.7818609E-02  0.9111331E-01
       -2   -1    0    0    0  501  0.00000000000E+00  0.00000000000E+00  0.35517466810E+03  0.35517466811E+03  0.25500000920E-02 0.  1.
        2   -1    0    0  501    0  0.00000000000E+00  0.00000000000E+00 -0.10165347365E+04  0.10165347365E+04  0.25500000920E-02 0. -1.
    10030    2    1    2    0    0  0.00000000000E+00  0.00000000000E+00 -0.66136006841E+03  0.13717094046E+04  0.12017443782E+04 0.  0.
        5    1    3    3  502    0  0.47255530293E+03 -0.32248343078E+03 -0.54028504354E+03  0.78691428741E+03  0.46999998093E+01 0. -1.
       -5    1    3    3    0  502 -0.47255530293E+03  0.32248343078E+03 -0.12107502487E+03  0.58479511720E+03  0.46999998093E+01 0.  1.
</event>
<event>
 5   0  0.5003526E-03  0.1200524E+04  0.7818609E-02  0.9112398E-01
       -2   -1    0    0    0  501  0.00000000000E+00  0.00000000000E+00  0.40332153021E+03  0.40332153022E+03  0.25500000920E-02 0.  1.
        2   -1    0    0  501    0  0.00000000000E+00  0.00000000000E+00 -0.89336739672E+03  0.89336739672E+03  0.25500000920E-02 0. -1.
    10030    2    1    2    0    0  0.00000000000E+00  0.00000000000E+00 -0.49004586650E+03  0.12966889269E+04  0.12005237282E+04 0.  0.
        2    1    3    3  502    0  0.15776598658E+03 -0.44070843605E+03 -0.65088907471E+03  0.80172976726E+03  0.25500000920E-02 0. -1.
       -2    1    3    3    0  502 -0.15776598658E+03  0.44070843605E+03  0.16084320820E+03  0.49495915969E+03  0.25500000920E-02 0.  1.
</event>
<event>
 5   0  0.2875848E-03  0.1195030E+04  0.7818609E-02  0.9117218E-01
       -1   -1    0    0    0  501  0.00000000000E+00  0.00000000000E+00  0.41615197974E+03  0.41615197977E+03  0.50400001928E-02 0. -1.
        1   -1    0    0  501    0  0.00000000000E+00  0.00000000000E+00 -0.85791717883E+03  0.85791717885E+03  0.50400001928E-02 0.  1.
    10030    2    1    2    0    0  0.00000000000E+00  0.00000000000E+00 -0.44176519909E+03  0.12740691586E+04  0.11950295937E+04 0.  0.
        1    1    3    3  502    0 -0.67262895831E+02  0.57663117145E+03 -0.37164300266E+03  0.68930858583E+03  0.50400001928E-02 0. -1.
       -1    1    3    3    0  502  0.67262895831E+02 -0.57663117145E+03 -0.70122196430E+02  0.58476057280E+03  0.50400001928E-02 0.  1.
</event>
<event>
 5   0  0.5031575E-03  0.1249954E+04  0.7818609E-02  0.9070221E-01
       -2   -1    0    0    0  501  0.00000000000E+00  0.00000000000E+00  0.11998597488E+04  0.11998597488E+04  0.25500000920E-02 0. -1.
        2   -1    0    0  501    0  0.00000000000E+00  0.00000000000E+00 -0.32553512240E+03  0.32553512241E+03  0.25500000920E-02 0.  1.
    10030    2    1    2    0    0  0.00000000000E+00  0.00000000000E+00  0.87432462639E+03  0.15253948712E+04  0.12499543835E+04 0.  0.
        5    1    3    3  502    0 -0.43955336976E+03 -0.69355906340E+00  0.97931937315E+03  0.10734505906E+04  0.46999998093E+01 0. -1.
       -5    1    3    3    0  502  0.43955336976E+03  0.69355906340E+00 -0.10499474676E+03  0.45194428057E+03  0.46999998093E+01 0.  1.
</event>
<event>
 5   0  0.1922125E-03  0.1142360E+04  0.7818609E-02  0.9164860E-01
        4   -1    0    0  501    0  0.00000000000E+00  0.00000000000E+00  0.61885925355E+03  0.61886055667E+03  0.12699999809E+01 0. -1.
       -4   -1    0    0    0  501  0.00000000000E+00  0.00000000000E+00 -0.52717196281E+03  0.52717349257E+03  0.12699999809E+01 0.  1.
    10030    2    1    2    0    0  0.00000000000E+00  0.00000000000E+00  0.91687290737E+02  0.11460340492E+04  0.11423604872E+04 0.  0.
        1    1    3    3  502    0  0.16346144372E+02  0.32728792950E+03  0.51517526347E+03  0.61056542430E+03  0.50400001928E-02 0. -1.
       -1    1    3    3    0  502 -0.16346144372E+02 -0.32728792950E+03 -0.42348797273E+03  0.53546862495E+03  0.50400001928E-02 0.  1.
</event>
<event>
 5   0  0.5108045E-03  0.1289048E+04  0.7818609E-02  0.9038295E-01
       -2   -1    0    0    0  501  0.00000000000E+00  0.00000000000E+00  0.73562874017E+03  0.73562874017E+03  0.25500000920E-02 0.  1.
        2   -1    0    0  501    0  0.00000000000E+00  0.00000000000E+00 -0.56470236931E+03  0.56470236932E+03  0.25500000920E-02 0. -1.
    10030    2    1    2    0    0  0.00000000000E+00  0.00000000000E+00  0.17092637085E+03  0.13003311095E+04  0.12890481644E+04 0.  0.
        3    1    3    3  502    0  0.16223195432E+03 -0.62375386080E+03  0.90321611444E+02  0.65080418680E+03  0.10100000352E+00 0.  1.
       -3    1    3    3    0  502 -0.16223195432E+03  0.62375386080E+03  0.80604759409E+02  0.64952692269E+03  0.10100000352E+00 0. -1.
</event>
<event>
 5   0  0.2792518E-03  0.1607062E+04  0.7818609E-02  0.8816221E-01
       -1   -1    0    0    0  501  0.00000000000E+00  0.00000000000E+00  0.31707988247E+03  0.31707988251E+03  0.50400001928E-02 0. -1.
        1   -1    0    0  501    0  0.00000000000E+00  0.00000000000E+00 -0.20362758869E+04  0.20362758869E+04  0.50400001928E-02 0.  1.
    10030    2    1    2    0    0  0.00000000000E+00  0.00000000000E+00 -0.17191960044E+04  0.23533557694E+04  0.16070620635E+04 0.  0.
        2    1    3    3  502    0 -0.67066928209E+02 -0.55612450332E+03 -0.15968393573E+02  0.56038150010E+03  0.25500000920E-02 0. -1.
       -2    1    3    3    0  502  0.67066928209E+02  0.55612450332E+03 -0.17032276109E+04  0.17929742693E+04  0.25500000920E-02 0.  1.
</event>
<event>
 5   0  0.2926844E-03  0.1403397E+04  0.7818609E-02  0.8951364E-01
       -1   -1    0    0    0  501  0.00000000000E+00  0.00000000000E+00  0.23768967588E+03  0.23768967593E+03  0.50400001928E-02 0. -1.
        1   -1    0    0  501    0  0.00000000000E+00  0.00000000000E+00 -0.20715265221E+04  0.20715265221E+04  0.50400001928E-02 0.  1.
    10030    2    1    2    0    0  0.00000000000E+00  0.00000000000E+00 -0.18338368462E+04  0.23092161980E+04  0.14033965479E+04 0.  0.
        5    1    3    3  502    0 -0.53267761950E+03 -0.36012617465E+03 -0.45466149993E+03  0.78751220784E+03  0.46999998093E+01 0. -1.
       -5    1    3    3    0  502  0.53267761950E+03  0.36012617465E+03 -0.13791753463E+04  0.15217039902E+04  0.46999998093E+01 0.  1.
</event>
<event>
 5   0  0.5003526E-03  0.1186511E+04  0.7818609E-02  0.9124746E-01
       -2   -1    0    0    0  501  0.00000000000E+00  0.00000000000E+00  0.27226667499E+03  0.27226667500E+03  0.25500000920E-02 0. -1.
        2   -1    0    0  501    0  0.00000000000E+00  0.00000000000E+00 -0.12926749969E+04  0.12926749969E+04  0.25500000920E-02 0.  1.
    10030    2    1    2    0    0  0.00000000000E+00  0.00000000000E+00 -0.10204083219E+04  0.15649416719E+04  0.11865113961E+04 0.  0.
        2    1    3    3  502    0  0.34077557747E+03 -0.51851229299E+02  0.12663638513E+03  0.36722379855E+03  0.25500000920E-02 0. -1.
       -2    1    3    3    0  502 -0.34077557747E+03  0.51851229299E+02 -0.11470447070E+04  0.11977178733E+04  0.25500000920E-02 0.  1.
</event>
<event>
 5   0  0.5467554E-03  0.1183221E+04  0.7818609E-02  0.9127671E-01
       -2   -1    0    0    0  501  0.00000000000E+00  0.00000000000E+00  0.18674394889E+03  0.18674394891E+03  0.25500000920E-02 0. -1.
        2   -1    0    0  501    0  0.00000000000E+00  0.00000000000E+00 -0.18742391688E+04  0.18742391688E+04  0.25500000920E-02 0.  1.
    10030    2    1    2    0    0  0.00000000000E+00  0.00000000000E+00 -0.16874952199E+04  0.20609831177E+04  0.11832207293E+04 0.  0.
        1    1    3    3  502    0 -0.95903989738E+02 -0.33150873976E+03 -0.16807513638E+04  0.17158148987E+04  0.50400001928E-02 0.  1.
       -1    1    3    3    0  502  0.95903989738E+02  0.33150873976E+03 -0.67438561262E+01  0.34516821899E+03  0.50400001928E-02 0. -1.
</event>
<event>
 5   0  0.2792518E-03  0.1214141E+04  0.7818609E-02  0.9100569E-01
       -1   -1    0    0    0  501  0.00000000000E+00  0.00000000000E+00  0.41624786389E+03  0.41624786392E+03  0.50400001928E-02 0.  1.
        1   -1    0    0  501    0  0.00000000000E+00  0.00000000000E+00 -0.88537235431E+03  0.88537235433E+03  0.50400001928E-02 0. -1.
    10030    2    1    2    0    0  0.00000000000E+00  0.00000000000E+00 -0.46912449043E+03  0.13016202182E+04  0.12141406035E+04 0.  0.
        2    1    3    3  502    0 -0.40208913546E+03  0.17933890705E+03 -0.68264380892E+03  0.81230578374E+03  0.25500000920E-02 0.  1.
       -2    1    3    3    0  502  0.40208913546E+03 -0.17933890705E+03  0.21351931850E+03  0.48931443450E+03  0.25500000920E-02 0. -1.
</event>
<event>
 5   0  0.2930868E-03  0.1155155E+04  0.7818609E-02  0.9153041E-01
       -1   -1    0    0    0  501  0.00000000000E+00  0.00000000000E+00  0.41940308996E+03  0.41940308999E+03  0.50400001928E-02 0.  1.
        1   -1    0    0  501    0  0.00000000000E+00  0.00000000000E+00 -0.79540660011E+03  0.79540660012E+03  0.50400001928E-02 0. -1.
    10030    2    1    2    0    0  0.00000000000E+00  0.00000000000E+00 -0.37600351014E+03  0.12148096901E+04  0.11551553764E+04 0.  0.
        3    1    3    3  502    0  0.23171425925E+02  0.43146663920E+02  0.41721552609E+03  0.42008017687E+03  0.10100000352E+00 0.  1.
       -3    1    3    3    0  502 -0.23171425925E+02 -0.43146663920E+02 -0.79321903623E+03  0.79472951325E+03  0.10100000352E+00 0. -1.
</event>
<event>
 5   0  0.5003526E-03  0.1201891E+04  0.7818609E-02  0.9111203E-01
        2   -1    0    0  501    0  0.00000000000E+00  0.00000000000E+00  0.17976955041E+04  0.17976955041E+04  0.25500000920E-02 0. -1.
       -2   -1    0    0    0  501  0.00000000000E+00  0.00000000000E+00 -0.20088805961E+03  0.20088805963E+03  0.25500000920E-02 0.  1.
    10030    2    1    2    0    0  0.00000000000E+00  0.00000000000E+00  0.15968074445E+04  0.19985835637E+04  0.12018911126E+04 0.  0.
        2    1    3    3  502    0  0.14038635812E+03  0.53635447466E+03  0.41288017919E+03  0.69127020361E+03  0.25500000920E-02 0.  1.
       -2    1    3    3    0  502 -0.14038635812E+03 -0.53635447466E+03  0.11839272653E+04  0.13073133601E+04  0.25500000920E-02 0. -1.
</event>
<event>
 5   0  0.2875848E-03  0.1210037E+04  0.7818609E-02  0.9104117E-01
       -1   -1    0    0    0  501  0.00000000000E+00  0.00000000000E+00  0.54338643581E+03  0.54338643584E+03  0.50400001928E-02 0. -1.
        1   -1    0    0  501    0  0.00000000000E+00  0.00000000000E+00 -0.67364048600E+03  0.67364048602E+03  0.50400001928E-02 0.  1.
    10030    2    1    2    0    0  0.00000000000E+00  0.00000000000E+00 -0.13025405019E+03  0.12170269219E+04  0.12100365329E+04 0.  0.
        1    1    3    3  502    0  0.27664620729E+03  0.14888010896E+03  0.45491774662E+03  0.55285492406E+03  0.50400001928E-02 0. -1.
       -1    1    3    3    0  502 -0.27664620729E+03 -0.14888010896E+03 -0.58517179680E+03  0.66417199779E+03  0.50400001928E-02 0.  1.
</event>
<event>
 5   0  0.2875848E-03  0.1134714E+04  0.7818609E-02  0.9172002E-01
       -1   -1    0    0    0  501  0.00000000000E+00  0.00000000000E+00  0.25127932819E+03  0.25127932825E+03  0.50400001928E-02 0.  1.
        1   -1    0    0  501    0  0.00000000000E+00  0.00000000000E+00 -0.12810205810E+04  0.12810205810E+04  0.50400001928E-02 0. -1.
    10030    2    1    2    0    0  0.00000000000E+00  0.00000000000E+00 -0.10297412528E+04  0.15322999092E+04  0.11347140451E+04 0.  0.
        1    1    3    3  502    0 -0.30952810005E+03 -0.47534401543E+03 -0.49921471222E+03  0.75562881540E+03  0.50400001928E-02 0.  1.
       -1    1    3    3    0  502  0.30952810005E+03  0.47534401543E+03 -0.53052654054E+03  0.77667109382E+03  0.50400001928E-02 0. -1.
</event>
<event>
 5   0  0.2792518E-03  0.1191939E+04  0.7818609E-02  0.9119941E-01
        1   -1    0    0  501    0  0.00000000000E+00  0.00000000000E+00  0.79517066328E+03  0.79517066329E+03  0.50400001928E-02 0.  1.
       -1   -1    0    0    0  501  0.00000000000E+00  0.00000000000E+00 -0.44667121137E+03  0.44667121140E+03  0.50400001928E-02 0. -1.
    10030    2    1    2    0    0  0.00000000000E+00  0.00000000000E+00  0.34849945191E+03  0.12418418747E+04  0.11919393331E+04 0.  0.
        2    1    3    3  502    0  0.14711491909E+02 -0.31877983226E+03  0.69865428767E+03  0.76808516659E+03  0.25500000920E-02 0.  1.
       -2    1    3    3    0  502 -0.14711491909E+02  0.31877983226E+03 -0.35015483577E+03  0.47375670810E+03  0.25500000920E-02 0. -1.
</event>
<event>
 5   0  0.5189537E-03  0.1178361E+04  0.7818609E-02  0.9132011E-01
       -2   -1    0    0    0  501  0.00000000000E+00  0.00000000000E+00  0.55126628418E+03  0.55126628419E+03  0.25500000920E-02 0.  1.
        2   -1    0    0  501    0  0.00000000000E+00  0.00000000000E+00 -0.62970200654E+03  0.62970200655E+03  0.25500000920E-02 0. -1.
    10030    2    1    2    0    0  0.00000000000E+00  0.00000000000E+00 -0.78435722361E+02  0.11809682907E+04  0.11783607008E+04 0.  0.
        4    1    3    3  502    0 -0.11600125564E+03 -0.56875154640E+03 -0.14042280395E+03  0.59720581847E+03  0.12699999809E+01 0. -1.
       -4    1    3    3    0  502  0.11600125564E+03  0.56875154640E+03  0.61987081593E+02  0.58376247227E+03  0.12699999809E+01 0.  1.
</event>
<event>
 5   0  0.1922125E-03  0.1215033E+04  0.7818609E-02  0.9099799E-01
       -4   -1    0    0    0  501  0.00000000000E+00  0.00000000000E+00  0.31913258177E+03  0.31913510876E+03  0.12699999809E+01 0. -1.
        4   -1    0    0  501    0  0.00000000000E+00  0.00000000000E+00 -0.11564907234E+04  0.11564914207E+04  0.12699999809E+01 0.  1.
    10030    2    1    2    0    0  0.00000000000E+00  0.00000000000E+00 -0.83735814164E+03  0.14756265295E+04  0.12150329202E+04 0.  0.
        3    1    3    3  502    0  0.16175423214E+03  0.29726111116E+03  0.19405629339E+03  0.39011082403E+03  0.10100000352E+00 0. -1.
       -3    1    3    3    0  502 -0.16175423214E+03 -0.29726111116E+03 -0.10314144350E+04  0.10855157055E+04  0.10100000352E+00 0.  1.
</event>
<event>
 5   0  0.5189537E-03  0.9714511E+03  0.7818609E-02  0.9340423E-01
       -2   -1    0    0    0  501  0.00000000000E+00  0.00000000000E+00  0.41707801708E+03  0.41707801709E+03  0.25500000920E-02 0. -1.
        2   -1    0    0  501    0  0.00000000000E+00  0.00000000000E+00 -0.56567192387E+03  0.56567192388E+03  0.25500000920E-02 0.  1.
    10030    2    1    2    0    0  0.00000000000E+00  0.00000000000E+00 -0.14859390679E+03  0.98274994097E+03  0.97145112967E+03 0.  0.
        4    1    3    3  502    0  0.59589913073E+02 -0.39577524982E+03  0.20411059581E+03  0.44927914967E+03  0.12699999809E+01 0. -1.
       -4    1    3    3    0  502 -0.59589913073E+02  0.39577524982E+03 -0.35270450259E+03  0.53347079129E+03  0.12699999809E+01 0.  1.
</event>
<event>
 5   0  0.5467554E-03  0.1145095E+04  0.7818609E-02  0.9162321E-01
       -2   -1    0    0    0  501  0.00000000000E+00  0.00000000000E+00  0.11335241820E+03  0.11335241823E+03  0.25500000920E-02 0. -1.
        2   -1    0    0  501    0  0.00000000000E+00  0.00000000000E+00 -0.28919578742E+04  0.28919578742E+04  0.25500000920E-02 0.  1.
    10030    2    1    2    0    0  0.00000000000E+00  0.00000000000E+00 -0.27786054560E+04  0.30053102925E+04  0.11450946134E+04 0.  0.
        1    1    3    3  502    0  0.16061753732E+03  0.22893701839E+03 -0.27005073442E+04  0.27149493674E+04  0.50400001928E-02 0.  1.
       -1    1    3    3    0  502 -0.16061753732E+03 -0.22893701839E+03 -0.78098111850E+02  0.29036092503E+03  0.50400001928E-02 0. -1.
</event>
<event>
 5   0  0.1922125E-03  0.1203775E+04  0.7818609E-02  0.9109559E-01
        4   -1    0    0  501    0  0.00000000000E+00  0.00000000000E+00  0.52343980307E+03  0.52344134375E+03  0.12699999809E+01 0.  1.
       -4   -1    0    0    0  501  0.00000000000E+00  0.00000000000E+00 -0.69208878237E+03  0.69208994761E+03  0.12699999809E+01 0. -1.
    10030    2    1    2    0    0  0.00000000000E+00  0.00000000000E+00 -0.16864897930E+03  0.12155312914E+04  0.12037748303E+04 0.  0.
        1    1    3    3  502    0  0.27373989280E+03  0.19292071335E+03 -0.58932530846E+03  0.67783202179E+03  0.50400001928E-02 0. -1.
       -1    1    3    3    0  502 -0.27373989280E+03 -0.19292071335E+03  0.42067632916E+03  0.53769926957E+03  0.50400001928E-02 0.  1.
</event>
<event>
 5   0  0.5108045E-03  0.1188285E+04  0.7818609E-02  0.9123173E-01
       -2   -1    0    0    0  501  0.00000000000E+00  0.00000000000E+00  0.38943907717E+03  0.38943907718E+03  0.25500000920E-02 0. -1.
        2   -1    0    0  501    0  0.00000000000E+00  0.00000000000E+00 -0.90644577055E+03  0.90644577056E+03  0.25500000920E-02 0.  1.
    10030    2    1    2    0    0  0.00000000000E+00  0.00000000000E+00 -0.51700669338E+03  0.12958848477E+04  0.11882851584E+04 0.  0.
        3    1    3    3  502    0  0.36893109843E+03 -0.19485178947E+02 -0.76594989407E+03  0.85039348423E+03  0.10100000352E+00 0.  1.
       -3    1    3    3    0  502 -0.36893109843E+03  0.19485178947E+02  0.24894320069E+03  0.44549136351E+03  0.10100000352E+00 0. -1.
</event>
<event>
 5   0  0.5189537E-03  0.1194804E+04  0.7818609E-02  0.9117417E-01
       -2   -1    0    0    0  501  0.00000000000E+00  0.00000000000E+00  0.25234409757E+03  0.25234409758E+03  0.25500000920E-02 0.  1.
        2   -1    0    0  501    0  0.00000000000E+00  0.00000000000E+00 -0.14142952923E+04  0.14142952923E+04  0.25500000920E-02 0. -1.
    10030    2    1    2    0    0  0.00000000000E+00  0.00000000000E+00 -0.11619511947E+04  0.16666393898E+04  0.11948038655E+04 0.  0.
        4    1    3    3  502    0  0.55456538882E+02 -0.47596613217E+03 -0.83347272122E+02  0.48638212071E+03  0.12699999809E+01 0.  1.
       -4    1    3    3    0  502 -0.55456538882E+02  0.47596613217E+03 -0.10786039226E+04  0.11802572691E+04  0.12699999809E+01 0. -1.
</event>
<event>
 5   0  0.2930868E-03  0.1206868E+04  0.7818609E-02  0.9106866E-01
        1   -1    0    0  501    0  0.00000000000E+00  0.00000000000E+00  0.40781079159E+03  0.40781079162E+03  0.50400001928E-02 0.  1.
       -1   -1    0    0    0  501  0.00000000000E+00  0.00000000000E+00 -0.89289656028E+03  0.89289656030E+03  0.50400001928E-02 0. -1.
    10030    2    1    2    0    0  0.00000000000E+00  0.00000000000E+00 -0.48508576869E+03  0.13007073519E+04  0.12068684321E+04 0.  0.
        3    1    3    3  502    0  0.26852066243E+03 -0.33915272958E+03 -0.69597506548E+03  0.81945666274E+03  0.10100000352E+00 0. -1.
       -3    1    3    3    0  502 -0.26852066243E+03  0.33915272958E+03  0.21088929679E+03  0.48125068918E+03  0.10100000352E+00 0.  1.
</event>
<event>
 5   0  0.2792518E-03  0.1238248E+04  0.7818609E-02  0.9080021E-01
        1   -1    0    0  501    0  0.00000000000E+00  0.00000000000E+00  0.33656436681E+03  0.33656436685E+03  0.50400001928E-02 0.  1.
       -1   -1    0    0    0  501  0.00000000000E+00  0.00000000000E+00 -0.11389041891E+04  0.11389041891E+04  0.50400001928E-02 0. -1.
    10030    2    1    2    0    0  0.00000000000E+00  0.00000000000E+00 -0.80233982226E+03  0.14754685559E+04  0.12382480645E+04 0.  0.
        2    1    3    3  502    0  0.90091993099E+02  0.50011911909E+02 -0.11286148687E+04  0.11333089960E+04  0.25500000920E-02 0. -1.
       -2    1    3    3    0  502 -0.90091993099E+02 -0.50011911909E+02  0.32627504642E+03  0.34215955996E+03  0.25500000920E-02 0.  1.
</event>
<event>
 5   0  0.2926844E-03  0.1074578E+04  0.7818609E-02  0.9230330E-01
       -1   -1    0    0    0  501  0.00000000000E+00  0.00000000000E+00  0.65370152908E+03  0.65370152910E+03  0.50400001928E-02 0. -1.
        1   -1    0    0  501    0  0.00000000000E+00  0.00000000000E+00 -0.44160759889E+03  0.44160759892E+03  0.50400001928E-02 0.  1.
    10030    2    1    2    0    0  0.00000000000E+00  0.00000000000E+00  0.21209393020E+03  0.10953091280E+04  0.10745781734E+04 0.  0.
        5    1    3    3  502    0 -0.36955703055E+03 -0.24025352480E+03 -0.20706545344E+03  0.48702396965E+03  0.46999998093E+01 0.  1.
       -5    1    3    3    0  502  0.36955703055E+03  0.24025352480E+03  0.41915938363E+03  0.60828515837E+03  0.46999998093E+01 0. -1.
</event>
<event>
 5   0  0.5189537E-03  0.1213249E+04  0.7818609E-02  0.9101338E-01
        2   -1    0    0  501    0  0.00000000000E+00  0.00000000000E+00  0.16028831335E+04  0.16028831335E+04  0.25500000920E-02 0. -1.
       -2   -1    0    0    0  501  0.00000000000E+00  0.00000000000E+00 -0.22958203514E+03  0.22958203515E+03  0.25500000920E-02 0.  1.
    10030    2    1    2    0    0  0.00000000000E+00  0.00000000000E+00  0.13733010983E+04  0.18324651686E+04  0.12132488152E+04 0.  0.
        4    1    3    3  502    0 -0.20904146551E+03 -0.56551795114E+03  0.78777456675E+03  0.99201777619E+03  0.12699999809E+01 0. -1.
       -4    1    3    3    0  502  0.20904146551E+03  0.56551795114E+03  0.58552653158E+03  0.84044739243E+03  0.12699999809E+01 0.  1.
</event>
<event>
 5   0  0.2875848E-03  0.1189935E+04  0.7818609E-02  0.9121713E-01
       -1   -1    0    0    0  501  0.00000000000E+00  0.00000000000E+00  0.71250682132E+03  0.71250682134E+03  0.50400001928E-02 0.  1.
        1   -1    0    0  501    0  0.00000000000E+00  0.00000000000E+00 -0.49681785590E+03  0.49681785593E+03  0.50400001928E-02 0. -1.
    10030    2    1    2    0    0  0.00000000000E+00  0.00000000000E+00  0.21568896542E+03  0.12093246773E+04  0.11899346391E+04 0.  0.
        1    1    3    3  502    0 -0.16983990986E+03  0.45936888368E+03 -0.23547789147E+03  0.54342911559E+03  0.50400001928E-02 0. -1.
       -1    1    3    3    0  502  0.16983990986E+03 -0.45936888368E+03  0.45116685689E+03  0.66589556167E+03  0.50400001928E-02 0.  1.
</event>
<event>
 5   0  0.2926844E-03  0.1220457E+04  0.7818609E-02  0.9095137E-01
        1   -1    0    0  501    0  0.00000000000E+00  0.00000000000E+00  0.29409768827E+03  0.29409768832E+03  0.50400001928E-02 0.  1.
       -1   -1    0    0    0  501  0.00000000000E+00  0.00000000000E+00 -0.12661732239E+04  0.12661732240E+04  0.50400001928E-02 0. -1.
    10030    2    1    2    0    0  0.00000000000E+00  0.00000000000E+00 -0.97207553567E+03  0.15602709123E+04  0.12204566656E+04 0.  0.
        5    1    3    3  502    0  0.25571346197E+03  0.51888742230E+03 -0.23773546914E+03  0.62543886587E+03  0.46999998093E+01 0.  1.
       -5    1    3    3    0  502 -0.25571346197E+03 -0.51888742230E+03 -0.73434006653E+03  0.93483204640E+03  0.46999998093E+01 0. -1.
</event>
<event>
 5   0  0.2875848E-03  0.1194436E+04  0.7818609E-02  0.9117740E-01
       -1   -1    0    0    0  501  0.00000000000E+00  0.00000000000E+00  0.40883953050E+03  0.40883953053E+03  0.50400001928E-02 0.  1.
        1   -1    0    0  501    0  0.00000000000E+00  0.00000000000E+00 -0.87239502128E+03  0.87239502130E+03  0.50400001928E-02 0. -1.
    10030    2    1    2    0    0  0.00000000000E+00  0.00000000000E+00 -0.46355549078E+03  0.12812345518E+04  0.11944363875E+04 0.  0.
        1    1    3    3  502    0  0.25362066180E+03 -0.13880381179E+03  0.32876698179E+03  0.43781008051E+03  0.50400001928E-02 0.  1.
       -1    1    3    3    0  502 -0.25362066180E+03  0.13880381179E+03 -0.79232247256E+03  0.84342447132E+03  0.50400001928E-02 0. -1.
</event>
<event>
 5   0  0.2792518E-03  0.1229228E+04  0.7818609E-02  0.9087651E-01
        1   -1    0    0  501    0  0.00000000000E+00  0.00000000000E+00  0.28353799823E+03  0.28353799827E+03  0.50400001928E-02 0.  1.
       -1   -1    0    0    0  501  0.00000000000E+00  0.00000000000E+00 -0.13322741239E+04  0.13322741239E+04  0.50400001928E-02 0. -1.
    10030    2    1    2    0    0  0.00000000000E+00  0.00000000000E+00 -0.10487361256E+04  0.16158121221E+04  0.12292279499E+04 0.  0.
        2    1    3    3  502    0 -0.20293903684E+03 -0.43717299117E+03 -0.23054886811E+02  0.48253083290E+03  0.25500000920E-02 0.  1.
       -2    1    3    3    0  502  0.20293903684E+03  0.43717299117E+03 -0.10256812388E+04  0.11332812892E+04  0.25500000920E-02 0. -1.
</event>
<event>
 5   0  0.5031575E-03  0.1203899E+04  0.7818609E-02  0.9109451E-01
        2   -1    0    0  501    0  0.00000000000E+00  0.00000000000E+00  0.50641009851E+03  0.50641009852E+03  0.25500000920E-02 0. -1.
       -2   -1    0    0    0  501  0.00000000000E+00  0.00000000000E+00 -0.71551327926E+03  0.71551327926E+03  0.25500000920E-02 0.  1.
    10030    2    1    2    0    0  0.00000000000E+00  0.00000000000E+00 -0.20910318074E+03  0.12219233778E+04  0.12038989164E+04 0.  0.
        5    1    3    3  502    0  0.40578032112E+03  0.43793381943E+03 -0.18236333179E+03  0.62427732138E+03  0.46999998093E+01 0.  1.
       -5    1    3    3    0  502 -0.40578032112E+03 -0.43793381943E+03 -0.26739848957E+02  0.59764605640E+03  0.46999998093E+01 0. -1.
</event>
<event>
 5   0  0.5189537E-03  0.1185911E+04  0.7818609E-02  0.9125279E-01
        2   -1    0    0  501    0  0.00000000000E+00  0.00000000000E+00  0.10838381400E+04  0.10838381400E+04  0.25500000920E-02 0.  1.
       -2   -1    0    0    0  501  0.00000000000E+00  0.00000000000E+00 -0.32439928172E+03  0.32439928173E+03  0.25500000920E-02 0. -1.
    10030    2    1    2    0    0  0.00000000000E+00  0.00000000000E+00  0.75943885827E+03  0.14082374217E+04  0.11859111503E+04 0.  0.
        4    1    3    3  502    0 -0.10429700171E+03  0.29746492175E+03  0.97609981634E+03  0.10257366663E+04  0.12699999809E+01 0. -1.
       -4    1    3    3    0  502  0.10429700171E+03 -0.29746492175E+03 -0.21666095808E+03  0.38250075542E+03  0.12699999809E+01 0.  1.
</event>
<event>
 5   0  0.2930868E-03  0.1194464E+04  0.7818609E-02  0.9117716E-01
        1   -1    0    0  501    0  0.00000000000E+00  0.00000000000E+00  0.22250544091E+04  0.22250544091E+04  0.50400001928E-02 0. -1.
       -1   -1    0    0    0  501  0.00000000000E+00  0.00000000000E+00 -0.16030431898E+03  0.16030431906E+03  0.50400001928E-02 0.  1.
    10030    2    1    2    0    0  0.00000000000E+00  0.00000000000E+00  0.20647500901E+04  0.23853587281E+04  0.11944636149E+04 0.  0.
        3    1    3    3  502    0  0.84018610530E+02  0.50881094413E+03  0.16339304857E+04  0.17133816113E+04  0.10100000352E+00 0. -1.
       -3    1    3    3    0  502 -0.84018610530E+02 -0.50881094413E+03  0.43081960441E+03  0.67197711682E+03  0.10100000352E+00 0.  1.
</event>
<event>
 5   0  0.2792518E-03  0.1157032E+04  0.7818609E-02  0.9151321E-01
       -1   -1    0    0    0  501  0.00000000000E+00  0.00000000000E+00  0.51035911179E+03  0.51035911181E+03  0.50400001928E-02 0. -1.
        1   -1    0    0  501    0  0.00000000000E+00  0.00000000000E+00 -0.65577467339E+03  0.65577467341E+03  0.50400001928E-02 0.  1.
    10030    2    1    2    0    0  0.00000000000E+00  0.00000000000E+00 -0.14541556161E+03  0.11661337852E+04  0.11570316847E+04 0.  0.
        2    1    3    3  502    0  0.21449192756E+03  0.40160043694E+03  0.28701860801E+03  0.53820941955E+03  0.25500000920E-02 0. -1.
       -2    1    3    3    0  502 -0.21449192756E+03 -0.40160043694E+03 -0.43243416962E+03  0.62792436567E+03  0.25500000920E-02 0.  1.
</event>
<event>
 5   0  0.5189537E-03  0.1178315E+04  0.7818609E-02  0.9132052E-01
       -2   -1    0    0    0  501  0.00000000000E+00  0.00000000000E+00  0.55066912068E+03  0.55066912068E+03  0.25500000920E-02 0. -1.
        2   -1    0    0  501    0  0.00000000000E+00  0.00000000000E+00 -0.63033646696E+03  0.63033646696E+03  0.25500000920E-02 0.  1.
    10030    2    1    2    0    0  0.00000000000E+00  0.00000000000E+00 -0.79667346281E+02  0.11810055876E+04  0.11783154552E+04 0.  0.
        4    1    3    3  502    0  0.45831042796E+03 -0.34426748003E+03 -0.17629394267E+03  0.59970802338E+03  0.12699999809E+01 0.  1.
       -4    1    3    3    0  502 -0.45831042796E+03  0.34426748003E+03  0.96626596392E+02  0.58129756426E+03  0.12699999809E+01 0. -1.
</event>
<event>
 5   0  0.2875848E-03  0.1289427E+04  0.7818609E-02  0.9037992E-01
       -1   -1    0    0    0  501  0.00000000000E+00  0.00000000000E+00  0.22600972545E+03  0.22600972550E+03  0.50400001928E-02 0. -1.
        1   -1    0    0  501    0  0.00000000000E+00  0.00000000000E+00 -0.18391042731E+04  0.18391042731E+04  0.50400001928E-02 0.  1.
    10030    2    1    2    0    0  0.00000000000E+00  0.00000000000E+00 -0.16130945477E+04  0.20651139986E+04  0.12894269299E+04 0.  0.
        1    1    3    3  502    0 -0.49772988584E+03 -0.13002993185E+02 -0.14625116984E+04  0.15449416122E+04  0.50400001928E-02 0.  1.
       -1    1    3    3    0  502  0.49772988584E+03  0.13002993185E+02 -0.15058284928E+03  0.52017238644E+03  0.50400001928E-02 0. -1.
</event>
<event>
 5   0  0.5467554E-03  0.1278614E+04  0.7818609E-02  0.9046699E-01
        2   -1    0    0  501    0  0.00000000000E+00  0.00000000000E+00  0.10871215767E+04  0.10871215767E+04  0.25500000920E-02 0. -1.
       -2   -1    0    0    0  501  0.00000000000E+00  0.00000000000E+00 -0.37595914908E+03  0.37595914908E+03  0.25500000920E-02 0.  1.
    10030    2    1    2    0    0  0.00000000000E+00  0.00000000000E+00  0.71116242758E+03  0.14630807257E+04  0.12786137852E+04 0.  0.
        1    1    3    3  502    0 -0.18365525546E+03  0.40115988295E+03 -0.17382787202E+03  0.47420948289E+03  0.50400001928E-02 0.  1.
       -1    1    3    3    0  502  0.18365525546E+03 -0.40115988295E+03  0.88499029960E+03  0.98887124286E+03  0.50400001928E-02 0. -1.
</event>
<event>
 5   0  0.2875848E-03  0.1204952E+04  0.7818609E-02  0.9108533E-01
       -1   -1    0    0    0  501  0.00000000000E+00  0.00000000000E+00  0.64420213685E+03  0.64420213687E+03  0.50400001928E-02 0.  1.
        1   -1    0    0  501    0  0.00000000000E+00  0.00000000000E+00 -0.56345275052E+03  0.56345275054E+03  0.50400001928E-02 0. -1.
    10030    2    1    2    0    0  0.00000000000E+00  0.00000000000E+00  0.80749386331E+02  0.12076548874E+04  0.12049522247E+04 0.  0.
        1    1    3    3  502    0 -0.38928980492E+03 -0.44672693054E+03 -0.68800637116E+02  0.59652747663E+03  0.50400001928E-02 0.  1.
       -1    1    3    3    0  502  0.38928980492E+03  0.44672693054E+03  0.14955002345E+03  0.61112741079E+03  0.50400001928E-02 0. -1.
</event>
<event>
 5   0  0.2875848E-03  0.1197607E+04  0.7818609E-02  0.9114954E-01
        1   -1    0    0  501    0  0.00000000000E+00  0.00000000000E+00  0.32111474000E+03  0.32111474004E+03  0.50400001928E-02 0. -1.
       -1   -1    0    0    0  501  0.00000000000E+00  0.00000000000E+00 -0.11166280490E+04  0.11166280490E+04  0.50400001928E-02 0.  1.
    10030    2    1    2    0    0  0.00000000000E+00  0.00000000000E+00 -0.79551330900E+03  0.14377427891E+04  0.11976071571E+04 0.  0.
        1    1    3    3  502    0 -0.57221298666E+03 -0.15977196395E+03 -0.48768254500E+03  0.76862802921E+03  0.50400001928E-02 0.  1.
       -1    1    3    3    0  502  0.57221298666E+03  0.15977196395E+03 -0.30783076399E+03  0.66911475985E+03  0.50400001928E-02 0. -1.
</event>
<event>
 5   0  0.5031575E-03  0.1199968E+04  0.7818609E-02  0.9112885E-01
       -2   -1    0    0    0  501  0.00000000000E+00  0.00000000000E+00  0.34499995308E+03  0.34499995309E+03  0.25500000920E-02 0. -1.
        2   -1    0    0  501    0  0.00000000000E+00  0.00000000000E+00 -0.10434227873E+04  0.10434227873E+04  0.25500000920E-02 0.  1.
    10030    2    1    2    0    0  0.00000000000E+00  0.00000000000E+00 -0.69842283423E+03  0.13884227404E+04  0.11999680207E+04 0.  0.
        5    1    3    3  502    0 -0.46329980822E+03  0.56848354047E+02  0.86921574571E+02  0.47482196430E+03  0.46999998093E+01 0. -1.
       -5    1    3    3    0  502  0.46329980822E+03 -0.56848354047E+02 -0.78534440880E+03  0.91360077610E+03  0.46999998093E+01 0.  1.
</event>
<event>
 5   0  0.1922125E-03  0.1185707E+04  0.7818609E-02  0.9125460E-01
        3   -1    0    0  501    0  0.00000000000E+00  0.00000000000E+00  0.34844063568E+03  0.34844065032E+03  0.10100000352E+00 0.  1.
       -3   -1    0    0    0  501  0.00000000000E+00  0.00000000000E+00 -0.10087086004E+04  0.10087086055E+04  0.10100000352E+00 0. -1.
    10030    2    1    2    0    0  0.00000000000E+00  0.00000000000E+00 -0.66026796477E+03  0.13571492558E+04  0.11857066742E+04 0.  0.
        2    1    3    3  502    0 -0.36287783861E+03 -0.45226553423E+03 -0.47148351755E+03  0.74734272361E+03  0.25500000920E-02 0.  1.
       -2    1    3    3    0  502  0.36287783861E+03  0.45226553423E+03 -0.18878444722E+03  0.60980653221E+03  0.25500000920E-02 0. -1.
</event>
<event>
 5   0  0.5108045E-03  0.1072493E+04  0.7818609E-02  0.9232424E-01
        2   -1    0    0  501    0  0.00000000000E+00  0.00000000000E+00  0.20526444954E+04  0.20526444954E+04  0.25500000920E-02 0. -1.
       -2   -1    0    0    0  501  0.00000000000E+00  0.00000000000E+00 -0.14009266280E+03  0.14009266283E+03  0.25500000920E-02 0.  1.
    10030    2    1    2    0    0  0.00000000000E+00  0.00000000000E+00  0.19125518325E+04  0.21927371582E+04  0.10724932320E+04 0.  0.
        3    1    3    3  502    0 -0.21058556561E+03 -0.10988262533E+03  0.19392216105E+04  0.19537146508E+04  0.10100000352E+00 0. -1.
       -3    1    3    3    0  502  0.21058556561E+03  0.10988262533E+03 -0.26669777953E+02  0.23902250741E+03  0.10100000352E+00 0.  1.
</event>
<event>
 5   0  0.5189537E-03  0.1228916E+04  0.7818609E-02  0.9087916E-01
       -2   -1    0    0    0  501  0.00000000000E+00  0.00000000000E+00  0.20887052029E+03  0.20887052030E+03  0.25500000920E-02 0.  1.
        2   -1    0    0  501    0  0.00000000000E+00  0.00000000000E+00 -0.18076211382E+04  0.18076211382E+04  0.25500000920E-02 0. -1.
    10030    2    1    2    0    0  0.00000000000E+00  0.00000000000E+00 -0.15987506180E+04  0.20164916586E+04  0.12289162179E+04 0.  0.
        4    1    3    3  502    0  0.29668127476E+02 -0.50324174157E+03 -0.13758433108E+04  0.14652913967E+04  0.12699999809E+01 0. -1.
       -4    1    3    3    0  502 -0.29668127476E+02  0.50324174157E+03 -0.22290730713E+03  0.55120026190E+03  0.12699999809E+01 0.  1.
</event>
<event>
 5   0  0.5108045E-03  0.1193888E+04  0.7818609E-02  0.9118223E-01
       -2   -1    0    0    0  501  0.00000000000E+00  0.00000000000E+00  0.63552565211E+03  0.63552565212E+03  0.25500000920E-02 0.  1.
        2   -1    0    0  501    0  0.00000000000E+00  0.00000000000E+00 -0.56070442036E+03  0.56070442037E+03  0.25500000920E-02 0. -1.
    10030    2    1    2    0    0  0.00000000000E+00  0.00000000000E+00  0.74821231747E+02  0.11962300725E+04  0.11938878379E+04 0.  0.
        3    1    3    3  502    0 -0.20303785577E+03 -0.50421602867E+03 -0.20982001058E+03  0.58265137217E+03  0.10100000352E+00 0. -1.
       -3    1    3    3    0  502  0.20303785577E+03  0.50421602867E+03  0.28464124233E+03  0.61357870032E+03  0.10100000352E+00 0.  1.
</event>
<event>
 5   0  0.5467554E-03  0.1212541E+04  0.7818609E-02  0.9101949E-01
        2   -1    0    0  501    0  0.00000000000E+00  0.00000000000E+00  0.81021684256E+03  0.81021684257E+03  0.25500000920E-02 0.  1.
       -2   -1    0    0    0  501  0.00000000000E+00  0.00000000000E+00 -0.45366151871E+03  0.45366151872E+03  0.25500000920E-02 0. -1.
    10030    2    1    2    0    0  0.00000000000E+00  0.00000000000E+00  0.35655532385E+03  0.12638783613E+04  0.12125414686E+04 0.  0.
        1    1    3    3  502    0 -0.30373127072E+03 -0.52193278901E+03  0.23438685921E+03  0.64776826169E+03  0.50400001928E-02 0. -1.
       -1    1    3    3    0  502  0.30373127072E+03  0.52193278901E+03  0.12216846464E+03  0.61611009960E+03  0.50400001928E-02 0.  1.
</event>
<event>
 5   0  0.2792518E-03  0.1184964E+04  0.7818609E-02  0.9126120E-01
       -1   -1    0    0    0  501  0.00000000000E+00  0.00000000000E+00  0.30200841564E+03  0.30200841568E+03  0.50400001928E-02 0. -1.
        1   -1    0    0  501    0  0.00000000000E+00  0.00000000000E+00 -0.11623354079E+04  0.11623354079E+04  0.50400001928E-02 0.  1.
    10030    2    1    2    0    0  0.00000000000E+00  0.00000000000E+00 -0.86032699226E+03  0.14643438236E+04  0.11849642611E+04 0.  0.
        2    1    3    3  502    0  0.21927208401E+03  0.29723548880E+03  0.14231427594E+03  0.39583144869E+03  0.25500000920E-02 0. -1.
       -2    1    3    3    0  502 -0.21927208401E+03 -0.29723548880E+03 -0.10026412682E+04  0.10685123749E+04  0.25500000920E-02 0.  1.
</event>
<event>
 5   0  0.2938349E-03  0.1176235E+04  0.7818609E-02  0.9133916E-01
       -1   -1    0    0    0  501  0.00000000000E+00  0.00000000000E+00  0.26407624217E+03  0.26407624222E+03  0.50400001928E-02 0. -1.
        1   -1    0    0  501    0  0.00000000000E+00  0.00000000000E+00 -0.13097815039E+04  0.13097815039E+04  0.50400001928E-02 0.  1.
    10030    2    1    2    0    0  0.00000000000E+00  0.00000000000E+00 -0.10457052617E+04  0.15738577461E+04  0.11762349725E+04 0.  0.
        4    1    3    3  502    0  0.44056455280E+02 -0.37686116699E+03 -0.11241038266E+04  0.11864132232E+04  0.12699999809E+01 0.  1.
       -4    1    3    3    0  502 -0.44056455280E+02  0.37686116699E+03  0.78398564866E+02  0.38744452288E+03  0.12699999809E+01 0. -1.
</event>
<event>
 5   0  0.5031575E-03  0.1217570E+04  0.7818609E-02  0.9097615E-01
        2   -1    0    0  501    0  0.00000000000E+00  0.00000000000E+00  0.72179268223E+03  0.72179268224E+03  0.25500000920E-02 0.  1.
       -2   -1    0    0    0  501  0.00000000000E+00  0.00000000000E+00 -0.51347039647E+03  0.51347039648E+03  0.25500000920E-02 0. -1.
    10030    2    1    2    0    0  0.00000000000E+00  0.00000000000E+00  0.20832228576E+03  0.12352630787E+04  0.12175699975E+04 0.  0.
        5    1    3    3  502    0 -0.53635934677E+03 -0.13733360270E+03 -0.15260796823E+03  0.57432843327E+03  0.46999998093E+01 0. -1.
       -5    1    3    3    0  502  0.53635934677E+03  0.13733360270E+03  0.36093025399E+03  0.66093464544E+03  0.46999998093E+01 0.  1.
</event>
<event>
 5   0  0.2875848E-03  0.1194202E+04  0.7818609E-02  0.9117947E-01
       -1   -1    0    0    0  501  0.00000000000E+00  0.00000000000E+00  0.74403053593E+03  0.74403053595E+03  0.50400001928E-02 0. -1.
        1   -1    0    0  501    0  0.00000000000E+00  0.00000000000E+00 -0.47918678450E+03  0.47918678453E+03  0.50400001928E-02 0.  1.
    10030    2    1    2    0    0  0.00000000000E+00  0.00000000000E+00  0.26484375143E+03  0.12232173205E+04  0.11942019932E+04 0.  0.
        1    1    3    3  502    0  0.19631222493E+03 -0.11289265114E+03  0.69833670838E+03  0.73413717971E+03  0.50400001928E-02 0. -1.
       -1    1    3    3    0  502 -0.19631222493E+03  0.11289265114E+03 -0.43349295695E+03  0.48908014076E+03  0.50400001928E-02 0.  1.
</event>
<event>
 5   0  0.2938349E-03  0.1128086E+04  0.7818609E-02  0.9178241E-01
        1   -1    0    0  501    0  0.00000000000E+00  0.00000000000E+00  0.47597523471E+03  0.47597523473E+03  0.50400001928E-02 0. -1.
       -1   -1    0    0    0  501  0.00000000000E+00  0.00000000000E+00 -0.66840609419E+03  0.66840609421E+03  0.50400001928E-02 0.  1.
    10030    2    1    2    0    0  0.00000000000E+00  0.00000000000E+00 -0.19243085948E+03  0.11443813289E+04  0.11280864286E+04 0.  0.
        4    1    3    3  502    0 -0.54593509590E+03  0.13823557267E+03 -0.64313889748E+02  0.56682633302E+03  0.12699999809E+01 0. -1.
       -4    1    3    3    0  502  0.54593509590E+03 -0.13823557267E+03 -0.12811696973E+03  0.57755499593E+03  0.12699999809E+01 0.  1.
</event>
<event>
 5   0  0.2926844E-03  0.1189797E+04  0.7818609E-02  0.9121834E-01
        1   -1    0    0  501    0  0.00000000000E+00  0.00000000000E+00  0.97251183067E+03  0.97251183069E+03  0.50400001928E-02 0. -1.
       -1   -1    0    0    0  501  0.00000000000E+00  0.00000000000E+00 -0.36390741066E+03  0.36390741069E+03  0.50400001928E-02 0.  1.
    10030    2    1    2    0    0  0.00000000000E+00  0.00000000000E+00  0.60860442001E+03  0.13364192414E+04  0.11897970620E+04 0.  0.
        5    1    3    3  502    0 -0.11951277041E+03  0.44903568417E+03 -0.11290863367E+03  0.47821208423E+03  0.46999998093E+01 0.  1.
       -5    1    3    3    0  502  0.11951277041E+03 -0.44903568417E+03  0.72151305368E+03  0.85820715715E+03  0.46999998093E+01 0. -1.
</event>
<event>
 5   0  0.5189537E-03  0.1148883E+04  0.7818609E-02  0.9158815E-01
       -2   -1    0    0    0  501  0.00000000000E+00  0.00000000000E+00  0.20992710503E+03  0.20992710504E+03  0.25500000920E-02 0. -1.
        2   -1    0    0  501    0  0.00000000000E+00  0.00000000000E+00 -0.15718928442E+04  0.15718928442E+04  0.25500000920E-02 0.  1.
    10030    2    1    2    0    0  0.00000000000E+00  0.00000000000E+00 -0.13619657391E+04  0.17818199492E+04  0.11488827864E+04 0.  0.
        4    1    3    3  502    0  0.19685281085E+03 -0.92620469650E+02  0.14356127395E+03  0.26065500727E+03  0.12699999809E+01 0. -1.
       -4    1    3    3    0  502 -0.19685281085E+03  0.92620469650E+02 -0.15055270131E+04  0.15211649419E+04  0.12699999809E+01 0.  1.
</event>
<event>
 5   0  0.2875848E-03  0.1185834E+04  0.7818609E-02  0.9125347E-01
       -1   -1    0    0    0  501  0.00000000000E+00  0.00000000000E+00  0.33619702214E+03  0.33619702218E+03  0.50400001928E-02 0. -1.
        1   -1    0    0  501    0  0.00000000000E+00  0.00000000000E+00 -0.10456684385E+04  0.10456684385E+04  0.50400001928E-02 0.  1.
    10030    2    1    2    0    0  0.00000000000E+00  0.00000000000E+00 -0.70947141634E+03  0.13818654607E+04  0.11858340781E+04 0.  0.
        1    1    3    3  502    0 -0.12870880964E+03 -0.24790037366E+03 -0.96419452925E+03  0.10038384547E+04  0.50400001928E-02 0.  1.
       -1    1    3    3    0  502  0.12870880964E+03  0.24790037366E+03  0.25472311291E+03  0.37802700594E+03  0.50400001928E-02 0. -1.
</event>
<event>
 5   0  0.5003526E-03  0.1103626E+04  0.7818609E-02  0.9201665E-01
       -2   -1    0    0    0  501  0.00000000000E+00  0.00000000000E+00  0.11538930190E+03  0.11538930193E+03  0.25500000920E-02 0.  1.
        2   -1    0    0  501    0  0.00000000000E+00  0.00000000000E+00 -0.26388717865E+04  0.26388717865E+04  0.25500000920E-02 0. -1.
    10030    2    1    2    0    0  0.00000000000E+00  0.00000000000E+00 -0.25234824845E+04  0.27542610884E+04  0.11036259752E+04 0.  0.
        2    1    3    3  502    0 -0.20510820645E+03 -0.42912452227E+03 -0.56349348694E+03  0.73738873181E+03  0.25500000920E-02 0.  1.
       -2    1    3    3    0  502  0.20510820645E+03  0.42912452227E+03 -0.19599889976E+04  0.20168723566E+04  0.25500000920E-02 0. -1.
</event>
<event>
 5   0  0.5031575E-03  0.1215186E+04  0.7818609E-02  0.9099667E-01
        2   -1    0    0  501    0  0.00000000000E+00  0.00000000000E+00  0.14800740951E+04  0.14800740951E+04  0.25500000920E-02 0.  1.
       -2   -1    0    0    0  501  0.00000000000E+00  0.00000000000E+00 -0.24942616008E+03  0.24942616009E+03  0.25500000920E-02 0. -1.
    10030    2    1    2    0    0  0.00000000000E+00  0.00000000000E+00  0.12306479350E+04  0.17295002552E+04  0.12151859087E+04 0.  0.
        5    1    3    3  502    0  0.67845052512E+02 -0.12387412584E+03 -0.22571210611E+03  0.26630019723E+03  0.46999998093E+01 0. -1.
       -5    1    3    3    0  502 -0.67845052512E+02  0.12387412584E+03  0.14563600412E+04  0.14632000580E+04  0.46999998093E+01 0.  1.
</event>
<event>
 5   0  0.2930868E-03  0.1159310E+04  0.7818609E-02  0.9149237E-01
       -1   -1    0    0    0  501  0.00000000000E+00  0.00000000000E+00  0.24730722511E+03  0.24730722516E+03  0.50400001928E-02 0.  1.
        1   -1    0    0  501    0  0.00000000000E+00  0.00000000000E+00 -0.13586345066E+04  0.13586345067E+04  0.50400001928E-02 0. -1.
    10030    2    1    2    0    0  0.00000000000E+00  0.00000000000E+00 -0.11113272815E+04  0.16059417318E+04  0.11593103637E+04 0.  0.
        3    1    3    3  502    0 -0.46792549677E+03 -0.28083946772E+03 -0.82632099365E+03  0.99026838377E+03  0.10100000352E+00 0. -1.
       -3    1    3    3    0  502  0.46792549677E+03  0.28083946772E+03 -0.28500628788E+03  0.61567334804E+03  0.10100000352E+00 0.  1.
</event>
<event>
 5   0  0.2926844E-03  0.1251523E+04  0.7818609E-02  0.9068917E-01
        1   -1    0    0  501    0  0.00000000000E+00  0.00000000000E+00  0.59326332591E+03  0.59326332593E+03  0.50400001928E-02 0.  1.
       -1   -1    0    0    0  501  0.00000000000E+00  0.00000000000E+00 -0.66003936161E+03  0.66003936163E+03  0.50400001928E-02 0. -1.
    10030    2    1    2    0    0  0.00000000000E+00  0.00000000000E+00 -0.66776035706E+02  0.12533026876E+04  0.12515225079E+04 0.  0.
        5    1    3    3  502    0  0.29293499960E+03 -0.37995037117E+03  0.36890700777E+03  0.60521704282E+03  0.46999998093E+01 0.  1.
       -5    1    3    3    0  502 -0.29293499960E+03  0.37995037117E+03 -0.43568304347E+03  0.64808564474E+03  0.46999998093E+01 0. -1.
</event>
<event>
 5   0  0.5003526E-03  0.1225599E+04  0.7818609E-02  0.9090741E-01
       -2   -1    0    0    0  501  0.00000000000E+00  0.00000000000E+00  0.21479523709E+03  0.21479523710E+03  0.25500000920E-02 0. -1.
        2   -1    0    0  501    0  0.00000000000E+00  0.00000000000E+00 -0.17482836681E+04  0.17482836681E+04  0.25500000920E-02 0.  1.
    10030    2    1    2    0    0  0.00000000000E+00  0.00000000000E+00 -0.15334884311E+04  0.19630789052E+04  0.12255986374E+04 0.  0.
        2    1    3    3  502    0  0.24282921620E+03  0.93585151245E+02  0.12188982450E+03  0.28736968890E+03  0.25500000920E-02 0. -1.
       -2    1    3    3    0  502 -0.24282921620E+03 -0.93585151245E+02 -0.16553782556E+04  0.16757092163E+04  0.25500000920E-02 0.  1.
</event>
<event>
 5   0  0.2938349E-03  0.1182375E+04  0.7818609E-02  0.9128425E-01
       -1   -1    0    0    0  501  0.00000000000E+00  0.00000000000E+00  0.40300485168E+03  0.40300485171E+03  0.50400001928E-02 0.  1.
        1   -1    0    0  501    0  0.00000000000E+00  0.00000000000E+00 -0.86724198791E+03  0.86724198792E+03  0.50400001928E-02 0. -1.
    10030    2    1    2    0    0  0.00000000000E+00  0.00000000000E+00 -0.46423713622E+03  0.12702468396E+04  0.11823751160E+04 0.  0.
        4    1    3    3  502    0 -0.53866520966E+03 -0.24032902554E+03 -0.18937654402E+03  0.61950249147E+03  0.12699999809E+01 0. -1.
       -4    1    3    3    0  502  0.53866520966E+03  0.24032902554E+03 -0.27486059221E+03  0.65074434816E+03  0.12699999809E+01 0.  1.
</event>
<event>
 5   0  0.5108045E-03  0.1274036E+04  0.7818609E-02  0.9050412E-01
        2   -1    0    0  501    0  0.00000000000E+00  0.00000000000E+00  0.79583971863E+03  0.79583971863E+03  0.25500000920E-02 0.  1.
       -2   -1    0    0    0  501  0.00000000000E+00  0.00000000000E+00 -0.50989148961E+03  0.50989148962E+03  0.25500000920E-02 0. -1.
    10030    2    1    2    0    0  0.00000000000E+00  0.00000000000E+00  0.28594822901E+03  0.13057312082E+04  0.12740359487E+04 0.  0.
        3    1    3    3  502    0  0.39164167746E+03  0.26040029411E+02 -0.37123540186E+03  0.54025643953E+03  0.10100000352E+00 0. -1.
       -3    1    3    3    0  502 -0.39164167746E+03 -0.26040029411E+02  0.65718363088E+03  0.76547476872E+03  0.10100000352E+00 0.  1.
</event>
<event>
 5   0  0.5031575E-03  0.1143750E+04  0.7818609E-02  0.9163569E-01
        2   -1    0    0  501    0  0.00000000000E+00  0.00000000000E+00  0.19327763968E+04  0.19327763968E+04  0.25500000920E-02 0. -1.
       -2   -1    0    0    0  501  0.00000000000E+00  0.00000000000E+00 -0.16920794962E+03  0.16920794964E+03  0.25500000920E-02 0.  1.
    10030    2    1    2    0    0  0.00000000000E+00  0.00000000000E+00  0.17635684472E+04  0.21019843465E+04  0.11437502021E+04 0.  0.
        5    1    3    3  502    0  0.31786109067E+03  0.33566966958E+03  0.15004141983E+04  0.15700237758E+04  0.46999998093E+01 0. -1.
       -5    1    3    3    0  502 -0.31786109067E+03 -0.33566966958E+03  0.26315424889E+03  0.53196057067E+03  0.46999998093E+01 0.  1.
</event>
<event>
 5   0  0.5467554E-03  0.1226626E+04  0.7818609E-02  0.9089865E-01
       -2   -1    0    0    0  501  0.00000000000E+00  0.00000000000E+00  0.65086950294E+03  0.65086950295E+03  0.25500000920E-02 0. -1.
        2   -1    0    0  501    0  0.00000000000E+00  0.00000000000E+00 -0.57792390630E+03  0.57792390630E+03  0.25500000920E-02 0.  1.
    10030    2    1    2    0    0  0.00000000000E+00  0.00000000000E+00  0.72945596643E+02  0.12287934092E+04  0.12266263419E+04 0.  0.
        1    1    3    3  502    0 -0.25850208738E+03 -0.51444963361E+03 -0.17525644128E+03  0.60182769539E+03  0.50400001928E-02 0.  1.
       -1    1    3    3    0  502  0.25850208738E+03  0.51444963361E+03  0.24820203792E+03  0.62696571386E+03  0.50400001928E-02 0. -1.
</event>
<event>
 5   0  0.2938349E-03  0.1199389E+04  0.7818609E-02  0.9113392E-01
       -1   -1    0    0    0  501  0.00000000000E+00  0.00000000000E+00  0.74308235481E+03  0.74308235483E+03  0.50400001928E-02 0. -1.
        1   -1    0    0  501    0  0.00000000000E+00  0.00000000000E+00 -0.48397513550E+03  0.48397513553E+03  0.50400001928E-02 0.  1.
    10030    2    1    2    0    0  0.00000000000E+00  0.00000000000E+00  0.25910721931E+03  0.12270574904E+04  0.11993888167E+04 0.  0.
        4    1    3    3  502    0  0.51268171593E+02  0.13293747017E+03 -0.46640578135E+03  0.48768510555E+03  0.12699999809E+01 0.  1.
       -4    1    3    3    0  502 -0.51268171593E+02 -0.13293747017E+03  0.72551300066E+03  0.73937238481E+03  0.12699999809E+01 0. -1.
</event>
<event>
 5   0  0.5467554E-03  0.1212120E+04  0.7818609E-02  0.9102313E-01
        2   -1    0    0  501    0  0.00000000000E+00  0.00000000000E+00  0.26716483300E+04  0.26716483300E+04  0.25500000920E-02 0. -1.
       -2   -1    0    0    0  501  0.00000000000E+00  0.00000000000E+00 -0.13748400110E+03  0.13748400112E+03  0.25500000920E-02 0.  1.
    10030    2    1    2    0    0  0.00000000000E+00  0.00000000000E+00  0.25341643289E+04  0.28091323311E+04  0.12121202943E+04 0.  0.
        1    1    3    3  502    0 -0.44364356037E+03  0.26168728893E+03  0.52688768771E+03  0.73682459333E+03  0.50400001928E-02 0.  1.
       -1    1    3    3    0  502  0.44364356037E+03 -0.26168728893E+03  0.20072766412E+04  0.20723077378E+04  0.50400001928E-02 0. -1.
</event>
<event>
 5   0  0.2875848E-03  0.1110135E+04  0.7818609E-02  0.9195370E-01
        1   -1    0    0  501    0  0.00000000000E+00  0.00000000000E+00  0.55713493499E+03  0.55713493502E+03  0.50400001928E-02 0. -1.
       -1   -1    0    0    0  501  0.00000000000E+00  0.00000000000E+00 -0.55300751427E+03  0.55300751429E+03  0.50400001928E-02 0.  1.
    10030    2    1    2    0    0  0.00000000000E+00  0.00000000000E+00  0.41274207287E+01  0.11101424493E+04  0.11101347766E+04 0.  0.
        1    1    3    3  502    0  0.82126768180E+02  0.11862285138E+03 -0.53392844419E+03  0.55307844874E+03  0.50400001928E-02 0.  1.
       -1    1    3    3    0  502 -0.82126768180E+02 -0.11862285138E+03  0.53805586492E+03  0.55706400056E+03  0.50400001928E-02 0. -1.
</event>
<event>
 5   0  0.5189537E-03  0.1200451E+04  0.7818609E-02  0.9112462E-01
       -2   -1    0    0    0  501  0.00000000000E+00  0.00000000000E+00  0.30301106633E+03  0.30301106634E+03  0.25500000920E-02 0. -1.
        2   -1    0    0  501    0  0.00000000000E+00  0.00000000000E+00 -0.11889682753E+04  0.11889682753E+04  0.25500000920E-02 0.  1.
    10030    2    1    2    0    0  0.00000000000E+00  0.00000000000E+00 -0.88595720894E+03  0.14919793416E+04  0.12004508235E+04 0.  0.
        4    1    3    3  502    0 -0.83082265968E+02  0.30351330172E+03  0.19226926158E+03  0.36877102529E+03  0.12699999809E+01 0. -1.
       -4    1    3    3    0  502  0.83082265968E+02 -0.30351330172E+03 -0.10782264705E+04  0.11232083163E+04  0.12699999809E+01 0.  1.
</event>
<event>
 5   0  0.2875848E-03  0.8146683E+03  0.7818609E-02  0.9539025E-01
       -1   -1    0    0    0  501  0.00000000000E+00  0.00000000000E+00  0.28176619981E+03  0.28176619985E+03  0.50400001928E-02 0. -1.
        1   -1    0    0  501    0  0.00000000000E+00  0.00000000000E+00 -0.58886090596E+03  0.58886090599E+03  0.50400001928E-02 0.  1.
    10030    2    1    2    0    0  0.00000000000E+00  0.00000000000E+00 -0.30709470616E+03  0.87062710584E+03  0.81466827535E+03 0.  0.
        1    1    3    3  502    0  0.98861315080E+02  0.20106303682E+03 -0.51709206785E+03  0.56354601502E+03  0.50400001928E-02 0.  1.
       -1    1    3    3    0  502 -0.98861315080E+02 -0.20106303682E+03  0.20999736169E+03  0.30708109081E+03  0.50400001928E-02 0. -1.
</event>
<event>
 5   0  0.5031575E-03  0.9385777E+03  0.7818609E-02  0.9378602E-01
        2   -1    0    0  501    0  0.00000000000E+00  0.00000000000E+00  0.39721801640E+03  0.39721801641E+03  0.25500000920E-02 0. -1.
       -2   -1    0    0    0  501  0.00000000000E+00  0.00000000000E+00 -0.55443618722E+03  0.55443618722E+03  0.25500000920E-02 0.  1.
    10030    2    1    2    0    0  0.00000000000E+00  0.00000000000E+00 -0.15721817082E+03  0.95165420363E+03  0.93857773788E+03 0.  0.
        5    1    3    3  502    0  0.35567119836E+03 -0.20242861827E+03 -0.31143981617E+03  0.51429193648E+03  0.46999998093E+01 0.  1.
       -5    1    3    3    0  502 -0.35567119836E+03  0.20242861827E+03  0.15422164535E+03  0.43736226715E+03  0.46999998093E+01 0. -1.
</event>
<event>
 5   0  0.1922125E-03  0.1122921E+04  0.7818609E-02  0.9183135E-01
        4   -1    0    0  501    0  0.00000000000E+00  0.00000000000E+00  0.95079785736E+03  0.95079870554E+03  0.12699999809E+01 0. -1.
       -4   -1    0    0    0  501  0.00000000000E+00  0.00000000000E+00 -0.33154881607E+03  0.33155124844E+03  0.12699999809E+01 0.  1.
    10030    2    1    2    0    0  0.00000000000E+00  0.00000000000E+00  0.61924904129E+03  0.12823499540E+04  0.11229212035E+04 0.  0.
        2    1    3    3  502    0  0.15083155199E+03 -0.53349308019E+03  0.20829710819E+03  0.59224379184E+03  0.25500000920E-02 0.  1.
       -2    1    3    3    0  502 -0.15083155199E+03  0.53349308019E+03  0.41095193310E+03  0.69010616214E+03  0.25500000920E-02 0. -1.
</event>
<event>
 5   0  0.5003526E-03  0.1191285E+04  0.7818609E-02  0.9120519E-01
       -2   -1    0    0    0  501  0.00000000000E+00  0.00000000000E+00  0.28234684302E+03  0.28234684303E+03  0.25500000920E-02 0.  1.
        2   -1    0    0  501    0  0.00000000000E+00  0.00000000000E+00 -0.12565760011E+04  0.12565760011E+04  0.25500000920E-02 0. -1.
    10030    2    1    2    0    0  0.00000000000E+00  0.00000000000E+00 -0.97422915805E+03  0.15389228441E+04  0.11912854686E+04 0.  0.
        2    1    3    3  502    0 -0.35770171855E+02 -0.17339356289E+03  0.24757099888E+03  0.30436200870E+03  0.25500000920E-02 0.  1.
       -2    1    3    3    0  502  0.35770171855E+02  0.17339356289E+03 -0.12218001569E+04  0.12345608354E+04  0.25500000920E-02 0. -1.
</event>
<event>
 5   0  0.5003526E-03  0.1234582E+04  0.7818609E-02  0.9083114E-01
        2   -1    0    0  501    0  0.00000000000E+00  0.00000000000E+00  0.14908339966E+04  0.14908339966E+04  0.25500000920E-02 0. -1.
       -2   -1    0    0    0  501  0.00000000000E+00  0.00000000000E+00 -0.25559379748E+03  0.25559379749E+03  0.25500000920E-02 0.  1.
    10030    2    1    2    0    0  0.00000000000E+00  0.00000000000E+00  0.12352401991E+04  0.17464277941E+04  0.12345815852E+04 0.  0.
        2    1    3    3  502    0 -0.19172463737E+02 -0.15340654905E+03 -0.22776424895E+03  0.27527750682E+03  0.25500000920E-02 0.  1.
       -2    1    3    3    0  502  0.19172463737E+02  0.15340654905E+03  0.14630044480E+04  0.14711502872E+04  0.25500000920E-02 0. -1.
</event>
<event>
 5   0  0.5467554E-03  0.1018926E+04  0.7818609E-02  0.9288027E-01
       -2   -1    0    0    0  501  0.00000000000E+00  0.00000000000E+00  0.43525377262E+03  0.43525377263E+03  0.25500000920E-02 0.  1.
        2   -1    0    0  501    0  0.00000000000E+00  0.00000000000E+00 -0.59632457104E+03  0.59632457104E+03  0.25500000920E-02 0. -1.
    10030    2    1    2    0    0  0.00000000000E+00  0.00000000000E+00 -0.16107079841E+03  0.10315783437E+04  0.10189259429E+04 0.  0.
        1    1    3    3  502    0 -0.28840205622E+03 -0.40138169516E+03  0.44568866497E+02  0.49625537289E+03  0.50400001928E-02 0.  1.
       -1    1    3    3    0  502  0.28840205622E+03  0.40138169516E+03 -0.20563966491E+03  0.53532297078E+03  0.50400001928E-02 0. -1.
</event>
<event>
 5   0  0.2926844E-03  0.1171236E+04  0.7818609E-02  0.9138413E-01
        1   -1    0    0  501    0  0.00000000000E+00  0.00000000000E+00  0.74008640307E+03  0.74008640309E+03  0.50400001928E-02 0. -1.
       -1   -1    0    0    0  501  0.00000000000E+00  0.00000000000E+00 -0.46339008685E+03  0.46339008688E+03  0.50400001928E-02 0.  1.
    10030    2    1    2    0    0  0.00000000000E+00  0.00000000000E+00  0.27669631622E+03  0.12034764900E+04  0.11712364452E+04 0.  0.
        5    1    3    3  502    0 -0.45057607254E+03 -0.13735333664E+03  0.49583565475E+03  0.68392969138E+03  0.46999998093E+01 0. -1.
       -5    1    3    3    0  502  0.45057607254E+03  0.13735333664E+03 -0.21913933853E+03  0.51954679859E+03  0.46999998093E+01 0.  1.
</event>
<event>
 5   0  0.2930868E-03  0.1131793E+04  0.7818609E-02  0.9174747E-01
        1   -1    0    0  501    0  0.00000000000E+00  0.00000000000E+00  0.16415786506E+04  0.16415786506E+04  0.50400001928E-02 0. -1.
       -1   -1    0    0    0  501  0.00000000000E+00  0.00000000000E+00 -0.19507969036E+03  0.19507969043E+03  0.50400001928E-02 0.  1.
    10030    2    1    2    0    0  0.00000000000E+00  0.00000000000E+00  0.14464989602E+04  0.18366583410E+04  0.11317926576E+04 0.  0.
        3    1    3    3  502    0 -0.39283828044E+03  0.27526821411E+03  0.12104752542E+04  0.13020540909E+04  0.10100000352E+00 0. -1.
       -3    1    3    3    0  502  0.39283828044E+03 -0.27526821411E+03  0.23602370600E+03  0.53460425014E+03  0.10100000352E+00 0.  1.
</event>
<event>
 5   0  0.1922125E-03  0.1201496E+04  0.7818609E-02  0.9111548E-01
       -3   -1    0    0    0  501  0.00000000000E+00  0.00000000000E+00  0.62788418472E+03  0.62788419284E+03  0.10100000352E+00 0. -1.
        3   -1    0    0  501    0  0.00000000000E+00  0.00000000000E+00 -0.57478484251E+03  0.57478485138E+03  0.10100000352E+00 0.  1.
    10030    2    1    2    0    0  0.00000000000E+00  0.00000000000E+00  0.53099342213E+02  0.12026690442E+04  0.12014962712E+04 0.  0.
        5    1    3    3  502    0 -0.20314801823E+03  0.48725703746E+03 -0.26041412221E+03  0.58866471180E+03  0.46999998093E+01 0.  1.
       -5    1    3    3    0  502  0.20314801823E+03 -0.48725703746E+03  0.31351346442E+03  0.61400433243E+03  0.46999998093E+01 0. -1.
</event>
<event>
 5   0  0.5108045E-03  0.1223700E+04  0.7818609E-02  0.9092361E-01
       -2   -1    0    0    0  501  0.00000000000E+00  0.00000000000E+00  0.25630874013E+03  0.25630874014E+03  0.25500000920E-02 0. -1.
        2   -1    0    0  501    0  0.00000000000E+00  0.00000000000E+00 -0.14605839824E+04  0.14605839824E+04  0.25500000920E-02 0.  1.
    10030    2    1    2    0    0  0.00000000000E+00  0.00000000000E+00 -0.12042752422E+04  0.17168927225E+04  0.12237000292E+04 0.  0.
        3    1    3    3  502    0  0.37055483666E+03  0.30578589149E+03 -0.11337089100E+04  0.12313049180E+04  0.10100000352E+00 0.  1.
       -3    1    3    3    0  502 -0.37055483666E+03 -0.30578589149E+03 -0.70566332242E+02  0.48558780447E+03  0.10100000352E+00 0. -1.
</event>
<event>
 5   0  0.2875848E-03  0.1191291E+04  0.7818609E-02  0.9120514E-01
        1   -1    0    0  501    0  0.00000000000E+00  0.00000000000E+00  0.98124988612E+03  0.98124988613E+03  0.50400001928E-02 0. -1.
       -1   -1    0    0    0  501  0.00000000000E+00  0.00000000000E+00 -0.36157287498E+03  0.36157287501E+03  0.50400001928E-02 0.  1.
    10030    2    1    2    0    0  0.00000000000E+00  0.00000000000E+00  0.61967701114E+03  0.13428227611E+04  0.11912906319E+04 0.  0.
        1    1    3    3  502    0  0.38071363664E+03  0.32792257485E+03 -0.50719718400E+02  0.50502334409E+03  0.50400001928E-02 0.  1.
       -1    1    3    3    0  502 -0.38071363664E+03 -0.32792257485E+03  0.67039672954E+03  0.83779941706E+03  0.50400001928E-02 0. -1.
</event>
<event>
 5   0  0.5003526E-03  0.1340822E+04  0.7818609E-02  0.8997805E-01
       -2   -1    0    0    0  501  0.00000000000E+00  0.00000000000E+00  0.23808654531E+03  0.23808654532E+03  0.25500000920E-02 0. -1.
        2   -1    0    0  501    0  0.00000000000E+00  0.00000000000E+00 -0.18877624579E+04  0.18877624579E+04  0.25500000920E-02 0.  1.
    10030    2    1    2    0    0  0.00000000000E+00  0.00000000000E+00 -0.16496759126E+04  0.21258490032E+04  0.13408219001E+04 0.  0.
        2    1    3    3  502    0 -0.23687342381E+03 -0.34851822134E+03 -0.16515370312E+04  0.17044496282E+04  0.25500000920E-02 0.  1.
       -2    1    3    3    0  502  0.23687342381E+03  0.34851822134E+03  0.18611186358E+01  0.42139937504E+03  0.25500000920E-02 0. -1.
</event>
<event>
 5   0  0.2938349E-03  0.1175239E+04  0.7818609E-02  0.9134810E-01
       -1   -1    0    0    0  501  0.00000000000E+00  0.00000000000E+00  0.59922779369E+03  0.59922779371E+03  0.50400001928E-02 0. -1.
        1   -1    0    0  501    0  0.00000000000E+00  0.00000000000E+00 -0.57623646968E+03  0.57623646971E+03  0.50400001928E-02 0.  1.
    10030    2    1    2    0    0  0.00000000000E+00  0.00000000000E+00  0.22991324003E+02  0.11754642634E+04  0.11752393942E+04 0.  0.
        4    1    3    3  502    0  0.27539480379E+03  0.62094316399E+02 -0.50396426994E+03  0.57765006739E+03  0.12699999809E+01 0.  1.
       -4    1    3    3    0  502 -0.27539480379E+03 -0.62094316399E+02  0.52695559394E+03  0.59781419602E+03  0.12699999809E+01 0. -1.
</event>
<event>
 5   0  0.2875848E-03  0.1180166E+04  0.7818609E-02  0.9130397E-01
        1   -1    0    0  501    0  0.00000000000E+00  0.00000000000E+00  0.53834859807E+03  0.53834859810E+03  0.50400001928E-02 0. -1.
       -1   -1    0    0    0  501  0.00000000000E+00  0.00000000000E+00 -0.64678855139E+03  0.64678855141E+03  0.50400001928E-02 0.  1.
    10030    2    1    2    0    0  0.00000000000E+00  0.00000000000E+00 -0.10843995332E+03  0.11851371495E+04  0.11801655984E+04 0.  0.
        1    1    3    3  502    0  0.29912902483E+02 -0.52563845246E+03 -0.32181417167E+03  0.61705342195E+03  0.50400001928E-02 0.  1.
       -1    1    3    3    0  502 -0.29912902483E+02  0.52563845246E+03  0.21337421834E+03  0.56808372756E+03  0.50400001928E-02 0. -1.
</event>
<event>
 5   0  0.2792518E-03  0.1256047E+04  0.7818609E-02  0.9065166E-01
        1   -1    0    0  501    0  0.00000000000E+00  0.00000000000E+00  0.49950495449E+03  0.49950495452E+03  0.50400001928E-02 0.  1.
       -1   -1    0    0    0  501  0.00000000000E+00  0.00000000000E+00 -0.78960845530E+03  0.78960845532E+03  0.50400001928E-02 0. -1.
    10030    2    1    2    0    0  0.00000000000E+00  0.00000000000E+00 -0.29010350081E+03  0.12891134098E+04  0.12560467118E+04 0.  0.
        2    1    3    3  502    0  0.75486200548E+02 -0.19854070623E+03 -0.75162410382E+03  0.78106041505E+03  0.25500000920E-02 0. -1.
       -2    1    3    3    0  502 -0.75486200548E+02  0.19854070623E+03  0.46152060301E+03  0.50805299479E+03  0.25500000920E-02 0.  1.
</event>
<event>
 5   0  0.2926844E-03  0.1211049E+04  0.7818609E-02  0.9103240E-01
        1   -1    0    0  501    0  0.00000000000E+00  0.00000000000E+00  0.70842295352E+03  0.70842295354E+03  0.50400001928E-02 0.  1.
       -1   -1    0    0    0  501  0.00000000000E+00  0.00000000000E+00 -0.51757175041E+03  0.51757175043E+03  0.50400001928E-02 0. -1.
    10030    2    1    2    0    0  0.00000000000E+00  0.00000000000E+00  0.19085120311E+03  0.12259947040E+04  0.12110486499E+04 0.  0.
        5    1    3    3  502    0  0.36498859500E+03  0.42654362618E+03  0.32512111384E+03  0.64875416621E+03  0.46999998093E+01 0.  1.
       -5    1    3    3    0  502 -0.36498859500E+03 -0.42654362618E+03 -0.13426991073E+03  0.57724053776E+03  0.46999998093E+01 0. -1.
</event>
<event>
 5   0  0.5189537E-03  0.1195034E+04  0.7818609E-02  0.9117215E-01
        2   -1    0    0  501    0  0.00000000000E+00  0.00000000000E+00  0.12071239332E+04  0.12071239332E+04  0.25500000920E-02 0.  1.
       -2   -1    0    0    0  501  0.00000000000E+00  0.00000000000E+00 -0.29576608270E+03  0.29576608271E+03  0.25500000920E-02 0. -1.
    10030    2    1    2    0    0  0.00000000000E+00  0.00000000000E+00  0.91135785048E+03  0.15028900159E+04  0.11950335846E+04 0.  0.
        4    1    3    3  502    0  0.57223229371E+03 -0.19459725170E+02  0.24079177731E+03  0.62113667721E+03  0.12699999809E+01 0. -1.
       -4    1    3    3    0  502 -0.57223229371E+03  0.19459725170E+02  0.67056607317E+03  0.88175333867E+03  0.12699999809E+01 0.  1.
</event>
<event>
 5   0  0.5189537E-03  0.1270730E+04  0.7818609E-02  0.9053104E-01
       -2   -1    0    0    0  501  0.00000000000E+00  0.00000000000E+00  0.44135604527E+03  0.44135604528E+03  0.25500000920E-02 0.  1.
        2   -1    0    0  501    0  0.00000000000E+00  0.00000000000E+00 -0.91465580543E+03  0.91465580544E+03  0.25500000920E-02 0. -1.
    10030    2    1    2    0    0  0.00000000000E+00  0.00000000000E+00 -0.47329976016E+03  0.13560118507E+04  0.12707302925E+04 0.  0.
        4    1    3    3  502    0  0.27162342998E+02  0.59983505773E+02 -0.91100355822E+03  0.91338103212E+03  0.12699999809E+01 0. -1.
       -4    1    3    3    0  502 -0.27162342998E+02 -0.59983505773E+02  0.43770379806E+03  0.44263081860E+03  0.12699999809E+01 0.  1.
</event>
<event>
 5   0  0.2792518E-03  0.1202852E+04  0.7818609E-02  0.9110363E-01
        1   -1    0    0  501    0  0.00000000000E+00  0.00000000000E+00  0.40315207431E+03  0.40315207434E+03  0.50400001928E-02 0. -1.
       -1   -1    0    0    0  501  0.00000000000E+00  0.00000000000E+00 -0.89721350680E+03  0.89721350681E+03  0.50400001928E-02 0.  1.
    10030    2    1    2    0    0  0.00000000000E+00  0.00000000000E+00 -0.49406143249E+03  0.13003655811E+04  0.12028524205E+04 0.  0.
        2    1    3    3  502    0 -0.10678439843E+03  0.62813899999E+02 -0.88326946429E+03  0.89191560158E+03  0.25500000920E-02 0.  1.
       -2    1    3    3    0  502  0.10678439843E+03 -0.62813899999E+02  0.38920803181E+03  0.40844997957E+03  0.25500000920E-02 0. -1.
</event>
<event>
 5   0  0.5189537E-03  0.8027090E+03  0.7818609E-02  0.9556104E-01
        2   -1    0    0  501    0  0.00000000000E+00  0.00000000000E+00  0.79466169443E+03  0.79466169443E+03  0.25500000920E-02 0. -1.
       -2   -1    0    0    0  501  0.00000000000E+00  0.00000000000E+00 -0.20270946747E+03  0.20270946749E+03  0.25500000920E-02 0.  1.
    10030    2    1    2    0    0  0.00000000000E+00  0.00000000000E+00  0.59195222695E+03  0.99737116192E+03  0.80270903548E+03 0.  0.
        4    1    3    3  502    0 -0.24924046399E+01  0.40132378010E+03  0.30107606237E+03  0.50171246425E+03  0.12699999809E+01 0. -1.
       -4    1    3    3    0  502  0.24924046399E+01 -0.40132378010E+03  0.29087616458E+03  0.49565869767E+03  0.12699999809E+01 0.  1.
</event>
<event>
 5   0  0.5467554E-03  0.1183405E+04  0.7818609E-02  0.9127507E-01
        2   -1    0    0  501    0  0.00000000000E+00  0.00000000000E+00  0.19301698629E+04  0.19301698629E+04  0.25500000920E-02 0.  1.
       -2   -1    0    0    0  501  0.00000000000E+00  0.00000000000E+00 -0.18138923345E+03  0.18138923347E+03  0.25500000920E-02 0. -1.
    10030    2    1    2    0    0  0.00000000000E+00  0.00000000000E+00  0.17487806295E+04  0.21115590964E+04  0.11834053099E+04 0.  0.
        1    1    3    3  502    0  0.43068845596E+03 -0.37903044595E+03  0.11326863708E+04  0.12696987988E+04  0.50400001928E-02 0.  1.
       -1    1    3    3    0  502 -0.43068845596E+03  0.37903044595E+03  0.61609425863E+03  0.84186029755E+03  0.50400001928E-02 0. -1.
</event>
<event>
 5   0  0.5189537E-03  0.1192309E+04  0.7818609E-02  0.9119615E-01
        2   -1    0    0  501    0  0.00000000000E+00  0.00000000000E+00  0.15773516126E+04  0.15773516126E+04  0.25500000920E-02 0.  1.
       -2   -1    0    0    0  501  0.00000000000E+00  0.00000000000E+00 -0.22531446809E+03  0.22531446810E+03  0.25500000920E-02 0. -1.
    10030    2    1    2    0    0  0.00000000000E+00  0.00000000000E+00  0.13520371445E+04  0.18026660807E+04  0.11923089190E+04 0.  0.
        4    1    3    3  502    0  0.10353801133E+03  0.58662289284E+03  0.71154008939E+03  0.92797491879E+03  0.12699999809E+01 0.  1.
       -4    1    3    3    0  502 -0.10353801133E+03 -0.58662289284E+03  0.64049705511E+03  0.87469116190E+03  0.12699999809E+01 0. -1.
</event>
<event>
 5   0  0.2926844E-03  0.1212705E+04  0.7818609E-02  0.9101808E-01
        1   -1    0    0  501    0  0.00000000000E+00  0.00000000000E+00  0.59566119190E+03  0.59566119192E+03  0.50400001928E-02 0.  1.
       -1   -1    0    0    0  501  0.00000000000E+00  0.00000000000E+00 -0.61723595409E+03  0.61723595411E+03  0.50400001928E-02 0. -1.
    10030    2    1    2    0    0  0.00000000000E+00  0.00000000000E+00 -0.21574762188E+02  0.12128971460E+04  0.12127052472E+04 0.  0.
        5    1    3    3  502    0 -0.60360692686E+03  0.20382441507E+02  0.42930037430E+02  0.60549305875E+03  0.46999998093E+01 0.  1.
       -5    1    3    3    0  502  0.60360692686E+03 -0.20382441507E+02 -0.64504799619E+02  0.60740408729E+03  0.46999998093E+01 0. -1.
</event>
<event>
 5   0  0.5031575E-03  0.1164983E+04  0.7818609E-02  0.9144071E-01
        2   -1    0    0  501    0  0.00000000000E+00  0.00000000000E+00  0.49286249719E+03  0.49286249720E+03  0.25500000920E-02 0.  1.
       -2   -1    0    0    0  501  0.00000000000E+00  0.00000000000E+00 -0.68842000705E+03  0.68842000705E+03  0.25500000920E-02 0. -1.
    10030    2    1    2    0    0  0.00000000000E+00  0.00000000000E+00 -0.19555750985E+03  0.11812825042E+04  0.11649830965E+04 0.  0.
        5    1    3    3  502    0 -0.24298626992E+03  0.35368775882E+03 -0.49716378299E+03  0.65675815581E+03  0.46999998093E+01 0. -1.
       -5    1    3    3    0  502  0.24298626992E+03 -0.35368775882E+03  0.30160627314E+03  0.52452434844E+03  0.46999998093E+01 0.  1.
</event>
<event>
 5   0  0.2926844E-03  0.1193204E+04  0.7818609E-02  0.9118826E-01
        1   -1    0    0  501    0  0.00000000000E+00  0.00000000000E+00  0.22353019826E+04  0.22353019826E+04  0.50400001928E-02 0. -1.
       -1   -1    0    0    0  501  0.00000000000E+00  0.00000000000E+00 -0.15923302118E+03  0.15923302126E+03  0.50400001928E-02 0.  1.
    10030    2    1    2    0    0  0.00000000000E+00  0.00000000000E+00  0.20760689614E+04  0.23945350039E+04  0.11932039022E+04 0.  0.
        5    1    3    3  502    0  0.51171007474E+03  0.89245428307E+02  0.44918035127E+03  0.68672922250E+03  0.46999998093E+01 0.  1.
       -5    1    3    3    0  502 -0.51171007474E+03 -0.89245428307E+02  0.16268886101E+04  0.17078057814E+04  0.46999998093E+01 0. -1.
</event>
<event>
 5   0  0.2930868E-03  0.1302235E+04  0.7818609E-02  0.9027795E-01
        1   -1    0    0  501    0  0.00000000000E+00  0.00000000000E+00  0.16573579768E+04  0.16573579768E+04  0.50400001928E-02 0. -1.
       -1   -1    0    0    0  501  0.00000000000E+00  0.00000000000E+00 -0.25580112800E+03  0.25580112805E+03  0.50400001928E-02 0.  1.
    10030    2    1    2    0    0  0.00000000000E+00  0.00000000000E+00  0.14015568488E+04  0.19131591049E+04  0.13022350633E+04 0.  0.
        3    1    3    3  502    0 -0.35346564409E+03  0.42833441952E+03  0.20138986863E+03  0.59073363362E+03  0.10100000352E+00 0.  1.
       -3    1    3    3    0  502  0.35346564409E+03 -0.42833441952E+03  0.12001669802E+04  0.13224254712E+04  0.10100000352E+00 0. -1.
</event>
<event>
 5   0  0.5031575E-03  0.1189966E+04  0.7818609E-02  0.9121685E-01
       -2   -1    0    0    0  501  0.00000000000E+00  0.00000000000E+00  0.90179156830E+03  0.90179156830E+03  0.25500000920E-02 0.  1.
        2   -1    0    0  501    0  0.00000000000E+00  0.00000000000E+00 -0.39255713044E+03  0.39255713045E+03  0.25500000920E-02 0. -1.
    10030    2    1    2    0    0  0.00000000000E+00  0.00000000000E+00  0.50923443786E+03  0.12943486988E+04  0.11899658992E+04 0.  0.
        5    1    3    3  502    0 -0.19516598323E+03 -0.56184476400E+03  0.23836244089E+03  0.64077924675E+03  0.46999998093E+01 0. -1.
       -5    1    3    3    0  502  0.19516598323E+03  0.56184476400E+03  0.27087199697E+03  0.65356945200E+03  0.46999998093E+01 0.  1.
</event>
<event>
 5   0  0.2875848E-03  0.1194613E+04  0.7818609E-02  0.9117585E-01
       -1   -1    0    0    0  501  0.00000000000E+00  0.00000000000E+00  0.36302106475E+03  0.36302106478E+03  0.50400001928E-02 0. -1.
        1   -1    0    0  501    0  0.00000000000E+00  0.00000000000E+00 -0.98279420923E+03  0.98279420925E+03  0.50400001928E-02 0.  1.
    10030    2    1    2    0    0  0.00000000000E+00  0.00000000000E+00 -0.61977314449E+03  0.13458152740E+04  0.11946129085E+04 0.  0.
        1    1    3    3  502    0 -0.25291138340E+03 -0.51274153705E+03 -0.50471140040E+03  0.76262811998E+03  0.50400001928E-02 0. -1.
       -1    1    3    3    0  502  0.25291138340E+03  0.51274153705E+03 -0.11506174409E+03  0.58318715405E+03  0.50400001928E-02 0.  1.
</event>
<event>
 5   0  0.2938349E-03  0.1191671E+04  0.7818609E-02  0.9120178E-01
       -1   -1    0    0    0  501  0.00000000000E+00  0.00000000000E+00  0.47942415009E+03  0.47942415012E+03  0.50400001928E-02 0. -1.
        1   -1    0    0  501    0  0.00000000000E+00  0.00000000000E+00 -0.74051320252E+03  0.74051320254E+03  0.50400001928E-02 0.  1.
    10030    2    1    2    0    0  0.00000000000E+00  0.00000000000E+00 -0.26108905243E+03  0.12199373527E+04  0.11916709492E+04 0.  0.
        4    1    3    3  502    0  0.14780063839E+03 -0.25628650231E+02 -0.72086485629E+03  0.73630809472E+03  0.12699999809E+01 0.  1.
       -4    1    3    3    0  502 -0.14780063839E+03  0.25628650231E+02  0.45977580386E+03  0.48362925794E+03  0.12699999809E+01 0. -1.
</event>
<event>
 5   0  0.2926844E-03  0.1207601E+04  0.7818609E-02  0.9106229E-01
       -1   -1    0    0    0  501  0.00000000000E+00  0.00000000000E+00  0.33741867214E+03  0.33741867217E+03  0.50400001928E-02 0. -1.
        1   -1    0    0  501    0  0.00000000000E+00  0.00000000000E+00 -0.10804826784E+04  0.10804826784E+04  0.50400001928E-02 0.  1.
    10030    2    1    2    0    0  0.00000000000E+00  0.00000000000E+00 -0.74306400626E+03  0.14179013506E+04  0.12076009782E+04 0.  0.
        5    1    3    3  502    0  0.18732230804E+03 -0.52685221760E+03 -0.63899551283E+03  0.84911734272E+03  0.46999998093E+01 0.  1.
       -5    1    3    3    0  502 -0.18732230804E+03  0.52685221760E+03 -0.10406849342E+03  0.56878400786E+03  0.46999998093E+01 0. -1.
</event>
<event>
 5   0  0.2875848E-03  0.1218094E+04  0.7818609E-02  0.9097164E-01
       -1   -1    0    0    0  501  0.00000000000E+00  0.00000000000E+00  0.54736640212E+03  0.54736640215E+03  0.50400001928E-02 0. -1.
        1   -1    0    0  501    0  0.00000000000E+00  0.00000000000E+00 -0.67767865313E+03  0.67767865315E+03  0.50400001928E-02 0.  1.
    10030    2    1    2    0    0  0.00000000000E+00  0.00000000000E+00 -0.13031225101E+03  0.12250450553E+04  0.12180944564E+04 0.  0.
        1    1    3    3  502    0  0.41051373580E+03  0.19810294232E+03 -0.47140690778E+03  0.65573681898E+03  0.50400001928E-02 0.  1.
       -1    1    3    3    0  502 -0.41051373580E+03 -0.19810294232E+03  0.34109465677E+03  0.56930823632E+03  0.50400001928E-02 0. -1.
</event>
<event>
 5   0  0.2875848E-03  0.1161469E+04  0.7818609E-02  0.9147268E-01
        1   -1    0    0  501    0  0.00000000000E+00  0.00000000000E+00  0.11901070293E+04  0.11901070293E+04  0.50400001928E-02 0.  1.
       -1   -1    0    0    0  501  0.00000000000E+00  0.00000000000E+00 -0.28337997834E+03  0.28337997839E+03  0.50400001928E-02 0. -1.
    10030    2    1    2    0    0  0.00000000000E+00  0.00000000000E+00  0.90672705096E+03  0.14734870077E+04  0.11614689048E+04 0.  0.
        1    1    3    3  502    0  0.67531550674E+02 -0.56198628029E+03  0.28861881371E+03  0.63536596480E+03  0.50400001928E-02 0.  1.
       -1    1    3    3    0  502 -0.67531550674E+02  0.56198628029E+03  0.61810823725E+03  0.83812104290E+03  0.50400001928E-02 0. -1.
</event>
<event>
 5   0  0.5189537E-03  0.1200363E+04  0.7818609E-02  0.9112539E-01
       -2   -1    0    0    0  501  0.00000000000E+00  0.00000000000E+00  0.34783434130E+03  0.34783434131E+03  0.25500000920E-02 0. -1.
        2   -1    0    0  501    0  0.00000000000E+00  0.00000000000E+00 -0.10356011729E+04  0.10356011729E+04  0.25500000920E-02 0.  1.
    10030    2    1    2    0    0  0.00000000000E+00  0.00000000000E+00 -0.68776683156E+03  0.13834355142E+04  0.12003626982E+04 0.  0.
        4    1    3    3  502    0  0.54529524701E+03 -0.99244425862E+02 -0.60926144571E+03  0.82364888430E+03  0.12699999809E+01 0.  1.
       -4    1    3    3    0  502 -0.54529524701E+03  0.99244425862E+02 -0.78505385852E+02  0.55978662987E+03  0.12699999809E+01 0. -1.
</event>
<event>
 5   0  0.2938349E-03  0.1202229E+04  0.7818609E-02  0.9110907E-01
        1   -1    0    0  501    0  0.00000000000E+00  0.00000000000E+00  0.70090062465E+03  0.70090062466E+03  0.50400001928E-02 0. -1.
       -1   -1    0    0    0  501  0.00000000000E+00  0.00000000000E+00 -0.51553504971E+03  0.51553504974E+03  0.50400001928E-02 0.  1.
    10030    2    1    2    0    0  0.00000000000E+00  0.00000000000E+00  0.18536557493E+03  0.12164356744E+04  0.12022293265E+04 0.  0.
        4    1    3    3  502    0  0.71324761149E+02 -0.34285564641E+03 -0.40165982548E+03  0.53288783448E+03  0.12699999809E+01 0.  1.
       -4    1    3    3    0  502 -0.71324761149E+02  0.34285564641E+03  0.58702540042E+03  0.68354783992E+03  0.12699999809E+01 0. -1.
</event>
<event>
 5   0  0.2875848E-03  0.1209043E+04  0.7818609E-02  0.9104978E-01
        1   -1    0    0  501    0  0.00000000000E+00  0.00000000000E+00  0.42734945344E+03  0.42734945347E+03  0.50400001928E-02 0.  1.
       -1   -1    0    0    0  501  0.00000000000E+00  0.00000000000E+00 -0.85514562904E+03  0.85514562905E+03  0.50400001928E-02 0. -1.
    10030    2    1    2    0    0  0.00000000000E+00  0.00000000000E+00 -0.42779617559E+03  0.12824950825E+04  0.12090426249E+04 0.  0.
        1    1    3    3  502    0 -0.47100459385E+03  0.24035946951E+03  0.96864429682E+02  0.53758787168E+03  0.50400001928E-02 0.  1.
       -1    1    3    3    0  502  0.47100459385E+03 -0.24035946951E+03 -0.52466060527E+03  0.74490721085E+03  0.50400001928E-02 0. -1.
</event>
<event>
 5   0  0.2930868E-03  0.9003911E+03  0.7818609E-02  0.9425093E-01
        1   -1    0    0  501    0  0.00000000000E+00  0.00000000000E+00  0.52897806324E+03  0.52897806326E+03  0.50400001928E-02 0. -1.
       -1   -1    0    0    0  501  0.00000000000E+00  0.00000000000E+00 -0.38314640670E+03  0.38314640673E+03  0.50400001928E-02 0.  1.
    10030    2    1    2    0    0  0.00000000000E+00  0.00000000000E+00  0.14583165654E+03  0.91212447000E+03  0.90039112430E+03 0.  0.
        3    1    3    3  502    0 -0.25654646847E+02  0.43593591186E+03 -0.37953289876E+02  0.43833633498E+03  0.10100000352E+00 0. -1.
       -3    1    3    3    0  502  0.25654646847E+02 -0.43593591186E+03  0.18378494641E+03  0.47378813501E+03  0.10100000352E+00 0.  1.
</event>
<event>
 5   0  0.2930868E-03  0.1200420E+04  0.7818609E-02  0.9112489E-01
        1   -1    0    0  501    0  0.00000000000E+00  0.00000000000E+00  0.82885804050E+03  0.82885804051E+03  0.50400001928E-02 0. -1.
       -1   -1    0    0    0  501  0.00000000000E+00  0.00000000000E+00 -0.43463694055E+03  0.43463694058E+03  0.50400001928E-02 0.  1.
    10030    2    1    2    0    0  0.00000000000E+00  0.00000000000E+00  0.39422109994E+03  0.12634949811E+04  0.12004204645E+04 0.  0.
        3    1    3    3  502    0  0.16329977561E+03 -0.46646587019E+03  0.55558642193E+03  0.74359498869E+03  0.10100000352E+00 0. -1.
       -3    1    3    3    0  502 -0.16329977561E+03  0.46646587019E+03 -0.16136532199E+03  0.51989999241E+03  0.10100000352E+00 0.  1.
</event>
<event>
 5   0  0.5189537E-03  0.1197918E+04  0.7818609E-02  0.9114681E-01
       -2   -1    0    0    0  501  0.00000000000E+00  0.00000000000E+00  0.19514509591E+03  0.19514509593E+03  0.25500000920E-02 0. -1.
        2   -1    0    0  501    0  0.00000000000E+00  0.00000000000E+00 -0.18383840631E+04  0.18383840631E+04  0.25500000920E-02 0.  1.
    10030    2    1    2    0    0  0.00000000000E+00  0.00000000000E+00 -0.16432389672E+04  0.20335291591E+04  0.11979175837E+04 0.  0.
        4    1    3    3  502    0 -0.45945471061E+02  0.36675221030E+03 -0.21547832134E+02  0.37024868946E+03  0.12699999809E+01 0. -1.
       -4    1    3    3    0  502  0.45945471061E+02 -0.36675221030E+03 -0.16216911351E+04  0.16632804696E+04  0.12699999809E+01 0.  1.
</event>
<event>
 5   0  0.2792518E-03  0.1187389E+04  0.7818609E-02  0.9123967E-01
       -1   -1    0    0    0  501  0.00000000000E+00  0.00000000000E+00  0.28679030535E+03  0.28679030540E+03  0.50400001928E-02 0. -1.
        1   -1    0    0  501    0  0.00000000000E+00  0.00000000000E+00 -0.12290280531E+04  0.12290280531E+04  0.50400001928E-02 0.  1.
    10030    2    1    2    0    0  0.00000000000E+00  0.00000000000E+00 -0.94223774774E+03  0.15158183585E+04  0.11873892886E+04 0.  0.
        2    1    3    3  502    0  0.49359943714E+03  0.28748444459E+02 -0.51573546847E+02  0.49711840456E+03  0.25500000920E-02 0. -1.
       -2    1    3    3    0  502 -0.49359943714E+03 -0.28748444459E+02 -0.89066420090E+03  0.10186999539E+04  0.25500000920E-02 0.  1.
</event>
<event>
 5   0  0.2938349E-03  0.1223075E+04  0.7818609E-02  0.9092896E-01
       -1   -1    0    0    0  501  0.00000000000E+00  0.00000000000E+00  0.29707564401E+03  0.29707564405E+03  0.50400001928E-02 0.  1.
        1   -1    0    0  501    0  0.00000000000E+00  0.00000000000E+00 -0.12588644415E+04  0.12588644415E+04  0.50400001928E-02 0. -1.
    10030    2    1    2    0    0  0.00000000000E+00  0.00000000000E+00 -0.96178879750E+03  0.15559400856E+04  0.12230747561E+04 0.  0.
        4    1    3    3  502    0 -0.11098653085E+03  0.23818303154E+03 -0.11833808291E+04  0.12122050017E+04  0.12699999809E+01 0. -1.
       -4    1    3    3    0  502  0.11098653085E+03 -0.23818303154E+03  0.22159203158E+03  0.34373508390E+03  0.12699999809E+01 0.  1.
</event>
<event>
 5   0  0.5189537E-03  0.1185333E+04  0.7818609E-02  0.9125792E-01
       -2   -1    0    0    0  501  0.00000000000E+00  0.00000000000E+00  0.79777184413E+03  0.79777184414E+03  0.25500000920E-02 0.  1.
        2   -1    0    0  501    0  0.00000000000E+00  0.00000000000E+00 -0.44029356629E+03  0.44029356630E+03  0.25500000920E-02 0. -1.
    10030    2    1    2    0    0  0.00000000000E+00  0.00000000000E+00  0.35747827784E+03  0.12380654104E+04  0.11853333883E+04 0.  0.
        4    1    3    3  502    0  0.28705785844E+02  0.47528218373E+03  0.54733361462E+03  0.72546045716E+03  0.12699999809E+01 0.  1.
       -4    1    3    3    0  502 -0.28705785844E+02 -0.47528218373E+03 -0.18985533678E+03  0.51260495327E+03  0.12699999809E+01 0. -1.
</event>
<event>
 5   0  0.5031575E-03  0.1172486E+04  0.7818609E-02  0.9137286E-01
        2   -1    0    0  501    0  0.00000000000E+00  0.00000000000E+00  0.94614060799E+03  0.94614060799E+03  0.25500000920E-02 0. -1.
       -2   -1    0    0    0  501  0.00000000000E+00  0.00000000000E+00 -0.36324504505E+03  0.36324504505E+03  0.25500000920E-02 0.  1.
    10030    2    1    2    0    0  0.00000000000E+00  0.00000000000E+00  0.58289556294E+03  0.13093856530E+04  0.11724860558E+04 0.  0.
        5    1    3    3  502    0  0.30026701235E+02 -0.56259186678E+02  0.94223449863E+03  0.94440173617E+03  0.46999998093E+01 0. -1.
       -5    1    3    3    0  502 -0.30026701235E+02  0.56259186678E+02 -0.35933893569E+03  0.36498391687E+03  0.46999998093E+01 0.  1.
</event>
<event>
 5   0  0.2938349E-03  0.1167944E+04  0.7818609E-02  0.9141388E-01
       -1   -1    0    0    0  501  0.00000000000E+00  0.00000000000E+00  0.50199223905E+03  0.50199223908E+03  0.50400001928E-02 0.  1.
        1   -1    0    0  501    0  0.00000000000E+00  0.00000000000E+00 -0.67933928754E+03  0.67933928756E+03  0.50400001928E-02 0. -1.
    10030    2    1    2    0    0  0.00000000000E+00  0.00000000000E+00 -0.17734704849E+03  0.11813315266E+04  0.11679435775E+04 0.  0.
        4    1    3    3  502    0 -0.32135462160E+03 -0.45225792842E+03 -0.27301359236E+03  0.61833976191E+03  0.12699999809E+01 0. -1.
       -4    1    3    3    0  502  0.32135462160E+03  0.45225792842E+03  0.95666543867E+02  0.56299176473E+03  0.12699999809E+01 0.  1.
</event>
<event>
 5   0  0.5189537E-03  0.1184420E+04  0.7818609E-02  0.9126604E-01
       -2   -1    0    0    0  501  0.00000000000E+00  0.00000000000E+00  0.13478469754E+04  0.13478469754E+04  0.25500000920E-02 0. -1.
        2   -1    0    0  501    0  0.00000000000E+00  0.00000000000E+00 -0.26020231501E+03  0.26020231502E+03  0.25500000920E-02 0.  1.
    10030    2    1    2    0    0  0.00000000000E+00  0.00000000000E+00  0.10876446604E+04  0.16080492904E+04  0.11844203701E+04 0.  0.
        4    1    3    3  502    0  0.18487340517E+03 -0.19123481345E+03  0.12621842661E+04  0.12899068433E+04  0.12699999809E+01 0. -1.
       -4    1    3    3    0  502 -0.18487340517E+03  0.19123481345E+03 -0.17453960572E+03  0.31814244715E+03  0.12699999809E+01 0.  1.
</event>
<event>
 5   0  0.5031575E-03  0.1204243E+04  0.7818609E-02  0.9109151E-01
        2   -1    0    0  501    0  0.00000000000E+00  0.00000000000E+00  0.14941774234E+04  0.14941774234E+04  0.25500000920E-02 0.  1.
       -2   -1    0    0    0  501  0.00000000000E+00  0.00000000000E+00 -0.24264204252E+03  0.24264204253E+03  0.25500000920E-02 0. -1.
    10030    2    1    2    0    0  0.00000000000E+00  0.00000000000E+00  0.12515353809E+04  0.17368194659E+04  0.12042429355E+04 0.  0.
        5    1    3    3  502    0  0.34129082131E+03 -0.33884308903E+03  0.10329459335E+03  0.49192065083E+03  0.46999998093E+01 0. -1.
       -5    1    3    3    0  502 -0.34129082131E+03  0.33884308903E+03  0.11482407875E+04  0.12448988151E+04  0.46999998093E+01 0.  1.
</event>
<event>
 5   0  0.2926844E-03  0.7471495E+03  0.7818609E-02  0.9639833E-01
       -1   -1    0    0    0  501  0.00000000000E+00  0.00000000000E+00  0.13047898612E+03  0.13047898622E+03  0.50400001928E-02 0. -1.
        1   -1    0    0  501    0  0.00000000000E+00  0.00000000000E+00 -0.10695830211E+04  0.10695830211E+04  0.50400001928E-02 0.  1.
    10030    2    1    2    0    0  0.00000000000E+00  0.00000000000E+00 -0.93910403499E+03  0.12000620073E+04  0.74714953853E+03 0.  0.
        5    1    3    3  502    0  0.27340678848E+03  0.18994350879E+03 -0.19741721825E+03  0.38707293444E+03  0.46999998093E+01 0. -1.
       -5    1    3    3    0  502 -0.27340678848E+03 -0.18994350879E+03 -0.74168681675E+03  0.81298907290E+03  0.46999998093E+01 0.  1.
</event>
<event>
 5   0  0.5003526E-03  0.1176352E+04  0.7818609E-02  0.9133811E-01
       -2   -1    0    0    0  501  0.00000000000E+00  0.00000000000E+00  0.58473593174E+03  0.58473593174E+03  0.25500000920E-02 0. -1.
        2   -1    0    0  501    0  0.00000000000E+00  0.00000000000E+00 -0.59163669165E+03  0.59163669166E+03  0.25500000920E-02 0.  1.
    10030    2    1    2    0    0  0.00000000000E+00  0.00000000000E+00 -0.69007599177E+01  0.11763726234E+04  0.11763523828E+04 0.  0.
        2    1    3    3  502    0  0.12062462986E+03  0.15517247645E+03  0.55092585435E+03  0.58493426620E+03  0.25500000920E-02 0. -1.
       -2    1    3    3    0  502 -0.12062462986E+03 -0.15517247645E+03 -0.55782661427E+03  0.59143835720E+03  0.25500000920E-02 0.  1.
</event>
<event>
 5   0  0.1922125E-03  0.1324031E+04  0.7818609E-02  0.9010723E-01
        3   -1    0    0  501    0  0.00000000000E+00  0.00000000000E+00  0.12232058991E+04  0.12232059032E+04  0.10100000352E+00 0. -1.
       -3   -1    0    0    0  501  0.00000000000E+00  0.00000000000E+00 -0.35829145636E+03  0.35829147059E+03  0.10100000352E+00 0.  1.
    10030    2    1    2    0    0  0.00000000000E+00  0.00000000000E+00  0.86491444272E+03  0.15814973738E+04  0.13240305700E+04 0.  0.
        4    1    3    3  502    0 -0.13812255508E+03 -0.11433313390E+03  0.11936484203E+04  0.12070410391E+04  0.12699999809E+01 0. -1.
       -4    1    3    3    0  502  0.13812255508E+03  0.11433313390E+03 -0.32873397760E+03  0.37445633478E+03  0.12699999809E+01 0.  1.
</event>
<event>
 5   0  0.5003526E-03  0.1205057E+04  0.7818609E-02  0.9108442E-01
       -2   -1    0    0    0  501  0.00000000000E+00  0.00000000000E+00  0.73372781015E+03  0.73372781015E+03  0.25500000920E-02 0.  1.
        2   -1    0    0  501    0  0.00000000000E+00  0.00000000000E+00 -0.49478914180E+03  0.49478914180E+03  0.25500000920E-02 0. -1.
    10030    2    1    2    0    0  0.00000000000E+00  0.00000000000E+00  0.23893866835E+03  0.12285169520E+04  0.12050569339E+04 0.  0.
        2    1    3    3  502    0 -0.40566791061E+02 -0.47583363095E+03  0.49401421594E+03  0.68710505343E+03  0.25500000920E-02 0.  1.
       -2    1    3    3    0  502  0.40566791061E+02  0.47583363095E+03 -0.25507554760E+03  0.54141189853E+03  0.25500000920E-02 0. -1.
</event>
<event>
 5   0  0.2930868E-03  0.1192268E+04  0.7818609E-02  0.9119652E-01
        1   -1    0    0  501    0  0.00000000000E+00  0.00000000000E+00  0.81683336270E+03  0.81683336271E+03  0.50400001928E-02 0.  1.
       -1   -1    0    0    0  501  0.00000000000E+00  0.00000000000E+00 -0.43506505546E+03  0.43506505549E+03  0.50400001928E-02 0. -1.
    10030    2    1    2    0    0  0.00000000000E+00  0.00000000000E+00  0.38176830724E+03  0.12518984182E+04  0.11922678428E+04 0.  0.
        3    1    3    3  502    0 -0.22436068316E+02  0.56668123186E+02  0.81355331408E+03  0.81583310695E+03  0.10100000352E+00 0.  1.
       -3    1    3    3    0  502  0.22436068316E+02 -0.56668123186E+02 -0.43178500684E+03  0.43606531125E+03  0.10100000352E+00 0. -1.
</event>
<event>
 5   0  0.5108045E-03  0.1202847E+04  0.7818609E-02  0.9110368E-01
       -2   -1    0    0    0  501  0.00000000000E+00  0.00000000000E+00  0.15925956534E+03  0.15925956536E+03  0.25500000920E-02 0.  1.
        2   -1    0    0  501    0  0.00000000000E+00  0.00000000000E+00 -0.22711993421E+04  0.22711993421E+04  0.25500000920E-02 0. -1.
    10030    2    1    2    0    0  0.00000000000E+00  0.00000000000E+00 -0.21119397768E+04  0.24304589075E+04  0.12028469895E+04 0.  0.
        3    1    3    3  502    0  0.18708287358E+03  0.55005234349E+03 -0.13699918994E+04  0.14880979123E+04  0.10100000352E+00 0. -1.
       -3    1    3    3    0  502 -0.18708287358E+03 -0.55005234349E+03 -0.74194787741E+03  0.94236099514E+03  0.10100000352E+00 0.  1.
</event>
<event>
 5   0  0.2938349E-03  0.1242771E+04  0.7818609E-02  0.9076221E-01
        1   -1    0    0  501    0  0.00000000000E+00  0.00000000000E+00  0.11388326016E+04  0.11388326016E+04  0.50400001928E-02 0.  1.
       -1   -1    0    0    0  501  0.00000000000E+00  0.00000000000E+00 -0.33904916304E+03  0.33904916308E+03  0.50400001928E-02 0. -1.
    10030    2    1    2    0    0  0.00000000000E+00  0.00000000000E+00  0.79978343858E+03  0.14778817647E+04  0.12427714842E+04 0.  0.
        4    1    3    3  502    0  0.58745507908E+03  0.20093075811E+03  0.36976083419E+03  0.72263498870E+03  0.12699999809E+01 0. -1.
       -4    1    3    3    0  502 -0.58745507908E+03 -0.20093075811E+03  0.43002260440E+03  0.75524677602E+03  0.12699999809E+01 0.  1.
</event>
<event>
 5   0  0.2875848E-03  0.1184050E+04  0.7818609E-02  0.9126933E-01
        1   -1    0    0  501    0  0.00000000000E+00  0.00000000000E+00  0.87619144356E+03  0.87619144357E+03  0.50400001928E-02 0.  1.
       -1   -1    0    0    0  501  0.00000000000E+00  0.00000000000E+00 -0.40001961401E+03  0.40001961404E+03  0.50400001928E-02 0. -1.
    10030    2    1    2    0    0  0.00000000000E+00  0.00000000000E+00  0.47617182955E+03  0.12762110576E+04  0.11840502744E+04 0.  0.
        1    1    3    3  502    0 -0.46187805006E+03  0.48670787380E+02 -0.15763314767E+03  0.49045732530E+03  0.50400001928E-02 0. -1.
       -1    1    3    3    0  502  0.46187805006E+03 -0.48670787380E+02  0.63380497722E+03  0.78575373231E+03  0.50400001928E-02 0.  1.
</event>
<event>
 5   0  0.5003526E-03  0.1274246E+04  0.7818609E-02  0.9050242E-01
        2   -1    0    0  501    0  0.00000000000E+00  0.00000000000E+00  0.98119197637E+03  0.98119197637E+03  0.25500000920E-02 0. -1.
       -2   -1    0    0    0  501  0.00000000000E+00  0.00000000000E+00 -0.41370648832E+03  0.41370648833E+03  0.25500000920E-02 0.  1.
    10030    2    1    2    0    0  0.00000000000E+00  0.00000000000E+00  0.56748548805E+03  0.13948984647E+04  0.12742456387E+04 0.  0.
        2    1    3    3  502    0  0.22720993180E+03  0.27681326570E+03  0.86058658586E+03  0.93212617651E+03  0.25500000920E-02 0. -1.
       -2    1    3    3    0  502 -0.22720993180E+03 -0.27681326570E+03 -0.29310109781E+03  0.46277228819E+03  0.25500000920E-02 0.  1.
</event>
<event>
 5   0  0.2930868E-03  0.1212688E+04  0.7818609E-02  0.9101822E-01
       -1   -1    0    0    0  501  0.00000000000E+00  0.00000000000E+00  0.74269387011E+03  0.74269387013E+03  0.50400001928E-02 0. -1.
        1   -1    0    0  501    0  0.00000000000E+00  0.00000000000E+00 -0.49502671180E+03  0.49502671182E+03  0.50400001928E-02 0.  1.
    10030    2    1    2    0    0  0.00000000000E+00  0.00000000000E+00  0.24766715832E+03  0.12377205819E+04  0.12126884256E+04 0.  0.
        3    1    3    3  502    0 -0.97253192316E+00  0.32798477898E+03 -0.39667209339E+03  0.51470741294E+03  0.10100000352E+00 0.  1.
       -3    1    3    3    0  502  0.97253192316E+00 -0.32798477898E+03  0.64433925171E+03  0.72301316901E+03  0.10100000352E+00 0. -1.
</event>
<event>
 5   0  0.5189537E-03  0.1100372E+04  0.7818609E-02  0.9204829E-01
        2   -1    0    0  501    0  0.00000000000E+00  0.00000000000E+00  0.32056351733E+03  0.32056351734E+03  0.25500000920E-02 0.  1.
       -2   -1    0    0    0  501  0.00000000000E+00  0.00000000000E+00 -0.94428962125E+03  0.94428962125E+03  0.25500000920E-02 0. -1.
    10030    2    1    2    0    0  0.00000000000E+00  0.00000000000E+00 -0.62372610392E+03  0.12648531386E+04  0.11003723050E+04 0.  0.
        4    1    3    3  502    0 -0.29882443109E+03  0.44247925594E+03 -0.15928423408E+03  0.55718669463E+03  0.12699999809E+01 0.  1.
       -4    1    3    3    0  502  0.29882443109E+03 -0.44247925594E+03 -0.46444186984E+03  0.70766644396E+03  0.12699999809E+01 0. -1.
</event>
<event>
 5   0  0.5108045E-03  0.1165290E+04  0.7818609E-02  0.9143793E-01
        2   -1    0    0  501    0  0.00000000000E+00  0.00000000000E+00  0.11416317204E+04  0.11416317204E+04  0.25500000920E-02 0.  1.
       -2   -1    0    0    0  501  0.00000000000E+00  0.00000000000E+00 -0.29735951706E+03  0.29735951707E+03  0.25500000920E-02 0. -1.
    10030    2    1    2    0    0  0.00000000000E+00  0.00000000000E+00  0.84427220338E+03  0.14389912375E+04  0.11652897615E+04 0.  0.
        3    1    3    3  502    0  0.57477023440E+03  0.62358372424E+02  0.51140387583E+03  0.77187001715E+03  0.10100000352E+00 0.  1.
       -3    1    3    3    0  502 -0.57477023440E+03 -0.62358372424E+02  0.33286832755E+03  0.66712122035E+03  0.10100000352E+00 0. -1.
</event>
<event>
 5   0  0.1922125E-03  0.1213914E+04  0.7818609E-02  0.9100764E-01
        4   -1    0    0  501    0  0.00000000000E+00  0.00000000000E+00  0.41952281219E+03  0.41952473449E+03  0.12699999809E+01 0.  1.
       -4   -1    0    0    0  501  0.00000000000E+00  0.00000000000E+00 -0.87812796465E+03  0.87812888302E+03  0.12699999809E+01 0. -1.
    10030    2    1    2    0    0  0.00000000000E+00  0.00000000000E+00 -0.45860515246E+03  0.12976536175E+04  0.12139135987E+04 0.  0.
        4    1    3    3  502    0 -0.58051117727E+03  0.12649432517E+03 -0.36196382650E+03  0.69571076306E+03  0.12699999809E+01 0. -1.
       -4    1    3    3    0  502  0.58051117727E+03 -0.12649432517E+03 -0.96641325953E+02  0.60194285445E+03  0.12699999809E+01 0.  1.
</event>
<event>
 5   0  0.2938349E-03  0.9594745E+03  0.7818609E-02  0.9354144E-01
       -1   -1    0    0    0  501  0.00000000000E+00  0.00000000000E+00  0.14163939120E+04  0.14163939120E+04  0.50400001928E-02 0. -1.
        1   -1    0    0  501    0  0.00000000000E+00  0.00000000000E+00 -0.16248858791E+03  0.16248858799E+03  0.50400001928E-02 0.  1.
    10030    2    1    2    0    0  0.00000000000E+00  0.00000000000E+00  0.12539053241E+04  0.15788825000E+04  0.95947453693E+03 0.  0.
        4    1    3    3  502    0 -0.12304941736E+03 -0.82261184037E+02 -0.12397227907E+03  0.19307718765E+03  0.12699999809E+01 0.  1.
       -4    1    3    3    0  502  0.12304941736E+03  0.82261184037E+02  0.13778776032E+04  0.13858053124E+04  0.12699999809E+01 0. -1.
</event>
<event>
 5   0  0.2930868E-03  0.1211928E+04  0.7818609E-02  0.9102479E-01
        1   -1    0    0  501    0  0.00000000000E+00  0.00000000000E+00  0.78526516827E+03  0.78526516828E+03  0.50400001928E-02 0. -1.
       -1   -1    0    0    0  501  0.00000000000E+00  0.00000000000E+00 -0.46760320657E+03  0.46760320660E+03  0.50400001928E-02 0.  1.
    10030    2    1    2    0    0  0.00000000000E+00  0.00000000000E+00  0.31766196170E+03  0.12528683749E+04  0.12119282334E+04 0.  0.
        3    1    3    3  502    0  0.41586218612E+03  0.37954215855E+03 -0.72788781632E+02  0.56770751703E+03  0.10100000352E+00 0.  1.
       -3    1    3    3    0  502 -0.41586218612E+03 -0.37954215855E+03  0.39045074333E+03  0.68516085785E+03  0.10100000352E+00 0. -1.
</event>
<event>
 5   0  0.2926844E-03  0.1205122E+04  0.7818609E-02  0.9108385E-01
       -1   -1    0    0    0  501  0.00000000000E+00  0.00000000000E+00  0.56598242590E+03  0.56598242592E+03  0.50400001928E-02 0. -1.
        1   -1    0    0  501    0  0.00000000000E+00  0.00000000000E+00 -0.64150330801E+03  0.64150330803E+03  0.50400001928E-02 0.  1.
    10030    2    1    2    0    0  0.00000000000E+00  0.00000000000E+00 -0.75520882111E+02  0.12074857339E+04  0.12051217341E+04 0.  0.
        5    1    3    3  502    0 -0.59437572051E+03  0.83486145820E+01 -0.13646923388E+03  0.60991650108E+03  0.46999998093E+01 0.  1.
       -5    1    3    3    0  502  0.59437572051E+03 -0.83486145820E+01  0.60948351770E+02  0.59756923287E+03  0.46999998093E+01 0. -1.
</event>
<event>
 5   0  0.5189537E-03  0.1256031E+04  0.7818609E-02  0.9065179E-01
       -2   -1    0    0    0  501  0.00000000000E+00  0.00000000000E+00  0.29217419123E+03  0.29217419124E+03  0.25500000920E-02 0. -1.
        2   -1    0    0  501    0  0.00000000000E+00  0.00000000000E+00 -0.13498908306E+04  0.13498908306E+04  0.25500000920E-02 0.  1.
    10030    2    1    2    0    0  0.00000000000E+00  0.00000000000E+00 -0.10577166394E+04  0.16420650218E+04  0.12560306711E+04 0.  0.
        4    1    3    3  502    0 -0.18240678259E+03  0.34094812555E+03 -0.11758074371E+04  0.12377570847E+04  0.12699999809E+01 0.  1.
       -4    1    3    3    0  502  0.18240678259E+03 -0.34094812555E+03  0.11809079771E+03  0.40430793717E+03  0.12699999809E+01 0. -1.
</event>
<event>
 5   0  0.5467554E-03  0.1188857E+04  0.7818609E-02  0.9122667E-01
        2   -1    0    0  501    0  0.00000000000E+00  0.00000000000E+00  0.48862214078E+03  0.48862214078E+03  0.25500000920E-02 0. -1.
       -2   -1    0    0    0  501  0.00000000000E+00  0.00000000000E+00 -0.72314577926E+03  0.72314577926E+03  0.25500000920E-02 0.  1.
    10030    2    1    2    0    0  0.00000000000E+00  0.00000000000E+00 -0.23452363848E+03  0.12117679200E+04  0.11888566587E+04 0.  0.
        1    1    3    3  502    0 -0.43547230494E+03  0.82742659443E+02 -0.52095332307E+03  0.68401377245E+03  0.50400001928E-02 0.  1.
       -1    1    3    3    0  502  0.43547230494E+03 -0.82742659443E+02  0.28642968459E+03  0.52775414759E+03  0.50400001928E-02 0. -1.
</event>
<event>
 5   0  0.5031575E-03  0.1156801E+04  0.7818609E-02  0.9151532E-01
        2   -1    0    0  501    0  0.00000000000E+00  0.00000000000E+00  0.63168554932E+03  0.63168554933E+03  0.25500000920E-02 0.  1.
       -2   -1    0    0    0  501  0.00000000000E+00  0.00000000000E+00 -0.52961035688E+03  0.52961035689E+03  0.25500000920E-02 0. -1.
    10030    2    1    2    0    0  0.00000000000E+00  0.00000000000E+00  0.10207519244E+03  0.11612959062E+04  0.11568011224E+04 0.  0.
        5    1    3    3  502    0  0.13431802133E+03 -0.56140212713E+03  0.87392115918E+02  0.58384343031E+03  0.46999998093E+01 0.  1.
       -5    1    3    3    0  502 -0.13431802133E+03  0.56140212713E+03  0.14683076521E+02  0.57745247591E+03  0.46999998093E+01 0. -1.
</event>
<event>
 5   0  0.5189537E-03  0.1194290E+04  0.7818609E-02  0.9117869E-01
        2   -1    0    0  501    0  0.00000000000E+00  0.00000000000E+00  0.21923253084E+04  0.21923253084E+04  0.25500000920E-02 0.  1.
       -2   -1    0    0    0  501  0.00000000000E+00  0.00000000000E+00 -0.16265015809E+03  0.16265015811E+03  0.25500000920E-02 0. -1.
    10030    2    1    2    0    0  0.00000000000E+00  0.00000000000E+00  0.20296751503E+04  0.23549754665E+04  0.11942898443E+04 0.  0.
        4    1    3    3  502    0 -0.31629967703E+03  0.45527229279E+02  0.20146289894E+02  0.32019634631E+03  0.12699999809E+01 0. -1.
       -4    1    3    3    0  502  0.31629967703E+03 -0.45527229279E+02  0.20095288604E+04  0.20347791202E+04  0.12699999809E+01 0.  1.
</event>
<event>
 5   0  0.5003526E-03  0.1179865E+04  0.7818609E-02  0.9130665E-01
        2   -1    0    0  501    0  0.00000000000E+00  0.00000000000E+00  0.20536128584E+04  0.20536128584E+04  0.25500000920E-02 0. -1.
       -2   -1    0    0    0  501  0.00000000000E+00  0.00000000000E+00 -0.16946737264E+03  0.16946737266E+03  0.25500000920E-02 0.  1.
    10030    2    1    2    0    0  0.00000000000E+00  0.00000000000E+00  0.18841454858E+04  0.22230802311E+04  0.11798650356E+04 0.  0.
        2    1    3    3  502    0  0.40852737966E+03  0.17483799217E+03  0.21097758961E+03  0.49190902285E+03  0.25500000920E-02 0.  1.
       -2    1    3    3    0  502 -0.40852737966E+03 -0.17483799217E+03  0.16731678962E+04  0.17311712083E+04  0.25500000920E-02 0. -1.
</event>
<event>
 5   0  0.5031575E-03  0.1047795E+04  0.7818609E-02  0.9257623E-01
        2   -1    0    0  501    0  0.00000000000E+00  0.00000000000E+00  0.80561190306E+03  0.80561190306E+03  0.25500000920E-02 0.  1.
       -2   -1    0    0    0  501  0.00000000000E+00  0.00000000000E+00 -0.34069582046E+03  0.34069582047E+03  0.25500000920E-02 0. -1.
    10030    2    1    2    0    0  0.00000000000E+00  0.00000000000E+00  0.46491608260E+03  0.11463077235E+04  0.10477950340E+04 0.  0.
        5    1    3    3  502    0 -0.26649891795E+03  0.23322124116E+03 -0.18988531245E+03  0.40186109848E+03  0.46999998093E+01 0. -1.
       -5    1    3    3    0  502  0.26649891795E+03 -0.23322124116E+03  0.65480139505E+03  0.74444662505E+03  0.46999998093E+01 0.  1.
</event>
<event>
 5   0  0.5031575E-03  0.1210515E+04  0.7818609E-02  0.9103703E-01
        2   -1    0    0  501    0  0.00000000000E+00  0.00000000000E+00  0.13101934308E+04  0.13101934308E+04  0.25500000920E-02 0.  1.
       -2   -1    0    0    0  501  0.00000000000E+00  0.00000000000E+00 -0.27960478570E+03  0.27960478571E+03  0.25500000920E-02 0. -1.
    10030    2    1    2    0    0  0.00000000000E+00  0.00000000000E+00  0.10305886451E+04  0.15897982165E+04  0.12105145244E+04 0.  0.
        5    1    3    3  502    0  0.16663762728E+03 -0.52805729291E+03  0.83619098808E+03  0.10029207655E+04  0.46999998093E+01 0.  1.
       -5    1    3    3    0  502 -0.16663762728E+03  0.52805729291E+03  0.19439765706E+03  0.58687745100E+03  0.46999998093E+01 0. -1.
</event>
<event>
 5   0  0.2792518E-03  0.1238873E+04  0.7818609E-02  0.9079495E-01
        1   -1    0    0  501    0  0.00000000000E+00  0.00000000000E+00  0.63884812239E+03  0.63884812241E+03  0.50400001928E-02 0.  1.
       -1   -1    0    0    0  501  0.00000000000E+00  0.00000000000E+00 -0.60061472704E+03  0.60061472706E+03  0.50400001928E-02 0. -1.
    10030    2    1    2    0    0  0.00000000000E+00  0.00000000000E+00  0.38233395349E+02  0.12394628495E+04  0.12388730212E+04 0.  0.
        2    1    3    3  502    0  0.18551273906E+03 -0.27078444105E+03 -0.50645464393E+03  0.60351925920E+03  0.25500000920E-02 0. -1.
       -2    1    3    3    0  502 -0.18551273906E+03  0.27078444105E+03  0.54468803928E+03  0.63594359027E+03  0.25500000920E-02 0.  1.
</event>
<event>
 5   0  0.2792518E-03  0.1216948E+04  0.7818609E-02  0.9098150E-01
        1   -1    0    0  501    0  0.00000000000E+00  0.00000000000E+00  0.20847303691E+04  0.20847303691E+04  0.50400001928E-02 0.  1.
       -1   -1    0    0    0  501  0.00000000000E+00  0.00000000000E+00 -0.17759649608E+03  0.17759649615E+03  0.50400001928E-02 0. -1.
    10030    2    1    2    0    0  0.00000000000E+00  0.00000000000E+00  0.19071338730E+04  0.22623268652E+04  0.12169483291E+04 0.  0.
        2    1    3    3  502    0 -0.29847797544E+03 -0.21460148807E+03  0.18549462705E+04  0.18910231535E+04  0.25500000920E-02 0.  1.
       -2    1    3    3    0  502  0.29847797544E+03  0.21460148807E+03  0.52187602479E+02  0.37130371176E+03  0.25500000920E-02 0. -1.
</event>
<event>
 5   0  0.2792518E-03  0.9248819E+03  0.7818609E-02  0.9395001E-01
        1   -1    0    0  501    0  0.00000000000E+00  0.00000000000E+00  0.96365758302E+03  0.96365758303E+03  0.50400001928E-02 0. -1.
       -1   -1    0    0    0  501  0.00000000000E+00  0.00000000000E+00 -0.22191660361E+03  0.22191660366E+03  0.50400001928E-02 0.  1.
    10030    2    1    2    0    0  0.00000000000E+00  0.00000000000E+00  0.74174097941E+03  0.11855741867E+04  0.92488186901E+03 0.  0.
        2    1    3    3  502    0 -0.39204638486E+03  0.33723794790E+02  0.68227136733E+03  0.78761150379E+03  0.25500000920E-02 0. -1.
       -2    1    3    3    0  502  0.39204638486E+03 -0.33723794790E+02  0.59469612083E+02  0.39796268290E+03  0.25500000920E-02 0.  1.
</event>
<event>
 5   0  0.2926844E-03  0.1204091E+04  0.7818609E-02  0.9109284E-01
        1   -1    0    0  501    0  0.00000000000E+00  0.00000000000E+00  0.99135687525E+03  0.99135687526E+03  0.50400001928E-02 0. -1.
       -1   -1    0    0    0  501  0.00000000000E+00  0.00000000000E+00 -0.36561858893E+03  0.36561858896E+03  0.50400001928E-02 0.  1.
    10030    2    1    2    0    0  0.00000000000E+00  0.00000000000E+00  0.62573828632E+03  0.13569754642E+04  0.12040905313E+04 0.  0.
        5    1    3    3  502    0  0.53050157134E+03 -0.45912692942E+02 -0.36804617929E+01  0.53251810145E+03  0.46999998093E+01 0.  1.
       -5    1    3    3    0  502 -0.53050157134E+03  0.45912692942E+02  0.62941874811E+03  0.82445736278E+03  0.46999998093E+01 0. -1.
</event>
<event>
 5   0  0.5031575E-03  0.9270358E+03  0.7818609E-02  0.9392402E-01
       -2   -1    0    0    0  501  0.00000000000E+00  0.00000000000E+00  0.13697961437E+03  0.13697961440E+03  0.25500000920E-02 0.  1.
        2   -1    0    0  501    0  0.00000000000E+00  0.00000000000E+00 -0.15684731093E+04  0.15684731093E+04  0.25500000920E-02 0. -1.
    10030    2    1    2    0    0  0.00000000000E+00  0.00000000000E+00 -0.14314934950E+04  0.17054527237E+04  0.92703579584E+03 0.  0.
        5    1    3    3  502    0  0.31787944237E+03 -0.59769050400E+02 -0.10501863161E+03  0.34010392860E+03  0.46999998093E+01 0. -1.
       -5    1    3    3    0  502 -0.31787944237E+03  0.59769050400E+02 -0.13264748633E+04  0.13653487951E+04  0.46999998093E+01 0.  1.
</event>
<event>
 5   0  0.2875848E-03  0.1163458E+04  0.7818609E-02  0.9145457E-01
       -1   -1    0    0    0  501  0.00000000000E+00  0.00000000000E+00  0.18948289875E+03  0.18948289882E+03  0.50400001928E-02 0. -1.
        1   -1    0    0  501    0  0.00000000000E+00  0.00000000000E+00 -0.17859601357E+04  0.17859601357E+04  0.50400001928E-02 0.  1.
    10030    2    1    2    0    0  0.00000000000E+00  0.00000000000E+00 -0.15964772370E+04  0.19754430346E+04  0.11634584714E+04 0.  0.
        1    1    3    3  502    0 -0.38331723066E+03 -0.43025085064E+03 -0.66282053674E+03  0.87828182137E+03  0.50400001928E-02 0. -1.
       -1    1    3    3    0  502  0.38331723066E+03  0.43025085064E+03 -0.93365670024E+03  0.10971612132E+04  0.50400001928E-02 0.  1.
</event>
<event>
 5   0  0.2792518E-03  0.8971325E+03  0.7818609E-02  0.9429173E-01
       -1   -1    0    0    0  501  0.00000000000E+00  0.00000000000E+00  0.19247260967E+03  0.19247260973E+03  0.50400001928E-02 0.  1.
        1   -1    0    0  501    0  0.00000000000E+00  0.00000000000E+00 -0.10454041273E+04  0.10454041273E+04  0.50400001928E-02 0. -1.
    10030    2    1    2    0    0  0.00000000000E+00  0.00000000000E+00 -0.85293151767E+03  0.12378767371E+04  0.89713245531E+03 0.  0.
        2    1    3    3  502    0  0.22170193300E+03  0.27831264827E+03 -0.49591895289E+02  0.35926178946E+03  0.25500000920E-02 0.  1.
       -2    1    3    3    0  502 -0.22170193300E+03 -0.27831264827E+03 -0.80333962238E+03  0.87861494761E+03  0.25500000920E-02 0. -1.
</event>
<event>
 5   0  0.2926844E-03  0.1155160E+04  0.7818609E-02  0.9153036E-01
       -1   -1    0    0    0  501  0.00000000000E+00  0.00000000000E+00  0.76868507467E+03  0.76868507469E+03  0.50400001928E-02 0. -1.
        1   -1    0    0  501    0  0.00000000000E+00  0.00000000000E+00 -0.43398625955E+03  0.43398625958E+03  0.50400001928E-02 0.  1.
    10030    2    1    2    0    0  0.00000000000E+00  0.00000000000E+00  0.33469881513E+03  0.12026713343E+04  0.11551601800E+04 0.  0.
        5    1    3    3  502    0 -0.55711212660E+03  0.14116277155E+03  0.10776058418E+03  0.58475232635E+03  0.46999998093E+01 0.  1.
       -5    1    3    3    0  502  0.55711212660E+03 -0.14116277155E+03  0.22693823095E+03  0.61791900791E+03  0.46999998093E+01 0. -1.
</event>
<event>
 5   0  0.5003526E-03  0.1198432E+04  0.7818609E-02  0.9114230E-01
       -2   -1    0    0    0  501  0.00000000000E+00  0.00000000000E+00  0.62320418030E+03  0.62320418031E+03  0.25500000920E-02 0. -1.
        2   -1    0    0  501    0  0.00000000000E+00  0.00000000000E+00 -0.57615120321E+03  0.57615120321E+03  0.25500000920E-02 0.  1.
    10030    2    1    2    0    0  0.00000000000E+00  0.00000000000E+00  0.47052977099E+02  0.11993553835E+04  0.11984320395E+04 0.  0.
        2    1    3    3  502    0  0.27031505506E+03  0.46057439099E+03  0.29550938726E+03  0.61034809461E+03  0.25500000920E-02 0.  1.
       -2    1    3    3    0  502 -0.27031505506E+03 -0.46057439099E+03 -0.24845641016E+03  0.58900728891E+03  0.25500000920E-02 0. -1.
</event>
<event>
 5   0  0.5189537E-03  0.1194690E+04  0.7818609E-02  0.9117517E-01
       -2   -1    0    0    0  501  0.00000000000E+00  0.00000000000E+00  0.43787996650E+03  0.43787996651E+03  0.25500000920E-02 0.  1.
        2   -1    0    0  501    0  0.00000000000E+00  0.00000000000E+00 -0.81488301412E+03  0.81488301413E+03  0.25500000920E-02 0. -1.
    10030    2    1    2    0    0  0.00000000000E+00  0.00000000000E+00 -0.37700304763E+03  0.12527629806E+04  0.11946898291E+04 0.  0.
        4    1    3    3  502    0 -0.14025836638E+03  0.47310623360E+03  0.16448821198E+03  0.52015372958E+03  0.12699999809E+01 0.  1.
       -4    1    3    3    0  502  0.14025836638E+03 -0.47310623360E+03 -0.54149125960E+03  0.73260925106E+03  0.12699999809E+01 0. -1.
</event>
<event>
 5   0  0.2930868E-03  0.1197267E+04  0.7818609E-02  0.9115252E-01
        1   -1    0    0  501    0  0.00000000000E+00  0.00000000000E+00  0.69065419146E+03  0.69065419148E+03  0.50400001928E-02 0.  1.
       -1   -1    0    0    0  501  0.00000000000E+00  0.00000000000E+00 -0.51887363232E+03  0.51887363235E+03  0.50400001928E-02 0. -1.
    10030    2    1    2    0    0  0.00000000000E+00  0.00000000000E+00  0.17178055914E+03  0.12095278238E+04  0.11972673035E+04 0.  0.
        3    1    3    3  502    0 -0.21324810288E+02  0.17268459497E+03  0.66454512956E+03  0.68694610873E+03  0.10100000352E+00 0.  1.
       -3    1    3    3    0  502  0.21324810288E+02 -0.17268459497E+03 -0.49276457043E+03  0.52258171509E+03  0.10100000352E+00 0. -1.
</event>
<event>
 5   0  0.5003526E-03  0.1187977E+04  0.7818609E-02  0.9123446E-01
        2   -1    0    0  501    0  0.00000000000E+00  0.00000000000E+00  0.72675258828E+03  0.72675258828E+03  0.25500000920E-02 0.  1.
       -2   -1    0    0    0  501  0.00000000000E+00  0.00000000000E+00 -0.48547810557E+03  0.48547810558E+03  0.25500000920E-02 0. -1.
    10030    2    1    2    0    0  0.00000000000E+00  0.00000000000E+00  0.24127448271E+03  0.12122306939E+04  0.11879772216E+04 0.  0.
        2    1    3    3  502    0  0.44685861650E+03 -0.91357347165E+02 -0.26764897000E+03  0.52883339453E+03  0.25500000920E-02 0. -1.
       -2    1    3    3    0  502 -0.44685861650E+03  0.91357347165E+02  0.50892345270E+03  0.68339729933E+03  0.25500000920E-02 0.  1.
</event>
<event>
 5   0  0.2926844E-03  0.1372994E+04  0.7818609E-02  0.8973602E-01
        1   -1    0    0  501    0  0.00000000000E+00  0.00000000000E+00  0.94023985339E+03  0.94023985340E+03  0.50400001928E-02 0.  1.
       -1   -1    0    0    0  501  0.00000000000E+00  0.00000000000E+00 -0.50123183354E+03  0.50123183356E+03  0.50400001928E-02 0. -1.
    10030    2    1    2    0    0  0.00000000000E+00  0.00000000000E+00  0.43900801985E+03  0.14414716870E+04  0.13729940214E+04 0.  0.
        5    1    3    3  502    0 -0.53670796934E+03 -0.19214747838E+03 -0.18203697850E+03  0.59844435777E+03  0.46999998093E+01 0. -1.
       -5    1    3    3    0  502  0.53670796934E+03  0.19214747838E+03  0.62104499835E+03  0.84302732920E+03  0.46999998093E+01 0.  1.
</event>
<event>
 5   0  0.2938349E-03  0.1179159E+04  0.7818609E-02  0.9131297E-01
        1   -1    0    0  501    0  0.00000000000E+00  0.00000000000E+00  0.93690017370E+03  0.93690017372E+03  0.50400001928E-02 0. -1.
       -1   -1    0    0    0  501  0.00000000000E+00  0.00000000000E+00 -0.37101512132E+03  0.37101512136E+03  0.50400001928E-02 0.  1.
    10030    2    1    2    0    0  0.00000000000E+00  0.00000000000E+00  0.56588505238E+03  0.13079152951E+04  0.11791592456E+04 0.  0.
        4    1    3    3  502    0  0.36021787651E+03  0.20078232022E+03  0.75029608517E+03  0.85616370339E+03  0.12699999809E+01 0.  1.
       -4    1    3    3    0  502 -0.36021787651E+03 -0.20078232022E+03 -0.18441103279E+03  0.45175159168E+03  0.12699999809E+01 0. -1.
</event>
<event>
 5   0  0.2792518E-03  0.1203570E+04  0.7818609E-02  0.9109738E-01
        1   -1    0    0  501    0  0.00000000000E+00  0.00000000000E+00  0.90734725290E+03  0.90734725291E+03  0.50400001928E-02 0.  1.
       -1   -1    0    0    0  501  0.00000000000E+00  0.00000000000E+00 -0.39912518074E+03  0.39912518078E+03  0.50400001928E-02 0. -1.
    10030    2    1    2    0    0  0.00000000000E+00  0.00000000000E+00  0.50822207216E+03  0.13064724337E+04  0.12035699171E+04 0.  0.
        2    1    3    3  502    0  0.46103587956E+02 -0.58099088925E+03  0.91397921344E+02  0.58994028024E+03  0.25500000920E-02 0. -1.
       -2    1    3    3    0  502 -0.46103587956E+02  0.58099088925E+03  0.41682415081E+03  0.71653215345E+03  0.25500000920E-02 0.  1.
</event>
<event>
 5   0  0.2926844E-03  0.1203107E+04  0.7818609E-02  0.9110141E-01
       -1   -1    0    0    0  501  0.00000000000E+00  0.00000000000E+00  0.45796911997E+03  0.45796912000E+03  0.50400001928E-02 0.  1.
        1   -1    0    0  501    0  0.00000000000E+00  0.00000000000E+00 -0.79015489504E+03  0.79015489505E+03  0.50400001928E-02 0. -1.
    10030    2    1    2    0    0  0.00000000000E+00  0.00000000000E+00 -0.33218577507E+03  0.12481240151E+04  0.12031068813E+04 0.  0.
        5    1    3    3  502    0 -0.29911955689E+03 -0.37442708808E+03  0.21107118912E+03  0.52368052330E+03  0.46999998093E+01 0.  1.
       -5    1    3    3    0  502  0.29911955689E+03  0.37442708808E+03 -0.54325696419E+03  0.72444349175E+03  0.46999998093E+01 0. -1.
</event>
<event>
 5   0  0.2875848E-03  0.1208237E+04  0.7818609E-02  0.9105677E-01
        1   -1    0    0  501    0  0.00000000000E+00  0.00000000000E+00  0.46725829566E+03  0.46725829569E+03  0.50400001928E-02 0.  1.
       -1   -1    0    0    0  501  0.00000000000E+00  0.00000000000E+00 -0.78106481639E+03  0.78106481641E+03  0.50400001928E-02 0. -1.
    10030    2    1    2    0    0  0.00000000000E+00  0.00000000000E+00 -0.31380652073E+03  0.12483231121E+04  0.12082367565E+04 0.  0.
        1    1    3    3  502    0  0.13171709734E+03  0.46061892434E+02 -0.76418665109E+03  0.77682194189E+03  0.50400001928E-02 0. -1.
       -1    1    3    3    0  502 -0.13171709734E+03 -0.46061892434E+02  0.45038013036E+03  0.47150117021E+03  0.50400001928E-02 0.  1.
</event>
<event>
 5   0  0.5108045E-03  0.1229146E+04  0.7818609E-02  0.9087720E-01
        2   -1    0    0  501    0  0.00000000000E+00  0.00000000000E+00  0.46725380787E+03  0.46725380788E+03  0.25500000920E-02 0.  1.
       -2   -1    0    0    0  501  0.00000000000E+00  0.00000000000E+00 -0.80834064141E+03  0.80834064141E+03  0.25500000920E-02 0. -1.
    10030    2    1    2    0    0  0.00000000000E+00  0.00000000000E+00 -0.34108683353E+03  0.12755944493E+04  0.12291464400E+04 0.  0.
        3    1    3    3  502    0  0.29868693330E+03  0.50680170585E+03  0.14049957186E+02  0.58843798711E+03  0.10100000352E+00 0.  1.
       -3    1    3    3    0  502 -0.29868693330E+03 -0.50680170585E+03 -0.35513679072E+03  0.68715646217E+03  0.10100000352E+00 0. -1.
</event>
<event>
 5   0  0.5108045E-03  0.1213417E+04  0.7818609E-02  0.9101193E-01
       -2   -1    0    0    0  501  0.00000000000E+00  0.00000000000E+00  0.37767151639E+03  0.37767151640E+03  0.25500000920E-02 0. -1.
        2   -1    0    0  501    0  0.00000000000E+00  0.00000000000E+00 -0.97464361849E+03  0.97464361850E+03  0.25500000920E-02 0.  1.
    10030    2    1    2    0    0  0.00000000000E+00  0.00000000000E+00 -0.59697210211E+03  0.13523151349E+04  0.12134168836E+04 0.  0.
        3    1    3    3  502    0 -0.91265935170E+02  0.27390479502E+03 -0.89317997326E+03  0.93868193894E+03  0.10100000352E+00 0.  1.
       -3    1    3    3    0  502  0.91265935170E+02 -0.27390479502E+03  0.29620787116E+03  0.41363319595E+03  0.10100000352E+00 0. -1.
</event>
<event>
 5   0  0.2926844E-03  0.1259811E+04  0.7818609E-02  0.9062057E-01
        1   -1    0    0  501    0  0.00000000000E+00  0.00000000000E+00  0.13629841523E+04  0.13629841523E+04  0.50400001928E-02 0. -1.
       -1   -1    0    0    0  501  0.00000000000E+00  0.00000000000E+00 -0.29111208310E+03  0.29111208314E+03  0.50400001928E-02 0.  1.
    10030    2    1    2    0    0  0.00000000000E+00  0.00000000000E+00  0.10718720692E+04  0.16540962354E+04  0.12598113444E+04 0.  0.
        5    1    3    3  502    0  0.23957746402E+03  0.42170215385E+03  0.82440372110E+01  0.48509805398E+03  0.46999998093E+01 0.  1.
       -5    1    3    3    0  502 -0.23957746402E+03 -0.42170215385E+03  0.10636280320E+04  0.11689981814E+04  0.46999998093E+01 0. -1.
</event>
<event>
 5   0  0.2930868E-03  0.1152484E+04  0.7818609E-02  0.9155495E-01
       -1   -1    0    0    0  501  0.00000000000E+00  0.00000000000E+00  0.26944246756E+03  0.26944246761E+03  0.50400001928E-02 0. -1.
        1   -1    0    0  501    0  0.00000000000E+00  0.00000000000E+00 -0.12323784170E+04  0.12323784170E+04  0.50400001928E-02 0.  1.
    10030    2    1    2    0    0  0.00000000000E+00  0.00000000000E+00 -0.96293594943E+03  0.15018208846E+04  0.11524844150E+04 0.  0.
        3    1    3    3  502    0 -0.44163358735E+03 -0.29376257624E+03 -0.18799654467E+03  0.56274273668E+03  0.10100000352E+00 0. -1.
       -3    1    3    3    0  502  0.44163358735E+03  0.29376257624E+03 -0.77493940475E+03  0.93907814793E+03  0.10100000352E+00 0.  1.
</event>
<event>
 5   0  0.2930868E-03  0.1113469E+04  0.7818609E-02  0.9192163E-01
        1   -1    0    0  501    0  0.00000000000E+00  0.00000000000E+00  0.53550622257E+03  0.53550622259E+03  0.50400001928E-02 0.  1.
       -1   -1    0    0    0  501  0.00000000000E+00  0.00000000000E+00 -0.57880426948E+03  0.57880426951E+03  0.50400001928E-02 0. -1.
    10030    2    1    2    0    0  0.00000000000E+00  0.00000000000E+00 -0.43298046913E+02  0.11143104921E+04  0.11134689721E+04 0.  0.
        3    1    3    3  502    0 -0.32114398114E+03 -0.33919572512E+03 -0.32480713513E+03  0.56893486603E+03  0.10100000352E+00 0. -1.
       -3    1    3    3    0  502  0.32114398114E+03  0.33919572512E+03  0.28150908821E+03  0.54537562607E+03  0.10100000352E+00 0.  1.
</event>
<event>
 5   0  0.5003526E-03  0.1197064E+04  0.7818609E-02  0.9115431E-01
       -2   -1    0    0    0  501  0.00000000000E+00  0.00000000000E+00  0.34962305725E+03  0.34962305726E+03  0.25500000920E-02 0. -1.
        2   -1    0    0  501    0  0.00000000000E+00  0.00000000000E+00 -0.10246474613E+04  0.10246474613E+04  0.25500000920E-02 0.  1.
    10030    2    1    2    0    0  0.00000000000E+00  0.00000000000E+00 -0.67502440407E+03  0.13742705186E+04  0.11970637043E+04 0.  0.
        2    1    3    3  502    0  0.39099102067E+02 -0.47947829069E+03 -0.74633536834E+03  0.88794405965E+03  0.25500000920E-02 0.  1.
       -2    1    3    3    0  502 -0.39099102067E+02  0.47947829069E+03  0.71310964269E+02  0.48632645893E+03  0.25500000920E-02 0. -1.
</event>
<event>
 5   0  0.5003526E-03  0.1186765E+04  0.7818609E-02  0.9124520E-01
        2   -1    0    0  501    0  0.00000000000E+00  0.00000000000E+00  0.32720702667E+03  0.32720702668E+03  0.25500000920E-02 0. -1.
       -2   -1    0    0    0  501  0.00000000000E+00  0.00000000000E+00 -0.10760862627E+04  0.10760862627E+04  0.25500000920E-02 0.  1.
    10030    2    1    2    0    0  0.00000000000E+00  0.00000000000E+00 -0.74887923601E+03  0.14032932894E+04  0.11867653289E+04 0.  0.
        2    1    3    3  502    0 -0.48730389083E+03  0.78783570603E+02 -0.76380777986E+03  0.90943623064E+03  0.25500000920E-02 0.  1.
       -2    1    3    3    0  502  0.48730389083E+03 -0.78783570603E+02  0.14928543854E+02  0.49385705872E+03  0.25500000920E-02 0. -1.
</event>
<event>
 5   0  0.2938349E-03  0.1205548E+04  0.7818609E-02  0.9108014E-01
       -1   -1    0    0    0  501  0.00000000000E+00  0.00000000000E+00  0.71500272376E+03  0.71500272378E+03  0.50400001928E-02 0.  1.
        1   -1    0    0  501    0  0.00000000000E+00  0.00000000000E+00 -0.50816107372E+03  0.50816107375E+03  0.50400001928E-02 0. -1.
    10030    2    1    2    0    0  0.00000000000E+00  0.00000000000E+00  0.20684165004E+03  0.12231637975E+04  0.12055480942E+04 0.  0.
        4    1    3    3  502    0 -0.38877517570E+03  0.14710817648E+03  0.54631733631E+03  0.68647738322E+03  0.12699999809E+01 0.  1.
       -4    1    3    3    0  502  0.38877517570E+03 -0.14710817648E+03 -0.33947568627E+03  0.53668641430E+03  0.12699999809E+01 0. -1.
</event>
<event>
 5   0  0.5108045E-03  0.9630589E+03  0.7818609E-02  0.9350016E-01
       -2   -1    0    0    0  501  0.00000000000E+00  0.00000000000E+00  0.51935545494E+03  0.51935545495E+03  0.25500000920E-02 0. -1.
        2   -1    0    0  501    0  0.00000000000E+00  0.00000000000E+00 -0.44645842317E+03  0.44645842318E+03  0.25500000920E-02 0.  1.
    10030    2    1    2    0    0  0.00000000000E+00  0.00000000000E+00  0.72897031770E+02  0.96581387813E+03  0.96305891302E+03 0.  0.
        3    1    3    3  502    0 -0.74067212654E+02  0.25562170823E+03 -0.36600009328E+03  0.45253120135E+03  0.10100000352E+00 0.  1.
       -3    1    3    3    0  502  0.74067212654E+02 -0.25562170823E+03  0.43889712505E+03  0.51328267679E+03  0.10100000352E+00 0. -1.
</event>
<event>
 5   0  0.1922125E-03  0.1200016E+04  0.7818609E-02  0.9112842E-01
        3   -1    0    0  501    0  0.00000000000E+00  0.00000000000E+00  0.15861275997E+04  0.15861276029E+04  0.10100000352E+00 0.  1.
       -3   -1    0    0    0  501  0.00000000000E+00  0.00000000000E+00 -0.22697398920E+03  0.22697401167E+03  0.10100000352E+00 0. -1.
    10030    2    1    2    0    0  0.00000000000E+00  0.00000000000E+00  0.13591536105E+04  0.18131016146E+04  0.12000162198E+04 0.  0.
        5    1    3    3  502    0  0.21097306556E+01  0.51171932699E+03  0.20628582266E+03  0.55175814557E+03  0.46999998093E+01 0. -1.
       -5    1    3    3    0  502 -0.21097306556E+01 -0.51171932699E+03  0.11528677878E+04  0.12613434690E+04  0.46999998093E+01 0.  1.
</event>
<event>
 5   0  0.1922125E-03  0.1195175E+04  0.7818609E-02  0.9117090E-01
       -4   -1    0    0    0  501  0.00000000000E+00  0.00000000000E+00  0.12836976133E+04  0.12836982415E+04  0.12699999809E+01 0.  1.
        4   -1    0    0  501    0  0.00000000000E+00  0.00000000000E+00 -0.27818701087E+03  0.27818990980E+03  0.12699999809E+01 0. -1.
    10030    2    1    2    0    0  0.00000000000E+00  0.00000000000E+00  0.10055106024E+04  0.15618881513E+04  0.11951748933E+04 0.  0.
        4    1    3    3  502    0 -0.27566881535E+02 -0.16128117202E+03 -0.24834419303E+03  0.29740208560E+03  0.12699999809E+01 0. -1.
       -4    1    3    3    0  502  0.27566881535E+02  0.16128117202E+03  0.12538547954E+04  0.12644860657E+04  0.12699999809E+01 0.  1.
</event>
<event>
 5   0  0.1922125E-03  0.1125266E+04  0.7818609E-02  0.9180910E-01
       -4   -1    0    0    0  501  0.00000000000E+00  0.00000000000E+00  0.82649015514E+03  0.82649113089E+03  0.12699999809E+01 0.  1.
        4   -1    0    0  501    0  0.00000000000E+00  0.00000000000E+00 -0.38301023511E+03  0.38301234066E+03  0.12699999809E+01 0. -1.
    10030    2    1    2    0    0  0.00000000000E+00  0.00000000000E+00  0.44347992003E+03  0.12095034716E+04  0.11252662833E+04 0.  0.
        4    1    3    3  502    0 -0.33432541686E+03 -0.85430639059E+02 -0.25591708552E+03  0.42961266975E+03  0.12699999809E+01 0. -1.
       -4    1    3    3    0  502  0.33432541686E+03  0.85430639059E+02  0.69939700556E+03  0.77989080180E+03  0.12699999809E+01 0.  1.
</event>
<event>
 5   0  0.5003526E-03  0.1175025E+04  0.7818609E-02  0.9135003E-01
       -2   -1    0    0    0  501  0.00000000000E+00  0.00000000000E+00  0.47001074296E+03  0.47001074297E+03  0.25500000920E-02 0.  1.
        2   -1    0    0  501    0  0.00000000000E+00  0.00000000000E+00 -0.73438921207E+03  0.73438921207E+03  0.25500000920E-02 0. -1.
    10030    2    1    2    0    0  0.00000000000E+00  0.00000000000E+00 -0.26437846911E+03  0.12043999550E+04  0.11750247984E+04 0.  0.
        2    1    3    3  502    0  0.63993862609E+01 -0.50337924194E+03 -0.44264604149E+03  0.67034851489E+03  0.25500000920E-02 0. -1.
       -2    1    3    3    0  502 -0.63993862609E+01  0.50337924194E+03  0.17826757239E+03  0.53405144015E+03  0.25500000920E-02 0.  1.
</event>
<event>
 5   0  0.1922125E-03  0.1212050E+04  0.7818609E-02  0.9102374E-01
        3   -1    0    0  501    0  0.00000000000E+00  0.00000000000E+00  0.11091932269E+04  0.11091932315E+04  0.10100000352E+00 0.  1.
       -3   -1    0    0    0  501  0.00000000000E+00  0.00000000000E+00 -0.33111098890E+03  0.33111100431E+03  0.10100000352E+00 0. -1.
    10030    2    1    2    0    0  0.00000000000E+00  0.00000000000E+00  0.77808223804E+03  0.14403042358E+04  0.12120496370E+04 0.  0.
        2    1    3    3  502    0  0.44614152124E+03 -0.18938856477E+03 -0.43278866632E+02  0.48660388998E+03  0.25500000920E-02 0.  1.
       -2    1    3    3    0  502 -0.44614152124E+03  0.18938856477E+03  0.82136110467E+03  0.95370034587E+03  0.25500000920E-02 0. -1.
</event>
<event>
 5   0  0.5031575E-03  0.1235666E+04  0.7818609E-02  0.9082198E-01
       -2   -1    0    0    0  501  0.00000000000E+00  0.00000000000E+00  0.50147727297E+03  0.50147727297E+03  0.25500000920E-02 0. -1.
        2   -1    0    0  501    0  0.00000000000E+00  0.00000000000E+00 -0.76118626406E+03  0.76118626406E+03  0.25500000920E-02 0.  1.
    10030    2    1    2    0    0  0.00000000000E+00  0.00000000000E+00 -0.25970899109E+03  0.12626635370E+04  0.12356659936E+04 0.  0.
        5    1    3    3  502    0  0.20789027483E+03  0.42886365285E+03 -0.53157632955E+03  0.71395930083E+03  0.46999998093E+01 0.  1.
       -5    1    3    3    0  502 -0.20789027483E+03 -0.42886365285E+03  0.27186733846E+03  0.54870423620E+03  0.46999998093E+01 0. -1.
</event>
<event>
 5   0  0.2930868E-03  0.1171737E+04  0.7818609E-02  0.9137962E-01
        1   -1    0    0  501    0  0.00000000000E+00  0.00000000000E+00  0.10737937037E+04  0.10737937037E+04  0.50400001928E-02 0.  1.
       -1   -1    0    0    0  501  0.00000000000E+00  0.00000000000E+00 -0.31965326174E+03  0.31965326178E+03  0.50400001928E-02 0. -1.
    10030    2    1    2    0    0  0.00000000000E+00  0.00000000000E+00  0.75414044192E+03  0.13934469654E+04  0.11717365913E+04 0.  0.
        3    1    3    3  502    0 -0.22121510783E+03  0.43859657252E+03 -0.26202738210E+01  0.49123309477E+03  0.10100000352E+00 0. -1.
       -3    1    3    3    0  502  0.22121510783E+03 -0.43859657252E+03  0.75676071574E+03  0.90221387068E+03  0.10100000352E+00 0.  1.
</event>
<event>
 5   0  0.5189537E-03  0.1179511E+04  0.7818609E-02  0.9130982E-01
        2   -1    0    0  501    0  0.00000000000E+00  0.00000000000E+00  0.94102263791E+03  0.94102263791E+03  0.25500000920E-02 0.  1.
       -2   -1    0    0    0  501  0.00000000000E+00  0.00000000000E+00 -0.36961014251E+03  0.36961014251E+03  0.25500000920E-02 0. -1.
    10030    2    1    2    0    0  0.00000000000E+00  0.00000000000E+00  0.57141249540E+03  0.13106327804E+04  0.11795109348E+04 0.  0.
        4    1    3    3  502    0  0.22254658163E+02  0.27288293645E+03  0.86612396498E+03  0.90836815357E+03  0.12699999809E+01 0.  1.
       -4    1    3    3    0  502 -0.22254658163E+02 -0.27288293645E+03 -0.29471146958E+03  0.40226462685E+03  0.12699999809E+01 0. -1.
</event>
<event>
 5   0  0.2792518E-03  0.1186147E+04  0.7818609E-02  0.9125069E-01
       -1   -1    0    0    0  501  0.00000000000E+00  0.00000000000E+00  0.59633665565E+03  0.59633665567E+03  0.50400001928E-02 0.  1.
        1   -1    0    0  501    0  0.00000000000E+00  0.00000000000E+00 -0.58982813381E+03  0.58982813383E+03  0.50400001928E-02 0. -1.
    10030    2    1    2    0    0  0.00000000000E+00  0.00000000000E+00  0.65085218395E+01  0.11861647895E+04  0.11861469331E+04 0.  0.
        2    1    3    3  502    0 -0.32937803621E+03 -0.30537935073E+03  0.39054512591E+03  0.59520747137E+03  0.25500000920E-02 0.  1.
       -2    1    3    3    0  502  0.32937803621E+03  0.30537935073E+03 -0.38403660407E+03  0.59095731814E+03  0.25500000920E-02 0. -1.
</event>
<event>
 5   0  0.2875848E-03  0.1204360E+04  0.7818609E-02  0.9109049E-01
       -1   -1    0    0    0  501  0.00000000000E+00  0.00000000000E+00  0.33982671334E+03  0.33982671337E+03  0.50400001928E-02 0. -1.
        1   -1    0    0  501    0  0.00000000000E+00  0.00000000000E+00 -0.10670747729E+04  0.10670747729E+04  0.50400001928E-02 0.  1.
    10030    2    1    2    0    0  0.00000000000E+00  0.00000000000E+00 -0.72724805959E+03  0.14069014863E+04  0.12043596025E+04 0.  0.
        1    1    3    3  502    0 -0.21950043128E+03  0.28438098567E+03 -0.92818875790E+03  0.99528255016E+03  0.50400001928E-02 0.  1.
       -1    1    3    3    0  502  0.21950043128E+03 -0.28438098567E+03  0.20094069830E+03  0.41161893616E+03  0.50400001928E-02 0. -1.
</event>
<event>
 5   0  0.5031575E-03  0.1285801E+04  0.7818609E-02  0.9040901E-01
        2   -1    0    0  501    0  0.00000000000E+00  0.00000000000E+00  0.16418330790E+04  0.16418330790E+04  0.25500000920E-02 0. -1.
       -2   -1    0    0    0  501  0.00000000000E+00  0.00000000000E+00 -0.25174375806E+03  0.25174375808E+03  0.25500000920E-02 0.  1.
    10030    2    1    2    0    0  0.00000000000E+00  0.00000000000E+00  0.13900893209E+04  0.18935768371E+04  0.12858012746E+04 0.  0.
        5    1    3    3  502    0 -0.46469953830E+03  0.56555292463E+02  0.13439529841E+04  0.14231570102E+04  0.46999998093E+01 0. -1.
       -5    1    3    3    0  502  0.46469953830E+03 -0.56555292463E+02  0.46136336818E+02  0.47041982693E+03  0.46999998093E+01 0.  1.
</event>
<event>
 5   0  0.2926844E-03  0.1207447E+04  0.7818609E-02  0.9106363E-01
        1   -1    0    0  501    0  0.00000000000E+00  0.00000000000E+00  0.13726955262E+04  0.13726955262E+04  0.50400001928E-02 0. -1.
       -1   -1    0    0    0  501  0.00000000000E+00  0.00000000000E+00 -0.26552288045E+03  0.26552288050E+03  0.50400001928E-02 0.  1.
    10030    2    1    2    0    0  0.00000000000E+00  0.00000000000E+00  0.11071726458E+04  0.16382184067E+04  0.12074470094E+04 0.  0.
        5    1    3    3  502    0 -0.30677484169E+03 -0.19921413503E+02  0.12585183598E+04  0.12955300915E+04  0.46999998093E+01 0. -1.
       -5    1    3    3    0  502  0.30677484169E+03  0.19921413503E+02 -0.15134571401E+03  0.34268831518E+03  0.46999998093E+01 0.  1.
</event>
<event>
 5   0  0.5108045E-03  0.1197305E+04  0.7818609E-02  0.9115218E-01
       -2   -1    0    0    0  501  0.00000000000E+00  0.00000000000E+00  0.17974736708E+03  0.17974736710E+03  0.25500000920E-02 0. -1.
        2   -1    0    0  501    0  0.00000000000E+00  0.00000000000E+00 -0.19938260141E+04  0.19938260141E+04  0.25500000920E-02 0.  1.
    10030    2    1    2    0    0  0.00000000000E+00  0.00000000000E+00 -0.18140786470E+04  0.21735733812E+04  0.11973052685E+04 0.  0.
        3    1    3    3  502    0 -0.92470076541E+02 -0.53713624620E+03 -0.45750111963E+03  0.71159914748E+03  0.10100000352E+00 0. -1.
       -3    1    3    3    0  502  0.92470076541E+02  0.53713624620E+03 -0.13565775274E+04  0.14619742337E+04  0.10100000352E+00 0.  1.
</event>
<event>
 5   0  0.5467554E-03  0.1232823E+04  0.7818609E-02  0.9084602E-01
        2   -1    0    0  501    0  0.00000000000E+00  0.00000000000E+00  0.50724239167E+03  0.50724239168E+03  0.25500000920E-02 0. -1.
       -2   -1    0    0    0  501  0.00000000000E+00  0.00000000000E+00 -0.74907614943E+03  0.74907614943E+03  0.25500000920E-02 0.  1.
    10030    2    1    2    0    0  0.00000000000E+00  0.00000000000E+00 -0.24183375775E+03  0.12563185411E+04  0.12328230653E+04 0.  0.
        1    1    3    3  502    0 -0.86558521229E+02 -0.30738736659E+03 -0.65820689068E+03  0.73158436404E+03  0.50400001928E-02 0.  1.
       -1    1    3    3    0  502  0.86558521229E+02  0.30738736659E+03  0.41637313293E+03  0.52473417707E+03  0.50400001928E-02 0. -1.
</event>
<event>
 5   0  0.2792518E-03  0.1202617E+04  0.7818609E-02  0.9110569E-01
        1   -1    0    0  501    0  0.00000000000E+00  0.00000000000E+00  0.53101519462E+03  0.53101519464E+03  0.50400001928E-02 0. -1.
       -1   -1    0    0    0  501  0.00000000000E+00  0.00000000000E+00 -0.68090676613E+03  0.68090676615E+03  0.50400001928E-02 0.  1.
    10030    2    1    2    0    0  0.00000000000E+00  0.00000000000E+00 -0.14989157151E+03  0.12119219608E+04  0.12026168782E+04 0.  0.
        2    1    3    3  502    0  0.43351606927E+02 -0.31338242210E+03  0.44036575180E+03  0.54222679727E+03  0.25500000920E-02 0. -1.
       -2    1    3    3    0  502 -0.43351606927E+02  0.31338242210E+03 -0.59025732332E+03  0.66969516352E+03  0.25500000920E-02 0.  1.
</event>
<event>
 5   0  0.2792518E-03  0.1161271E+04  0.7818609E-02  0.9147448E-01
       -1   -1    0    0    0  501  0.00000000000E+00  0.00000000000E+00  0.12085975513E+04  0.12085975513E+04  0.50400001928E-02 0. -1.
        1   -1    0    0  501    0  0.00000000000E+00  0.00000000000E+00 -0.27894941905E+03  0.27894941910E+03  0.50400001928E-02 0.  1.
    10030    2    1    2    0    0  0.00000000000E+00  0.00000000000E+00  0.92964813223E+03  0.14875469704E+04  0.11612710017E+04 0.  0.
        2    1    3    3  502    0 -0.43522260711E+03 -0.11738868088E+03  0.93362692454E+03  0.10367536131E+04  0.25500000920E-02 0. -1.
       -2    1    3    3    0  502  0.43522260711E+03  0.11738868088E+03 -0.39787923174E+01  0.45079335724E+03  0.25500000920E-02 0.  1.
</event>
<event>
 5   0  0.5108045E-03  0.1229215E+04  0.7818609E-02  0.9087662E-01
       -2   -1    0    0    0  501  0.00000000000E+00  0.00000000000E+00  0.26132673163E+03  0.26132673165E+03  0.25500000920E-02 0.  1.
        2   -1    0    0  501    0  0.00000000000E+00  0.00000000000E+00 -0.14454800452E+04  0.14454800452E+04  0.25500000920E-02 0. -1.
    10030    2    1    2    0    0  0.00000000000E+00  0.00000000000E+00 -0.11841533136E+04  0.17068067769E+04  0.12292153202E+04 0.  0.
        3    1    3    3  502    0  0.32052329524E+03  0.46713661941E+03 -0.92297549391E+03  0.10829753351E+04  0.10100000352E+00 0. -1.
       -3    1    3    3    0  502 -0.32052329524E+03 -0.46713661941E+03 -0.26117781966E+03  0.62383144171E+03  0.10100000352E+00 0.  1.
</event>
<event>
 5   0  0.5031575E-03  0.1279104E+04  0.7818609E-02  0.9046302E-01
        2   -1    0    0  501    0  0.00000000000E+00  0.00000000000E+00  0.10109319268E+04  0.10109319268E+04  0.25500000920E-02 0. -1.
       -2   -1    0    0    0  501  0.00000000000E+00  0.00000000000E+00 -0.40460337625E+03  0.40460337626E+03  0.25500000920E-02 0.  1.
    10030    2    1    2    0    0  0.00000000000E+00  0.00000000000E+00  0.60632855057E+03  0.14155353031E+04  0.12791035466E+04 0.  0.
        5    1    3    3  502    0  0.28700392665E+03  0.26388686210E+03 -0.25785644668E+03  0.46746076520E+03  0.46999998093E+01 0.  1.
       -5    1    3    3    0  502 -0.28700392665E+03 -0.26388686210E+03  0.86418499725E+03  0.94807453788E+03  0.46999998093E+01 0. -1.
</event>
<event>
 5   0  0.2938349E-03  0.1206107E+04  0.7818609E-02  0.9107528E-01
        1   -1    0    0  501    0  0.00000000000E+00  0.00000000000E+00  0.37027082884E+03  0.37027082888E+03  0.50400001928E-02 0.  1.
       -1   -1    0    0    0  501  0.00000000000E+00  0.00000000000E+00 -0.98218266371E+03  0.98218266372E+03  0.50400001928E-02 0. -1.
    10030    2    1    2    0    0  0.00000000000E+00  0.00000000000E+00 -0.61191183486E+03  0.13524534926E+04  0.12061071080E+04 0.  0.
        4    1    3    3  502    0 -0.48669356846E+03 -0.30312435762E+03 -0.51549003131E+03  0.77102956561E+03  0.12699999809E+01 0. -1.
       -4    1    3    3    0  502  0.48669356846E+03  0.30312435762E+03 -0.96421803555E+02  0.58142392698E+03  0.12699999809E+01 0.  1.
</event>
<event>
 5   0  0.2938349E-03  0.1231890E+04  0.7818609E-02  0.9085392E-01
       -1   -1    0    0    0  501  0.00000000000E+00  0.00000000000E+00  0.11176293501E+04  0.11176293501E+04  0.50400001928E-02 0.  1.
        1   -1    0    0  501    0  0.00000000000E+00  0.00000000000E+00 -0.33945796241E+03  0.33945796244E+03  0.50400001928E-02 0. -1.
    10030    2    1    2    0    0  0.00000000000E+00  0.00000000000E+00  0.77817138765E+03  0.14570873125E+04  0.12318899008E+04 0.  0.
        4    1    3    3  502    0  0.57183032756E+03  0.22095244451E+03  0.31834770963E+03  0.69076536058E+03  0.12699999809E+01 0. -1.
       -4    1    3    3    0  502 -0.57183032756E+03 -0.22095244451E+03  0.45982367802E+03  0.76632195193E+03  0.12699999809E+01 0.  1.
</event>
<event>
 5   0  0.2875848E-03  0.1220136E+04  0.7818609E-02  0.9095412E-01
       -1   -1    0    0    0  501  0.00000000000E+00  0.00000000000E+00  0.13073888549E+04  0.13073888549E+04  0.50400001928E-02 0.  1.
        1   -1    0    0  501    0  0.00000000000E+00  0.00000000000E+00 -0.28467642212E+03  0.28467642216E+03  0.50400001928E-02 0. -1.
    10030    2    1    2    0    0  0.00000000000E+00  0.00000000000E+00  0.10227124328E+04  0.15920652771E+04  0.12201356999E+04 0.  0.
        1    1    3    3  502    0  0.31272492301E+01  0.31813076938E+03 -0.16786303753E+03  0.35971511716E+03  0.50400001928E-02 0. -1.
       -1    1    3    3    0  502 -0.31272492301E+01 -0.31813076938E+03  0.11905754703E+04  0.12323501599E+04  0.50400001928E-02 0.  1.
</event>
<event>
 5   0  0.2875848E-03  0.1182789E+04  0.7818609E-02  0.9128056E-01
        1   -1    0    0  501    0  0.00000000000E+00  0.00000000000E+00  0.83069494215E+03  0.83069494216E+03  0.50400001928E-02 0.  1.
       -1   -1    0    0    0  501  0.00000000000E+00  0.00000000000E+00 -0.42102984706E+03  0.42102984709E+03  0.50400001928E-02 0. -1.
    10030    2    1    2    0    0  0.00000000000E+00  0.00000000000E+00  0.40966509509E+03  0.12517247892E+04  0.11827888475E+04 0.  0.
        1    1    3    3  502    0  0.42493846092E+03 -0.32737016590E+03 -0.58684997860E+02  0.53961824477E+03  0.50400001928E-02 0.  1.
       -1    1    3    3    0  502 -0.42493846092E+03  0.32737016590E+03  0.46835009295E+03  0.71210654448E+03  0.50400001928E-02 0. -1.
</event>
<event>
 5   0  0.2792518E-03  0.1206974E+04  0.7818609E-02  0.9106774E-01
       -1   -1    0    0    0  501  0.00000000000E+00  0.00000000000E+00  0.68988196654E+03  0.68988196656E+03  0.50400001928E-02 0. -1.
        1   -1    0    0  501    0  0.00000000000E+00  0.00000000000E+00 -0.52791123912E+03  0.52791123914E+03  0.50400001928E-02 0.  1.
    10030    2    1    2    0    0  0.00000000000E+00  0.00000000000E+00  0.16197072743E+03  0.12177932057E+04  0.12069738089E+04 0.  0.
        2    1    3    3  502    0 -0.52225547445E+03  0.10346293640E+03 -0.20571153072E+03  0.57076491980E+03  0.25500000920E-02 0.  1.
       -2    1    3    3    0  502  0.52225547445E+03 -0.10346293640E+03  0.36768225815E+03  0.64702828590E+03  0.25500000920E-02 0. -1.
</event>
<event>
 5   0  0.2926844E-03  0.1209702E+04  0.7818609E-02  0.9104407E-01
        1   -1    0    0  501    0  0.00000000000E+00  0.00000000000E+00  0.76978406689E+03  0.76978406690E+03  0.50400001928E-02 0. -1.
       -1   -1    0    0    0  501  0.00000000000E+00  0.00000000000E+00 -0.47525593427E+03  0.47525593430E+03  0.50400001928E-02 0.  1.
    10030    2    1    2    0    0  0.00000000000E+00  0.00000000000E+00  0.29452813262E+03  0.12450400012E+04  0.12097015267E+04 0.  0.
        5    1    3    3  502    0 -0.29999058106E+03 -0.12841950211E+02  0.68763799471E+03  0.75035149508E+03  0.46999998093E+01 0. -1.
       -5    1    3    3    0  502  0.29999058106E+03  0.12841950211E+02 -0.39310986209E+03  0.49468850612E+03  0.46999998093E+01 0.  1.
</event>
<event>
 5   0  0.2792518E-03  0.1202179E+04  0.7818609E-02  0.9110951E-01
       -1   -1    0    0    0  501  0.00000000000E+00  0.00000000000E+00  0.21899867278E+03  0.21899867284E+03  0.50400001928E-02 0.  1.
        1   -1    0    0  501    0  0.00000000000E+00  0.00000000000E+00 -0.16498212211E+04  0.16498212211E+04  0.50400001928E-02 0. -1.
    10030    2    1    2    0    0  0.00000000000E+00  0.00000000000E+00 -0.14308225483E+04  0.18688198939E+04  0.12021791178E+04 0.  0.
        2    1    3    3  502    0 -0.29073892562E+03  0.34030629552E+03 -0.13391063364E+04  0.14119289210E+04  0.25500000920E-02 0. -1.
       -2    1    3    3    0  502  0.29073892562E+03 -0.34030629552E+03 -0.91716211893E+02  0.45689097296E+03  0.25500000920E-02 0.  1.
</event>
<event>
 5   0  0.5467554E-03  0.1053936E+04  0.7818609E-02  0.9251290E-01
        2   -1    0    0  501    0  0.00000000000E+00  0.00000000000E+00  0.11176421342E+04  0.11176421342E+04  0.25500000920E-02 0.  1.
       -2   -1    0    0    0  501  0.00000000000E+00  0.00000000000E+00 -0.24846526828E+03  0.24846526830E+03  0.25500000920E-02 0. -1.
    10030    2    1    2    0    0  0.00000000000E+00  0.00000000000E+00  0.86917686595E+03  0.13661074025E+04  0.10539359615E+04 0.  0.
        1    1    3    3  502    0  0.37049131997E+03  0.37461594632E+03  0.44717737781E+03  0.69106333477E+03  0.50400001928E-02 0. -1.
       -1    1    3    3    0  502 -0.37049131997E+03 -0.37461594632E+03  0.42199948814E+03  0.67504406776E+03  0.50400001928E-02 0.  1.
</event>
<event>
 5   0  0.5467554E-03  0.1201117E+04  0.7818609E-02  0.9111879E-01
       -2   -1    0    0    0  501  0.00000000000E+00  0.00000000000E+00  0.29725724228E+03  0.29725724229E+03  0.25500000920E-02 0. -1.
        2   -1    0    0  501    0  0.00000000000E+00  0.00000000000E+00 -0.12133280561E+04  0.12133280561E+04  0.25500000920E-02 0.  1.
    10030    2    1    2    0    0  0.00000000000E+00  0.00000000000E+00 -0.91607081378E+03  0.15105852984E+04  0.12011170666E+04 0.  0.
        1    1    3    3  502    0  0.58689943111E+03  0.12726239154E+03 -0.45188790405E+03  0.75156459229E+03  0.50400001928E-02 0. -1.
       -1    1    3    3    0  502 -0.58689943111E+03 -0.12726239154E+03 -0.46418290974E+03  0.75902070608E+03  0.50400001928E-02 0.  1.
</event>
<event>
 5   0  0.5003526E-03  0.1214768E+04  0.7818609E-02  0.9100028E-01
        2   -1    0    0  501    0  0.00000000000E+00  0.00000000000E+00  0.72001538067E+03  0.72001538067E+03  0.25500000920E-02 0.  1.
       -2   -1    0    0    0  501  0.00000000000E+00  0.00000000000E+00 -0.51237110238E+03  0.51237110238E+03  0.25500000920E-02 0. -1.
    10030    2    1    2    0    0  0.00000000000E+00  0.00000000000E+00  0.20764427829E+03  0.12323864831E+04  0.12147675898E+04 0.  0.
        2    1    3    3  502    0 -0.28129152512E+03 -0.22527072061E+03  0.59983390279E+03  0.69976605420E+03  0.25500000920E-02 0.  1.
       -2    1    3    3    0  502  0.28129152512E+03  0.22527072061E+03 -0.39218962450E+03  0.53262042886E+03  0.25500000920E-02 0. -1.
</event>
<event>
 5   0  0.2938349E-03  0.1176224E+04  0.7818609E-02  0.9133926E-01
        1   -1    0    0  501    0  0.00000000000E+00  0.00000000000E+00  0.80007348712E+03  0.80007348713E+03  0.50400001928E-02 0. -1.
       -1   -1    0    0    0  501  0.00000000000E+00  0.00000000000E+00 -0.43230499262E+03  0.43230499265E+03  0.50400001928E-02 0.  1.
    10030    2    1    2    0    0  0.00000000000E+00  0.00000000000E+00  0.36776849450E+03  0.12323784798E+04  0.11762240653E+04 0.  0.
        4    1    3    3  502    0  0.52808739672E+03  0.13233115522E+03 -0.49191245455E+02  0.54663445258E+03  0.12699999809E+01 0.  1.
       -4    1    3    3    0  502 -0.52808739672E+03 -0.13233115522E+03  0.41695973995E+03  0.68574402721E+03  0.12699999809E+01 0. -1.
</event>
<event>
 5   0  0.2938349E-03  0.1198327E+04  0.7818609E-02  0.9114322E-01
       -1   -1    0    0    0  501  0.00000000000E+00  0.00000000000E+00  0.54896423584E+03  0.54896423586E+03  0.50400001928E-02 0. -1.
        1   -1    0    0  501    0  0.00000000000E+00  0.00000000000E+00 -0.65395337071E+03  0.65395337073E+03  0.50400001928E-02 0.  1.
    10030    2    1    2    0    0  0.00000000000E+00  0.00000000000E+00 -0.10498913486E+03  0.12029176066E+04  0.11983271881E+04 0.  0.
        4    1    3    3  502    0 -0.87287808040E+02  0.59237283285E+03 -0.30716645868E+02  0.59955805371E+03  0.12699999809E+01 0. -1.
       -4    1    3    3    0  502  0.87287808040E+02 -0.59237283285E+03 -0.74272488996E+02  0.60335955288E+03  0.12699999809E+01 0.  1.
</event>
<event>
 5   0  0.2875848E-03  0.1219237E+04  0.7818609E-02  0.9096183E-01
        1   -1    0    0  501    0  0.00000000000E+00  0.00000000000E+00  0.10092528942E+04  0.10092528943E+04  0.50400001928E-02 0. -1.
       -1   -1    0    0    0  501  0.00000000000E+00  0.00000000000E+00 -0.36822777092E+03  0.36822777095E+03  0.50400001928E-02 0.  1.
    10030    2    1    2    0    0  0.00000000000E+00  0.00000000000E+00  0.64102512333E+03  0.13774806652E+04  0.12192373741E+04 0.  0.
        1    1    3    3  502    0 -0.13058610293E+02  0.60790460749E+03  0.36997104890E+03  0.71175636011E+03  0.50400001928E-02 0.  1.
       -1    1    3    3    0  502  0.13058610293E+02 -0.60790460749E+03  0.27105407443E+03  0.66572430510E+03  0.50400001928E-02 0. -1.
</event>
<event>
 5   0  0.2792518E-03  0.1201664E+04  0.7818609E-02  0.9111402E-01
        1   -1    0    0  501    0  0.00000000000E+00  0.00000000000E+00  0.11805775240E+04  0.11805775241E+04  0.50400001928E-02 0.  1.
       -1   -1    0    0    0  501  0.00000000000E+00  0.00000000000E+00 -0.30578154916E+03  0.30578154920E+03  0.50400001928E-02 0. -1.
    10030    2    1    2    0    0  0.00000000000E+00  0.00000000000E+00  0.87479597488E+03  0.14863590733E+04  0.12016635540E+04 0.  0.
        2    1    3    3  502    0  0.11389432845E+02 -0.43793744752E+03 -0.71214286707E+02  0.44383600773E+03  0.25500000920E-02 0. -1.
       -2    1    3    3    0  502 -0.11389432845E+02  0.43793744752E+03  0.94601026159E+03  0.10425230655E+04  0.25500000920E-02 0.  1.
</event>
<event>
 5   0  0.2792518E-03  0.1276895E+04  0.7818609E-02  0.9048091E-01
        1   -1    0    0  501    0  0.00000000000E+00  0.00000000000E+00  0.12152973014E+04  0.12152973014E+04  0.50400001928E-02 0. -1.
       -1   -1    0    0    0  501  0.00000000000E+00  0.00000000000E+00 -0.33540381313E+03  0.33540381317E+03  0.50400001928E-02 0.  1.
    10030    2    1    2    0    0  0.00000000000E+00  0.00000000000E+00  0.87989348823E+03  0.15507011145E+04  0.12768952173E+04 0.  0.
        2    1    3    3  502    0  0.37133323305E+02  0.38751976406E+03 -0.17459001073E+03  0.42665222734E+03  0.25500000920E-02 0.  1.
       -2    1    3    3    0  502 -0.37133323305E+02 -0.38751976406E+03  0.10544834990E+04  0.11240488872E+04  0.25500000920E-02 0. -1.
</event>
<event>
 5   0  0.5108045E-03  0.1173163E+04  0.7818609E-02  0.9136677E-01
       -2   -1    0    0    0  501  0.00000000000E+00  0.00000000000E+00  0.22395651777E+03  0.22395651778E+03  0.25500000920E-02 0. -1.
        2   -1    0    0  501    0  0.00000000000E+00  0.00000000000E+00 -0.15363596824E+04  0.15363596824E+04  0.25500000920E-02 0.  1.
    10030    2    1    2    0    0  0.00000000000E+00  0.00000000000E+00 -0.13124031647E+04  0.17603162002E+04  0.11731628438E+04 0.  0.
        3    1    3    3  502    0  0.34955293643E+02 -0.58450507692E+03 -0.70838958275E+03  0.91906684667E+03  0.10100000352E+00 0. -1.
       -3    1    3    3    0  502 -0.34955293643E+02  0.58450507692E+03 -0.60401358190E+03  0.84124935354E+03  0.10100000352E+00 0.  1.
</event>
<event>
 5   0  0.5467554E-03  0.1148910E+04  0.7818609E-02  0.9158789E-01
        2   -1    0    0  501    0  0.00000000000E+00  0.00000000000E+00  0.14990996806E+04  0.14990996806E+04  0.25500000920E-02 0. -1.
       -2   -1    0    0    0  501  0.00000000000E+00  0.00000000000E+00 -0.22013126472E+03  0.22013126474E+03  0.25500000920E-02 0.  1.
    10030    2    1    2    0    0  0.00000000000E+00  0.00000000000E+00  0.12789684159E+04  0.17192309453E+04  0.11489102813E+04 0.  0.
        1    1    3    3  502    0  0.20088141716E+02  0.55944983201E+03  0.44662215480E+03  0.71614174376E+03  0.50400001928E-02 0.  1.
       -1    1    3    3    0  502 -0.20088141716E+02 -0.55944983201E+03  0.83234626106E+03  0.10030892016E+04  0.50400001928E-02 0. -1.
</event>
<event>
 5   0  0.5108045E-03  0.1188461E+04  0.7818609E-02  0.9123017E-01
        2   -1    0    0  501    0  0.00000000000E+00  0.00000000000E+00  0.99388223482E+03  0.99388223483E+03  0.25500000920E-02 0. -1.
       -2   -1    0    0    0  501  0.00000000000E+00  0.00000000000E+00 -0.35528363923E+03  0.35528363924E+03  0.25500000920E-02 0.  1.
    10030    2    1    2    0    0  0.00000000000E+00  0.00000000000E+00  0.63859859559E+03  0.13491658741E+04  0.11884613538E+04 0.  0.
        3    1    3    3  502    0 -0.56476275856E+03  0.18283030504E+03  0.34989119358E+03  0.68906295173E+03  0.10100000352E+00 0. -1.
       -3    1    3    3    0  502  0.56476275856E+03 -0.18283030504E+03  0.28870740200E+03  0.66010292234E+03  0.10100000352E+00 0.  1.
</event>
<event>
 5   0  0.2875848E-03  0.1233951E+04  0.7818609E-02  0.9083648E-01
       -1   -1    0    0    0  501  0.00000000000E+00  0.00000000000E+00  0.20762789847E+03  0.20762789853E+03  0.50400001928E-02 0. -1.
        1   -1    0    0  501    0  0.00000000000E+00  0.00000000000E+00 -0.18333690248E+04  0.18333690248E+04  0.50400001928E-02 0.  1.
    10030    2    1    2    0    0  0.00000000000E+00  0.00000000000E+00 -0.16257411263E+04  0.20409969233E+04  0.12339506599E+04 0.  0.
        1    1    3    3  502    0  0.23748741897E+03  0.39192804476E+03 -0.14961503627E+04  0.15647599734E+04  0.50400001928E-02 0.  1.
       -1    1    3    3    0  502 -0.23748741897E+03 -0.39192804476E+03 -0.12959076361E+03  0.47623694993E+03  0.50400001928E-02 0. -1.
</event>
<event>
 5   0  0.5003526E-03  0.1213493E+04  0.7818609E-02  0.9101128E-01
        2   -1    0    0  501    0  0.00000000000E+00  0.00000000000E+00  0.13004361150E+04  0.13004361150E+04  0.25500000920E-02 0.  1.
       -2   -1    0    0    0  501  0.00000000000E+00  0.00000000000E+00 -0.28309046758E+03  0.28309046759E+03  0.25500000920E-02 0. -1.
    10030    2    1    2    0    0  0.00000000000E+00  0.00000000000E+00  0.10173456474E+04  0.15835265825E+04  0.12134925922E+04 0.  0.
        2    1    3    3  502    0  0.32555295529E+03 -0.39548521673E+03  0.84323155059E+02  0.51913743636E+03  0.25500000920E-02 0. -1.
       -2    1    3    3    0  502 -0.32555295529E+03  0.39548521673E+03  0.93302249232E+03  0.10643891462E+04  0.25500000920E-02 0.  1.
</event>
<event>
 5   0  0.5003526E-03  0.1186246E+04  0.7818609E-02  0.9124981E-01
        2   -1    0    0  501    0  0.00000000000E+00  0.00000000000E+00  0.27033996831E+03  0.27033996832E+03  0.25500000920E-02 0. -1.
       -2   -1    0    0    0  501  0.00000000000E+00  0.00000000000E+00 -0.13013063048E+04  0.13013063049E+04  0.25500000920E-02 0.  1.
    10030    2    1    2    0    0  0.00000000000E+00  0.00000000000E+00 -0.10309663365E+04  0.15716462732E+04  0.11862463576E+04 0.  0.
        2    1    3    3  502    0  0.98938569912E+02 -0.28487080268E+03 -0.11921570387E+04  0.12297067210E+04  0.25500000920E-02 0.  1.
       -2    1    3    3    0  502 -0.98938569912E+02  0.28487080268E+03  0.16119070217E+03  0.34193955213E+03  0.25500000920E-02 0. -1.
</event>
<event>
 5   0  0.2875848E-03  0.1169805E+04  0.7818609E-02  0.9139704E-01
        1   -1    0    0  501    0  0.00000000000E+00  0.00000000000E+00  0.45453352346E+03  0.45453352349E+03  0.50400001928E-02 0.  1.
       -1   -1    0    0    0  501  0.00000000000E+00  0.00000000000E+00 -0.75266400261E+03  0.75266400263E+03  0.50400001928E-02 0. -1.
    10030    2    1    2    0    0  0.00000000000E+00  0.00000000000E+00 -0.29813047915E+03  0.12071975261E+04  0.11698051481E+04 0.  0.
        1    1    3    3  502    0 -0.94633574583E+02 -0.19018095304E+03 -0.71144970808E+03  0.74248568706E+03  0.50400001928E-02 0. -1.
       -1    1    3    3    0  502  0.94633574583E+02  0.19018095304E+03  0.41331922893E+03  0.46471183906E+03  0.50400001928E-02 0.  1.
</event>
<event>
 5   0  0.2938349E-03  0.1218214E+04  0.7818609E-02  0.9097061E-01
        1   -1    0    0  501    0  0.00000000000E+00  0.00000000000E+00  0.26378751237E+03  0.26378751241E+03  0.50400001928E-02 0. -1.
       -1   -1    0    0    0  501  0.00000000000E+00  0.00000000000E+00 -0.14064791440E+04  0.14064791440E+04  0.50400001928E-02 0.  1.
    10030    2    1    2    0    0  0.00000000000E+00  0.00000000000E+00 -0.11426916317E+04  0.16702666564E+04  0.12182144879E+04 0.  0.
        4    1    3    3  502    0 -0.26006366421E+03 -0.17422907187E+03  0.14506179558E+03  0.34501219741E+03  0.12699999809E+01 0. -1.
       -4    1    3    3    0  502  0.26006366421E+03  0.17422907187E+03 -0.12877534272E+04  0.13252544590E+04  0.12699999809E+01 0.  1.
</event>
<event>
 5   0  0.2926844E-03  0.8037394E+03  0.7818609E-02  0.9554620E-01
        1   -1    0    0  501    0  0.00000000000E+00  0.00000000000E+00  0.16458173775E+04  0.16458173775E+04  0.50400001928E-02 0.  1.
       -1   -1    0    0    0  501  0.00000000000E+00  0.00000000000E+00 -0.98127083739E+02  0.98127083868E+02  0.50400001928E-02 0. -1.
    10030    2    1    2    0    0  0.00000000000E+00  0.00000000000E+00  0.15476902937E+04  0.17439444613E+04  0.80373940985E+03 0.  0.
        5    1    3    3  502    0 -0.34683422702E+03  0.73066195916E+02  0.36304672247E+03  0.50740286037E+03  0.46999998093E+01 0. -1.
       -5    1    3    3    0  502  0.34683422702E+03 -0.73066195916E+02  0.11846435713E+04  0.12365416010E+04  0.46999998093E+01 0.  1.
</event>
<event>
 5   0  0.5189537E-03  0.1205467E+04  0.7818609E-02  0.9108085E-01
        2   -1    0    0  501    0  0.00000000000E+00  0.00000000000E+00  0.16838518811E+04  0.16838518811E+04  0.25500000920E-02 0.  1.
       -2   -1    0    0    0  501  0.00000000000E+00  0.00000000000E+00 -0.21574806648E+03  0.21574806649E+03  0.25500000920E-02 0. -1.
    10030    2    1    2    0    0  0.00000000000E+00  0.00000000000E+00  0.14681038146E+04  0.18995999476E+04  0.12054671917E+04 0.  0.
        4    1    3    3  502    0  0.17423227253E+03 -0.54643882599E+03  0.10260421364E+04  0.11754643141E+04  0.12699999809E+01 0.  1.
       -4    1    3    3    0  502 -0.17423227253E+03  0.54643882599E+03  0.44206167826E+03  0.72413563344E+03  0.12699999809E+01 0. -1.
</event>
<event>
 5   0  0.2926844E-03  0.1193732E+04  0.7818609E-02  0.9118361E-01
       -1   -1    0    0    0  501  0.00000000000E+00  0.00000000000E+00  0.65552211406E+03  0.65552211408E+03  0.50400001928E-02 0. -1.
        1   -1    0    0  501    0  0.00000000000E+00  0.00000000000E+00 -0.54345802969E+03  0.54345802971E+03  0.50400001928E-02 0.  1.
    10030    2    1    2    0    0  0.00000000000E+00  0.00000000000E+00  0.11206408437E+03  0.11989801438E+04  0.11937315553E+04 0.  0.
        5    1    3    3  502    0  0.32408114875E+03  0.12804786398E+03  0.54272610257E+03  0.64497950266E+03  0.46999998093E+01 0.  1.
       -5    1    3    3    0  502 -0.32408114875E+03 -0.12804786398E+03 -0.43066201821E+03  0.55400064113E+03  0.46999998093E+01 0. -1.
</event>
<event>
 5   0  0.5108045E-03  0.1255674E+04  0.7818609E-02  0.9065474E-01
       -2   -1    0    0    0  501  0.00000000000E+00  0.00000000000E+00  0.49070107915E+03  0.49070107916E+03  0.25500000920E-02 0. -1.
        2   -1    0    0  501    0  0.00000000000E+00  0.00000000000E+00 -0.80329814039E+03  0.80329814039E+03  0.25500000920E-02 0.  1.
    10030    2    1    2    0    0  0.00000000000E+00  0.00000000000E+00 -0.31259706123E+03  0.12939992196E+04  0.12556739455E+04 0.  0.
        3    1    3    3  502    0  0.23750520119E+03  0.42506260094E+02 -0.75361342246E+03  0.79129558538E+03  0.10100000352E+00 0.  1.
       -3    1    3    3    0  502 -0.23750520119E+03 -0.42506260094E+02  0.44101636123E+03  0.50270363417E+03  0.10100000352E+00 0. -1.
</event>
<event>
 5   0  0.2926844E-03  0.1152803E+04  0.7818609E-02  0.9155201E-01
        1   -1    0    0  501    0  0.00000000000E+00  0.00000000000E+00  0.31671900809E+03  0.31671900813E+03  0.50400001928E-02 0. -1.
       -1   -1    0    0    0  501  0.00000000000E+00  0.00000000000E+00 -0.10490017747E+04  0.10490017747E+04  0.50400001928E-02 0.  1.
    10030    2    1    2    0    0  0.00000000000E+00  0.00000000000E+00 -0.73228276662E+03  0.13657207829E+04  0.11528031950E+04 0.  0.
        5    1    3    3  502    0 -0.37727660070E+03 -0.28824667395E+03 -0.75329026071E+03  0.89044488058E+03  0.46999998093E+01 0.  1.
       -5    1    3    3    0  502  0.37727660070E+03  0.28824667395E+03  0.21007494095E+02  0.47527590227E+03  0.46999998093E+01 0. -1.
</event>
<event>
 5   0  0.2930868E-03  0.1203999E+04  0.7818609E-02  0.9109364E-01
       -1   -1    0    0    0  501  0.00000000000E+00  0.00000000000E+00  0.28373278619E+03  0.28373278624E+03  0.50400001928E-02 0.  1.
        1   -1    0    0  501    0  0.00000000000E+00  0.00000000000E+00 -0.12772690261E+04  0.12772690261E+04  0.50400001928E-02 0. -1.
    10030    2    1    2    0    0  0.00000000000E+00  0.00000000000E+00 -0.99353623991E+03  0.15610018124E+04  0.12039985042E+04 0.  0.
        3    1    3    3  502    0  0.43065659644E+03 -0.18492219131E+03 -0.69295298727E+01  0.46873163909E+03  0.10100000352E+00 0.  1.
       -3    1    3    3    0  502 -0.43065659644E+03  0.18492219131E+03 -0.98660671004E+03  0.10922701733E+04  0.10100000352E+00 0. -1.
</event>
<event>
 5   0  0.2930868E-03  0.1201556E+04  0.7818609E-02  0.9111496E-01
        1   -1    0    0  501    0  0.00000000000E+00  0.00000000000E+00  0.16187575307E+04  0.16187575307E+04  0.50400001928E-02 0.  1.
       -1   -1    0    0    0  501  0.00000000000E+00  0.00000000000E+00 -0.22296972507E+03  0.22296972513E+03  0.50400001928E-02 0. -1.
    10030    2    1    2    0    0  0.00000000000E+00  0.00000000000E+00  0.13957878056E+04  0.18417272558E+04  0.12015555279E+04 0.  0.
        3    1    3    3  502    0 -0.17958450125E+03 -0.86778369958E+02  0.15665289501E+04  0.15791751139E+04  0.10100000352E+00 0.  1.
       -3    1    3    3    0  502  0.17958450125E+03  0.86778369958E+02 -0.17074114453E+03  0.26255214190E+03  0.10100000352E+00 0. -1.
</event>
<event>
 5   0  0.2926844E-03  0.1221713E+04  0.7818609E-02  0.9094061E-01
       -1   -1    0    0    0  501  0.00000000000E+00  0.00000000000E+00  0.36430181068E+03  0.36430181072E+03  0.50400001928E-02 0. -1.
        1   -1    0    0  501    0  0.00000000000E+00  0.00000000000E+00 -0.10242762876E+04  0.10242762876E+04  0.50400001928E-02 0.  1.
    10030    2    1    2    0    0  0.00000000000E+00  0.00000000000E+00 -0.65997447688E+03  0.13885780983E+04  0.12217130698E+04 0.  0.
        5    1    3    3  502    0  0.29429192301E+03  0.10667743926E+03  0.26618897736E+03  0.41093366090E+03  0.46999998093E+01 0. -1.
       -5    1    3    3    0  502 -0.29429192301E+03 -0.10667743926E+03 -0.92616345424E+03  0.97764443739E+03  0.46999998093E+01 0.  1.
</event>
<event>
 5   0  0.5189537E-03  0.1170037E+04  0.7818609E-02  0.9139495E-01
       -2   -1    0    0    0  501  0.00000000000E+00  0.00000000000E+00  0.53548906476E+03  0.53548906476E+03  0.25500000920E-02 0.  1.
        2   -1    0    0  501    0  0.00000000000E+00  0.00000000000E+00 -0.63912907720E+03  0.63912907721E+03  0.25500000920E-02 0. -1.
    10030    2    1    2    0    0  0.00000000000E+00  0.00000000000E+00 -0.10364001245E+03  0.11746181420E+04  0.11700369769E+04 0.  0.
        4    1    3    3  502    0 -0.40179463197E+02 -0.58324908602E+03 -0.73143068095E+02  0.58919046743E+03  0.12699999809E+01 0. -1.
       -4    1    3    3    0  502  0.40179463197E+02  0.58324908602E+03 -0.30496944353E+02  0.58542767454E+03  0.12699999809E+01 0.  1.
</event>
<event>
 5   0  0.5108045E-03  0.1163121E+04  0.7818609E-02  0.9145764E-01
        2   -1    0    0  501    0  0.00000000000E+00  0.00000000000E+00  0.15285068659E+04  0.15285068659E+04  0.25500000920E-02 0.  1.
       -2   -1    0    0    0  501  0.00000000000E+00  0.00000000000E+00 -0.22126977464E+03  0.22126977466E+03  0.25500000920E-02 0. -1.
    10030    2    1    2    0    0  0.00000000000E+00  0.00000000000E+00  0.13072370912E+04  0.17497766405E+04  0.11631205780E+04 0.  0.
        3    1    3    3  502    0 -0.10110068102E+03 -0.47345858807E+03  0.16887161072E+03  0.51273971313E+03  0.10100000352E+00 0. -1.
       -3    1    3    3    0  502  0.10110068102E+03  0.47345858807E+03  0.11383654805E+04  0.12370369274E+04  0.10100000352E+00 0.  1.
</event>
<event>
 5   0  0.5003526E-03  0.1266571E+04  0.7818609E-02  0.9056503E-01
        2   -1    0    0  501    0  0.00000000000E+00  0.00000000000E+00  0.11257528433E+04  0.11257528433E+04  0.25500000920E-02 0. -1.
       -2   -1    0    0    0  501  0.00000000000E+00  0.00000000000E+00 -0.35625077350E+03  0.35625077351E+03  0.25500000920E-02 0.  1.
    10030    2    1    2    0    0  0.00000000000E+00  0.00000000000E+00  0.76950206981E+03  0.14820036168E+04  0.12665706790E+04 0.  0.
        2    1    3    3  502    0 -0.22514120105E+03  0.45231340481E+02  0.10753190751E+04  0.10995660725E+04  0.25500000920E-02 0. -1.
       -2    1    3    3    0  502  0.22514120105E+03 -0.45231340481E+02 -0.30581700528E+03  0.38243754431E+03  0.25500000920E-02 0.  1.
</event>
<event>
 5   0  0.5467554E-03  0.1179016E+04  0.7818609E-02  0.9131425E-01
       -2   -1    0    0    0  501  0.00000000000E+00  0.00000000000E+00  0.21877952339E+03  0.21877952340E+03  0.25500000920E-02 0. -1.
        2   -1    0    0  501    0  0.00000000000E+00  0.00000000000E+00 -0.15884470556E+04  0.15884470556E+04  0.25500000920E-02 0.  1.
    10030    2    1    2    0    0  0.00000000000E+00  0.00000000000E+00 -0.13696675322E+04  0.18072265790E+04  0.11790160131E+04 0.  0.
        1    1    3    3  502    0 -0.22815276461E+03  0.46754905904E+03 -0.25986788649E+03  0.58153858433E+03  0.50400001928E-02 0. -1.
       -1    1    3    3    0  502  0.22815276461E+03 -0.46754905904E+03 -0.11097996457E+04  0.12256879947E+04  0.50400001928E-02 0.  1.
</event>
<event>
 5   0  0.5031575E-03  0.1185255E+04  0.7818609E-02  0.9125862E-01
        2   -1    0    0  501    0  0.00000000000E+00  0.00000000000E+00  0.10520441552E+04  0.10520441552E+04  0.25500000920E-02 0.  1.
       -2   -1    0    0    0  501  0.00000000000E+00  0.00000000000E+00 -0.33383303190E+03  0.33383303191E+03  0.25500000920E-02 0. -1.
    10030    2    1    2    0    0  0.00000000000E+00  0.00000000000E+00  0.71821112326E+03  0.13858771871E+04  0.11852545550E+04 0.  0.
        5    1    3    3  502    0  0.27250691499E+03 -0.20412069945E+03  0.92624115192E+03  0.98684853963E+03  0.46999998093E+01 0.  1.
       -5    1    3    3    0  502 -0.27250691499E+03  0.20412069945E+03 -0.20803002866E+03  0.39902864744E+03  0.46999998093E+01 0. -1.
</event>
<event>
 5   0  0.5108045E-03  0.1202130E+04  0.7818609E-02  0.9110994E-01
        2   -1    0    0  501    0  0.00000000000E+00  0.00000000000E+00  0.60092624422E+03  0.60092624423E+03  0.25500000920E-02 0. -1.
       -2   -1    0    0    0  501  0.00000000000E+00  0.00000000000E+00 -0.60120386575E+03  0.60120386576E+03  0.25500000920E-02 0.  1.
    10030    2    1    2    0    0  0.00000000000E+00  0.00000000000E+00 -0.27762152867E+00  0.12021301100E+04  0.12021300779E+04 0.  0.
        3    1    3    3  502    0  0.34270630053E+03  0.14492368475E+03 -0.47218616000E+03  0.60117407024E+03  0.10100000352E+00 0. -1.
       -3    1    3    3    0  502 -0.34270630053E+03 -0.14492368475E+03  0.47190853848E+03  0.60095603975E+03  0.10100000352E+00 0.  1.
</event>
<event>
 5   0  0.2875848E-03  0.1186728E+04  0.7818609E-02  0.9124554E-01
       -1   -1    0    0    0  501  0.00000000000E+00  0.00000000000E+00  0.46016796707E+03  0.46016796710E+03  0.50400001928E-02 0. -1.
        1   -1    0    0  501    0  0.00000000000E+00  0.00000000000E+00 -0.76511360094E+03  0.76511360095E+03  0.50400001928E-02 0.  1.
    10030    2    1    2    0    0  0.00000000000E+00  0.00000000000E+00 -0.30494563387E+03  0.12252815680E+04  0.11867278885E+04 0.  0.
        1    1    3    3  502    0  0.30700901364E+03  0.27088100859E+02  0.37104254593E+03  0.48234932422E+03  0.50400001928E-02 0. -1.
       -1    1    3    3    0  502 -0.30700901364E+03 -0.27088100859E+02 -0.67598817980E+03  0.74293224383E+03  0.50400001928E-02 0.  1.
</event>
<event>
 5   0  0.2930868E-03  0.9416682E+03  0.7818609E-02  0.9374943E-01
        1   -1    0    0  501    0  0.00000000000E+00  0.00000000000E+00  0.74857297371E+03  0.74857297373E+03  0.50400001928E-02 0. -1.
       -1   -1    0    0    0  501  0.00000000000E+00  0.00000000000E+00 -0.29614311870E+03  0.29614311875E+03  0.50400001928E-02 0.  1.
    10030    2    1    2    0    0  0.00000000000E+00  0.00000000000E+00  0.45242985501E+03  0.10447160925E+04  0.94166816882E+03 0.  0.
        3    1    3    3  502    0  0.34951858073E+03 -0.25487801232E+03  0.43245782486E+03  0.61167460297E+03  0.10100000352E+00 0. -1.
       -3    1    3    3    0  502 -0.34951858073E+03  0.25487801232E+03  0.19972030142E+02  0.43304148950E+03  0.10100000352E+00 0.  1.
</event>
<event>
 5   0  0.2926844E-03  0.1213862E+04  0.7818609E-02  0.9100809E-01
        1   -1    0    0  501    0  0.00000000000E+00  0.00000000000E+00  0.59220982570E+03  0.59220982573E+03  0.50400001928E-02 0.  1.
       -1   -1    0    0    0  501  0.00000000000E+00  0.00000000000E+00 -0.62201783253E+03  0.62201783255E+03  0.50400001928E-02 0. -1.
    10030    2    1    2    0    0  0.00000000000E+00  0.00000000000E+00 -0.29808006822E+02  0.12142276583E+04  0.12138617256E+04 0.  0.
        5    1    3    3  502    0  0.47234980946E+03 -0.37277609080E+03 -0.94089890448E+02  0.60905775905E+03  0.46999998093E+01 0. -1.
       -5    1    3    3    0  502 -0.47234980946E+03  0.37277609080E+03  0.64281883625E+02  0.60516989923E+03  0.46999998093E+01 0.  1.
</event>
<event>
 5   0  0.2930868E-03  0.1137921E+04  0.7818609E-02  0.9169000E-01
       -1   -1    0    0    0  501  0.00000000000E+00  0.00000000000E+00  0.32685984926E+03  0.32685984930E+03  0.50400001928E-02 0.  1.
        1   -1    0    0  501    0  0.00000000000E+00  0.00000000000E+00 -0.99038177003E+03  0.99038177004E+03  0.50400001928E-02 0. -1.
    10030    2    1    2    0    0  0.00000000000E+00  0.00000000000E+00 -0.66352192077E+03  0.13172416193E+04  0.11379209746E+04 0.  0.
        3    1    3    3  502    0 -0.33119679207E+03 -0.44072258749E+03 -0.49459969273E+03  0.74064605613E+03  0.10100000352E+00 0. -1.
       -3    1    3    3    0  502  0.33119679207E+03  0.44072258749E+03 -0.16892222803E+03  0.57659556322E+03  0.10100000352E+00 0.  1.
</event>
<event>
 5   0  0.5003526E-03  0.1255629E+04  0.7818609E-02  0.9065511E-01
        2   -1    0    0  501    0  0.00000000000E+00  0.00000000000E+00  0.13505331437E+04  0.13505331437E+04  0.25500000920E-02 0.  1.
       -2   -1    0    0    0  501  0.00000000000E+00  0.00000000000E+00 -0.29184854683E+03  0.29184854684E+03  0.25500000920E-02 0. -1.
    10030    2    1    2    0    0  0.00000000000E+00  0.00000000000E+00  0.10586845968E+04  0.16423816905E+04  0.12556291418E+04 0.  0.
        2    1    3    3  502    0 -0.44978697206E+03  0.42985897825E+03  0.63927839910E+03  0.89205601448E+03  0.25500000920E-02 0.  1.
       -2    1    3    3    0  502  0.44978697206E+03 -0.42985897825E+03  0.41940619774E+03  0.75032567603E+03  0.25500000920E-02 0. -1.
</event>
<event>
 5   0  0.5108045E-03  0.1199055E+04  0.7818609E-02  0.9113684E-01
       -2   -1    0    0    0  501  0.00000000000E+00  0.00000000000E+00  0.82461719146E+03  0.82461719146E+03  0.25500000920E-02 0.  1.
        2   -1    0    0  501    0  0.00000000000E+00  0.00000000000E+00 -0.43587875757E+03  0.43587875758E+03  0.25500000920E-02 0. -1.
    10030    2    1    2    0    0  0.00000000000E+00  0.00000000000E+00  0.38873843388E+03  0.12604959490E+04  0.11990548226E+04 0.  0.
        3    1    3    3  502    0 -0.17395818789E+03  0.12634726868E+03  0.78269631661E+03  0.81168874433E+03  0.10100000352E+00 0.  1.
       -3    1    3    3    0  502  0.17395818789E+03 -0.12634726868E+03 -0.39395788273E+03  0.44880720471E+03  0.10100000352E+00 0. -1.
</event>
<event>
 5   0  0.2930868E-03  0.1244265E+04  0.7818609E-02  0.9074970E-01
        1   -1    0    0  501    0  0.00000000000E+00  0.00000000000E+00  0.18350428118E+04  0.18350428118E+04  0.50400001928E-02 0.  1.
       -1   -1    0    0    0  501  0.00000000000E+00  0.00000000000E+00 -0.21092084748E+03  0.21092084754E+03  0.50400001928E-02 0. -1.
    10030    2    1    2    0    0  0.00000000000E+00  0.00000000000E+00  0.16241219644E+04  0.20459636594E+04  0.12442648996E+04 0.  0.
        3    1    3    3  502    0  0.71131376687E+02  0.59972606448E+03  0.56641465950E+03  0.82798345507E+03  0.10100000352E+00 0. -1.
       -3    1    3    3    0  502 -0.71131376687E+02 -0.59972606448E+03  0.10577073049E+04  0.12179802043E+04  0.10100000352E+00 0.  1.
</event>
<event>
 5   0  0.2792518E-03  0.1194843E+04  0.7818609E-02  0.9117382E-01
        1   -1    0    0  501    0  0.00000000000E+00  0.00000000000E+00  0.45200487170E+03  0.45200487173E+03  0.50400001928E-02 0.  1.
       -1   -1    0    0    0  501  0.00000000000E+00  0.00000000000E+00 -0.78962087180E+03  0.78962087181E+03  0.50400001928E-02 0. -1.
    10030    2    1    2    0    0  0.00000000000E+00  0.00000000000E+00 -0.33761600010E+03  0.12416257435E+04  0.11948430539E+04 0.  0.
        2    1    3    3  502    0  0.42561403134E+03  0.14700812951E+03 -0.57680497639E+03  0.73175315142E+03  0.25500000920E-02 0. -1.
       -2    1    3    3    0  502 -0.42561403134E+03 -0.14700812951E+03  0.23918897629E+03  0.50987259213E+03  0.25500000920E-02 0.  1.
</event>
<event>
 5   0  0.5003526E-03  0.1205966E+04  0.7818609E-02  0.9107651E-01
        2   -1    0    0  501    0  0.00000000000E+00  0.00000000000E+00  0.96079764408E+03  0.96079764408E+03  0.25500000920E-02 0. -1.
       -2   -1    0    0    0  501  0.00000000000E+00  0.00000000000E+00 -0.37842334561E+03  0.37842334562E+03  0.25500000920E-02 0.  1.
    10030    2    1    2    0    0  0.00000000000E+00  0.00000000000E+00  0.58237429847E+03  0.13392209897E+04  0.12059656030E+04 0.  0.
        2    1    3    3  502    0 -0.54915555749E+03 -0.88170522749E+02  0.54982181891E+03  0.78208049455E+03  0.25500000920E-02 0. -1.
       -2    1    3    3    0  502  0.54915555749E+03  0.88170522749E+02  0.32552479564E+02  0.55714049515E+03  0.25500000920E-02 0.  1.
</event>
<event>
 5   0  0.2938349E-03  0.1111963E+04  0.7818609E-02  0.9193610E-01
       -1   -1    0    0    0  501  0.00000000000E+00  0.00000000000E+00  0.23893147324E+03  0.23893147329E+03  0.50400001928E-02 0.  1.
        1   -1    0    0  501    0  0.00000000000E+00  0.00000000000E+00 -0.12937410626E+04  0.12937410626E+04  0.50400001928E-02 0. -1.
    10030    2    1    2    0    0  0.00000000000E+00  0.00000000000E+00 -0.10548095893E+04  0.15326725359E+04  0.11119630535E+04 0.  0.
        4    1    3    3  502    0  0.38711302384E+03  0.35932797466E+03 -0.28810842652E+03  0.60164870558E+03  0.12699999809E+01 0.  1.
       -4    1    3    3    0  502 -0.38711302384E+03 -0.35932797466E+03 -0.76670116281E+03  0.93102383028E+03  0.12699999809E+01 0. -1.
</event>
<event>
 5   0  0.5467554E-03  0.1221732E+04  0.7818609E-02  0.9094044E-01
       -2   -1    0    0    0  501  0.00000000000E+00  0.00000000000E+00  0.30368113532E+03  0.30368113533E+03  0.25500000920E-02 0. -1.
        2   -1    0    0  501    0  0.00000000000E+00  0.00000000000E+00 -0.12287797998E+04  0.12287797998E+04  0.25500000920E-02 0.  1.
    10030    2    1    2    0    0  0.00000000000E+00  0.00000000000E+00 -0.92509866446E+03  0.15324609351E+04  0.12217319586E+04 0.  0.
        1    1    3    3  502    0  0.46030933098E+03 -0.38654934009E+03 -0.32599280836E+03  0.68379557152E+03  0.50400001928E-02 0. -1.
       -1    1    3    3    0  502 -0.46030933098E+03  0.38654934009E+03 -0.59910585610E+03  0.84866536358E+03  0.50400001928E-02 0.  1.
</event>
<event>
 5   0  0.2938349E-03  0.1300841E+04  0.7818609E-02  0.9028899E-01
       -1   -1    0    0    0  501  0.00000000000E+00  0.00000000000E+00  0.48700786478E+03  0.48700786480E+03  0.50400001928E-02 0. -1.
        1   -1    0    0  501    0  0.00000000000E+00  0.00000000000E+00 -0.86866527630E+03  0.86866527632E+03  0.50400001928E-02 0.  1.
    10030    2    1    2    0    0  0.00000000000E+00  0.00000000000E+00 -0.38165741153E+03  0.13556731411E+04  0.13008409917E+04 0.  0.
        4    1    3    3  502    0 -0.29515063277E+03 -0.47913814191E+03  0.14904358920E+03  0.58215363903E+03  0.12699999809E+01 0. -1.
       -4    1    3    3    0  502  0.29515063277E+03  0.47913814191E+03 -0.53070100072E+03  0.77351950209E+03  0.12699999809E+01 0.  1.
</event>
<event>
 5   0  0.2930868E-03  0.1193453E+04  0.7818609E-02  0.9118607E-01
       -1   -1    0    0    0  501  0.00000000000E+00  0.00000000000E+00  0.42489585160E+03  0.42489585163E+03  0.50400001928E-02 0. -1.
        1   -1    0    0  501    0  0.00000000000E+00  0.00000000000E+00 -0.83804606357E+03  0.83804606359E+03  0.50400001928E-02 0.  1.
    10030    2    1    2    0    0  0.00000000000E+00  0.00000000000E+00 -0.41315021197E+03  0.12629419152E+04  0.11934526315E+04 0.  0.
        3    1    3    3  502    0 -0.58464180780E+03  0.83093354358E+02 -0.29743309054E+03  0.66119361954E+03  0.10100000352E+00 0. -1.
       -3    1    3    3    0  502  0.58464180780E+03 -0.83093354358E+02 -0.11571712143E+03  0.60174829568E+03  0.10100000352E+00 0.  1.
</event>
<event>
 5   0  0.2792518E-03  0.1217305E+04  0.7818609E-02  0.9097843E-01
       -1   -1    0    0    0  501  0.00000000000E+00  0.00000000000E+00  0.35871446331E+03  0.35871446335E+03  0.50400001928E-02 0. -1.
        1   -1    0    0  501    0  0.00000000000E+00  0.00000000000E+00 -0.10327369618E+04  0.10327369618E+04  0.50400001928E-02 0.  1.
    10030    2    1    2    0    0  0.00000000000E+00  0.00000000000E+00 -0.67402249850E+03  0.13914514252E+04  0.12173047031E+04 0.  0.
        2    1    3    3  502    0  0.23290643077E+03  0.53274546461E+03 -0.13127788772E+03  0.59606796539E+03  0.25500000920E-02 0. -1.
       -2    1    3    3    0  502 -0.23290643077E+03 -0.53274546461E+03 -0.54274461079E+03  0.79538345978E+03  0.25500000920E-02 0.  1.
</event>
<event>
 5   0  0.5467554E-03  0.1225688E+04  0.7818609E-02  0.9090665E-01
       -2   -1    0    0    0  501  0.00000000000E+00  0.00000000000E+00  0.36060701539E+03  0.36060701540E+03  0.25500000920E-02 0.  1.
        2   -1    0    0  501    0  0.00000000000E+00  0.00000000000E+00 -0.10415149807E+04  0.10415149807E+04  0.25500000920E-02 0. -1.
    10030    2    1    2    0    0  0.00000000000E+00  0.00000000000E+00 -0.68090796532E+03  0.14021219961E+04  0.12256877395E+04 0.  0.
        1    1    3    3  502    0 -0.48137927887E+03 -0.20819250467E+03 -0.70311857084E+03  0.87718062781E+03  0.50400001928E-02 0. -1.
       -1    1    3    3    0  502  0.48137927887E+03  0.20819250467E+03  0.22210605520E+02  0.52494136829E+03  0.50400001928E-02 0.  1.
</event>
<event>
 5   0  0.5031575E-03  0.1182681E+04  0.7818609E-02  0.9128152E-01
       -2   -1    0    0    0  501  0.00000000000E+00  0.00000000000E+00  0.50191019954E+03  0.50191019954E+03  0.25500000920E-02 0.  1.
        2   -1    0    0  501    0  0.00000000000E+00  0.00000000000E+00 -0.69670563979E+03  0.69670563980E+03  0.25500000920E-02 0. -1.
    10030    2    1    2    0    0  0.00000000000E+00  0.00000000000E+00 -0.19479544026E+03  0.11986158393E+04  0.11826811349E+04 0.  0.
        5    1    3    3  502    0  0.56933841825E+03 -0.33063601184E+02  0.60983690076E+02  0.57356824936E+03  0.46999998093E+01 0. -1.
       -5    1    3    3    0  502 -0.56933841825E+03  0.33063601184E+02 -0.25577913033E+03  0.62504758998E+03  0.46999998093E+01 0.  1.
</event>
<event>
 5   0  0.2926844E-03  0.1222934E+04  0.7818609E-02  0.9093016E-01
       -1   -1    0    0    0  501  0.00000000000E+00  0.00000000000E+00  0.41955342819E+03  0.41955342822E+03  0.50400001928E-02 0.  1.
        1   -1    0    0  501    0  0.00000000000E+00  0.00000000000E+00 -0.89116689114E+03  0.89116689115E+03  0.50400001928E-02 0. -1.
    10030    2    1    2    0    0  0.00000000000E+00  0.00000000000E+00 -0.47161346295E+03  0.13107203194E+04  0.12229343797E+04 0.  0.
        5    1    3    3  502    0 -0.20053362885E+03 -0.27610142606E+03  0.30798380896E+03  0.45969756401E+03  0.46999998093E+01 0.  1.
       -5    1    3    3    0  502  0.20053362885E+03  0.27610142606E+03 -0.77959727191E+03  0.85102275536E+03  0.46999998093E+01 0. -1.
</event>
<event>
 5   0  0.5189537E-03  0.1177236E+04  0.7818609E-02  0.9133019E-01
        2   -1    0    0  501    0  0.00000000000E+00  0.00000000000E+00  0.70396517652E+03  0.70396517653E+03  0.25500000920E-02 0.  1.
       -2   -1    0    0    0  501  0.00000000000E+00  0.00000000000E+00 -0.49217049814E+03  0.49217049814E+03  0.25500000920E-02 0. -1.
    10030    2    1    2    0    0  0.00000000000E+00  0.00000000000E+00  0.21179467839E+03  0.11961356747E+04  0.11772355611E+04 0.  0.
        4    1    3    3  502    0 -0.32869073792E+02  0.65791989053E+02  0.69927701435E+03  0.70313506351E+03  0.12699999809E+01 0.  1.
       -4    1    3    3    0  502  0.32869073792E+02 -0.65791989053E+02 -0.48748233596E+03  0.49300061117E+03  0.12699999809E+01 0. -1.
</event>
<event>
 5   0  0.2875848E-03  0.1182573E+04  0.7818609E-02  0.9128249E-01
        1   -1    0    0  501    0  0.00000000000E+00  0.00000000000E+00  0.10903722974E+04  0.10903722974E+04  0.50400001928E-02 0. -1.
       -1   -1    0    0    0  501  0.00000000000E+00  0.00000000000E+00 -0.32064228551E+03  0.32064228555E+03  0.50400001928E-02 0.  1.
    10030    2    1    2    0    0  0.00000000000E+00  0.00000000000E+00  0.76973001186E+03  0.14110145829E+04  0.11825725610E+04 0.  0.
        1    1    3    3  502    0 -0.35765424551E+02  0.21382682476E+03  0.10412389940E+04  0.10635693297E+04  0.50400001928E-02 0. -1.
       -1    1    3    3    0  502  0.35765424551E+02 -0.21382682476E+03 -0.27150898210E+03  0.34744525320E+03  0.50400001928E-02 0.  1.
</event>
<event>
 5   0  0.2926844E-03  0.1222786E+04  0.7818609E-02  0.9093143E-01
        1   -1    0    0  501    0  0.00000000000E+00  0.00000000000E+00  0.51027949413E+03  0.51027949416E+03  0.50400001928E-02 0. -1.
       -1   -1    0    0    0  501  0.00000000000E+00  0.00000000000E+00 -0.73254219635E+03  0.73254219637E+03  0.50400001928E-02 0.  1.
    10030    2    1    2    0    0  0.00000000000E+00  0.00000000000E+00 -0.22226270222E+03  0.12428216905E+04  0.12227857726E+04 0.  0.
        5    1    3    3  502    0 -0.61047694965E+03  0.26405749812E+02 -0.13145402193E+03  0.62504529401E+03  0.46999998093E+01 0.  1.
       -5    1    3    3    0  502  0.61047694965E+03 -0.26405749812E+02 -0.90808680289E+02  0.61777639652E+03  0.46999998093E+01 0. -1.
</event>
<event>
 5   0  0.2792518E-03  0.1164415E+04  0.7818609E-02  0.9144587E-01
        1   -1    0    0  501    0  0.00000000000E+00  0.00000000000E+00  0.52195437614E+03  0.52195437616E+03  0.50400001928E-02 0.  1.
       -1   -1    0    0    0  501  0.00000000000E+00  0.00000000000E+00 -0.64941635054E+03  0.64941635056E+03  0.50400001928E-02 0. -1.
    10030    2    1    2    0    0  0.00000000000E+00  0.00000000000E+00 -0.12746197440E+03  0.11713707267E+04  0.11644152286E+04 0.  0.
        2    1    3    3  502    0  0.38817002066E+03 -0.83463760943E+02  0.36463362570E+03  0.53907313542E+03  0.25500000920E-02 0.  1.
       -2    1    3    3    0  502 -0.38817002066E+03  0.83463760943E+02 -0.49209560010E+03  0.63229759131E+03  0.25500000920E-02 0. -1.
</event>
<event>
 5   0  0.2792518E-03  0.1224780E+04  0.7818609E-02  0.9091439E-01
        1   -1    0    0  501    0  0.00000000000E+00  0.00000000000E+00  0.30820226844E+04  0.30820226844E+04  0.50400001928E-02 0.  1.
       -1   -1    0    0    0  501  0.00000000000E+00  0.00000000000E+00 -0.12168040387E+03  0.12168040398E+03  0.50400001928E-02 0. -1.
    10030    2    1    2    0    0  0.00000000000E+00  0.00000000000E+00  0.29603422806E+04  0.32037030884E+04  0.12247804132E+04 0.  0.
        2    1    3    3  502    0  0.12128240186E+03 -0.29211329315E+03  0.10851171096E+03  0.33438658535E+03  0.25500000920E-02 0. -1.
       -2    1    3    3    0  502 -0.12128240186E+03  0.29211329315E+03  0.28518305696E+04  0.28693165031E+04  0.25500000920E-02 0.  1.
</event>
<event>
 5   0  0.2926844E-03  0.1215908E+04  0.7818609E-02  0.9099045E-01
        1   -1    0    0  501    0  0.00000000000E+00  0.00000000000E+00  0.78943059858E+03  0.78943059859E+03  0.50400001928E-02 0.  1.
       -1   -1    0    0    0  501  0.00000000000E+00  0.00000000000E+00 -0.46819588538E+03  0.46819588540E+03  0.50400001928E-02 0. -1.
    10030    2    1    2    0    0  0.00000000000E+00  0.00000000000E+00  0.32123471320E+03  0.12576264840E+04  0.12159081513E+04 0.  0.
        5    1    3    3  502    0 -0.48946032269E+03  0.35472494299E+03  0.93707180837E+02  0.61172241941E+03  0.46999998093E+01 0. -1.
       -5    1    3    3    0  502  0.48946032269E+03 -0.35472494299E+03  0.22752753237E+03  0.64590406459E+03  0.46999998093E+01 0.  1.
</event>
<event>
 5   0  0.2926844E-03  0.1125257E+04  0.7818609E-02  0.9180918E-01
       -1   -1    0    0    0  501  0.00000000000E+00  0.00000000000E+00  0.12559347891E+03  0.12559347901E+03  0.50400001928E-02 0.  1.
        1   -1    0    0  501    0  0.00000000000E+00  0.00000000000E+00 -0.25204402363E+04  0.25204402363E+04  0.50400001928E-02 0. -1.
    10030    2    1    2    0    0  0.00000000000E+00  0.00000000000E+00 -0.23948467574E+04  0.26460337153E+04  0.11252570512E+04 0.  0.
        5    1    3    3  502    0 -0.11986803995E+03 -0.39906899379E+03 -0.30849582370E+03  0.51847485189E+03  0.46999998093E+01 0.  1.
       -5    1    3    3    0  502  0.11986803995E+03  0.39906899379E+03 -0.20863509337E+04  0.21275588634E+04  0.46999998093E+01 0. -1.
</event>
<event>
 5   0  0.2792518E-03  0.1134478E+04  0.7818609E-02  0.9172224E-01
       -1   -1    0    0    0  501  0.00000000000E+00  0.00000000000E+00  0.79832467530E+03  0.79832467532E+03  0.50400001928E-02 0. -1.
        1   -1    0    0  501    0  0.00000000000E+00  0.00000000000E+00 -0.40304423177E+03  0.40304423180E+03  0.50400001928E-02 0.  1.
    10030    2    1    2    0    0  0.00000000000E+00  0.00000000000E+00  0.39528044353E+03  0.12013689071E+04  0.11344781276E+04 0.  0.
        2    1    3    3  502    0 -0.49362826782E+03 -0.44303716428E+02 -0.94542015079E+02  0.50454918363E+03  0.25500000920E-02 0.  1.
       -2    1    3    3    0  502  0.49362826782E+03  0.44303716428E+02  0.48982245861E+03  0.69681972349E+03  0.25500000920E-02 0. -1.
</event>
<event>
 5   0  0.2792518E-03  0.1229360E+04  0.7818609E-02  0.9087539E-01
        1   -1    0    0  501    0  0.00000000000E+00  0.00000000000E+00  0.52371463509E+03  0.52371463511E+03  0.50400001928E-02 0. -1.
       -1   -1    0    0    0  501  0.00000000000E+00  0.00000000000E+00 -0.72144559280E+03  0.72144559282E+03  0.50400001928E-02 0.  1.
    10030    2    1    2    0    0  0.00000000000E+00  0.00000000000E+00 -0.19773095771E+03  0.12451602279E+04  0.12293601838E+04 0.  0.
        2    1    3    3  502    0  0.32804544317E+03  0.38386366915E+02 -0.62393368219E+03  0.70596073951E+03  0.25500000920E-02 0.  1.
       -2    1    3    3    0  502 -0.32804544317E+03 -0.38386366915E+02  0.42620272448E+03  0.53919948842E+03  0.25500000920E-02 0. -1.
</event>
<event>
 5   0  0.2792518E-03  0.1207147E+04  0.7818609E-02  0.9106623E-01
       -1   -1    0    0    0  501  0.00000000000E+00  0.00000000000E+00  0.37418041734E+03  0.37418041737E+03  0.50400001928E-02 0.  1.
        1   -1    0    0  501    0  0.00000000000E+00  0.00000000000E+00 -0.97359769884E+03  0.97359769886E+03  0.50400001928E-02 0. -1.
    10030    2    1    2    0    0  0.00000000000E+00  0.00000000000E+00 -0.59941728151E+03  0.13477781162E+04  0.12071473701E+04 0.  0.
        2    1    3    3  502    0 -0.47694996803E+02  0.60072803373E+03 -0.26180997319E+03  0.65703382355E+03  0.25500000920E-02 0.  1.
       -2    1    3    3    0  502  0.47694996803E+02 -0.60072803373E+03 -0.33760730832E+03  0.69074429267E+03  0.25500000920E-02 0. -1.
</event>
<event>
 5   0  0.5467554E-03  0.1227133E+04  0.7818609E-02  0.9089433E-01
       -2   -1    0    0    0  501  0.00000000000E+00  0.00000000000E+00  0.14611374548E+03  0.14611374551E+03  0.25500000920E-02 0.  1.
        2   -1    0    0  501    0  0.00000000000E+00  0.00000000000E+00 -0.25765126749E+04  0.25765126749E+04  0.25500000920E-02 0. -1.
    10030    2    1    2    0    0  0.00000000000E+00  0.00000000000E+00 -0.24303989295E+04  0.27226264205E+04  0.12271331097E+04 0.  0.
        1    1    3    3  502    0  0.55380348991E+03  0.19173341535E+03 -0.81213076673E+03  0.10015070595E+04  0.50400001928E-02 0.  1.
       -1    1    3    3    0  502 -0.55380348991E+03 -0.19173341535E+03 -0.16182681627E+04  0.17211193609E+04  0.50400001928E-02 0. -1.
</event>
<event>
 5   0  0.2926844E-03  0.1222652E+04  0.7818609E-02  0.9093257E-01
       -1   -1    0    0    0  501  0.00000000000E+00  0.00000000000E+00  0.33427948846E+03  0.33427948850E+03  0.50400001928E-02 0.  1.
        1   -1    0    0  501    0  0.00000000000E+00  0.00000000000E+00 -0.11179856113E+04  0.11179856113E+04  0.50400001928E-02 0. -1.
    10030    2    1    2    0    0  0.00000000000E+00  0.00000000000E+00 -0.78370612282E+03  0.14522650998E+04  0.12226522945E+04 0.  0.
        5    1    3    3  502    0 -0.33972659884E+03 -0.42054353938E+03 -0.73079547536E+03  0.90904078417E+03  0.46999998093E+01 0. -1.
       -5    1    3    3    0  502  0.33972659884E+03  0.42054353938E+03 -0.52910647462E+02  0.54322431563E+03  0.46999998093E+01 0.  1.
</event>
<event>
 5   0  0.2792518E-03  0.1209421E+04  0.7818609E-02  0.9104650E-01
        1   -1    0    0  501    0  0.00000000000E+00  0.00000000000E+00  0.62652012807E+03  0.62652012809E+03  0.50400001928E-02 0.  1.
       -1   -1    0    0    0  501  0.00000000000E+00  0.00000000000E+00 -0.58366052906E+03  0.58366052908E+03  0.50400001928E-02 0. -1.
    10030    2    1    2    0    0  0.00000000000E+00  0.00000000000E+00  0.42859599015E+02  0.12101806572E+04  0.12094214641E+04 0.  0.
        2    1    3    3  502    0  0.15744425100E+02 -0.39487082711E+03  0.47943342411E+03  0.62131092473E+03  0.25500000920E-02 0.  1.
       -2    1    3    3    0  502 -0.15744425100E+02  0.39487082711E+03 -0.43657382509E+03  0.58886973244E+03  0.25500000920E-02 0. -1.
</event>
<event>
 5   0  0.2875848E-03  0.1224792E+04  0.7818609E-02  0.9091429E-01
       -1   -1    0    0    0  501  0.00000000000E+00  0.00000000000E+00  0.58646914671E+03  0.58646914673E+03  0.50400001928E-02 0.  1.
        1   -1    0    0  501    0  0.00000000000E+00  0.00000000000E+00 -0.63946858454E+03  0.63946858456E+03  0.50400001928E-02 0. -1.
    10030    2    1    2    0    0  0.00000000000E+00  0.00000000000E+00 -0.52999437834E+02  0.12259377313E+04  0.12247915662E+04 0.  0.
        1    1    3    3  502    0 -0.15763024145E+03 -0.55534555707E+03 -0.23107448007E+03  0.62181299130E+03  0.50400001928E-02 0. -1.
       -1    1    3    3    0  502  0.15763024145E+03  0.55534555707E+03  0.17807504224E+03  0.60412473999E+03  0.50400001928E-02 0.  1.
</event>
<event>
 5   0  0.5031575E-03  0.1213915E+04  0.7818609E-02  0.9100763E-01
       -2   -1    0    0    0  501  0.00000000000E+00  0.00000000000E+00  0.66692191022E+03  0.66692191022E+03  0.25500000920E-02 0.  1.
        2   -1    0    0  501    0  0.00000000000E+00  0.00000000000E+00 -0.55238503267E+03  0.55238503268E+03  0.25500000920E-02 0. -1.
    10030    2    1    2    0    0  0.00000000000E+00  0.00000000000E+00  0.11453687754E+03  0.12193069429E+04  0.12139154520E+04 0.  0.
        5    1    3    3  502    0 -0.27567836464E+03  0.45779638908E+03 -0.23175858798E+03  0.58250341431E+03  0.46999998093E+01 0. -1.
       -5    1    3    3    0  502  0.27567836464E+03 -0.45779638908E+03  0.34629546552E+03  0.63680352859E+03  0.46999998093E+01 0.  1.
</event>
<event>
 5   0  0.5031575E-03  0.1177117E+04  0.7818609E-02  0.9133125E-01
       -2   -1    0    0    0  501  0.00000000000E+00  0.00000000000E+00  0.37669899005E+03  0.37669899006E+03  0.25500000920E-02 0. -1.
        2   -1    0    0  501    0  0.00000000000E+00  0.00000000000E+00 -0.91956952223E+03  0.91956952224E+03  0.25500000920E-02 0.  1.
    10030    2    1    2    0    0  0.00000000000E+00  0.00000000000E+00 -0.54287053218E+03  0.12962685123E+04  0.11771166643E+04 0.  0.
        5    1    3    3  502    0  0.28311465446E+03 -0.63120858599E+02  0.29249510754E+03  0.41196313949E+03  0.46999998093E+01 0. -1.
       -5    1    3    3    0  502 -0.28311465446E+03  0.63120858599E+02 -0.83536563972E+03  0.88430537281E+03  0.46999998093E+01 0.  1.
</event>
<event>
 5   0  0.5189537E-03  0.1159532E+04  0.7818609E-02  0.9149035E-01
        2   -1    0    0  501    0  0.00000000000E+00  0.00000000000E+00  0.14302033267E+04  0.14302033267E+04  0.25500000920E-02 0.  1.
       -2   -1    0    0    0  501  0.00000000000E+00  0.00000000000E+00 -0.23502161082E+03  0.23502161083E+03  0.25500000920E-02 0. -1.
    10030    2    1    2    0    0  0.00000000000E+00  0.00000000000E+00  0.11951817159E+04  0.16652249375E+04  0.11595321292E+04 0.  0.
        4    1    3    3  502    0 -0.16573845153E+03 -0.22466331571E+03  0.13273087266E+04  0.13563527964E+04  0.12699999809E+01 0.  1.
       -4    1    3    3    0  502  0.16573845153E+03  0.22466331571E+03 -0.13212701066E+03  0.30887214116E+03  0.12699999809E+01 0. -1.
</event>
<event>
 5   0  0.2926844E-03  0.1200406E+04  0.7818609E-02  0.9112501E-01
       -1   -1    0    0    0  501  0.00000000000E+00  0.00000000000E+00  0.79037539848E+03  0.79037539850E+03  0.50400001928E-02 0. -1.
        1   -1    0    0  501    0  0.00000000000E+00  0.00000000000E+00 -0.45578798130E+03  0.45578798133E+03  0.50400001928E-02 0.  1.
    10030    2    1    2    0    0  0.00000000000E+00  0.00000000000E+00  0.33458741718E+03  0.12461633798E+04  0.12004059436E+04 0.  0.
        5    1    3    3  502    0 -0.55432146637E+02 -0.24965200859E+03  0.73096677601E+03  0.77442453854E+03  0.46999998093E+01 0. -1.
       -5    1    3    3    0  502  0.55432146637E+02  0.24965200859E+03 -0.39637935883E+03  0.47173884128E+03  0.46999998093E+01 0.  1.
</event>
<event>
 5   0  0.5003526E-03  0.1152951E+04  0.7818609E-02  0.9155065E-01
        2   -1    0    0  501    0  0.00000000000E+00  0.00000000000E+00  0.13248266761E+04  0.13248266761E+04  0.25500000920E-02 0. -1.
       -2   -1    0    0    0  501  0.00000000000E+00  0.00000000000E+00 -0.25084349493E+03  0.25084349494E+03  0.25500000920E-02 0.  1.
    10030    2    1    2    0    0  0.00000000000E+00  0.00000000000E+00  0.10739831812E+04  0.15756701710E+04  0.11529512628E+04 0.  0.
        2    1    3    3  502    0  0.11490166417E+02 -0.25359800740E+03  0.12443257881E+04  0.12699569443E+04  0.25500000920E-02 0. -1.
       -2    1    3    3    0  502 -0.11490166417E+02  0.25359800740E+03 -0.17034260695E+03  0.30571322679E+03  0.25500000920E-02 0.  1.
</event>
<event>
 5   0  0.2792518E-03  0.1210964E+04  0.7818609E-02  0.9103314E-01
       -1   -1    0    0    0  501  0.00000000000E+00  0.00000000000E+00  0.33435327031E+03  0.33435327034E+03  0.50400001928E-02 0. -1.
        1   -1    0    0  501    0  0.00000000000E+00  0.00000000000E+00 -0.10964703649E+04  0.10964703649E+04  0.50400001928E-02 0.  1.
    10030    2    1    2    0    0  0.00000000000E+00  0.00000000000E+00 -0.76211709463E+03  0.14308236353E+04  0.12109640000E+04 0.  0.
        2    1    3    3  502    0  0.57548266111E+03  0.14805604718E+03 -0.24373550322E+03  0.64226776494E+03  0.25500000920E-02 0. -1.
       -2    1    3    3    0  502 -0.57548266111E+03 -0.14805604718E+03 -0.51838159141E+03  0.78855587035E+03  0.25500000920E-02 0.  1.
</event>
<event>
 5   0  0.5003526E-03  0.1195726E+04  0.7818609E-02  0.9116605E-01
       -2   -1    0    0    0  501  0.00000000000E+00  0.00000000000E+00  0.75672975265E+03  0.75672975265E+03  0.25500000920E-02 0. -1.
        2   -1    0    0  501    0  0.00000000000E+00  0.00000000000E+00 -0.47234884085E+03  0.47234884086E+03  0.25500000920E-02 0.  1.
    10030    2    1    2    0    0  0.00000000000E+00  0.00000000000E+00  0.28438091180E+03  0.12290785935E+04  0.11957264261E+04 0.  0.
        2    1    3    3  502    0 -0.22307152509E+02  0.21403617535E+03 -0.43115938815E+03  0.48187914606E+03  0.25500000920E-02 0.  1.
       -2    1    3    3    0  502  0.22307152509E+02 -0.21403617535E+03  0.71554029995E+03  0.74719944745E+03  0.25500000920E-02 0. -1.
</event>
<event>
 5   0  0.2926844E-03  0.1155147E+04  0.7818609E-02  0.9153049E-01
       -1   -1    0    0    0  501  0.00000000000E+00  0.00000000000E+00  0.15736966897E+04  0.15736966897E+04  0.50400001928E-02 0.  1.
        1   -1    0    0  501    0  0.00000000000E+00  0.00000000000E+00 -0.21197922097E+03  0.21197922103E+03  0.50400001928E-02 0. -1.
    10030    2    1    2    0    0  0.00000000000E+00  0.00000000000E+00  0.13617174687E+04  0.17856759107E+04  0.11551467411E+04 0.  0.
        5    1    3    3  502    0 -0.30693825815E+03 -0.48547469849E+03  0.77453392309E+03  0.96427260938E+03  0.46999998093E+01 0. -1.
       -5    1    3    3    0  502  0.30693825815E+03  0.48547469849E+03  0.58718354562E+03  0.82140330133E+03  0.46999998093E+01 0.  1.
</event>
<event>
 5   0  0.5189537E-03  0.9772751E+03  0.7818609E-02  0.9333826E-01
       -2   -1    0    0    0  501  0.00000000000E+00  0.00000000000E+00  0.19514587225E+03  0.19514587227E+03  0.25500000920E-02 0. -1.
        2   -1    0    0  501    0  0.00000000000E+00  0.00000000000E+00 -0.12235292297E+04  0.12235292297E+04  0.25500000920E-02 0.  1.
    10030    2    1    2    0    0  0.00000000000E+00  0.00000000000E+00 -0.10283833574E+04  0.14186751019E+04  0.97727514808E+03 0.  0.
        4    1    3    3  502    0  0.21872978851E+03 -0.21801900444E+03  0.35508165586E+02  0.31086564526E+03  0.12699999809E+01 0. -1.
       -4    1    3    3    0  502 -0.21872978851E+03  0.21801900444E+03 -0.10638915230E+04  0.11078094567E+04  0.12699999809E+01 0.  1.
</event>
<event>
 5   0  0.2875848E-03  0.1170824E+04  0.7818609E-02  0.9138784E-01
        1   -1    0    0  501    0  0.00000000000E+00  0.00000000000E+00  0.18596787319E+03  0.18596787325E+03  0.50400001928E-02 0.  1.
       -1   -1    0    0    0  501  0.00000000000E+00  0.00000000000E+00 -0.18428307134E+04  0.18428307134E+04  0.50400001928E-02 0. -1.
    10030    2    1    2    0    0  0.00000000000E+00  0.00000000000E+00 -0.16568628402E+04  0.20287985867E+04  0.11708241687E+04 0.  0.
        1    1    3    3  502    0 -0.11178160828E+03 -0.56538173849E+03 -0.10064601786E+04  0.11597903816E+04  0.50400001928E-02 0. -1.
       -1    1    3    3    0  502  0.11178160828E+03  0.56538173849E+03 -0.65040266163E+03  0.86900820506E+03  0.50400001928E-02 0.  1.
</event>
<event>
 5   0  0.2926844E-03  0.1536770E+04  0.7818609E-02  0.8860363E-01
        1   -1    0    0  501    0  0.00000000000E+00  0.00000000000E+00  0.10646322599E+04  0.10646322599E+04  0.50400001928E-02 0. -1.
       -1   -1    0    0    0  501  0.00000000000E+00  0.00000000000E+00 -0.55457210070E+03  0.55457210072E+03  0.50400001928E-02 0.  1.
    10030    2    1    2    0    0  0.00000000000E+00  0.00000000000E+00  0.51006015916E+03  0.16192043606E+04  0.15367697926E+04 0.  0.
        5    1    3    3  502    0  0.10508820629E+03  0.72183969574E+03  0.50942979917E+03  0.88973978653E+03  0.46999998093E+01 0.  1.
       -5    1    3    3    0  502 -0.10508820629E+03 -0.72183969574E+03  0.63035999219E+00  0.72946457406E+03  0.46999998093E+01 0. -1.
</event>
<event>
 5   0  0.2875848E-03  0.1070237E+04  0.7818609E-02  0.9234696E-01
       -1   -1    0    0    0  501  0.00000000000E+00  0.00000000000E+00  0.14712161367E+03  0.14712161375E+03  0.50400001928E-02 0. -1.
        1   -1    0    0  501    0  0.00000000000E+00  0.00000000000E+00 -0.19463611831E+04  0.19463611831E+04  0.50400001928E-02 0.  1.
    10030    2    1    2    0    0  0.00000000000E+00  0.00000000000E+00 -0.17992395694E+04  0.20934827968E+04  0.10702369796E+04 0.  0.
        1    1    3    3  502    0  0.81022999448E+02  0.41707648066E+03 -0.26326014803E+03  0.49982339154E+03  0.50400001928E-02 0. -1.
       -1    1    3    3    0  502 -0.81022999448E+02 -0.41707648066E+03 -0.15359794214E+04  0.15936594053E+04  0.50400001928E-02 0.  1.
</event>
<event>
 5   0  0.5003526E-03  0.1199125E+04  0.7818609E-02  0.9113623E-01
       -2   -1    0    0    0  501  0.00000000000E+00  0.00000000000E+00  0.32447754203E+03  0.32447754204E+03  0.25500000920E-02 0. -1.
        2   -1    0    0  501    0  0.00000000000E+00  0.00000000000E+00 -0.11078588626E+04  0.11078588626E+04  0.25500000920E-02 0.  1.
    10030    2    1    2    0    0  0.00000000000E+00  0.00000000000E+00 -0.78338132053E+03  0.14323364046E+04  0.11991252156E+04 0.  0.
        2    1    3    3  502    0 -0.59455342969E+02 -0.10537133652E+03  0.30974459454E+03  0.33253536688E+03  0.25500000920E-02 0. -1.
       -2    1    3    3    0  502  0.59455342969E+02  0.10537133652E+03 -0.10931259151E+04  0.10998010377E+04  0.25500000920E-02 0.  1.
</event>
<event>
 5   0  0.5108045E-03  0.1219726E+04  0.7818609E-02  0.9095763E-01
       -2   -1    0    0    0  501  0.00000000000E+00  0.00000000000E+00  0.57810222236E+03  0.57810222236E+03  0.25500000920E-02 0. -1.
        2   -1    0    0  501    0  0.00000000000E+00  0.00000000000E+00 -0.64336874089E+03  0.64336874089E+03  0.25500000920E-02 0.  1.
    10030    2    1    2    0    0  0.00000000000E+00  0.00000000000E+00 -0.65266518531E+02  0.12214709633E+04  0.12197260330E+04 0.  0.
        3    1    3    3  502    0 -0.12116544164E+03 -0.42170058281E+03 -0.45681973358E+03  0.63340091963E+03  0.10100000352E+00 0.  1.
       -3    1    3    3    0  502  0.12116544164E+03  0.42170058281E+03  0.39155321505E+03  0.58807004363E+03  0.10100000352E+00 0. -1.
</event>
<event>
 5   0  0.2926844E-03  0.1220528E+04  0.7818609E-02  0.9095076E-01
        1   -1    0    0  501    0  0.00000000000E+00  0.00000000000E+00  0.27050390625E+04  0.27050390625E+04  0.50400001928E-02 0.  1.
       -1   -1    0    0    0  501  0.00000000000E+00  0.00000000000E+00 -0.13767710616E+03  0.13767710625E+03  0.50400001928E-02 0. -1.
    10030    2    1    2    0    0  0.00000000000E+00  0.00000000000E+00  0.25673619563E+04  0.28427161687E+04  0.12205276733E+04 0.  0.
        5    1    3    3  502    0  0.27263002330E+03  0.51692256624E+03  0.87450464587E+03  0.10518158274E+04  0.46999998093E+01 0. -1.
       -5    1    3    3    0  502 -0.27263002330E+03 -0.51692256624E+03  0.16928573105E+04  0.17909003414E+04  0.46999998093E+01 0.  1.
</event>
<event>
 5   0  0.1922125E-03  0.1204127E+04  0.7818609E-02  0.9109252E-01
       -4   -1    0    0    0  501  0.00000000000E+00  0.00000000000E+00  0.91971922696E+03  0.91972010381E+03  0.12699999809E+01 0. -1.
        4   -1    0    0  501    0  0.00000000000E+00  0.00000000000E+00 -0.39411883283E+03  0.39412087904E+03  0.12699999809E+01 0.  1.
    10030    2    1    2    0    0  0.00000000000E+00  0.00000000000E+00  0.52560039413E+03  0.13138409828E+04  0.12041272167E+04 0.  0.
        4    1    3    3  502    0 -0.33665607386E+02  0.19784132767E+03  0.88215024159E+03  0.90469067956E+03  0.12699999809E+01 0. -1.
       -4    1    3    3    0  502  0.33665607386E+02 -0.19784132767E+03 -0.35654984746E+03  0.40915030328E+03  0.12699999809E+01 0.  1.
</event>
<event>
 5   0  0.5031575E-03  0.1217524E+04  0.7818609E-02  0.9097655E-01
        2   -1    0    0  501    0  0.00000000000E+00  0.00000000000E+00  0.55934676415E+03  0.55934676415E+03  0.25500000920E-02 0. -1.
       -2   -1    0    0    0  501  0.00000000000E+00  0.00000000000E+00 -0.66254247529E+03  0.66254247530E+03  0.25500000920E-02 0.  1.
    10030    2    1    2    0    0  0.00000000000E+00  0.00000000000E+00 -0.10319571115E+03  0.12218892395E+04  0.12175236994E+04 0.  0.
        5    1    3    3  502    0  0.32236653045E+03  0.45900818411E+03 -0.28900515691E+03  0.63099505842E+03  0.46999998093E+01 0.  1.
       -5    1    3    3    0  502 -0.32236653045E+03 -0.45900818411E+03  0.18580944577E+03  0.59089418103E+03  0.46999998093E+01 0. -1.
</event>
<event>
 5   0  0.5031575E-03  0.1162186E+04  0.7818609E-02  0.9146615E-01
       -2   -1    0    0    0  501  0.00000000000E+00  0.00000000000E+00  0.19657244286E+03  0.19657244287E+03  0.25500000920E-02 0.  1.
        2   -1    0    0  501    0  0.00000000000E+00  0.00000000000E+00 -0.17177835046E+04  0.17177835046E+04  0.25500000920E-02 0. -1.
    10030    2    1    2    0    0  0.00000000000E+00  0.00000000000E+00 -0.15212110617E+04  0.19143559475E+04  0.11621856991E+04 0.  0.
        5    1    3    3  502    0  0.22365580945E+03  0.34933768833E+03 -0.90317160103E+02  0.42454448647E+03  0.46999998093E+01 0.  1.
       -5    1    3    3    0  502 -0.22365580945E+03 -0.34933768833E+03 -0.14308939016E+04  0.14898114610E+04  0.46999998093E+01 0. -1.
</event>
<event>
 5   0  0.2875848E-03  0.1202786E+04  0.7818609E-02  0.9110422E-01
       -1   -1    0    0    0  501  0.00000000000E+00  0.00000000000E+00  0.71631903170E+03  0.71631903172E+03  0.50400001928E-02 0. -1.
        1   -1    0    0  501    0  0.00000000000E+00  0.00000000000E+00 -0.50490551738E+03  0.50490551740E+03  0.50400001928E-02 0.  1.
    10030    2    1    2    0    0  0.00000000000E+00  0.00000000000E+00  0.21141351432E+03  0.12212245491E+04  0.12027858186E+04 0.  0.
        1    1    3    3  502    0 -0.19642909204E+02 -0.11376916378E+03 -0.49354800917E+03  0.50687168385E+03  0.50400001928E-02 0.  1.
       -1    1    3    3    0  502  0.19642909204E+02  0.11376916378E+03  0.70496152349E+03  0.71435286528E+03  0.50400001928E-02 0. -1.
</event>
<event>
 5   0  0.5189537E-03  0.1178601E+04  0.7818609E-02  0.9131796E-01
       -2   -1    0    0    0  501  0.00000000000E+00  0.00000000000E+00  0.10000999551E+04  0.10000999551E+04  0.25500000920E-02 0.  1.
        2   -1    0    0  501    0  0.00000000000E+00  0.00000000000E+00 -0.34724057776E+03  0.34724057777E+03  0.25500000920E-02 0. -1.
    10030    2    1    2    0    0  0.00000000000E+00  0.00000000000E+00  0.65285937729E+03  0.13473405328E+04  0.11786013511E+04 0.  0.
        4    1    3    3  502    0 -0.13541934391E+03 -0.54179989044E+03  0.54147966078E+03  0.77787361180E+03  0.12699999809E+01 0.  1.
       -4    1    3    3    0  502  0.13541934391E+03  0.54179989044E+03  0.11137971651E+03  0.56946692102E+03  0.12699999809E+01 0. -1.
</event>
<event>
 5   0  0.2875848E-03  0.1128191E+04  0.7818609E-02  0.9178142E-01
        1   -1    0    0  501    0  0.00000000000E+00  0.00000000000E+00  0.85767817803E+03  0.85767817804E+03  0.50400001928E-02 0.  1.
       -1   -1    0    0    0  501  0.00000000000E+00  0.00000000000E+00 -0.37100597581E+03  0.37100597585E+03  0.50400001928E-02 0. -1.
    10030    2    1    2    0    0  0.00000000000E+00  0.00000000000E+00  0.48667220222E+03  0.12286841539E+04  0.11281909934E+04 0.  0.
        1    1    3    3  502    0  0.50900775444E+03  0.21517242698E+03  0.12004601646E+03  0.56550783682E+03  0.50400001928E-02 0. -1.
       -1    1    3    3    0  502 -0.50900775444E+03 -0.21517242698E+03  0.36662618576E+03  0.66317631707E+03  0.50400001928E-02 0.  1.
</event>
<event>
 5   0  0.2930868E-03  0.1173932E+04  0.7818609E-02  0.9135985E-01
       -1   -1    0    0    0  501  0.00000000000E+00  0.00000000000E+00  0.23913411955E+03  0.23913411960E+03  0.50400001928E-02 0. -1.
        1   -1    0    0  501    0  0.00000000000E+00  0.00000000000E+00 -0.14407358320E+04  0.14407358320E+04  0.50400001928E-02 0.  1.
    10030    2    1    2    0    0  0.00000000000E+00  0.00000000000E+00 -0.12016017124E+04  0.16798699516E+04  0.11739320163E+04 0.  0.
        3    1    3    3  502    0  0.49269140180E+02  0.40517765584E+03  0.28149496905E+01  0.40817191857E+03  0.10100000352E+00 0.  1.
       -3    1    3    3    0  502 -0.49269140180E+02 -0.40517765584E+03 -0.12044166621E+04  0.12716980330E+04  0.10100000352E+00 0. -1.
</event>
<event>
 5   0  0.2792518E-03  0.1185706E+04  0.7818609E-02  0.9125461E-01
       -1   -1    0    0    0  501  0.00000000000E+00  0.00000000000E+00  0.22211690900E+03  0.22211690905E+03  0.50400001928E-02 0. -1.
        1   -1    0    0  501    0  0.00000000000E+00  0.00000000000E+00 -0.15823850863E+04  0.15823850863E+04  0.50400001928E-02 0.  1.
    10030    2    1    2    0    0  0.00000000000E+00  0.00000000000E+00 -0.13602681773E+04  0.18045019954E+04  0.11857056705E+04 0.  0.
        2    1    3    3  502    0  0.15583597231E+03 -0.38818443214E+03 -0.40758756673E+02  0.42027762238E+03  0.25500000920E-02 0. -1.
       -2    1    3    3    0  502 -0.15583597231E+03  0.38818443214E+03 -0.13195094206E+04  0.13842243730E+04  0.25500000920E-02 0.  1.
</event>
<event>
 5   0  0.5189537E-03  0.9388762E+03  0.7818609E-02  0.9378248E-01
        2   -1    0    0  501    0  0.00000000000E+00  0.00000000000E+00  0.16447639710E+04  0.16447639710E+04  0.25500000920E-02 0.  1.
       -2   -1    0    0    0  501  0.00000000000E+00  0.00000000000E+00 -0.13398405754E+03  0.13398405756E+03  0.25500000920E-02 0. -1.
    10030    2    1    2    0    0  0.00000000000E+00  0.00000000000E+00  0.15107799135E+04  0.17787480286E+04  0.93887624435E+03 0.  0.
        4    1    3    3  502    0 -0.18080813377E+02 -0.65419267825E+02  0.16354159791E+04  0.16368242527E+04  0.12699999809E+01 0.  1.
       -4    1    3    3    0  502  0.18080813377E+02  0.65419267825E+02 -0.12463606564E+03  0.14192377593E+03  0.12699999809E+01 0. -1.
</event>
<event>
 5   0  0.2938349E-03  0.1190035E+04  0.7818609E-02  0.9121624E-01
        1   -1    0    0  501    0  0.00000000000E+00  0.00000000000E+00  0.14483123626E+03  0.14483123635E+03  0.50400001928E-02 0. -1.
       -1   -1    0    0    0  501  0.00000000000E+00  0.00000000000E+00 -0.24445407763E+04  0.24445407763E+04  0.50400001928E-02 0.  1.
    10030    2    1    2    0    0  0.00000000000E+00  0.00000000000E+00 -0.22997095400E+04  0.25893720126E+04  0.11900350631E+04 0.  0.
        4    1    3    3  502    0 -0.42330155196E+03  0.40931640706E+03 -0.96369152557E+03  0.11293480838E+04  0.12699999809E+01 0.  1.
       -4    1    3    3    0  502  0.42330155196E+03 -0.40931640706E+03 -0.13360180144E+04  0.14600239288E+04  0.12699999809E+01 0. -1.
</event>
<event>
 5   0  0.2930868E-03  0.9543087E+03  0.7818609E-02  0.9360128E-01
        1   -1    0    0  501    0  0.00000000000E+00  0.00000000000E+00  0.20780673000E+04  0.20780673000E+04  0.50400001928E-02 0.  1.
       -1   -1    0    0    0  501  0.00000000000E+00  0.00000000000E+00 -0.10956155991E+03  0.10956156002E+03  0.50400001928E-02 0. -1.
    10030    2    1    2    0    0  0.00000000000E+00  0.00000000000E+00  0.19685057401E+04  0.21876288600E+04  0.95430874483E+03 0.  0.
        3    1    3    3  502    0  0.41428818712E+03 -0.14565393321E+03  0.14120518528E+04  0.14787630694E+04  0.10100000352E+00 0.  1.
       -3    1    3    3    0  502 -0.41428818712E+03  0.14565393321E+03  0.55645388733E+03  0.70886579066E+03  0.10100000352E+00 0. -1.
</event>
<event>
 5   0  0.5467554E-03  0.1230378E+04  0.7818609E-02  0.9086674E-01
       -2   -1    0    0    0  501  0.00000000000E+00  0.00000000000E+00  0.43057433973E+03  0.43057433974E+03  0.25500000920E-02 0. -1.
        2   -1    0    0  501    0  0.00000000000E+00  0.00000000000E+00 -0.87895983284E+03  0.87895983285E+03  0.25500000920E-02 0.  1.
    10030    2    1    2    0    0  0.00000000000E+00  0.00000000000E+00 -0.44838549311E+03  0.13095341726E+04  0.12303780715E+04 0.  0.
        1    1    3    3  502    0 -0.19419529392E+03 -0.51383019205E+03 -0.51900439531E+03  0.75571081825E+03  0.50400001928E-02 0.  1.
       -1    1    3    3    0  502  0.19419529392E+03  0.51383019205E+03  0.70618902197E+02  0.55382335434E+03  0.50400001928E-02 0. -1.
</event>
<event>
 5   0  0.5031575E-03  0.1181548E+04  0.7818609E-02  0.9129162E-01
        2   -1    0    0  501    0  0.00000000000E+00  0.00000000000E+00  0.52966474500E+03  0.52966474501E+03  0.25500000920E-02 0.  1.
       -2   -1    0    0    0  501  0.00000000000E+00  0.00000000000E+00 -0.65893387210E+03  0.65893387210E+03  0.25500000920E-02 0. -1.
    10030    2    1    2    0    0  0.00000000000E+00  0.00000000000E+00 -0.12926912709E+03  0.11885986171E+04  0.11815482070E+04 0.  0.
        5    1    3    3  502    0 -0.34656717868E+03  0.40492574422E+03 -0.32094558999E+03  0.62217507938E+03  0.46999998093E+01 0. -1.
       -5    1    3    3    0  502  0.34656717868E+03 -0.40492574422E+03  0.19167646290E+03  0.56642353773E+03  0.46999998093E+01 0.  1.
</event>
<event>
 5   0  0.2938349E-03  0.1175711E+04  0.7818609E-02  0.9134387E-01
        1   -1    0    0  501    0  0.00000000000E+00  0.00000000000E+00  0.14671168154E+04  0.14671168154E+04  0.50400001928E-02 0. -1.
       -1   -1    0    0    0  501  0.00000000000E+00  0.00000000000E+00 -0.23554628279E+03  0.23554628284E+03  0.50400001928E-02 0.  1.
    10030    2    1    2    0    0  0.00000000000E+00  0.00000000000E+00  0.12315705326E+04  0.17026630983E+04  0.11757106997E+04 0.  0.
        4    1    3    3  502    0 -0.26860732628E+03 -0.35273594166E+03  0.56773387816E+02  0.44698699168E+03  0.12699999809E+01 0.  1.
       -4    1    3    3    0  502  0.26860732628E+03  0.35273594166E+03  0.11747971448E+04  0.12556761066E+04  0.12699999809E+01 0. -1.
</event>
<event>
 5   0  0.5189537E-03  0.1175284E+04  0.7818609E-02  0.9134769E-01
        2   -1    0    0  501    0  0.00000000000E+00  0.00000000000E+00  0.14062465034E+04  0.14062465034E+04  0.25500000920E-02 0. -1.
       -2   -1    0    0    0  501  0.00000000000E+00  0.00000000000E+00 -0.24556391659E+03  0.24556391660E+03  0.25500000920E-02 0.  1.
    10030    2    1    2    0    0  0.00000000000E+00  0.00000000000E+00  0.11606825868E+04  0.16518104200E+04  0.11752844746E+04 0.  0.
        4    1    3    3  502    0  0.27929374221E+03  0.49364822511E+03  0.79638057255E+03  0.97771017885E+03  0.12699999809E+01 0.  1.
       -4    1    3    3    0  502 -0.27929374221E+03 -0.49364822511E+03  0.36430201423E+03  0.67410024111E+03  0.12699999809E+01 0. -1.
</event>
<event>
 5   0  0.5003526E-03  0.1181827E+04  0.7818609E-02  0.9128914E-01
       -2   -1    0    0    0  501  0.00000000000E+00  0.00000000000E+00  0.20735147147E+03  0.20735147149E+03  0.25500000920E-02 0.  1.
        2   -1    0    0  501    0  0.00000000000E+00  0.00000000000E+00 -0.16839944360E+04  0.16839944360E+04  0.25500000920E-02 0. -1.
    10030    2    1    2    0    0  0.00000000000E+00  0.00000000000E+00 -0.14766429645E+04  0.18913459075E+04  0.11818269320E+04 0.  0.
        2    1    3    3  502    0 -0.27601807353E+03 -0.22718110253E+03 -0.14913089332E+04  0.15335578125E+04  0.25500000920E-02 0. -1.
       -2    1    3    3    0  502  0.27601807353E+03  0.22718110253E+03  0.14665968621E+02  0.35778809497E+03  0.25500000920E-02 0.  1.
</event>
<event>
 5   0  0.2875848E-03  0.1185002E+04  0.7818609E-02  0.9126087E-01
       -1   -1    0    0    0  501  0.00000000000E+00  0.00000000000E+00  0.39829461578E+03  0.39829461582E+03  0.50400001928E-02 0. -1.
        1   -1    0    0  501    0  0.00000000000E+00  0.00000000000E+00 -0.88140089090E+03  0.88140089091E+03  0.50400001928E-02 0.  1.
    10030    2    1    2    0    0  0.00000000000E+00  0.00000000000E+00 -0.48310627511E+03  0.12796955067E+04  0.11850016527E+04 0.  0.
        1    1    3    3  502    0  0.37533925719E+03 -0.16005204906E+03 -0.70548870774E+03  0.81499112460E+03  0.50400001928E-02 0.  1.
       -1    1    3    3    0  502 -0.37533925719E+03  0.16005204906E+03  0.22238243263E+03  0.46470438213E+03  0.50400001928E-02 0. -1.
</event>
<event>
 5   0  0.5003526E-03  0.1206381E+04  0.7818609E-02  0.9107290E-01
       -2   -1    0    0    0  501  0.00000000000E+00  0.00000000000E+00  0.21670098067E+03  0.21670098068E+03  0.25500000920E-02 0.  1.
        2   -1    0    0  501    0  0.00000000000E+00  0.00000000000E+00 -0.16789887371E+04  0.16789887371E+04  0.25500000920E-02 0. -1.
    10030    2    1    2    0    0  0.00000000000E+00  0.00000000000E+00 -0.14622877565E+04  0.18956897178E+04  0.12063805467E+04 0.  0.
        2    1    3    3  502    0 -0.35988517080E+03 -0.46398907386E+03 -0.51434207250E+03  0.78060935453E+03  0.25500000920E-02 0.  1.
       -2    1    3    3    0  502  0.35988517080E+03  0.46398907386E+03 -0.94794568395E+03  0.11150803633E+04  0.25500000920E-02 0. -1.
</event>
<event>
 5   0  0.2792518E-03  0.1180932E+04  0.7818609E-02  0.9129712E-01
        1   -1    0    0  501    0  0.00000000000E+00  0.00000000000E+00  0.96923325219E+03  0.96923325220E+03  0.50400001928E-02 0. -1.
       -1   -1    0    0    0  501  0.00000000000E+00  0.00000000000E+00 -0.35971746774E+03  0.35971746778E+03  0.50400001928E-02 0.  1.
    10030    2    1    2    0    0  0.00000000000E+00  0.00000000000E+00  0.60951578445E+03  0.13289507200E+04  0.11809320576E+04 0.  0.
        2    1    3    3  502    0  0.29600568316E+03  0.47721099859E+03  0.99401189671E+02  0.57028966163E+03  0.25500000920E-02 0. -1.
       -2    1    3    3    0  502 -0.29600568316E+03 -0.47721099859E+03  0.51011459478E+03  0.75866105835E+03  0.25500000920E-02 0.  1.
</event>
<event>
 5   0  0.2938349E-03  0.1182512E+04  0.7818609E-02  0.9128303E-01
        1   -1    0    0  501    0  0.00000000000E+00  0.00000000000E+00  0.64524258294E+03  0.64524258296E+03  0.50400001928E-02 0.  1.
       -1   -1    0    0    0  501  0.00000000000E+00  0.00000000000E+00 -0.54178654583E+03  0.54178654586E+03  0.50400001928E-02 0. -1.
    10030    2    1    2    0    0  0.00000000000E+00  0.00000000000E+00  0.10345603711E+03  0.11870291288E+04  0.11825121568E+04 0.  0.
        4    1    3    3  502    0  0.45023594488E+01 -0.57600756140E+03  0.18556831679E+03  0.60517947349E+03  0.12699999809E+01 0.  1.
       -4    1    3    3    0  502 -0.45023594488E+01  0.57600756140E+03 -0.82112279678E+02  0.58184965533E+03  0.12699999809E+01 0. -1.
</event>
<event>
 5   0  0.5467554E-03  0.1205277E+04  0.7818609E-02  0.9108250E-01
       -2   -1    0    0    0  501  0.00000000000E+00  0.00000000000E+00  0.45175996835E+03  0.45175996835E+03  0.25500000920E-02 0.  1.
        2   -1    0    0  501    0  0.00000000000E+00  0.00000000000E+00 -0.80390760077E+03  0.80390760077E+03  0.25500000920E-02 0. -1.
    10030    2    1    2    0    0  0.00000000000E+00  0.00000000000E+00 -0.35214763242E+03  0.12556675691E+04  0.12052771835E+04 0.  0.
        1    1    3    3  502    0 -0.40003950151E+03  0.38913496943E+03  0.60844542554E+02  0.56139084921E+03  0.50400001928E-02 0.  1.
       -1    1    3    3    0  502  0.40003950151E+03 -0.38913496943E+03 -0.41299217498E+03  0.69427671991E+03  0.50400001928E-02 0. -1.
</event>
<event>
 5   0  0.5003526E-03  0.1198383E+04  0.7818609E-02  0.9114273E-01
       -2   -1    0    0    0  501  0.00000000000E+00  0.00000000000E+00  0.26658101297E+03  0.26658101298E+03  0.25500000920E-02 0.  1.
        2   -1    0    0  501    0  0.00000000000E+00  0.00000000000E+00 -0.13467969478E+04  0.13467969478E+04  0.25500000920E-02 0. -1.
    10030    2    1    2    0    0  0.00000000000E+00  0.00000000000E+00 -0.10802159348E+04  0.16133779608E+04  0.11983830683E+04 0.  0.
        2    1    3    3  502    0 -0.33351421184E+03  0.24496977652E+03 -0.11235195371E+04  0.11973045023E+04  0.25500000920E-02 0. -1.
       -2    1    3    3    0  502  0.33351421184E+03 -0.24496977652E+03  0.43303602264E+02  0.41607345852E+03  0.25500000920E-02 0.  1.
</event>
<event>
 5   0  0.2875848E-03  0.1206684E+04  0.7818609E-02  0.9107026E-01
        1   -1    0    0  501    0  0.00000000000E+00  0.00000000000E+00  0.49953853913E+03  0.49953853916E+03  0.50400001928E-02 0.  1.
       -1   -1    0    0    0  501  0.00000000000E+00  0.00000000000E+00 -0.72871591443E+03  0.72871591445E+03  0.50400001928E-02 0. -1.
    10030    2    1    2    0    0  0.00000000000E+00  0.00000000000E+00 -0.22917737530E+03  0.12282544536E+04  0.12066841896E+04 0.  0.
        1    1    3    3  502    0 -0.29003540341E+03  0.41086159719E+03  0.22467691043E+03  0.55082438343E+03  0.50400001928E-02 0.  1.
       -1    1    3    3    0  502  0.29003540341E+03 -0.41086159719E+03 -0.45385428573E+03  0.67743007017E+03  0.50400001928E-02 0. -1.
</event>
<event>
 5   0  0.2792518E-03  0.1093856E+04  0.7818609E-02  0.9211201E-01
        1   -1    0    0  501    0  0.00000000000E+00  0.00000000000E+00  0.56505750995E+03  0.56505750997E+03  0.50400001928E-02 0.  1.
       -1   -1    0    0    0  501  0.00000000000E+00  0.00000000000E+00 -0.52938033978E+03  0.52938033980E+03  0.50400001928E-02 0. -1.
    10030    2    1    2    0    0  0.00000000000E+00  0.00000000000E+00  0.35677170170E+02  0.10944378498E+04  0.10938561818E+04 0.  0.
        2    1    3    3  502    0  0.43244050845E+03  0.23120635366E+03 -0.22450740233E+03  0.53931877867E+03  0.25500000920E-02 0. -1.
       -2    1    3    3    0  502 -0.43244050845E+03 -0.23120635366E+03  0.26018457251E+03  0.55511907110E+03  0.25500000920E-02 0.  1.
</event>
<event>
 5   0  0.5467554E-03  0.1167564E+04  0.7818609E-02  0.9141731E-01
        2   -1    0    0  501    0  0.00000000000E+00  0.00000000000E+00  0.51775519857E+03  0.51775519857E+03  0.25500000920E-02 0. -1.
       -2   -1    0    0    0  501  0.00000000000E+00  0.00000000000E+00 -0.65822915039E+03  0.65822915040E+03  0.25500000920E-02 0.  1.
    10030    2    1    2    0    0  0.00000000000E+00  0.00000000000E+00 -0.14047395183E+03  0.11759843490E+04  0.11675642414E+04 0.  0.
        1    1    3    3  502    0  0.12836475988E+03  0.38921380862E+03  0.34849747545E+03  0.53797341089E+03  0.50400001928E-02 0. -1.
       -1    1    3    3    0  502 -0.12836475988E+03 -0.38921380862E+03 -0.48897142727E+03  0.63801093809E+03  0.50400001928E-02 0.  1.
</event>
<event>
 5   0  0.2792518E-03  0.1246142E+04  0.7818609E-02  0.9073400E-01
       -1   -1    0    0    0  501  0.00000000000E+00  0.00000000000E+00  0.57292070925E+03  0.57292070927E+03  0.50400001928E-02 0. -1.
        1   -1    0    0  501    0  0.00000000000E+00  0.00000000000E+00 -0.67761141017E+03  0.67761141019E+03  0.50400001928E-02 0.  1.
    10030    2    1    2    0    0  0.00000000000E+00  0.00000000000E+00 -0.10469070092E+03  0.12505321195E+04  0.12461422226E+04 0.  0.
        2    1    3    3  502    0  0.10220573233E+02  0.57785976195E+03 -0.28595555221E+03  0.64482318696E+03  0.25500000920E-02 0.  1.
       -2    1    3    3    0  502 -0.10220573233E+02 -0.57785976195E+03  0.18126485129E+03  0.60570893250E+03  0.25500000920E-02 0. -1.
</event>
<event>
 5   0  0.2930868E-03  0.1187961E+04  0.7818609E-02  0.9123460E-01
       -1   -1    0    0    0  501  0.00000000000E+00  0.00000000000E+00  0.16632428084E+03  0.16632428091E+03  0.50400001928E-02 0.  1.
        1   -1    0    0  501    0  0.00000000000E+00  0.00000000000E+00 -0.21212342672E+04  0.21212342672E+04  0.50400001928E-02 0. -1.
    10030    2    1    2    0    0  0.00000000000E+00  0.00000000000E+00 -0.19549099864E+04  0.22875585481E+04  0.11879608816E+04 0.  0.
        3    1    3    3  502    0 -0.58629748889E+03  0.12798891990E+02 -0.79574975285E+03  0.98849695825E+03  0.10100000352E+00 0.  1.
       -3    1    3    3    0  502  0.58629748889E+03 -0.12798891990E+02 -0.11591602335E+04  0.12990615899E+04  0.10100000352E+00 0. -1.
</event>
<event>
 5   0  0.5467554E-03  0.1083145E+04  0.7818609E-02  0.9221777E-01
       -2   -1    0    0    0  501  0.00000000000E+00  0.00000000000E+00  0.15098491857E+03  0.15098491859E+03  0.25500000920E-02 0. -1.
        2   -1    0    0  501    0  0.00000000000E+00  0.00000000000E+00 -0.19425833134E+04  0.19425833134E+04  0.25500000920E-02 0.  1.
    10030    2    1    2    0    0  0.00000000000E+00  0.00000000000E+00 -0.17915983949E+04  0.20935682320E+04  0.10831450197E+04 0.  0.
        1    1    3    3  502    0 -0.46092155470E+03 -0.55360073002E+02 -0.14348814641E+04  0.15081108160E+04  0.50400001928E-02 0. -1.
       -1    1    3    3    0  502  0.46092155470E+03  0.55360073002E+02 -0.35671693077E+03  0.58545741604E+03  0.50400001928E-02 0.  1.
</event>
<event>
 5   0  0.5189537E-03  0.1164657E+04  0.7818609E-02  0.9144368E-01
       -2   -1    0    0    0  501  0.00000000000E+00  0.00000000000E+00  0.31590341383E+03  0.31590341384E+03  0.25500000920E-02 0.  1.
        2   -1    0    0  501    0  0.00000000000E+00  0.00000000000E+00 -0.10734490403E+04  0.10734490403E+04  0.25500000920E-02 0. -1.
    10030    2    1    2    0    0  0.00000000000E+00  0.00000000000E+00 -0.75754562650E+03  0.13893524542E+04  0.11646565441E+04 0.  0.
        4    1    3    3  502    0  0.55219950409E+03  0.16914935891E+03 -0.46779445295E+03  0.74321535308E+03  0.12699999809E+01 0. -1.
       -4    1    3    3    0  502 -0.55219950409E+03 -0.16914935891E+03 -0.28975117355E+03  0.64613710110E+03  0.12699999809E+01 0.  1.
</event>
<event>
 5   0  0.5189537E-03  0.1225819E+04  0.7818609E-02  0.9090552E-01
       -2   -1    0    0    0  501  0.00000000000E+00  0.00000000000E+00  0.39674090807E+03  0.39674090808E+03  0.25500000920E-02 0.  1.
        2   -1    0    0  501    0  0.00000000000E+00  0.00000000000E+00 -0.94686031916E+03  0.94686031916E+03  0.25500000920E-02 0. -1.
    10030    2    1    2    0    0  0.00000000000E+00  0.00000000000E+00 -0.55011941109E+03  0.13436012272E+04  0.12258192735E+04 0.  0.
        4    1    3    3  502    0 -0.22220997106E+02 -0.57947153095E+03 -0.57560617825E+02  0.58274854398E+03  0.12699999809E+01 0.  1.
       -4    1    3    3    0  502  0.22220997106E+02  0.57947153095E+03 -0.49255879327E+03  0.76085268325E+03  0.12699999809E+01 0. -1.
</event>
<event>
 5   0  0.5108045E-03  0.1184025E+04  0.7818609E-02  0.9126956E-01
       -2   -1    0    0    0  501  0.00000000000E+00  0.00000000000E+00  0.64580059757E+03  0.64580059758E+03  0.25500000920E-02 0.  1.
        2   -1    0    0  501    0  0.00000000000E+00  0.00000000000E+00 -0.54270413734E+03  0.54270413734E+03  0.25500000920E-02 0. -1.
    10030    2    1    2    0    0  0.00000000000E+00  0.00000000000E+00  0.10309646024E+03  0.11885047349E+04  0.11840247568E+04 0.  0.
        3    1    3    3  502    0 -0.12925226896E+03 -0.25610471963E+03  0.57137141982E+03  0.63934426254E+03  0.10100000352E+00 0.  1.
       -3    1    3    3    0  502  0.12925226896E+03  0.25610471963E+03 -0.46827495959E+03  0.54916047238E+03  0.10100000352E+00 0. -1.
</event>
<event>
 5   0  0.2875848E-03  0.1275661E+04  0.7818609E-02  0.9049092E-01
       -1   -1    0    0    0  501  0.00000000000E+00  0.00000000000E+00  0.60923045174E+03  0.60923045176E+03  0.50400001928E-02 0. -1.
        1   -1    0    0  501    0  0.00000000000E+00  0.00000000000E+00 -0.66777291935E+03  0.66777291937E+03  0.50400001928E-02 0.  1.
    10030    2    1    2    0    0  0.00000000000E+00  0.00000000000E+00 -0.58542467612E+02  0.12770033711E+04  0.12756607658E+04 0.  0.
        1    1    3    3  502    0 -0.10515670629E+03  0.29593172827E+03  0.52646535237E+03  0.61302470419E+03  0.50400001928E-02 0. -1.
       -1    1    3    3    0  502  0.10515670629E+03 -0.29593172827E+03 -0.58500781999E+03  0.66397866694E+03  0.50400001928E-02 0.  1.
</event>
<event>
 5   0  0.5003526E-03  0.1199372E+04  0.7818609E-02  0.9113406E-01
       -2   -1    0    0    0  501  0.00000000000E+00  0.00000000000E+00  0.27972987273E+03  0.27972987275E+03  0.25500000920E-02 0.  1.
        2   -1    0    0  501    0  0.00000000000E+00  0.00000000000E+00 -0.12856091541E+04  0.12856091541E+04  0.25500000920E-02 0. -1.
    10030    2    1    2    0    0  0.00000000000E+00  0.00000000000E+00 -0.10058792813E+04  0.15653390268E+04  0.11993719774E+04 0.  0.
        2    1    3    3  502    0 -0.19711801724E+03  0.52585821019E+03 -0.22842433328E+03  0.60626730572E+03  0.25500000920E-02 0. -1.
       -2    1    3    3    0  502  0.19711801724E+03 -0.52585821019E+03 -0.77745494804E+03  0.95907172108E+03  0.25500000920E-02 0.  1.
</event>
<event>
 5   0  0.5467554E-03  0.1209190E+04  0.7818609E-02  0.9104851E-01
        2   -1    0    0  501    0  0.00000000000E+00  0.00000000000E+00  0.90924694341E+03  0.90924694341E+03  0.25500000920E-02 0. -1.
       -2   -1    0    0    0  501  0.00000000000E+00  0.00000000000E+00 -0.40201932390E+03  0.40201932391E+03  0.25500000920E-02 0.  1.
    10030    2    1    2    0    0  0.00000000000E+00  0.00000000000E+00  0.50722761951E+03  0.13112662673E+04  0.12091895492E+04 0.  0.
        1    1    3    3  502    0 -0.60455909295E+03  0.61442454167E+01  0.25109553035E+03  0.65465900590E+03  0.50400001928E-02 0. -1.
       -1    1    3    3    0  502  0.60455909295E+03 -0.61442454167E+01  0.25613208916E+03  0.65660726142E+03  0.50400001928E-02 0.  1.
</event>
<event>
 5   0  0.2792518E-03  0.1175932E+04  0.7818609E-02  0.9134188E-01
       -1   -1    0    0    0  501  0.00000000000E+00  0.00000000000E+00  0.90953838096E+03  0.90953838097E+03  0.50400001928E-02 0.  1.
        1   -1    0    0  501    0  0.00000000000E+00  0.00000000000E+00 -0.38008720004E+03  0.38008720007E+03  0.50400001928E-02 0. -1.
    10030    2    1    2    0    0  0.00000000000E+00  0.00000000000E+00  0.52945118092E+03  0.12896255810E+04  0.11759317949E+04 0.  0.
        2    1    3    3  502    0  0.85633107977E+02  0.23752285611E+03  0.84705731659E+03  0.88388700293E+03  0.25500000920E-02 0.  1.
       -2    1    3    3    0  502 -0.85633107977E+02 -0.23752285611E+03 -0.31760613567E+03  0.40573857812E+03  0.25500000920E-02 0. -1.
</event>
<event>
 5   0  0.2792518E-03  0.1201863E+04  0.7818609E-02  0.9111227E-01
        1   -1    0    0  501    0  0.00000000000E+00  0.00000000000E+00  0.52634306912E+03  0.52634306914E+03  0.50400001928E-02 0.  1.
       -1   -1    0    0    0  501  0.00000000000E+00  0.00000000000E+00 -0.68609028979E+03  0.68609028981E+03  0.50400001928E-02 0. -1.
    10030    2    1    2    0    0  0.00000000000E+00  0.00000000000E+00 -0.15974722067E+03  0.12124333589E+04  0.12018633347E+04 0.  0.
        2    1    3    3  502    0 -0.48434776589E+03  0.34575334575E+03  0.44119830055E+01  0.59511141816E+03  0.25500000920E-02 0.  1.
       -2    1    3    3    0  502  0.48434776589E+03 -0.34575334575E+03 -0.16415920368E+03  0.61732194079E+03  0.25500000920E-02 0. -1.
</event>
<event>
 5   0  0.5467554E-03  0.1108050E+04  0.7818609E-02  0.9197381E-01
        2   -1    0    0  501    0  0.00000000000E+00  0.00000000000E+00  0.11004029678E+04  0.11004029678E+04  0.25500000920E-02 0.  1.
       -2   -1    0    0    0  501  0.00000000000E+00  0.00000000000E+00 -0.27893773528E+03  0.27893773529E+03  0.25500000920E-02 0. -1.
    10030    2    1    2    0    0  0.00000000000E+00  0.00000000000E+00  0.82146523252E+03  0.13793407031E+04  0.11080503811E+04 0.  0.
        1    1    3    3  502    0 -0.11676848429E+03 -0.49139809974E+03  0.69415341946E+03  0.85846138010E+03  0.50400001928E-02 0.  1.
       -1    1    3    3    0  502  0.11676848429E+03  0.49139809974E+03  0.12731181306E+03  0.52087932299E+03  0.50400001928E-02 0. -1.
</event>
<event>
 5   0  0.5189537E-03  0.1165619E+04  0.7818609E-02  0.9143494E-01
       -2   -1    0    0    0  501  0.00000000000E+00  0.00000000000E+00  0.25553021254E+03  0.25553021255E+03  0.25500000920E-02 0. -1.
        2   -1    0    0  501    0  0.00000000000E+00  0.00000000000E+00 -0.13292629106E+04  0.13292629106E+04  0.25500000920E-02 0.  1.
    10030    2    1    2    0    0  0.00000000000E+00  0.00000000000E+00 -0.10737326981E+04  0.15847931232E+04  0.11656188641E+04 0.  0.
        4    1    3    3  502    0 -0.49259097333E+02  0.40869552983E+03 -0.10977907983E+04  0.11724353903E+04  0.12699999809E+01 0.  1.
       -4    1    3    3    0  502  0.49259097333E+02 -0.40869552983E+03  0.24058100187E+02  0.41235773287E+03  0.12699999809E+01 0. -1.
</event>
<event>
 5   0  0.5189537E-03  0.1170150E+04  0.7818609E-02  0.9139393E-01
       -2   -1    0    0    0  501  0.00000000000E+00  0.00000000000E+00  0.65589736496E+03  0.65589736496E+03  0.25500000920E-02 0.  1.
        2   -1    0    0  501    0  0.00000000000E+00  0.00000000000E+00 -0.52190024880E+03  0.52190024881E+03  0.25500000920E-02 0. -1.
    10030    2    1    2    0    0  0.00000000000E+00  0.00000000000E+00  0.13399711615E+03  0.11777976138E+04  0.11701504142E+04 0.  0.
        4    1    3    3  502    0  0.29133674197E+02  0.18682310932E+03 -0.49029822851E+03  0.52549558602E+03  0.12699999809E+01 0. -1.
       -4    1    3    3    0  502 -0.29133674197E+02 -0.18682310932E+03  0.62429534466E+03  0.65230202775E+03  0.12699999809E+01 0.  1.
</event>
<event>
 5   0  0.2930868E-03  0.1291961E+04  0.7818609E-02  0.9035965E-01
        1   -1    0    0  501    0  0.00000000000E+00  0.00000000000E+00  0.17010021330E+04  0.17010021330E+04  0.50400001928E-02 0.  1.
       -1   -1    0    0    0  501  0.00000000000E+00  0.00000000000E+00 -0.24532038288E+03  0.24532038294E+03  0.50400001928E-02 0. -1.
    10030    2    1    2    0    0  0.00000000000E+00  0.00000000000E+00  0.14556817501E+04  0.19463225159E+04  0.12919605174E+04 0.  0.
        3    1    3    3  502    0 -0.28408680072E+03  0.57645929723E+03  0.82639617323E+03  0.10468721398E+04  0.10100000352E+00 0.  1.
       -3    1    3    3    0  502  0.28408680072E+03 -0.57645929723E+03  0.62928557687E+03  0.89945037616E+03  0.10100000352E+00 0. -1.
</event>
<event>
 5   0  0.2926844E-03  0.1139297E+04  0.7818609E-02  0.9167715E-01
       -1   -1    0    0    0  501  0.00000000000E+00  0.00000000000E+00  0.21292693108E+03  0.21292693114E+03  0.50400001928E-02 0.  1.
        1   -1    0    0  501    0  0.00000000000E+00  0.00000000000E+00 -0.15239942446E+04  0.15239942446E+04  0.50400001928E-02 0. -1.
    10030    2    1    2    0    0  0.00000000000E+00  0.00000000000E+00 -0.13110673136E+04  0.17369211758E+04  0.11392970070E+04 0.  0.
        5    1    3    3  502    0 -0.98714827593E+02 -0.39058714201E+03 -0.12694854844E+04  0.13318852870E+04  0.46999998093E+01 0. -1.
       -5    1    3    3    0  502  0.98714827593E+02  0.39058714201E+03 -0.41581829188E+02  0.40503588879E+03  0.46999998093E+01 0.  1.
</event>
<event>
 5   0  0.5003526E-03  0.1425062E+04  0.7818609E-02  0.8935875E-01
        2   -1    0    0  501    0  0.00000000000E+00  0.00000000000E+00  0.31528744445E+03  0.31528744446E+03  0.25500000920E-02 0. -1.
       -2   -1    0    0    0  501  0.00000000000E+00  0.00000000000E+00 -0.16102775439E+04  0.16102775439E+04  0.25500000920E-02 0.  1.
    10030    2    1    2    0    0  0.00000000000E+00  0.00000000000E+00 -0.12949900994E+04  0.19255649883E+04  0.14250618115E+04 0.  0.
        2    1    3    3  502    0 -0.50845521353E+03  0.32515855992E+03 -0.11592569385E+04  0.13069550270E+04  0.25500000920E-02 0.  1.
       -2    1    3    3    0  502  0.50845521353E+03 -0.32515855992E+03 -0.13573316095E+03  0.61860996132E+03  0.25500000920E-02 0. -1.
</event>
<event>
 5   0  0.2792518E-03  0.1191473E+04  0.7818609E-02  0.9120353E-01
       -1   -1    0    0    0  501  0.00000000000E+00  0.00000000000E+00  0.53793942350E+03  0.53793942352E+03  0.50400001928E-02 0.  1.
        1   -1    0    0  501    0  0.00000000000E+00  0.00000000000E+00 -0.65974289894E+03  0.65974289896E+03  0.50400001928E-02 0. -1.
    10030    2    1    2    0    0  0.00000000000E+00  0.00000000000E+00 -0.12180347544E+03  0.11976823225E+04  0.11914725590E+04 0.  0.
        2    1    3    3  502    0 -0.40449963105E+03  0.29974364164E+03  0.25924760086E+03  0.56628219183E+03  0.25500000920E-02 0.  1.
       -2    1    3    3    0  502  0.40449963105E+03 -0.29974364164E+03 -0.38105107631E+03  0.63140013065E+03  0.25500000920E-02 0. -1.
</event>
<event>
 5   0  0.2792518E-03  0.1207453E+04  0.7818609E-02  0.9106358E-01
        1   -1    0    0  501    0  0.00000000000E+00  0.00000000000E+00  0.37064303712E+03  0.37064303715E+03  0.50400001928E-02 0. -1.
       -1   -1    0    0    0  501  0.00000000000E+00  0.00000000000E+00 -0.98338784294E+03  0.98338784296E+03  0.50400001928E-02 0.  1.
    10030    2    1    2    0    0  0.00000000000E+00  0.00000000000E+00 -0.61274480582E+03  0.13540308801E+04  0.12074532816E+04 0.  0.
        2    1    3    3  502    0  0.36078637023E+03  0.47904437946E+03 -0.22839289867E+03  0.64172707486E+03  0.25500000920E-02 0.  1.
       -2    1    3    3    0  502 -0.36078637023E+03 -0.47904437946E+03 -0.38435190716E+03  0.71230380525E+03  0.25500000920E-02 0. -1.
</event>
<event>
 5   0  0.2875848E-03  0.1219535E+04  0.7818609E-02  0.9095927E-01
        1   -1    0    0  501    0  0.00000000000E+00  0.00000000000E+00  0.44286225980E+03  0.44286225983E+03  0.50400001928E-02 0.  1.
       -1   -1    0    0    0  501  0.00000000000E+00  0.00000000000E+00 -0.83957586729E+03  0.83957586730E+03  0.50400001928E-02 0. -1.
    10030    2    1    2    0    0  0.00000000000E+00  0.00000000000E+00 -0.39671360748E+03  0.12824381271E+04  0.12195351014E+04 0.  0.
        1    1    3    3  502    0  0.38958300393E+03  0.11693649410E+03 -0.67606497286E+03  0.78899487207E+03  0.50400001928E-02 0. -1.
       -1    1    3    3    0  502 -0.38958300393E+03 -0.11693649410E+03  0.27935136538E+03  0.49344325506E+03  0.50400001928E-02 0.  1.
</event>
<event>
 5   0  0.5003526E-03  0.1270803E+04  0.7818609E-02  0.9053045E-01
        2   -1    0    0  501    0  0.00000000000E+00  0.00000000000E+00  0.52599061004E+03  0.52599061005E+03  0.25500000920E-02 0. -1.
       -2   -1    0    0    0  501  0.00000000000E+00  0.00000000000E+00 -0.76757083792E+03  0.76757083792E+03  0.25500000920E-02 0.  1.
    10030    2    1    2    0    0  0.00000000000E+00  0.00000000000E+00 -0.24158022788E+03  0.12935614480E+04  0.12708029797E+04 0.  0.
        2    1    3    3  502    0 -0.34183981327E+03  0.19527867105E+03 -0.62846727011E+03  0.74159242641E+03  0.25500000920E-02 0.  1.
       -2    1    3    3    0  502  0.34183981327E+03 -0.19527867105E+03  0.38688704223E+03  0.55196902156E+03  0.25500000920E-02 0. -1.
</event>
<event>
 5   0  0.5189537E-03  0.1214934E+04  0.7818609E-02  0.9099885E-01
        2   -1    0    0  501    0  0.00000000000E+00  0.00000000000E+00  0.56660354532E+03  0.56660354532E+03  0.25500000920E-02 0.  1.
       -2   -1    0    0    0  501  0.00000000000E+00  0.00000000000E+00 -0.65127719020E+03  0.65127719021E+03  0.25500000920E-02 0. -1.
    10030    2    1    2    0    0  0.00000000000E+00  0.00000000000E+00 -0.84673644888E+02  0.12178807355E+04  0.12149336854E+04 0.  0.
        4    1    3    3  502    0  0.60078188180E+02 -0.54010531331E+03  0.22978291461E+03  0.59002113429E+03  0.12699999809E+01 0.  1.
       -4    1    3    3    0  502 -0.60078188180E+02  0.54010531331E+03 -0.31445655949E+03  0.62785960124E+03  0.12699999809E+01 0. -1.
</event>
<event>
 5   0  0.2875848E-03  0.1212002E+04  0.7818609E-02  0.9102415E-01
        1   -1    0    0  501    0  0.00000000000E+00  0.00000000000E+00  0.13538343548E+04  0.13538343549E+04  0.50400001928E-02 0.  1.
       -1   -1    0    0    0  501  0.00000000000E+00  0.00000000000E+00 -0.27125727769E+03  0.27125727774E+03  0.50400001928E-02 0. -1.
    10030    2    1    2    0    0  0.00000000000E+00  0.00000000000E+00  0.10825770772E+04  0.16250916326E+04  0.12120023459E+04 0.  0.
        1    1    3    3  502    0 -0.16652026895E+03 -0.54740099381E+03  0.27358989811E+03  0.63421469580E+03  0.50400001928E-02 0. -1.
       -1    1    3    3    0  502  0.16652026895E+03  0.54740099381E+03  0.80898717904E+03  0.99087693680E+03  0.50400001928E-02 0.  1.
</event>
<event>
 5   0  0.5467554E-03  0.1202522E+04  0.7818609E-02  0.9110652E-01
        2   -1    0    0  501    0  0.00000000000E+00  0.00000000000E+00  0.10407842750E+04  0.10407842750E+04  0.25500000920E-02 0.  1.
       -2   -1    0    0    0  501  0.00000000000E+00  0.00000000000E+00 -0.34734821900E+03  0.34734821901E+03  0.25500000920E-02 0. -1.
    10030    2    1    2    0    0  0.00000000000E+00  0.00000000000E+00  0.69343605604E+03  0.13881324940E+04  0.12025216244E+04 0.  0.
        1    1    3    3  502    0 -0.11699800149E+03  0.14375324380E+03 -0.31354778874E+03  0.36423308925E+03  0.50400001928E-02 0. -1.
       -1    1    3    3    0  502  0.11699800149E+03 -0.14375324380E+03  0.10069838448E+04  0.10238994048E+04  0.50400001928E-02 0.  1.
</event>
<event>
 5   0  0.2792518E-03  0.1210307E+04  0.7818609E-02  0.9103882E-01
        1   -1    0    0  501    0  0.00000000000E+00  0.00000000000E+00  0.86530012577E+03  0.86530012579E+03  0.50400001928E-02 0.  1.
       -1   -1    0    0    0  501  0.00000000000E+00  0.00000000000E+00 -0.42321835172E+03  0.42321835175E+03  0.50400001928E-02 0. -1.
    10030    2    1    2    0    0  0.00000000000E+00  0.00000000000E+00  0.44208177405E+03  0.12885184775E+04  0.12103072222E+04 0.  0.
        2    1    3    3  502    0  0.15427582470E+03  0.50976567400E+03  0.52692045077E+03  0.74920440063E+03  0.25500000920E-02 0.  1.
       -2    1    3    3    0  502 -0.15427582470E+03 -0.50976567400E+03 -0.84838676717E+02  0.53931407691E+03  0.25500000920E-02 0. -1.
</event>
<event>
 5   0  0.2875848E-03  0.1185667E+04  0.7818609E-02  0.9125495E-01
       -1   -1    0    0    0  501  0.00000000000E+00  0.00000000000E+00  0.26352165302E+03  0.26352165307E+03  0.50400001928E-02 0. -1.
        1   -1    0    0  501    0  0.00000000000E+00  0.00000000000E+00 -0.13336729799E+04  0.13336729799E+04  0.50400001928E-02 0.  1.
    10030    2    1    2    0    0  0.00000000000E+00  0.00000000000E+00 -0.10701513269E+04  0.15971946330E+04  0.11856672523E+04 0.  0.
        1    1    3    3  502    0 -0.21187986313E+03  0.55292339341E+03 -0.57398644084E+03  0.82466829069E+03  0.50400001928E-02 0. -1.
       -1    1    3    3    0  502  0.21187986313E+03 -0.55292339341E+03 -0.49616488608E+03  0.77252634233E+03  0.50400001928E-02 0.  1.
</event>
<event>
 5   0  0.2930868E-03  0.1161898E+04  0.7818609E-02  0.9146877E-01
        1   -1    0    0  501    0  0.00000000000E+00  0.00000000000E+00  0.50672348347E+03  0.50672348349E+03  0.50400001928E-02 0.  1.
       -1   -1    0    0    0  501  0.00000000000E+00  0.00000000000E+00 -0.66604727676E+03  0.66604727677E+03  0.50400001928E-02 0. -1.
    10030    2    1    2    0    0  0.00000000000E+00  0.00000000000E+00 -0.15932379329E+03  0.11727707603E+04  0.11618980958E+04 0.  0.
        3    1    3    3  502    0 -0.48172895589E+03  0.26675125667E+03  0.10722679252E+03  0.56099609189E+03  0.10100000352E+00 0.  1.
       -3    1    3    3    0  502  0.48172895589E+03 -0.26675125667E+03 -0.26655058581E+03  0.61177466838E+03  0.10100000352E+00 0. -1.
</event>
<event>
 5   0  0.2875848E-03  0.1243382E+04  0.7818609E-02  0.9075709E-01
       -1   -1    0    0    0  501  0.00000000000E+00  0.00000000000E+00  0.26941477837E+03  0.26941477842E+03  0.50400001928E-02 0.  1.
        1   -1    0    0  501    0  0.00000000000E+00  0.00000000000E+00 -0.14345899612E+04  0.14345899612E+04  0.50400001928E-02 0. -1.
    10030    2    1    2    0    0  0.00000000000E+00  0.00000000000E+00 -0.11651751828E+04  0.17040047396E+04  0.12433820595E+04 0.  0.
        1    1    3    3  502    0 -0.26086773664E+03 -0.52219801519E+03 -0.87574099548E+03  0.10524566662E+04  0.50400001928E-02 0. -1.
       -1    1    3    3    0  502  0.26086773664E+03  0.52219801519E+03 -0.28943418730E+03  0.65154807336E+03  0.50400001928E-02 0.  1.
</event>
<event>
 5   0  0.2875848E-03  0.1221096E+04  0.7818609E-02  0.9094589E-01
       -1   -1    0    0    0  501  0.00000000000E+00  0.00000000000E+00  0.27568377321E+03  0.27568377326E+03  0.50400001928E-02 0.  1.
        1   -1    0    0  501    0  0.00000000000E+00  0.00000000000E+00 -0.13521613803E+04  0.13521613803E+04  0.50400001928E-02 0. -1.
    10030    2    1    2    0    0  0.00000000000E+00  0.00000000000E+00 -0.10764776071E+04  0.16278451536E+04  0.12210961491E+04 0.  0.
        1    1    3    3  502    0  0.54176882765E+03 -0.27020945665E+03 -0.43291249140E+03  0.74427134724E+03  0.50400001928E-02 0.  1.
       -1    1    3    3    0  502 -0.54176882765E+03  0.27020945665E+03 -0.64356511568E+03  0.88357380633E+03  0.50400001928E-02 0. -1.
</event>
<event>
 5   0  0.2792518E-03  0.8908075E+03  0.7818609E-02  0.9437146E-01
       -1   -1    0    0    0  501  0.00000000000E+00  0.00000000000E+00  0.27346616917E+03  0.27346616921E+03  0.50400001928E-02 0. -1.
        1   -1    0    0  501    0  0.00000000000E+00  0.00000000000E+00 -0.72544441286E+03  0.72544441288E+03  0.50400001928E-02 0.  1.
    10030    2    1    2    0    0  0.00000000000E+00  0.00000000000E+00 -0.45197824370E+03  0.99891058209E+03  0.89080750908E+03 0.  0.
        2    1    3    3  502    0  0.38853969093E+03  0.21693828538E+03 -0.24724147172E+03  0.50907136674E+03  0.25500000920E-02 0.  1.
       -2    1    3    3    0  502 -0.38853969093E+03 -0.21693828538E+03 -0.20473677198E+03  0.48983921535E+03  0.25500000920E-02 0. -1.
</event>
<event>
 5   0  0.2875848E-03  0.1148603E+04  0.7818609E-02  0.9159073E-01
       -1   -1    0    0    0  501  0.00000000000E+00  0.00000000000E+00  0.29838428064E+03  0.29838428068E+03  0.50400001928E-02 0.  1.
        1   -1    0    0  501    0  0.00000000000E+00  0.00000000000E+00 -0.11053606961E+04  0.11053606961E+04  0.50400001928E-02 0. -1.
    10030    2    1    2    0    0  0.00000000000E+00  0.00000000000E+00 -0.80697641542E+03  0.14037449768E+04  0.11486030754E+04 0.  0.
        1    1    3    3  502    0 -0.55297500511E+03  0.99709984145E+01 -0.59258916565E+03  0.81058170246E+03  0.50400001928E-02 0.  1.
       -1    1    3    3    0  502  0.55297500511E+03 -0.99709984145E+01 -0.21438724977E+03  0.59316327430E+03  0.50400001928E-02 0. -1.
</event>
<event>
 5   0  0.5003526E-03  0.1226833E+04  0.7818609E-02  0.9089688E-01
       -2   -1    0    0    0  501  0.00000000000E+00  0.00000000000E+00  0.50542079154E+03  0.50542079154E+03  0.25500000920E-02 0. -1.
        2   -1    0    0  501    0  0.00000000000E+00  0.00000000000E+00 -0.74448874996E+03  0.74448874996E+03  0.25500000920E-02 0.  1.
    10030    2    1    2    0    0  0.00000000000E+00  0.00000000000E+00 -0.23906795842E+03  0.12499095415E+04  0.12268334741E+04 0.  0.
        2    1    3    3  502    0 -0.86939775283E+02  0.19499112687E+03 -0.70541588128E+03  0.73701535238E+03  0.25500000920E-02 0.  1.
       -2    1    3    3    0  502  0.86939775283E+02 -0.19499112687E+03  0.46634792285E+03  0.51289418913E+03  0.25500000920E-02 0. -1.
</event>
<event>
 5   0  0.2792518E-03  0.1199562E+04  0.7818609E-02  0.9113240E-01
       -1   -1    0    0    0  501  0.00000000000E+00  0.00000000000E+00  0.46471417951E+03  0.46471417954E+03  0.50400001928E-02 0. -1.
        1   -1    0    0  501    0  0.00000000000E+00  0.00000000000E+00 -0.77410430905E+03  0.77410430907E+03  0.50400001928E-02 0.  1.
    10030    2    1    2    0    0  0.00000000000E+00  0.00000000000E+00 -0.30939012954E+03  0.12388184886E+04  0.11995620015E+04 0.  0.
        2    1    3    3  502    0  0.19328329610E+03 -0.17073773903E+03  0.40453084295E+03  0.47974473524E+03  0.25500000920E-02 0. -1.
       -2    1    3    3    0  502 -0.19328329610E+03  0.17073773903E+03 -0.71392097250E+03  0.75907375337E+03  0.25500000920E-02 0.  1.
</event>
<event>
 5   0  0.2926844E-03  0.1188171E+04  0.7818609E-02  0.9123274E-01
       -1   -1    0    0    0  501  0.00000000000E+00  0.00000000000E+00  0.26775707174E+03  0.26775707178E+03  0.50400001928E-02 0. -1.
        1   -1    0    0  501    0  0.00000000000E+00  0.00000000000E+00 -0.13181264988E+04  0.13181264988E+04  0.50400001928E-02 0.  1.
    10030    2    1    2    0    0  0.00000000000E+00  0.00000000000E+00 -0.10503694270E+04  0.15858835706E+04  0.11881711855E+04 0.  0.
        5    1    3    3  502    0 -0.47578095497E+03  0.30946320328E+03 -0.29101490720E+03  0.63784540251E+03  0.46999998093E+01 0. -1.
       -5    1    3    3    0  502  0.47578095497E+03 -0.30946320328E+03 -0.75935451983E+03  0.94803816805E+03  0.46999998093E+01 0.  1.
</event>
<event>
 5   0  0.5467554E-03  0.1173739E+04  0.7818609E-02  0.9136159E-01
       -2   -1    0    0    0  501  0.00000000000E+00  0.00000000000E+00  0.41429203901E+03  0.41429203902E+03  0.25500000920E-02 0.  1.
        2   -1    0    0  501    0  0.00000000000E+00  0.00000000000E+00 -0.83133513176E+03  0.83133513176E+03  0.25500000920E-02 0. -1.
    10030    2    1    2    0    0  0.00000000000E+00  0.00000000000E+00 -0.41704309274E+03  0.12456271708E+04  0.11737385175E+04 0.  0.
        1    1    3    3  502    0  0.29746834076E+03  0.14416421597E+03  0.30609577315E+03  0.45051676693E+03  0.50400001928E-02 0.  1.
       -1    1    3    3    0  502 -0.29746834076E+03 -0.14416421597E+03 -0.72313886590E+03  0.79511040385E+03  0.50400001928E-02 0. -1.
</event>
<event>
 5   0  0.5467554E-03  0.1207104E+04  0.7818609E-02  0.9106661E-01
       -2   -1    0    0    0  501  0.00000000000E+00  0.00000000000E+00  0.49095067377E+03  0.49095067378E+03  0.25500000920E-02 0. -1.
        2   -1    0    0  501    0  0.00000000000E+00  0.00000000000E+00 -0.74197857714E+03  0.74197857714E+03  0.25500000920E-02 0.  1.
    10030    2    1    2    0    0  0.00000000000E+00  0.00000000000E+00 -0.25102790337E+03  0.12329292509E+04  0.12071037774E+04 0.  0.
        1    1    3    3  502    0 -0.21847161614E+03  0.54900597041E+03 -0.25118068760E+03  0.64205073043E+03  0.50400001928E-02 0. -1.
       -1    1    3    3    0  502  0.21847161614E+03 -0.54900597041E+03  0.15278423188E+00  0.59087852049E+03  0.50400001928E-02 0.  1.
</event>
<event>
 5   0  0.5003526E-03  0.1169084E+04  0.7818609E-02  0.9140356E-01
       -2   -1    0    0    0  501  0.00000000000E+00  0.00000000000E+00  0.21118822100E+03  0.21118822102E+03  0.25500000920E-02 0.  1.
        2   -1    0    0  501    0  0.00000000000E+00  0.00000000000E+00 -0.16179372982E+04  0.16179372982E+04  0.25500000920E-02 0. -1.
    10030    2    1    2    0    0  0.00000000000E+00  0.00000000000E+00 -0.14067490772E+04  0.18291255192E+04  0.11690839144E+04 0.  0.
        2    1    3    3  502    0 -0.22463253626E+03  0.99140436513E+02 -0.15333407427E+04  0.15528755377E+04  0.25500000920E-02 0. -1.
       -2    1    3    3    0  502  0.22463253626E+03 -0.99140436513E+02  0.12659166548E+03  0.27624998149E+03  0.25500000920E-02 0.  1.
</event>
<event>
 5   0  0.5031575E-03  0.1191469E+04  0.7818609E-02  0.9120356E-01
        2   -1    0    0  501    0  0.00000000000E+00  0.00000000000E+00  0.39768835407E+03  0.39768835408E+03  0.25500000920E-02 0. -1.
       -2   -1    0    0    0  501  0.00000000000E+00  0.00000000000E+00 -0.89240677225E+03  0.89240677226E+03  0.25500000920E-02 0.  1.
    10030    2    1    2    0    0  0.00000000000E+00  0.00000000000E+00 -0.49471841818E+03  0.12900951263E+04  0.11914693121E+04 0.  0.
        5    1    3    3  502    0  0.41394448403E+03  0.34961869645E+03  0.20711491554E+02  0.54224931963E+03  0.46999998093E+01 0. -1.
       -5    1    3    3    0  502 -0.41394448403E+03 -0.34961869645E+03 -0.51542990973E+03  0.74784580671E+03  0.46999998093E+01 0.  1.
</event>
<event>
 5   0  0.2938349E-03  0.1184816E+04  0.7818609E-02  0.9126252E-01
       -1   -1    0    0    0  501  0.00000000000E+00  0.00000000000E+00  0.28692531628E+03  0.28692531633E+03  0.50400001928E-02 0.  1.
        1   -1    0    0  501    0  0.00000000000E+00  0.00000000000E+00 -0.12231308198E+04  0.12231308199E+04  0.50400001928E-02 0. -1.
    10030    2    1    2    0    0  0.00000000000E+00  0.00000000000E+00 -0.93620550357E+03  0.15100561362E+04  0.11848159307E+04 0.  0.
        4    1    3    3  502    0 -0.31965241999E+03 -0.85430356243E+02 -0.10943897720E+04  0.11433138683E+04  0.12699999809E+01 0. -1.
       -4    1    3    3    0  502  0.31965241999E+03  0.85430356243E+02  0.15818426848E+03  0.36674226790E+03  0.12699999809E+01 0.  1.
</event>
<event>
 5   0  0.5467554E-03  0.1191304E+04  0.7818609E-02  0.9120502E-01
        2   -1    0    0  501    0  0.00000000000E+00  0.00000000000E+00  0.81166430109E+03  0.81166430109E+03  0.25500000920E-02 0. -1.
       -2   -1    0    0    0  501  0.00000000000E+00  0.00000000000E+00 -0.43712835214E+03  0.43712835215E+03  0.25500000920E-02 0.  1.
    10030    2    1    2    0    0  0.00000000000E+00  0.00000000000E+00  0.37453594894E+03  0.12487926532E+04  0.11913042910E+04 0.  0.
        1    1    3    3  502    0 -0.96279335857E+01 -0.22981518753E+03  0.76323112395E+03  0.79713829799E+03  0.50400001928E-02 0. -1.
       -1    1    3    3    0  502  0.96279335857E+01  0.22981518753E+03 -0.38869517501E+03  0.45165435526E+03  0.50400001928E-02 0.  1.
</event>
<event>
 5   0  0.2875848E-03  0.1229843E+04  0.7818609E-02  0.9087128E-01
        1   -1    0    0  501    0  0.00000000000E+00  0.00000000000E+00  0.37929239225E+03  0.37929239229E+03  0.50400001928E-02 0. -1.
       -1   -1    0    0    0  501  0.00000000000E+00  0.00000000000E+00 -0.99693200890E+03  0.99693200892E+03  0.50400001928E-02 0.  1.
    10030    2    1    2    0    0  0.00000000000E+00  0.00000000000E+00 -0.61763961665E+03  0.13762244012E+04  0.12298434479E+04 0.  0.
        1    1    3    3  502    0 -0.44331864112E+03 -0.21419429115E+03 -0.72106759353E+03  0.87312604267E+03  0.50400001928E-02 0.  1.
       -1    1    3    3    0  502  0.44331864112E+03  0.21419429115E+03  0.10342797688E+03  0.50309835853E+03  0.50400001928E-02 0. -1.
</event>
<event>
 5   0  0.2792518E-03  0.1195212E+04  0.7818609E-02  0.9117058E-01
        1   -1    0    0  501    0  0.00000000000E+00  0.00000000000E+00  0.16904664346E+04  0.16904664346E+04  0.50400001928E-02 0.  1.
       -1   -1    0    0    0  501  0.00000000000E+00  0.00000000000E+00 -0.21126284991E+03  0.21126284997E+03  0.50400001928E-02 0. -1.
    10030    2    1    2    0    0  0.00000000000E+00  0.00000000000E+00  0.14792035847E+04  0.19017292846E+04  0.11952117080E+04 0.  0.
        2    1    3    3  502    0 -0.12143686726E+03  0.43174674793E+03  0.11119751230E+03  0.46207905582E+03  0.25500000920E-02 0. -1.
       -2    1    3    3    0  502  0.12143686726E+03 -0.43174674793E+03  0.13680060724E+04  0.14396502287E+04  0.25500000920E-02 0.  1.
</event>
<event>
 5   0  0.2875848E-03  0.1195315E+04  0.7818609E-02  0.9116967E-01
       -1   -1    0    0    0  501  0.00000000000E+00  0.00000000000E+00  0.42610031564E+03  0.42610031567E+03  0.50400001928E-02 0. -1.
        1   -1    0    0  501    0  0.00000000000E+00  0.00000000000E+00 -0.83828748455E+03  0.83828748457E+03  0.50400001928E-02 0.  1.
    10030    2    1    2    0    0  0.00000000000E+00  0.00000000000E+00 -0.41218716891E+03  0.12643878002E+04  0.11953151246E+04 0.  0.
        1    1    3    3  502    0  0.24966942777E+03 -0.38381531817E+03  0.20021960969E+03  0.49973684450E+03  0.50400001928E-02 0. -1.
       -1    1    3    3    0  502 -0.24966942777E+03  0.38381531817E+03 -0.61240677859E+03  0.76465095574E+03  0.50400001928E-02 0.  1.
</event>
<event>
 5   0  0.2926844E-03  0.1207849E+04  0.7818609E-02  0.9106014E-01
        1   -1    0    0  501    0  0.00000000000E+00  0.00000000000E+00  0.54687080674E+03  0.54687080677E+03  0.50400001928E-02 0. -1.
       -1   -1    0    0    0  501  0.00000000000E+00  0.00000000000E+00 -0.66693097164E+03  0.66693097166E+03  0.50400001928E-02 0.  1.
    10030    2    1    2    0    0  0.00000000000E+00  0.00000000000E+00 -0.12006016490E+03  0.12138017784E+04  0.12078494584E+04 0.  0.
        5    1    3    3  502    0 -0.27606759263E+03 -0.31933664922E+03 -0.49403077182E+03  0.64982898115E+03  0.46999998093E+01 0.  1.
       -5    1    3    3    0  502  0.27606759263E+03  0.31933664922E+03  0.37397060692E+03  0.56397279728E+03  0.46999998093E+01 0. -1.
</event>
<event>
 5   0  0.2792518E-03  0.1209263E+04  0.7818609E-02  0.9104787E-01
        1   -1    0    0  501    0  0.00000000000E+00  0.00000000000E+00  0.16930372511E+04  0.16930372511E+04  0.50400001928E-02 0. -1.
       -1   -1    0    0    0  501  0.00000000000E+00  0.00000000000E+00 -0.21593103584E+03  0.21593103589E+03  0.50400001928E-02 0.  1.
    10030    2    1    2    0    0  0.00000000000E+00  0.00000000000E+00  0.14771062152E+04  0.19089682870E+04  0.12092630605E+04 0.  0.
        2    1    3    3  502    0 -0.36955987063E+03  0.10483898179E+03  0.14756417131E+04  0.15248226702E+04  0.25500000920E-02 0. -1.
       -2    1    3    3    0  502  0.36955987063E+03 -0.10483898179E+03  0.14645020881E+01  0.38414561674E+03  0.25500000920E-02 0.  1.
</event>
<event>
 5   0  0.5467554E-03  0.1258691E+04  0.7818609E-02  0.9062981E-01
       -2   -1    0    0    0  501  0.00000000000E+00  0.00000000000E+00  0.38105477191E+03  0.38105477192E+03  0.25500000920E-02 0.  1.
        2   -1    0    0  501    0  0.00000000000E+00  0.00000000000E+00 -0.10394197113E+04  0.10394197113E+04  0.25500000920E-02 0. -1.
    10030    2    1    2    0    0  0.00000000000E+00  0.00000000000E+00 -0.65836493944E+03  0.14204744833E+04  0.12586911313E+04 0.  0.
        1    1    3    3  502    0  0.44397422099E+03 -0.44757061040E+02  0.17166187287E+03  0.47810469778E+03  0.50400001928E-02 0.  1.
       -1    1    3    3    0  502 -0.44397422099E+03  0.44757061040E+02 -0.83002681230E+03  0.94236978548E+03  0.50400001928E-02 0. -1.
</event>
<event>
 5   0  0.5031575E-03  0.1193022E+04  0.7818609E-02  0.9118986E-01
       -2   -1    0    0    0  501  0.00000000000E+00  0.00000000000E+00  0.22731084521E+03  0.22731084522E+03  0.25500000920E-02 0.  1.
        2   -1    0    0  501    0  0.00000000000E+00  0.00000000000E+00 -0.15653703551E+04  0.15653703551E+04  0.25500000920E-02 0. -1.
    10030    2    1    2    0    0  0.00000000000E+00  0.00000000000E+00 -0.13380595099E+04  0.17926812004E+04  0.11930224784E+04 0.  0.
        5    1    3    3  502    0 -0.31053879447E+03 -0.49856038596E+03 -0.51282209189E+03  0.77974700336E+03  0.46999998093E+01 0. -1.
       -5    1    3    3    0  502  0.31053879447E+03  0.49856038596E+03 -0.82523741803E+03  0.10129341970E+04  0.46999998093E+01 0.  1.
</event>
<event>
 5   0  0.2875848E-03  0.1203204E+04  0.7818609E-02  0.9110057E-01
       -1   -1    0    0    0  501  0.00000000000E+00  0.00000000000E+00  0.10554964474E+04  0.10554964475E+04  0.50400001928E-02 0. -1.
        1   -1    0    0  501    0  0.00000000000E+00  0.00000000000E+00 -0.34289529122E+03  0.34289529126E+03  0.50400001928E-02 0.  1.
    10030    2    1    2    0    0  0.00000000000E+00  0.00000000000E+00  0.71260115622E+03  0.13983917387E+04  0.12032036598E+04 0.  0.
        1    1    3    3  502    0  0.30713517026E+03  0.37553098760E+03 -0.57178717712E+02  0.48849251913E+03  0.50400001928E-02 0.  1.
       -1    1    3    3    0  502 -0.30713517026E+03 -0.37553098760E+03  0.76977987393E+03  0.90989921958E+03  0.50400001928E-02 0. -1.
</event>
<event>
 5   0  0.2792518E-03  0.1208557E+04  0.7818609E-02  0.9105400E-01
        1   -1    0    0  501    0  0.00000000000E+00  0.00000000000E+00  0.78920905250E+03  0.78920905252E+03  0.50400001928E-02 0. -1.
       -1   -1    0    0    0  501  0.00000000000E+00  0.00000000000E+00 -0.46268124301E+03  0.46268124304E+03  0.50400001928E-02 0.  1.
    10030    2    1    2    0    0  0.00000000000E+00  0.00000000000E+00  0.32652780949E+03  0.12518902956E+04  0.12085565364E+04 0.  0.
        2    1    3    3  502    0  0.33543762923E+03 -0.45821178234E+03 -0.50724410642E+02  0.57013104320E+03  0.25500000920E-02 0.  1.
       -2    1    3    3    0  502 -0.33543762923E+03  0.45821178234E+03  0.37725222013E+03  0.68175925236E+03  0.25500000920E-02 0. -1.
</event>
<event>
 5   0  0.2875848E-03  0.1195706E+04  0.7818609E-02  0.9116624E-01
        1   -1    0    0  501    0  0.00000000000E+00  0.00000000000E+00  0.14033794096E+04  0.14033794096E+04  0.50400001928E-02 0. -1.
       -1   -1    0    0    0  501  0.00000000000E+00  0.00000000000E+00 -0.25469101448E+03  0.25469101453E+03  0.50400001928E-02 0.  1.
    10030    2    1    2    0    0  0.00000000000E+00  0.00000000000E+00  0.11486883952E+04  0.16580704242E+04  0.11957058595E+04 0.  0.
        1    1    3    3  502    0 -0.59504405703E+03  0.51953075421E+02  0.53894769176E+03  0.80451299948E+03  0.50400001928E-02 0.  1.
       -1    1    3    3    0  502  0.59504405703E+03 -0.51953075421E+02  0.60974070340E+03  0.85355742470E+03  0.50400001928E-02 0. -1.
</event>
<event>
 5   0  0.2792518E-03  0.1195282E+04  0.7818609E-02  0.9116997E-01
        1   -1    0    0  501    0  0.00000000000E+00  0.00000000000E+00  0.55197708340E+03  0.55197708342E+03  0.50400001928E-02 0. -1.
       -1   -1    0    0    0  501  0.00000000000E+00  0.00000000000E+00 -0.64708221855E+03  0.64708221857E+03  0.50400001928E-02 0.  1.
    10030    2    1    2    0    0  0.00000000000E+00  0.00000000000E+00 -0.95105135157E+02  0.11990593020E+04  0.11952816501E+04 0.  0.
        2    1    3    3  502    0 -0.24934317511E+03  0.39136912301E+03  0.33024457287E+03  0.56956412048E+03  0.25500000920E-02 0. -1.
       -2    1    3    3    0  502  0.24934317511E+03 -0.39136912301E+03 -0.42534970803E+03  0.62949518151E+03  0.25500000920E-02 0.  1.
</event>
<event>
 5   0  0.2930868E-03  0.1261181E+04  0.7818609E-02  0.9060928E-01
        1   -1    0    0  501    0  0.00000000000E+00  0.00000000000E+00  0.16158594428E+04  0.16158594428E+04  0.50400001928E-02 0. -1.
       -1   -1    0    0    0  501  0.00000000000E+00  0.00000000000E+00 -0.24608840826E+03  0.24608840831E+03  0.50400001928E-02 0.  1.
    10030    2    1    2    0    0  0.00000000000E+00  0.00000000000E+00  0.13697710346E+04  0.18619478511E+04  0.12611808408E+04 0.  0.
        3    1    3    3  502    0 -0.28427253936E+03 -0.18562767526E+03  0.14694052167E+04  0.15081181027E+04  0.10100000352E+00 0. -1.
       -3    1    3    3    0  502  0.28427253936E+03  0.18562767526E+03 -0.99634182151E+02  0.35382974848E+03  0.10100000352E+00 0.  1.
</event>
<event>
 5   0  0.5467554E-03  0.1192410E+04  0.7818609E-02  0.9119526E-01
        2   -1    0    0  501    0  0.00000000000E+00  0.00000000000E+00  0.68298060904E+03  0.68298060904E+03  0.25500000920E-02 0.  1.
       -2   -1    0    0    0  501  0.00000000000E+00  0.00000000000E+00 -0.52045458178E+03  0.52045458178E+03  0.25500000920E-02 0. -1.
    10030    2    1    2    0    0  0.00000000000E+00  0.00000000000E+00  0.16252602726E+03  0.12034351908E+04  0.11924099752E+04 0.  0.
        1    1    3    3  502    0 -0.47950053410E+03 -0.26425478343E+03 -0.15694694963E+03  0.56954692326E+03  0.50400001928E-02 0. -1.
       -1    1    3    3    0  502  0.47950053410E+03  0.26425478343E+03  0.31947297689E+03  0.63388826757E+03  0.50400001928E-02 0.  1.
</event>
<event>
 5   0  0.2926844E-03  0.1125400E+04  0.7818609E-02  0.9180783E-01
       -1   -1    0    0    0  501  0.00000000000E+00  0.00000000000E+00  0.52856799050E+03  0.52856799052E+03  0.50400001928E-02 0.  1.
        1   -1    0    0  501    0  0.00000000000E+00  0.00000000000E+00 -0.59903581660E+03  0.59903581662E+03  0.50400001928E-02 0. -1.
    10030    2    1    2    0    0  0.00000000000E+00  0.00000000000E+00 -0.70467826101E+02  0.11276038071E+04  0.11253997651E+04 0.  0.
        5    1    3    3  502    0 -0.20974341498E+03 -0.41499396635E+03  0.28224113372E+03  0.54396179994E+03  0.46999998093E+01 0.  1.
       -5    1    3    3    0  502  0.20974341498E+03  0.41499396635E+03 -0.35270895982E+03  0.58364200720E+03  0.46999998093E+01 0. -1.
</event>
<event>
 5   0  0.5003526E-03  0.1198164E+04  0.7818609E-02  0.9114465E-01
       -2   -1    0    0    0  501  0.00000000000E+00  0.00000000000E+00  0.87996855318E+03  0.87996855319E+03  0.25500000920E-02 0.  1.
        2   -1    0    0  501    0  0.00000000000E+00  0.00000000000E+00 -0.40785446794E+03  0.40785446794E+03  0.25500000920E-02 0. -1.
    10030    2    1    2    0    0  0.00000000000E+00  0.00000000000E+00  0.47211408525E+03  0.12878230211E+04  0.11981637719E+04 0.  0.
        2    1    3    3  502    0  0.40091848581E+03  0.34465334840E+03 -0.66765935973E+02  0.53289703794E+03  0.25500000920E-02 0. -1.
       -2    1    3    3    0  502 -0.40091848581E+03 -0.34465334840E+03  0.53888002122E+03  0.75492598320E+03  0.25500000920E-02 0.  1.
</event>
<event>
 5   0  0.2792518E-03  0.1202967E+04  0.7818609E-02  0.9110264E-01
        1   -1    0    0  501    0  0.00000000000E+00  0.00000000000E+00  0.64216153130E+03  0.64216153132E+03  0.50400001928E-02 0.  1.
       -1   -1    0    0    0  501  0.00000000000E+00  0.00000000000E+00 -0.56338189434E+03  0.56338189436E+03  0.50400001928E-02 0. -1.
    10030    2    1    2    0    0  0.00000000000E+00  0.00000000000E+00  0.78779636961E+02  0.12055434257E+04  0.12029666330E+04 0.  0.
        2    1    3    3  502    0  0.58744783356E+03  0.46265691557E+02  0.16025790524E+03  0.61067017904E+03  0.25500000920E-02 0.  1.
       -2    1    3    3    0  502 -0.58744783356E+03 -0.46265691557E+02 -0.81478268281E+02  0.59487324665E+03  0.25500000920E-02 0. -1.
</event>
<event>
 5   0  0.5108045E-03  0.1191714E+04  0.7818609E-02  0.9120141E-01
        2   -1    0    0  501    0  0.00000000000E+00  0.00000000000E+00  0.30582655532E+03  0.30582655533E+03  0.25500000920E-02 0. -1.
       -2   -1    0    0    0  501  0.00000000000E+00  0.00000000000E+00 -0.11609370315E+04  0.11609370315E+04  0.25500000920E-02 0.  1.
    10030    2    1    2    0    0  0.00000000000E+00  0.00000000000E+00 -0.85511047616E+03  0.14667635868E+04  0.11917136792E+04 0.  0.
        3    1    3    3  502    0 -0.36145724427E+03 -0.45377649770E+03 -0.26023444444E+03  0.63583521889E+03  0.10100000352E+00 0. -1.
       -3    1    3    3    0  502  0.36145724427E+03  0.45377649770E+03 -0.59487603172E+03  0.83092836792E+03  0.10100000352E+00 0.  1.
</event>
<event>
 5   0  0.2875848E-03  0.7759259E+03  0.7818609E-02  0.9595532E-01
       -1   -1    0    0    0  501  0.00000000000E+00  0.00000000000E+00  0.37497344321E+03  0.37497344325E+03  0.50400001928E-02 0. -1.
        1   -1    0    0  501    0  0.00000000000E+00  0.00000000000E+00 -0.40140242440E+03  0.40140242443E+03  0.50400001928E-02 0.  1.
    10030    2    1    2    0    0  0.00000000000E+00  0.00000000000E+00 -0.26428981186E+02  0.77637586768E+03  0.77592589650E+03 0.  0.
        1    1    3    3  502    0  0.49180575985E+01  0.33270772778E+03  0.18639212376E+03  0.38139302988E+03  0.50400001928E-02 0. -1.
       -1    1    3    3    0  502 -0.49180575985E+01 -0.33270772778E+03 -0.21282110495E+03  0.39498283780E+03  0.50400001928E-02 0.  1.
</event>
<event>
 5   0  0.5108045E-03  0.1163373E+04  0.7818609E-02  0.9145534E-01
        2   -1    0    0  501    0  0.00000000000E+00  0.00000000000E+00  0.84752615305E+03  0.84752615306E+03  0.25500000920E-02 0.  1.
       -2   -1    0    0    0  501  0.00000000000E+00  0.00000000000E+00 -0.39923163556E+03  0.39923163556E+03  0.25500000920E-02 0. -1.
    10030    2    1    2    0    0  0.00000000000E+00  0.00000000000E+00  0.44829451750E+03  0.12467577886E+04  0.11633731169E+04 0.  0.
        3    1    3    3  502    0 -0.18266438413E+03 -0.41219077976E+03  0.61803951346E+03  0.76501004343E+03  0.10100000352E+00 0.  1.
       -3    1    3    3    0  502  0.18266438413E+03  0.41219077976E+03 -0.16974499596E+03  0.48174774520E+03  0.10100000352E+00 0. -1.
</event>
<event>
 5   0  0.2930868E-03  0.1118765E+04  0.7818609E-02  0.9187093E-01
        1   -1    0    0  501    0  0.00000000000E+00  0.00000000000E+00  0.22431480713E+04  0.22431480713E+04  0.50400001928E-02 0. -1.
       -1   -1    0    0    0  501  0.00000000000E+00  0.00000000000E+00 -0.13949534885E+03  0.13949534894E+03  0.50400001928E-02 0.  1.
    10030    2    1    2    0    0  0.00000000000E+00  0.00000000000E+00  0.21036527224E+04  0.23826434202E+04  0.11187648955E+04 0.  0.
        3    1    3    3  502    0 -0.88058107212E+02 -0.36960607307E+03  0.19261641145E+04  0.19632806946E+04  0.10100000352E+00 0. -1.
       -3    1    3    3    0  502  0.88058107212E+02  0.36960607307E+03  0.17748860787E+03  0.41936272559E+03  0.10100000352E+00 0.  1.
</event>
<event>
 5   0  0.2926844E-03  0.7755745E+03  0.7818609E-02  0.9596061E-01
       -1   -1    0    0    0  501  0.00000000000E+00  0.00000000000E+00  0.57378801948E+03  0.57378801950E+03  0.50400001928E-02 0.  1.
        1   -1    0    0  501    0  0.00000000000E+00  0.00000000000E+00 -0.26208103300E+03  0.26208103305E+03  0.50400001928E-02 0. -1.
    10030    2    1    2    0    0  0.00000000000E+00  0.00000000000E+00  0.31170698648E+03  0.83586905255E+03  0.77557451453E+03 0.  0.
        5    1    3    3  502    0  0.21033359417E+03  0.26549661499E+03 -0.47574922783E+02  0.34207329140E+03  0.46999998093E+01 0. -1.
       -5    1    3    3    0  502 -0.21033359417E+03 -0.26549661499E+03  0.35928190926E+03  0.49379576115E+03  0.46999998093E+01 0.  1.
</event>
<event>
 5   0  0.2930868E-03  0.1127695E+04  0.7818609E-02  0.9178611E-01
        1   -1    0    0  501    0  0.00000000000E+00  0.00000000000E+00  0.90033685434E+03  0.90033685436E+03  0.50400001928E-02 0.  1.
       -1   -1    0    0    0  501  0.00000000000E+00  0.00000000000E+00 -0.35311692825E+03  0.35311692829E+03  0.50400001928E-02 0. -1.
    10030    2    1    2    0    0  0.00000000000E+00  0.00000000000E+00  0.54721992609E+03  0.12534537826E+04  0.11276953213E+04 0.  0.
        3    1    3    3  502    0 -0.32592463287E+03  0.84157572197E+02 -0.22917824092E+03  0.40722480227E+03  0.10100000352E+00 0. -1.
       -3    1    3    3    0  502  0.32592463287E+03 -0.84157572197E+02  0.77639816702E+03  0.84622898037E+03  0.10100000352E+00 0.  1.
</event>
<event>
 5   0  0.5031575E-03  0.1193291E+04  0.7818609E-02  0.9118750E-01
       -2   -1    0    0    0  501  0.00000000000E+00  0.00000000000E+00  0.42483292290E+03  0.42483292291E+03  0.25500000920E-02 0.  1.
        2   -1    0    0  501    0  0.00000000000E+00  0.00000000000E+00 -0.83794277897E+03  0.83794277898E+03  0.25500000920E-02 0. -1.
    10030    2    1    2    0    0  0.00000000000E+00  0.00000000000E+00 -0.41310985607E+03  0.12627757019E+04  0.11932907106E+04 0.  0.
        5    1    3    3  502    0  0.51659104111E+03 -0.26177231956E+03 -0.54771658448E+02  0.58173282150E+03  0.46999998093E+01 0.  1.
       -5    1    3    3    0  502 -0.51659104111E+03  0.26177231956E+03 -0.35833819762E+03  0.68104288038E+03  0.46999998093E+01 0. -1.
</event>
<event>
 5   0  0.5467554E-03  0.1262217E+04  0.7818609E-02  0.9060076E-01
       -2   -1    0    0    0  501  0.00000000000E+00  0.00000000000E+00  0.85364277152E+03  0.85364277153E+03  0.25500000920E-02 0. -1.
        2   -1    0    0  501    0  0.00000000000E+00  0.00000000000E+00 -0.46658611739E+03  0.46658611740E+03  0.25500000920E-02 0.  1.
    10030    2    1    2    0    0  0.00000000000E+00  0.00000000000E+00  0.38705665413E+03  0.13202288889E+04  0.12622168853E+04 0.  0.
        1    1    3    3  502    0  0.32101810622E+03  0.56247959128E+02 -0.37175633706E+03  0.49438773407E+03  0.50400001928E-02 0.  1.
       -1    1    3    3    0  502 -0.32101810622E+03 -0.56247959128E+02  0.75881299119E+03  0.82584115486E+03  0.50400001928E-02 0. -1.
</event>
<event>
 5   0  0.5467554E-03  0.1217781E+04  0.7818609E-02  0.9097434E-01
       -2   -1    0    0    0  501  0.00000000000E+00  0.00000000000E+00  0.38286577110E+03  0.38286577111E+03  0.25500000920E-02 0. -1.
        2   -1    0    0  501    0  0.00000000000E+00  0.00000000000E+00 -0.96834890742E+03  0.96834890743E+03  0.25500000920E-02 0.  1.
    10030    2    1    2    0    0  0.00000000000E+00  0.00000000000E+00 -0.58548313633E+03  0.13512146785E+04  0.12177810167E+04 0.  0.
        1    1    3    3  502    0 -0.13520104882E+03  0.25073776115E+03  0.30436742275E+03  0.41687921095E+03  0.50400001928E-02 0. -1.
       -1    1    3    3    0  502  0.13520104882E+03 -0.25073776115E+03 -0.88985055907E+03  0.93433546758E+03  0.50400001928E-02 0.  1.
</event>
<event>
 5   0  0.2792518E-03  0.1192602E+04  0.7818609E-02  0.9119357E-01
        1   -1    0    0  501    0  0.00000000000E+00  0.00000000000E+00  0.77843249111E+03  0.77843249112E+03  0.50400001928E-02 0. -1.
       -1   -1    0    0    0  501  0.00000000000E+00  0.00000000000E+00 -0.45678308931E+03  0.45678308934E+03  0.50400001928E-02 0.  1.
    10030    2    1    2    0    0  0.00000000000E+00  0.00000000000E+00  0.32164940179E+03  0.12352155805E+04  0.11926018584E+04 0.  0.
        2    1    3    3  502    0  0.16377349558E+03  0.57335175416E+03  0.16554907789E+03  0.61883801519E+03  0.25500000920E-02 0.  1.
       -2    1    3    3    0  502 -0.16377349558E+03 -0.57335175416E+03  0.15610032390E+03  0.61637756528E+03  0.25500000920E-02 0. -1.
</event>
<event>
 5   0  0.1922125E-03  0.1240186E+04  0.7818609E-02  0.9078392E-01
       -4   -1    0    0    0  501  0.00000000000E+00  0.00000000000E+00  0.37365713008E+03  0.37365928834E+03  0.12699999809E+01 0. -1.
        4   -1    0    0  501    0  0.00000000000E+00  0.00000000000E+00 -0.10290530950E+04  0.10290538787E+04  0.12699999809E+01 0.  1.
    10030    2    1    2    0    0  0.00000000000E+00  0.00000000000E+00 -0.65539596492E+03  0.14027131670E+04  0.12401856144E+04 0.  0.
        5    1    3    3  502    0  0.57720289254E+02 -0.17105256522E+03  0.34325685901E+03  0.38786334335E+03  0.46999998093E+01 0. -1.
       -5    1    3    3    0  502 -0.57720289254E+02  0.17105256522E+03 -0.99865282393E+03  0.10148498237E+04  0.46999998093E+01 0.  1.
</event>
<event>
 5   0  0.5003526E-03  0.1196460E+04  0.7818609E-02  0.9115960E-01
       -2   -1    0    0    0  501  0.00000000000E+00  0.00000000000E+00  0.36765116543E+03  0.36765116544E+03  0.25500000920E-02 0.  1.
        2   -1    0    0  501    0  0.00000000000E+00  0.00000000000E+00 -0.97342112195E+03  0.97342112195E+03  0.25500000920E-02 0. -1.
    10030    2    1    2    0    0  0.00000000000E+00  0.00000000000E+00 -0.60576995652E+03  0.13410722874E+04  0.11964604631E+04 0.  0.
        2    1    3    3  502    0 -0.17151020099E+03  0.46332058427E+03  0.75227119441E+02  0.49974076515E+03  0.25500000920E-02 0.  1.
       -2    1    3    3    0  502  0.17151020099E+03 -0.46332058427E+03 -0.68099707596E+03  0.84133152224E+03  0.25500000920E-02 0. -1.
</event>
<event>
 5   0  0.2926844E-03  0.1194436E+04  0.7818609E-02  0.9117741E-01
        1   -1    0    0  501    0  0.00000000000E+00  0.00000000000E+00  0.10557168261E+04  0.10557168261E+04  0.50400001928E-02 0. -1.
       -1   -1    0    0    0  501  0.00000000000E+00  0.00000000000E+00 -0.33784569554E+03  0.33784569558E+03  0.50400001928E-02 0.  1.
    10030    2    1    2    0    0  0.00000000000E+00  0.00000000000E+00  0.71787113054E+03  0.13935625217E+04  0.11944360769E+04 0.  0.
        5    1    3    3  502    0 -0.34900814337E+03  0.11656962561E+03 -0.18985581242E+03  0.41408028359E+03  0.46999998093E+01 0.  1.
       -5    1    3    3    0  502  0.34900814337E+03 -0.11656962561E+03  0.90772694296E+03  0.97948223809E+03  0.46999998093E+01 0. -1.
</event>
<event>
 5   0  0.2938349E-03  0.1193259E+04  0.7818609E-02  0.9118778E-01
       -1   -1    0    0    0  501  0.00000000000E+00  0.00000000000E+00  0.95540196401E+03  0.95540196402E+03  0.50400001928E-02 0.  1.
        1   -1    0    0  501    0  0.00000000000E+00  0.00000000000E+00 -0.37258317225E+03  0.37258317228E+03  0.50400001928E-02 0. -1.
    10030    2    1    2    0    0  0.00000000000E+00  0.00000000000E+00  0.58281879176E+03  0.13279851363E+04  0.11932588899E+04 0.  0.
        4    1    3    3  502    0  0.51800704544E+01  0.14999176149E+03 -0.35123075084E+03  0.38195420521E+03  0.12699999809E+01 0. -1.
       -4    1    3    3    0  502 -0.51800704544E+01 -0.14999176149E+03  0.93404954260E+03  0.94603093109E+03  0.12699999809E+01 0.  1.
</event>
<event>
 5   0  0.2930868E-03  0.1219513E+04  0.7818609E-02  0.9095946E-01
       -1   -1    0    0    0  501  0.00000000000E+00  0.00000000000E+00  0.16306362984E+03  0.16306362992E+03  0.50400001928E-02 0. -1.
        1   -1    0    0  501    0  0.00000000000E+00  0.00000000000E+00 -0.22801099511E+04  0.22801099511E+04  0.50400001928E-02 0.  1.
    10030    2    1    2    0    0  0.00000000000E+00  0.00000000000E+00 -0.21170463213E+04  0.24431735810E+04  0.12195130260E+04 0.  0.
        3    1    3    3  502    0 -0.10735384725E+03 -0.11115679985E+02  0.14377547950E+03  0.17977709967E+03  0.10100000352E+00 0. -1.
       -3    1    3    3    0  502  0.10735384725E+03  0.11115679985E+02 -0.22608218008E+04  0.22633964814E+04  0.10100000352E+00 0.  1.
</event>
<event>
 5   0  0.2926844E-03  0.1194033E+04  0.7818609E-02  0.9118095E-01
        1   -1    0    0  501    0  0.00000000000E+00  0.00000000000E+00  0.41563941494E+03  0.41563941497E+03  0.50400001928E-02 0. -1.
       -1   -1    0    0    0  501  0.00000000000E+00  0.00000000000E+00 -0.85754349538E+03  0.85754349540E+03  0.50400001928E-02 0.  1.
    10030    2    1    2    0    0  0.00000000000E+00  0.00000000000E+00 -0.44190408044E+03  0.12731829104E+04  0.11940332939E+04 0.  0.
        5    1    3    3  502    0 -0.28086065252E+03 -0.23662367431E+03 -0.72282510660E+03  0.81078461635E+03  0.46999998093E+01 0.  1.
       -5    1    3    3    0  502  0.28086065252E+03  0.23662367431E+03  0.28092102616E+03  0.46239829402E+03  0.46999998093E+01 0. -1.
</event>
<event>
 5   0  0.5003526E-03  0.1215378E+04  0.7818609E-02  0.9099501E-01
       -2   -1    0    0    0  501  0.00000000000E+00  0.00000000000E+00  0.52860455230E+03  0.52860455231E+03  0.25500000920E-02 0.  1.
        2   -1    0    0  501    0  0.00000000000E+00  0.00000000000E+00 -0.69860576325E+03  0.69860576326E+03  0.25500000920E-02 0. -1.
    10030    2    1    2    0    0  0.00000000000E+00  0.00000000000E+00 -0.17000121095E+03  0.12272103156E+04  0.12153784377E+04 0.  0.
        2    1    3    3  502    0  0.88862617274E+02 -0.37031363412E+03 -0.56316903021E+03  0.67984417991E+03  0.25500000920E-02 0. -1.
       -2    1    3    3    0  502 -0.88862617274E+02  0.37031363412E+03  0.39316781926E+03  0.54736613566E+03  0.25500000920E-02 0.  1.
</event>
<event>
 5   0  0.5003526E-03  0.1195968E+04  0.7818609E-02  0.9116393E-01
       -2   -1    0    0    0  501  0.00000000000E+00  0.00000000000E+00  0.56340689694E+03  0.56340689695E+03  0.25500000920E-02 0. -1.
        2   -1    0    0  501    0  0.00000000000E+00  0.00000000000E+00 -0.63468315936E+03  0.63468315937E+03  0.25500000920E-02 0.  1.
    10030    2    1    2    0    0  0.00000000000E+00  0.00000000000E+00 -0.71276262421E+02  0.11980900563E+04  0.11959680085E+04 0.  0.
        2    1    3    3  502    0  0.24003546744E+03 -0.45366931872E+03 -0.34302453905E+03  0.61733192918E+03  0.25500000920E-02 0.  1.
       -2    1    3    3    0  502 -0.24003546744E+03  0.45366931872E+03  0.27174827663E+03  0.58075812714E+03  0.25500000920E-02 0. -1.
</event>
<event>
 5   0  0.2938349E-03  0.1203027E+04  0.7818609E-02  0.9110211E-01
       -1   -1    0    0    0  501  0.00000000000E+00  0.00000000000E+00  0.51891582012E+03  0.51891582015E+03  0.50400001928E-02 0. -1.
        1   -1    0    0  501    0  0.00000000000E+00  0.00000000000E+00 -0.69725825854E+03  0.69725825856E+03  0.50400001928E-02 0.  1.
    10030    2    1    2    0    0  0.00000000000E+00  0.00000000000E+00 -0.17834243842E+03  0.12161740787E+04  0.12030267513E+04 0.  0.
        4    1    3    3  502    0 -0.22281732468E+03 -0.38850200944E+02 -0.65263111169E+03  0.69071403571E+03  0.12699999809E+01 0.  1.
       -4    1    3    3    0  502  0.22281732468E+03  0.38850200944E+02  0.47428867327E+03  0.52546004299E+03  0.12699999809E+01 0. -1.
</event>
<event>
 5   0  0.2875848E-03  0.1262971E+04  0.7818609E-02  0.9059456E-01
        1   -1    0    0  501    0  0.00000000000E+00  0.00000000000E+00  0.74150675603E+03  0.74150675605E+03  0.50400001928E-02 0.  1.
       -1   -1    0    0    0  501  0.00000000000E+00  0.00000000000E+00 -0.53778847912E+03  0.53778847914E+03  0.50400001928E-02 0. -1.
    10030    2    1    2    0    0  0.00000000000E+00  0.00000000000E+00  0.20371827691E+03  0.12792952352E+04  0.12629707686E+04 0.  0.
        1    1    3    3  502    0  0.50909134644E+03  0.26927768173E+03  0.36422310239E+03  0.68142713274E+03  0.50400001928E-02 0.  1.
       -1    1    3    3    0  502 -0.50909134644E+03 -0.26927768173E+03 -0.16050482548E+03  0.59786810245E+03  0.50400001928E-02 0. -1.
</event>
<event>
 5   0  0.2875848E-03  0.1170353E+04  0.7818609E-02  0.9139210E-01
       -1   -1    0    0    0  501  0.00000000000E+00  0.00000000000E+00  0.15404494589E+03  0.15404494597E+03  0.50400001928E-02 0.  1.
        1   -1    0    0  501    0  0.00000000000E+00  0.00000000000E+00 -0.22229317791E+04  0.22229317791E+04  0.50400001928E-02 0. -1.
    10030    2    1    2    0    0  0.00000000000E+00  0.00000000000E+00 -0.20688868332E+04  0.23769767251E+04  0.11703527771E+04 0.  0.
        1    1    3    3  502    0 -0.31229913092E+03 -0.25050073402E+03 -0.16763568657E+03  0.43403120666E+03  0.50400001928E-02 0.  1.
       -1    1    3    3    0  502  0.31229913092E+03  0.25050073402E+03 -0.19012511466E+04  0.19429455184E+04  0.50400001928E-02 0. -1.
</event>
<event>
 5   0  0.2926844E-03  0.1297956E+04  0.7818609E-02  0.9031188E-01
        1   -1    0    0  501    0  0.00000000000E+00  0.00000000000E+00  0.10162479156E+04  0.10162479157E+04  0.50400001928E-02 0.  1.
       -1   -1    0    0    0  501  0.00000000000E+00  0.00000000000E+00 -0.41443862838E+03  0.41443862841E+03  0.50400001928E-02 0. -1.
    10030    2    1    2    0    0  0.00000000000E+00  0.00000000000E+00  0.60180928726E+03  0.14306865441E+04  0.12979559196E+04 0.  0.
        5    1    3    3  502    0  0.53198165929E+03 -0.13984120532E+03 -0.78680361710E+02  0.55567322938E+03  0.46999998093E+01 0. -1.
       -5    1    3    3    0  502 -0.53198165929E+03  0.13984120532E+03  0.68048964897E+03  0.87501331469E+03  0.46999998093E+01 0.  1.
</event>
<event>
 5   0  0.5467554E-03  0.1193304E+04  0.7818609E-02  0.9118738E-01
       -2   -1    0    0    0  501  0.00000000000E+00  0.00000000000E+00  0.54419855140E+03  0.54419855140E+03  0.25500000920E-02 0.  1.
        2   -1    0    0  501    0  0.00000000000E+00  0.00000000000E+00 -0.65416120755E+03  0.65416120755E+03  0.25500000920E-02 0. -1.
    10030    2    1    2    0    0  0.00000000000E+00  0.00000000000E+00 -0.10996265615E+03  0.11983597590E+04  0.11933039538E+04 0.  0.
        1    1    3    3  502    0  0.62279369376E+02 -0.60308081164E+02  0.53783982758E+03  0.54478203408E+03  0.50400001928E-02 0.  1.
       -1    1    3    3    0  502 -0.62279369376E+02  0.60308081164E+02 -0.64780248373E+03  0.65357772487E+03  0.50400001928E-02 0. -1.
</event>
<event>
 5   0  0.5108045E-03  0.1212134E+04  0.7818609E-02  0.9102302E-01
        2   -1    0    0  501    0  0.00000000000E+00  0.00000000000E+00  0.11552882372E+04  0.11552882372E+04  0.25500000920E-02 0. -1.
       -2   -1    0    0    0  501  0.00000000000E+00  0.00000000000E+00 -0.31794402534E+03  0.31794402535E+03  0.25500000920E-02 0.  1.
    10030    2    1    2    0    0  0.00000000000E+00  0.00000000000E+00  0.83734421181E+03  0.14732322625E+04  0.12121336437E+04 0.  0.
        3    1    3    3  502    0 -0.57373578660E+03 -0.11424773037E+03  0.61119644196E+03  0.84604160511E+03  0.10100000352E+00 0. -1.
       -3    1    3    3    0  502  0.57373578660E+03  0.11424773037E+03  0.22614776985E+03  0.62719065740E+03  0.10100000352E+00 0.  1.
</event>
<event>
 5   0  0.5467554E-03  0.1223836E+04  0.7818609E-02  0.9092245E-01
        2   -1    0    0  501    0  0.00000000000E+00  0.00000000000E+00  0.65000196237E+03  0.65000196237E+03  0.25500000920E-02 0. -1.
       -2   -1    0    0    0  501  0.00000000000E+00  0.00000000000E+00 -0.57606538198E+03  0.57606538198E+03  0.25500000920E-02 0.  1.
    10030    2    1    2    0    0  0.00000000000E+00  0.00000000000E+00  0.73936580389E+02  0.12260673444E+04  0.12238359837E+04 0.  0.
        1    1    3    3  502    0 -0.59179590743E+03  0.12317761579E+03 -0.58328788038E+02  0.60728689153E+03  0.50400001928E-02 0.  1.
       -1    1    3    3    0  502  0.59179590743E+03 -0.12317761579E+03  0.13226536843E+03  0.61878045282E+03  0.50400001928E-02 0. -1.
</event>
<event>
 5   0  0.5108045E-03  0.7404523E+03  0.7818609E-02  0.9650449E-01
       -2   -1    0    0    0  501  0.00000000000E+00  0.00000000000E+00  0.60416203862E+03  0.60416203862E+03  0.25500000920E-02 0.  1.
        2   -1    0    0  501    0  0.00000000000E+00  0.00000000000E+00 -0.22687192692E+03  0.22687192693E+03  0.25500000920E-02 0. -1.
    10030    2    1    2    0    0  0.00000000000E+00  0.00000000000E+00  0.37729011170E+03  0.83103396555E+03  0.74045231009E+03 0.  0.
        3    1    3    3  502    0 -0.18461698247E+02  0.17011623970E+02  0.60320565851E+03  0.60372784126E+03  0.10100000352E+00 0.  1.
       -3    1    3    3    0  502  0.18461698247E+02 -0.17011623970E+02 -0.22591554681E+03  0.22730612430E+03  0.10100000352E+00 0. -1.
</event>
<event>
 5   0  0.5031575E-03  0.1191487E+04  0.7818609E-02  0.9120341E-01
        2   -1    0    0  501    0  0.00000000000E+00  0.00000000000E+00  0.89184472976E+03  0.89184472977E+03  0.25500000920E-02 0. -1.
       -2   -1    0    0    0  501  0.00000000000E+00  0.00000000000E+00 -0.39795077933E+03  0.39795077934E+03  0.25500000920E-02 0.  1.
    10030    2    1    2    0    0  0.00000000000E+00  0.00000000000E+00  0.49389395043E+03  0.12897955091E+04  0.11914869790E+04 0.  0.
        5    1    3    3  502    0 -0.31004223460E+03  0.14443015383E+03 -0.28104894735E+03  0.44271532318E+03  0.46999998093E+01 0.  1.
       -5    1    3    3    0  502  0.31004223460E+03 -0.14443015383E+03  0.77494289778E+03  0.84708018593E+03  0.46999998093E+01 0. -1.
</event>
<event>
 5   0  0.1922125E-03  0.1199836E+04  0.7818609E-02  0.9113000E-01
       -4   -1    0    0    0  501  0.00000000000E+00  0.00000000000E+00  0.60977535779E+03  0.60977668033E+03  0.12699999809E+01 0. -1.
        4   -1    0    0  501    0  0.00000000000E+00  0.00000000000E+00 -0.59021697915E+03  0.59021834551E+03  0.12699999809E+01 0.  1.
    10030    2    1    2    0    0  0.00000000000E+00  0.00000000000E+00  0.19558378642E+02  0.11999950258E+04  0.11998356270E+04 0.  0.
        5    1    3    3  502    0 -0.45926111737E+02  0.60871721294E+02 -0.58533323737E+03  0.59029794423E+03  0.46999998093E+01 0.  1.
       -5    1    3    3    0  502  0.45926111737E+02 -0.60871721294E+02  0.60489161601E+03  0.60969708160E+03  0.46999998093E+01 0. -1.
</event>
<event>
 5   0  0.2930868E-03  0.1190442E+04  0.7818609E-02  0.9121264E-01
       -1   -1    0    0    0  501  0.00000000000E+00  0.00000000000E+00  0.39100490036E+03  0.39100490039E+03  0.50400001928E-02 0.  1.
        1   -1    0    0  501    0  0.00000000000E+00  0.00000000000E+00 -0.90609592042E+03  0.90609592043E+03  0.50400001928E-02 0. -1.
    10030    2    1    2    0    0  0.00000000000E+00  0.00000000000E+00 -0.51509102006E+03  0.12971008208E+04  0.11904418425E+04 0.  0.
        3    1    3    3  502    0 -0.47599579788E+03  0.20617830541E+03 -0.57560017170E+03  0.77485292868E+03  0.10100000352E+00 0.  1.
       -3    1    3    3    0  502  0.47599579788E+03 -0.20617830541E+03  0.60509151637E+02  0.52224789215E+03  0.10100000352E+00 0. -1.
</event>
<event>
 5   0  0.5467554E-03  0.1029692E+04  0.7818609E-02  0.9276565E-01
        2   -1    0    0  501    0  0.00000000000E+00  0.00000000000E+00  0.46817288021E+03  0.46817288022E+03  0.25500000920E-02 0.  1.
       -2   -1    0    0    0  501  0.00000000000E+00  0.00000000000E+00 -0.56617233315E+03  0.56617233316E+03  0.25500000920E-02 0. -1.
    10030    2    1    2    0    0  0.00000000000E+00  0.00000000000E+00 -0.97999452945E+02  0.10343452134E+04  0.10296922490E+04 0.  0.
        1    1    3    3  502    0  0.40433913072E+03  0.13734767358E+03 -0.33789628483E+03  0.54454422722E+03  0.50400001928E-02 0. -1.
       -1    1    3    3    0  502 -0.40433913072E+03 -0.13734767358E+03  0.23989683189E+03  0.48980098616E+03  0.50400001928E-02 0.  1.
</event>
<event>
 5   0  0.2930868E-03  0.1209331E+04  0.7818609E-02  0.9104728E-01
       -1   -1    0    0    0  501  0.00000000000E+00  0.00000000000E+00  0.44796335245E+03  0.44796335248E+03  0.50400001928E-02 0.  1.
        1   -1    0    0  501    0  0.00000000000E+00  0.00000000000E+00 -0.81618326003E+03  0.81618326004E+03  0.50400001928E-02 0. -1.
    10030    2    1    2    0    0  0.00000000000E+00  0.00000000000E+00 -0.36821990758E+03  0.12641466125E+04  0.12093307065E+04 0.  0.
        3    1    3    3  502    0 -0.28397037549E+02  0.19644234560E+02 -0.81515181390E+03  0.81588282100E+03  0.10100000352E+00 0. -1.
       -3    1    3    3    0  502  0.28397037549E+02 -0.19644234560E+02  0.44693190632E+03  0.44826379152E+03  0.10100000352E+00 0.  1.
</event>
<event>
 5   0  0.2792518E-03  0.1198465E+04  0.7818609E-02  0.9114201E-01
       -1   -1    0    0    0  501  0.00000000000E+00  0.00000000000E+00  0.18143155376E+03  0.18143155383E+03  0.50400001928E-02 0. -1.
        1   -1    0    0  501    0  0.00000000000E+00  0.00000000000E+00 -0.19791479280E+04  0.19791479280E+04  0.50400001928E-02 0.  1.
    10030    2    1    2    0    0  0.00000000000E+00  0.00000000000E+00 -0.17977163743E+04  0.21605794819E+04  0.11984654918E+04 0.  0.
        2    1    3    3  502    0 -0.56027881159E+02 -0.37545705469E+03 -0.17347237451E+04  0.17757740833E+04  0.25500000920E-02 0.  1.
       -2    1    3    3    0  502  0.56027881159E+02  0.37545705469E+03 -0.62992629200E+02  0.38480539852E+03  0.25500000920E-02 0. -1.
</event>
<event>
 5   0  0.2938349E-03  0.1193132E+04  0.7818609E-02  0.9118889E-01
       -1   -1    0    0    0  501  0.00000000000E+00  0.00000000000E+00  0.29677347409E+03  0.29677347413E+03  0.50400001928E-02 0.  1.
        1   -1    0    0  501    0  0.00000000000E+00  0.00000000000E+00 -0.11992016160E+04  0.11992016160E+04  0.50400001928E-02 0. -1.
    10030    2    1    2    0    0  0.00000000000E+00  0.00000000000E+00 -0.90242814193E+03  0.14959750902E+04  0.11931323980E+04 0.  0.
        4    1    3    3  502    0 -0.32361536186E+03 -0.16208337957E+03 -0.10458106825E+04  0.11066704662E+04  0.12699999809E+01 0. -1.
       -4    1    3    3    0  502  0.32361536186E+03  0.16208337957E+03  0.14338254056E+03  0.38930462392E+03  0.12699999809E+01 0.  1.
</event>
<event>
 5   0  0.5189537E-03  0.1106173E+04  0.7818609E-02  0.9199196E-01
        2   -1    0    0  501    0  0.00000000000E+00  0.00000000000E+00  0.16705403883E+03  0.16705403885E+03  0.25500000920E-02 0.  1.
       -2   -1    0    0    0  501  0.00000000000E+00  0.00000000000E+00 -0.18311719452E+04  0.18311719452E+04  0.25500000920E-02 0. -1.
    10030    2    1    2    0    0  0.00000000000E+00  0.00000000000E+00 -0.16641179064E+04  0.19982259840E+04  0.11061729869E+04 0.  0.
        4    1    3    3  502    0 -0.29829244773E+02  0.43768836887E+03 -0.14404864109E+04  0.15058099498E+04  0.12699999809E+01 0. -1.
       -4    1    3    3    0  502  0.29829244773E+02 -0.43768836887E+03 -0.22363149544E+03  0.49241603420E+03  0.12699999809E+01 0.  1.
</event>
<event>
 5   0  0.2926844E-03  0.1194979E+04  0.7818609E-02  0.9117263E-01
        1   -1    0    0  501    0  0.00000000000E+00  0.00000000000E+00  0.10262324942E+04  0.10262324942E+04  0.50400001928E-02 0.  1.
       -1   -1    0    0    0  501  0.00000000000E+00  0.00000000000E+00 -0.34786839563E+03  0.34786839567E+03  0.50400001928E-02 0. -1.
    10030    2    1    2    0    0  0.00000000000E+00  0.00000000000E+00  0.67836409857E+03  0.13741008899E+04  0.11949792489E+04 0.  0.
        5    1    3    3  502    0  0.38846897628E+03 -0.42710275672E+03  0.16235654120E+03  0.59975548917E+03  0.46999998093E+01 0. -1.
       -5    1    3    3    0  502 -0.38846897628E+03  0.42710275672E+03  0.51600755737E+03  0.77434540070E+03  0.46999998093E+01 0.  1.
</event>
<event>
 5   0  0.2926844E-03  0.1200349E+04  0.7818609E-02  0.9112551E-01
        1   -1    0    0  501    0  0.00000000000E+00  0.00000000000E+00  0.14711207289E+04  0.14711207289E+04  0.50400001928E-02 0.  1.
       -1   -1    0    0    0  501  0.00000000000E+00  0.00000000000E+00 -0.24485365620E+03  0.24485365626E+03  0.50400001928E-02 0. -1.
    10030    2    1    2    0    0  0.00000000000E+00  0.00000000000E+00  0.12262670727E+04  0.17159743851E+04  0.12003487647E+04 0.  0.
        5    1    3    3  502    0 -0.45003672140E+03 -0.35871854512E+03  0.85647506247E+03  0.10318835534E+04  0.46999998093E+01 0. -1.
       -5    1    3    3    0  502  0.45003672140E+03  0.35871854512E+03  0.36979201021E+03  0.68409083171E+03  0.46999998093E+01 0.  1.
</event>
<event>
 5   0  0.2926844E-03  0.1185101E+04  0.7818609E-02  0.9125999E-01
       -1   -1    0    0    0  501  0.00000000000E+00  0.00000000000E+00  0.23827733292E+03  0.23827733298E+03  0.50400001928E-02 0. -1.
        1   -1    0    0  501    0  0.00000000000E+00  0.00000000000E+00 -0.14735601545E+04  0.14735601545E+04  0.50400001928E-02 0.  1.
    10030    2    1    2    0    0  0.00000000000E+00  0.00000000000E+00 -0.12352828216E+04  0.17118374875E+04  0.11851008119E+04 0.  0.
        5    1    3    3  502    0 -0.57750559492E+03  0.26833005525E+02 -0.80520611072E+03  0.99126772019E+03  0.46999998093E+01 0.  1.
       -5    1    3    3    0  502  0.57750559492E+03 -0.26833005525E+02 -0.43007671089E+03  0.72056976733E+03  0.46999998093E+01 0. -1.
</event>
<event>
 5   0  0.5031575E-03  0.1178627E+04  0.7818609E-02  0.9131772E-01
       -2   -1    0    0    0  501  0.00000000000E+00  0.00000000000E+00  0.78589487306E+03  0.78589487306E+03  0.25500000920E-02 0. -1.
        2   -1    0    0  501    0  0.00000000000E+00  0.00000000000E+00 -0.44190473547E+03  0.44190473548E+03  0.25500000920E-02 0.  1.
    10030    2    1    2    0    0  0.00000000000E+00  0.00000000000E+00  0.34399013759E+03  0.12277996085E+04  0.11786274492E+04 0.  0.
        5    1    3    3  502    0 -0.20504171149E+03 -0.19190464260E+03 -0.36769130299E+03  0.46269696303E+03  0.46999998093E+01 0.  1.
       -5    1    3    3    0  502  0.20504171149E+03  0.19190464260E+03  0.71168144058E+03  0.76510264551E+03  0.46999998093E+01 0. -1.
</event>
<event>
 5   0  0.5108045E-03  0.1264476E+04  0.7818609E-02  0.9058221E-01
        2   -1    0    0  501    0  0.00000000000E+00  0.00000000000E+00  0.16917833558E+04  0.16917833558E+04  0.25500000920E-02 0. -1.
       -2   -1    0    0    0  501  0.00000000000E+00  0.00000000000E+00 -0.23627415163E+03  0.23627415164E+03  0.25500000920E-02 0.  1.
    10030    2    1    2    0    0  0.00000000000E+00  0.00000000000E+00  0.14555092042E+04  0.19280575075E+04  0.12644756655E+04 0.  0.
        3    1    3    3  502    0 -0.53967960622E+03 -0.23019292251E+03  0.10869119947E+04  0.12351601327E+04  0.10100000352E+00 0.  1.
       -3    1    3    3    0  502  0.53967960622E+03  0.23019292251E+03  0.36859720953E+03  0.69289737481E+03  0.10100000352E+00 0. -1.
</event>
<event>
 5   0  0.2792518E-03  0.9226659E+03  0.7818609E-02  0.9397683E-01
        1   -1    0    0  501    0  0.00000000000E+00  0.00000000000E+00  0.55463006323E+03  0.55463006326E+03  0.50400001928E-02 0. -1.
       -1   -1    0    0    0  501  0.00000000000E+00  0.00000000000E+00 -0.38372980485E+03  0.38372980489E+03  0.50400001928E-02 0.  1.
    10030    2    1    2    0    0  0.00000000000E+00  0.00000000000E+00  0.17090025838E+03  0.93835986814E+03  0.92266588960E+03 0.  0.
        2    1    3    3  502    0 -0.11347464374E+03  0.31509471928E+02  0.53908504666E+03  0.55179890280E+03  0.25500000920E-02 0. -1.
       -2    1    3    3    0  502  0.11347464374E+03 -0.31509471928E+02 -0.36818478828E+03  0.38656096534E+03  0.25500000920E-02 0.  1.
</event>
<event>
 5   0  0.1922125E-03  0.8895632E+03  0.7818609E-02  0.9438723E-01
        4   -1    0    0  501    0  0.00000000000E+00  0.00000000000E+00  0.22641649805E+03  0.22642005982E+03  0.12699999809E+01 0.  1.
       -4   -1    0    0    0  501  0.00000000000E+00  0.00000000000E+00 -0.87373582173E+03  0.87373674472E+03  0.12699999809E+01 0. -1.
    10030    2    1    2    0    0  0.00000000000E+00  0.00000000000E+00 -0.64731932368E+03  0.11001568045E+04  0.88956320054E+03 0.  0.
        3    1    3    3  502    0  0.29674055174E+03 -0.32900710076E+03 -0.27528383857E+03  0.52161463685E+03  0.10100000352E+00 0. -1.
       -3    1    3    3    0  502 -0.29674055174E+03  0.32900710076E+03 -0.37203548511E+03  0.57854216768E+03  0.10100000352E+00 0.  1.
</event>
<event>
 5   0  0.5467554E-03  0.1190143E+04  0.7818609E-02  0.9121529E-01
        2   -1    0    0  501    0  0.00000000000E+00  0.00000000000E+00  0.88698093452E+03  0.88698093453E+03  0.25500000920E-02 0. -1.
       -2   -1    0    0    0  501  0.00000000000E+00  0.00000000000E+00 -0.39923061793E+03  0.39923061794E+03  0.25500000920E-02 0.  1.
    10030    2    1    2    0    0  0.00000000000E+00  0.00000000000E+00  0.48775031660E+03  0.12862115525E+04  0.11901427588E+04 0.  0.
        1    1    3    3  502    0 -0.31601475404E+03  0.45865087268E+03  0.47026995683E+03  0.72895800983E+03  0.50400001928E-02 0. -1.
       -1    1    3    3    0  502  0.31601475404E+03 -0.45865087268E+03  0.17480359766E+02  0.55725354263E+03  0.50400001928E-02 0.  1.
</event>
<event>
 5   0  0.1922125E-03  0.1202539E+04  0.7818609E-02  0.9110637E-01
        3   -1    0    0  501    0  0.00000000000E+00  0.00000000000E+00  0.10650949586E+04  0.10650949634E+04  0.10100000352E+00 0. -1.
       -3   -1    0    0    0  501  0.00000000000E+00  0.00000000000E+00 -0.33943002912E+03  0.33943004415E+03  0.10100000352E+00 0.  1.
    10030    2    1    2    0    0  0.00000000000E+00  0.00000000000E+00  0.72566492952E+03  0.14045250076E+04  0.12025393578E+04 0.  0.
        5    1    3    3  502    0 -0.53824365780E+03  0.58759345939E+02  0.66817066323E+03  0.86001919810E+03  0.46999998093E+01 0. -1.
       -5    1    3    3    0  502  0.53824365780E+03 -0.58759345939E+02  0.57494266289E+02  0.54450580947E+03  0.46999998093E+01 0.  1.
</event>
<event>
 5   0  0.5467554E-03  0.1171010E+04  0.7818609E-02  0.9138617E-01
       -2   -1    0    0    0  501  0.00000000000E+00  0.00000000000E+00  0.61436774762E+03  0.61436774763E+03  0.25500000920E-02 0.  1.
        2   -1    0    0  501    0  0.00000000000E+00  0.00000000000E+00 -0.55799824500E+03  0.55799824500E+03  0.25500000920E-02 0. -1.
    10030    2    1    2    0    0  0.00000000000E+00  0.00000000000E+00  0.56369502625E+02  0.11723659926E+04  0.11710100341E+04 0.  0.
        1    1    3    3  502    0 -0.29333002015E+03 -0.50672080967E+03  0.30952958845E+02  0.58631609680E+03  0.50400001928E-02 0.  1.
       -1    1    3    3    0  502  0.29333002015E+03  0.50672080967E+03  0.25416543780E+02  0.58604989583E+03  0.50400001928E-02 0. -1.
</event>
<event>
 5   0  0.5031575E-03  0.1194528E+04  0.7818609E-02  0.9117659E-01
        2   -1    0    0  501    0  0.00000000000E+00  0.00000000000E+00  0.59633194269E+03  0.59633194269E+03  0.25500000920E-02 0. -1.
       -2   -1    0    0    0  501  0.00000000000E+00  0.00000000000E+00 -0.59819786984E+03  0.59819786985E+03  0.25500000920E-02 0.  1.
    10030    2    1    2    0    0  0.00000000000E+00  0.00000000000E+00 -0.18659271531E+01  0.11945298125E+04  0.11945283552E+04 0.  0.
        5    1    3    3  502    0 -0.18195349239E+03  0.56811362029E+03 -0.29954523640E+02  0.59731023968E+03  0.46999998093E+01 0.  1.
       -5    1    3    3    0  502  0.18195349239E+03 -0.56811362029E+03  0.28088596487E+02  0.59721957285E+03  0.46999998093E+01 0. -1.
</event>
<event>
 5   0  0.2938349E-03  0.1319894E+04  0.7818609E-02  0.9013936E-01
       -1   -1    0    0    0  501  0.00000000000E+00  0.00000000000E+00  0.57977466592E+03  0.57977466594E+03  0.50400001928E-02 0. -1.
        1   -1    0    0  501    0  0.00000000000E+00  0.00000000000E+00 -0.75120527231E+03  0.75120527232E+03  0.50400001928E-02 0.  1.
    10030    2    1    2    0    0  0.00000000000E+00  0.00000000000E+00 -0.17143060639E+03  0.13309799383E+04  0.13198936106E+04 0.  0.
        4    1    3    3  502    0 -0.35875539962E+02 -0.63090496913E+03 -0.27757647781E+03  0.69020174469E+03  0.12699999809E+01 0.  1.
       -4    1    3    3    0  502  0.35875539962E+02  0.63090496913E+03  0.10614587143E+03  0.64077819357E+03  0.12699999809E+01 0. -1.
</event>
<event>
 5   0  0.2938349E-03  0.1228194E+04  0.7818609E-02  0.9088530E-01
        1   -1    0    0  501    0  0.00000000000E+00  0.00000000000E+00  0.10545447905E+04  0.10545447905E+04  0.50400001928E-02 0. -1.
       -1   -1    0    0    0  501  0.00000000000E+00  0.00000000000E+00 -0.35760923513E+03  0.35760923517E+03  0.50400001928E-02 0.  1.
    10030    2    1    2    0    0  0.00000000000E+00  0.00000000000E+00  0.69693555537E+03  0.14121540257E+04  0.12281937241E+04 0.  0.
        4    1    3    3  502    0  0.91392486191E+02  0.20536664097E+03  0.10055406092E+04  0.10303599242E+04  0.12699999809E+01 0. -1.
       -4    1    3    3    0  502 -0.91392486191E+02 -0.20536664097E+03 -0.30860505385E+03  0.38179410146E+03  0.12699999809E+01 0.  1.
</event>
<event>
 5   0  0.2875848E-03  0.1139950E+04  0.7818609E-02  0.9167106E-01
        1   -1    0    0  501    0  0.00000000000E+00  0.00000000000E+00  0.64818348480E+03  0.64818348482E+03  0.50400001928E-02 0. -1.
       -1   -1    0    0    0  501  0.00000000000E+00  0.00000000000E+00 -0.50120294490E+03  0.50120294492E+03  0.50400001928E-02 0.  1.
    10030    2    1    2    0    0  0.00000000000E+00  0.00000000000E+00  0.14698053990E+03  0.11493864297E+04  0.11399499488E+04 0.  0.
        1    1    3    3  502    0  0.21058569478E+03 -0.26352128949E+03 -0.38974918198E+03  0.51545536154E+03  0.50400001928E-02 0.  1.
       -1    1    3    3    0  502 -0.21058569478E+03  0.26352128949E+03  0.53672972188E+03  0.63393106820E+03  0.50400001928E-02 0. -1.
</event>
<event>
 5   0  0.5031575E-03  0.1199391E+04  0.7818609E-02  0.9113390E-01
       -2   -1    0    0    0  501  0.00000000000E+00  0.00000000000E+00  0.22409272916E+03  0.22409272917E+03  0.25500000920E-02 0.  1.
        2   -1    0    0  501    0  0.00000000000E+00  0.00000000000E+00 -0.16048480559E+04  0.16048480559E+04  0.25500000920E-02 0. -1.
    10030    2    1    2    0    0  0.00000000000E+00  0.00000000000E+00 -0.13807553267E+04  0.18289407850E+04  0.11993911468E+04 0.  0.
        5    1    3    3  502    0  0.37928441059E+02 -0.92350107627E+02 -0.15920584761E+04  0.15951925873E+04  0.46999998093E+01 0. -1.
       -5    1    3    3    0  502 -0.37928441059E+02  0.92350107627E+02  0.21130314941E+03  0.23374819779E+03  0.46999998093E+01 0.  1.
</event>
<event>
 5   0  0.2930868E-03  0.1227608E+04  0.7818609E-02  0.9089029E-01
        1   -1    0    0  501    0  0.00000000000E+00  0.00000000000E+00  0.11514804199E+04  0.11514804199E+04  0.50400001928E-02 0. -1.
       -1   -1    0    0    0  501  0.00000000000E+00  0.00000000000E+00 -0.32719196211E+03  0.32719196215E+03  0.50400001928E-02 0.  1.
    10030    2    1    2    0    0  0.00000000000E+00  0.00000000000E+00  0.82428845778E+03  0.14786723820E+04  0.12276076539E+04 0.  0.
        3    1    3    3  502    0  0.18721992170E+03 -0.50662776520E+03  0.76338418866E+03  0.93513550956E+03  0.10100000352E+00 0. -1.
       -3    1    3    3    0  502 -0.18721992170E+03  0.50662776520E+03  0.60904269117E+02  0.54353687248E+03  0.10100000352E+00 0.  1.
</event>
<event>
 5   0  0.1922125E-03  0.1227765E+04  0.7818609E-02  0.9088895E-01
       -4   -1    0    0    0  501  0.00000000000E+00  0.00000000000E+00  0.92164361459E+03  0.92164448960E+03  0.12699999809E+01 0. -1.
        4   -1    0    0  501    0  0.00000000000E+00  0.00000000000E+00 -0.40888862820E+03  0.40889060049E+03  0.12699999809E+01 0.  1.
    10030    2    1    2    0    0  0.00000000000E+00  0.00000000000E+00  0.51275498639E+03  0.13305350901E+04  0.12277646150E+04 0.  0.
        4    1    3    3  502    0 -0.57265267842E+03 -0.20126077250E+02  0.17682376963E+02  0.57328040996E+03  0.12699999809E+01 0.  1.
       -4    1    3    3    0  502  0.57265267842E+03  0.20126077250E+02  0.49507260943E+03  0.75725468014E+03  0.12699999809E+01 0. -1.
</event>
<event>
 5   0  0.5467554E-03  0.1193036E+04  0.7818609E-02  0.9118974E-01
        2   -1    0    0  501    0  0.00000000000E+00  0.00000000000E+00  0.19576673393E+04  0.19576673393E+04  0.25500000920E-02 0.  1.
       -2   -1    0    0    0  501  0.00000000000E+00  0.00000000000E+00 -0.18176426316E+03  0.18176426318E+03  0.25500000920E-02 0. -1.
    10030    2    1    2    0    0  0.00000000000E+00  0.00000000000E+00  0.17759030762E+04  0.21394316025E+04  0.11930363975E+04 0.  0.
        1    1    3    3  502    0  0.25815490913E+03  0.43470379716E+03  0.14556628843E+04  0.15409626151E+04  0.50400001928E-02 0.  1.
       -1    1    3    3    0  502 -0.25815490913E+03 -0.43470379716E+03  0.32024019186E+03  0.59846898740E+03  0.50400001928E-02 0. -1.
</event>
<event>
 5   0  0.5189537E-03  0.1200210E+04  0.7818609E-02  0.9112673E-01
        2   -1    0    0  501    0  0.00000000000E+00  0.00000000000E+00  0.12902384164E+04  0.12902384164E+04  0.25500000920E-02 0.  1.
       -2   -1    0    0    0  501  0.00000000000E+00  0.00000000000E+00 -0.27911591293E+03  0.27911591294E+03  0.25500000920E-02 0. -1.
    10030    2    1    2    0    0  0.00000000000E+00  0.00000000000E+00  0.10111225035E+04  0.15693543293E+04  0.12002101041E+04 0.  0.
        4    1    3    3  502    0  0.56738455163E+03 -0.12244030713E+03  0.30636605193E+03  0.65633728289E+03  0.12699999809E+01 0. -1.
       -4    1    3    3    0  502 -0.56738455163E+03  0.12244030713E+03  0.70475645153E+03  0.91301704645E+03  0.12699999809E+01 0.  1.
</event>
<event>
 5   0  0.5031575E-03  0.1223600E+04  0.7818609E-02  0.9092447E-01
        2   -1    0    0  501    0  0.00000000000E+00  0.00000000000E+00  0.13280418222E+04  0.13280418222E+04  0.25500000920E-02 0.  1.
       -2   -1    0    0    0  501  0.00000000000E+00  0.00000000000E+00 -0.28184289152E+03  0.28184289153E+03  0.25500000920E-02 0. -1.
    10030    2    1    2    0    0  0.00000000000E+00  0.00000000000E+00  0.10461989307E+04  0.16098847137E+04  0.12235998484E+04 0.  0.
        5    1    3    3  502    0 -0.17076368190E+03  0.53282155650E+03  0.19756650315E+03  0.59339165758E+03  0.46999998093E+01 0. -1.
       -5    1    3    3    0  502  0.17076368190E+03 -0.53282155650E+03  0.84863242752E+03  0.10164930561E+04  0.46999998093E+01 0.  1.
</event>
<event>
 5   0  0.2938349E-03  0.1196586E+04  0.7818609E-02  0.9115850E-01
        1   -1    0    0  501    0  0.00000000000E+00  0.00000000000E+00  0.56596900042E+03  0.56596900044E+03  0.50400001928E-02 0.  1.
       -1   -1    0    0    0  501  0.00000000000E+00  0.00000000000E+00 -0.63246265197E+03  0.63246265199E+03  0.50400001928E-02 0. -1.
    10030    2    1    2    0    0  0.00000000000E+00  0.00000000000E+00 -0.66493651555E+02  0.11984316524E+04  0.11965855673E+04 0.  0.
        4    1    3    3  502    0 -0.55465780933E+03  0.56679527648E+02 -0.25059496810E+03  0.61127514692E+03  0.12699999809E+01 0.  1.
       -4    1    3    3    0  502  0.55465780933E+03 -0.56679527648E+02  0.18410131655E+03  0.58715650551E+03  0.12699999809E+01 0. -1.
</event>
<event>
 5   0  0.5467554E-03  0.1229637E+04  0.7818609E-02  0.9087304E-01
        2   -1    0    0  501    0  0.00000000000E+00  0.00000000000E+00  0.13264978959E+04  0.13264978959E+04  0.25500000920E-02 0. -1.
       -2   -1    0    0    0  501  0.00000000000E+00  0.00000000000E+00 -0.28496216559E+03  0.28496216560E+03  0.25500000920E-02 0.  1.
    10030    2    1    2    0    0  0.00000000000E+00  0.00000000000E+00  0.10415357303E+04  0.16114600615E+04  0.12296368782E+04 0.  0.
        1    1    3    3  502    0 -0.33367610482E+03  0.48095087104E+03  0.76715980764E+03  0.96498064943E+03  0.50400001928E-02 0.  1.
       -1    1    3    3    0  502  0.33367610482E+03 -0.48095087104E+03  0.27437592268E+03  0.64647941209E+03  0.50400001928E-02 0. -1.
</event>
<event>
 5   0  0.2938349E-03  0.1192674E+04  0.7818609E-02  0.9119293E-01
        1   -1    0    0  501    0  0.00000000000E+00  0.00000000000E+00  0.15332956810E+04  0.15332956810E+04  0.50400001928E-02 0.  1.
       -1   -1    0    0    0  501  0.00000000000E+00  0.00000000000E+00 -0.23193028980E+03  0.23193028985E+03  0.50400001928E-02 0. -1.
    10030    2    1    2    0    0  0.00000000000E+00  0.00000000000E+00  0.13013653912E+04  0.17652259709E+04  0.11926738225E+04 0.  0.
        4    1    3    3  502    0  0.42901344904E+03  0.25724738381E+03  0.17020542419E+03  0.52839403409E+03  0.12699999809E+01 0. -1.
       -4    1    3    3    0  502 -0.42901344904E+03 -0.25724738381E+03  0.11311599670E+04  0.12368319368E+04  0.12699999809E+01 0.  1.
</event>
<event>
 5   0  0.2792518E-03  0.1188642E+04  0.7818609E-02  0.9122857E-01
        1   -1    0    0  501    0  0.00000000000E+00  0.00000000000E+00  0.50700232404E+03  0.50700232406E+03  0.50400001928E-02 0. -1.
       -1   -1    0    0    0  501  0.00000000000E+00  0.00000000000E+00 -0.69667789773E+03  0.69667789774E+03  0.50400001928E-02 0.  1.
    10030    2    1    2    0    0  0.00000000000E+00  0.00000000000E+00 -0.18967557369E+03  0.12036802218E+04  0.11886417682E+04 0.  0.
        2    1    3    3  502    0  0.27709342185E+03  0.49043516289E+03  0.97058792974E+02  0.57160110456E+03  0.25500000920E-02 0.  1.
       -2    1    3    3    0  502 -0.27709342185E+03 -0.49043516289E+03 -0.28673436666E+03  0.63207911725E+03  0.25500000920E-02 0. -1.
</event>
<event>
 5   0  0.2792518E-03  0.1227507E+04  0.7818609E-02  0.9089115E-01
       -1   -1    0    0    0  501  0.00000000000E+00  0.00000000000E+00  0.29964690901E+03  0.29964690906E+03  0.50400001928E-02 0. -1.
        1   -1    0    0  501    0  0.00000000000E+00  0.00000000000E+00 -0.12571237483E+04  0.12571237483E+04  0.50400001928E-02 0.  1.
    10030    2    1    2    0    0  0.00000000000E+00  0.00000000000E+00 -0.95747683929E+03  0.15567706574E+04  0.12275068154E+04 0.  0.
        2    1    3    3  502    0  0.56243987286E+03  0.15771390533E+03 -0.23984818354E+03  0.63145818362E+03  0.25500000920E-02 0. -1.
       -2    1    3    3    0  502 -0.56243987286E+03 -0.15771390533E+03 -0.71762865575E+03  0.92531247374E+03  0.25500000920E-02 0.  1.
</event>
<event>
 5   0  0.2875848E-03  0.1159311E+04  0.7818609E-02  0.9149236E-01
       -1   -1    0    0    0  501  0.00000000000E+00  0.00000000000E+00  0.63409376025E+03  0.63409376027E+03  0.50400001928E-02 0. -1.
        1   -1    0    0  501    0  0.00000000000E+00  0.00000000000E+00 -0.52989108217E+03  0.52989108219E+03  0.50400001928E-02 0.  1.
    10030    2    1    2    0    0  0.00000000000E+00  0.00000000000E+00  0.10420267809E+03  0.11639848425E+04  0.11593112245E+04 0.  0.
        1    1    3    3  502    0 -0.29547378794E+03  0.10805131153E+03 -0.43670913012E+03  0.53823295109E+03  0.50400001928E-02 0.  1.
       -1    1    3    3    0  502  0.29547378794E+03 -0.10805131153E+03  0.54091180821E+03  0.62575189138E+03  0.50400001928E-02 0. -1.
</event>
<event>
 5   0  0.2938349E-03  0.1210511E+04  0.7818609E-02  0.9103706E-01
       -1   -1    0    0    0  501  0.00000000000E+00  0.00000000000E+00  0.74870973138E+03  0.74870973140E+03  0.50400001928E-02 0.  1.
        1   -1    0    0  501    0  0.00000000000E+00  0.00000000000E+00 -0.48928732544E+03  0.48928732547E+03  0.50400001928E-02 0. -1.
    10030    2    1    2    0    0  0.00000000000E+00  0.00000000000E+00  0.25942240594E+03  0.12379970569E+04  0.12105109368E+04 0.  0.
        4    1    3    3  502    0  0.39863317285E+03 -0.63356814245E+02 -0.33153959068E+03  0.52234337892E+03  0.12699999809E+01 0. -1.
       -4    1    3    3    0  502 -0.39863317285E+03  0.63356814245E+02  0.59096199662E+03  0.71565367795E+03  0.12699999809E+01 0.  1.
</event>
<event>
 5   0  0.5189537E-03  0.1199970E+04  0.7818609E-02  0.9112883E-01
        2   -1    0    0  501    0  0.00000000000E+00  0.00000000000E+00  0.40481166202E+03  0.40481166203E+03  0.25500000920E-02 0.  1.
       -2   -1    0    0    0  501  0.00000000000E+00  0.00000000000E+00 -0.88925802088E+03  0.88925802088E+03  0.25500000920E-02 0. -1.
    10030    2    1    2    0    0  0.00000000000E+00  0.00000000000E+00 -0.48444635886E+03  0.12940696829E+04  0.11999700286E+04 0.  0.
        4    1    3    3  502    0  0.38235421106E+03 -0.45325227832E+03 -0.14369070980E+03  0.61014834549E+03  0.12699999809E+01 0.  1.
       -4    1    3    3    0  502 -0.38235421106E+03  0.45325227832E+03 -0.34075564906E+03  0.68392133742E+03  0.12699999809E+01 0. -1.
</event>
<event>
 5   0  0.5189537E-03  0.1200187E+04  0.7818609E-02  0.9112693E-01
       -2   -1    0    0    0  501  0.00000000000E+00  0.00000000000E+00  0.37425720720E+03  0.37425720721E+03  0.25500000920E-02 0. -1.
        2   -1    0    0  501    0  0.00000000000E+00  0.00000000000E+00 -0.96220449589E+03  0.96220449590E+03  0.25500000920E-02 0.  1.
    10030    2    1    2    0    0  0.00000000000E+00  0.00000000000E+00 -0.58794728869E+03  0.13364617031E+04  0.12001865978E+04 0.  0.
        4    1    3    3  502    0 -0.43056689682E+03 -0.41741240020E+03 -0.31860766482E+03  0.67906805363E+03  0.12699999809E+01 0. -1.
       -4    1    3    3    0  502  0.43056689682E+03  0.41741240020E+03 -0.26933962388E+03  0.65739364947E+03  0.12699999809E+01 0.  1.
</event>
<event>
 5   0  0.2926844E-03  0.1190192E+04  0.7818609E-02  0.9121485E-01
        1   -1    0    0  501    0  0.00000000000E+00  0.00000000000E+00  0.49755318659E+03  0.49755318662E+03  0.50400001928E-02 0.  1.
       -1   -1    0    0    0  501  0.00000000000E+00  0.00000000000E+00 -0.71176184454E+03  0.71176184455E+03  0.50400001928E-02 0. -1.
    10030    2    1    2    0    0  0.00000000000E+00  0.00000000000E+00 -0.21420865795E+03  0.12093150312E+04  0.11901922095E+04 0.  0.
        5    1    3    3  502    0 -0.16666772591E+03  0.26911684039E+03 -0.61910056154E+03  0.69534854565E+03  0.46999998093E+01 0. -1.
       -5    1    3    3    0  502  0.16666772591E+03 -0.26911684039E+03  0.40489190359E+03  0.51396648552E+03  0.46999998093E+01 0.  1.
</event>
<event>
 5   0  0.5003526E-03  0.1193651E+04  0.7818609E-02  0.9118432E-01
        2   -1    0    0  501    0  0.00000000000E+00  0.00000000000E+00  0.74910323368E+03  0.74910323368E+03  0.25500000920E-02 0. -1.
       -2   -1    0    0    0  501  0.00000000000E+00  0.00000000000E+00 -0.47550243302E+03  0.47550243303E+03  0.25500000920E-02 0.  1.
    10030    2    1    2    0    0  0.00000000000E+00  0.00000000000E+00  0.27360080066E+03  0.12246056667E+04  0.11936505522E+04 0.  0.
        2    1    3    3  502    0 -0.56943967184E+03 -0.10848297639E+03 -0.89049142390E+01  0.57974942305E+03  0.25500000920E-02 0. -1.
       -2    1    3    3    0  502  0.56943967184E+03  0.10848297639E+03  0.28250571490E+03  0.64485624365E+03  0.25500000920E-02 0.  1.
</event>
<event>
 5   0  0.2926844E-03  0.1187624E+04  0.7818609E-02  0.9123759E-01
        1   -1    0    0  501    0  0.00000000000E+00  0.00000000000E+00  0.11079768484E+04  0.11079768484E+04  0.50400001928E-02 0.  1.
       -1   -1    0    0    0  501  0.00000000000E+00  0.00000000000E+00 -0.31824915789E+03  0.31824915793E+03  0.50400001928E-02 0. -1.
    10030    2    1    2    0    0  0.00000000000E+00  0.00000000000E+00  0.78972769050E+03  0.14262260063E+04  0.11876240129E+04 0.  0.
        5    1    3    3  502    0 -0.47086668526E+02  0.28219927485E+03  0.10197245387E+04  0.10591099140E+04  0.46999998093E+01 0.  1.
       -5    1    3    3    0  502  0.47086668526E+02 -0.28219927485E+03 -0.22999684821E+03  0.36711609235E+03  0.46999998093E+01 0. -1.
</event>
<event>
 5   0  0.5467554E-03  0.1229915E+04  0.7818609E-02  0.9087067E-01
        2   -1    0    0  501    0  0.00000000000E+00  0.00000000000E+00  0.67036191989E+03  0.67036191990E+03  0.25500000920E-02 0.  1.
       -2   -1    0    0    0  501  0.00000000000E+00  0.00000000000E+00 -0.56413227935E+03  0.56413227936E+03  0.25500000920E-02 0. -1.
    10030    2    1    2    0    0  0.00000000000E+00  0.00000000000E+00  0.10622964054E+03  0.12344941993E+04  0.12299151156E+04 0.  0.
        1    1    3    3  502    0  0.46488840417E+03  0.12509472077E+03 -0.33093602489E+03  0.58419908429E+03  0.50400001928E-02 0. -1.
       -1    1    3    3    0  502 -0.46488840417E+03 -0.12509472077E+03  0.43716566543E+03  0.65029511497E+03  0.50400001928E-02 0.  1.
</event>
<event>
 5   0  0.5189537E-03  0.1179740E+04  0.7818609E-02  0.9130777E-01
        2   -1    0    0  501    0  0.00000000000E+00  0.00000000000E+00  0.14675233364E+04  0.14675233364E+04  0.25500000920E-02 0. -1.
       -2   -1    0    0    0  501  0.00000000000E+00  0.00000000000E+00 -0.23709778306E+03  0.23709778307E+03  0.25500000920E-02 0.  1.
    10030    2    1    2    0    0  0.00000000000E+00  0.00000000000E+00  0.12304255533E+04  0.17046211195E+04  0.11797398521E+04 0.  0.
        4    1    3    3  502    0  0.16615159945E+03 -0.29035337107E+03  0.13171987296E+04  0.13590163870E+04  0.12699999809E+01 0. -1.
       -4    1    3    3    0  502 -0.16615159945E+03  0.29035337107E+03 -0.86773176227E+02  0.34560473246E+03  0.12699999809E+01 0.  1.
</event>
<event>
 5   0  0.2926844E-03  0.1220302E+04  0.7818609E-02  0.9095270E-01
        1   -1    0    0  501    0  0.00000000000E+00  0.00000000000E+00  0.43826520553E+03  0.43826520555E+03  0.50400001928E-02 0. -1.
       -1   -1    0    0    0  501  0.00000000000E+00  0.00000000000E+00 -0.84944966868E+03  0.84944966869E+03  0.50400001928E-02 0.  1.
    10030    2    1    2    0    0  0.00000000000E+00  0.00000000000E+00 -0.41118446315E+03  0.12877148742E+04  0.12203019850E+04 0.  0.
        5    1    3    3  502    0 -0.66974232997E+02 -0.23065929976E+03 -0.79744411764E+03  0.83284360550E+03  0.46999998093E+01 0.  1.
       -5    1    3    3    0  502  0.66974232997E+02  0.23065929976E+03  0.38625965449E+03  0.45487126875E+03  0.46999998093E+01 0. -1.
</event>
<event>
 5   0  0.5189537E-03  0.1276231E+04  0.7818609E-02  0.9048629E-01
        2   -1    0    0  501    0  0.00000000000E+00  0.00000000000E+00  0.52906838622E+03  0.52906838623E+03  0.25500000920E-02 0.  1.
       -2   -1    0    0    0  501  0.00000000000E+00  0.00000000000E+00 -0.76963867153E+03  0.76963867154E+03  0.25500000920E-02 0. -1.
    10030    2    1    2    0    0  0.00000000000E+00  0.00000000000E+00 -0.24057028531E+03  0.12987070578E+04  0.12762311545E+04 0.  0.
        4    1    3    3  502    0  0.36475987223E+03  0.50341267183E+03  0.26179452493E+02  0.62222267652E+03  0.12699999809E+01 0.  1.
       -4    1    3    3    0  502 -0.36475987223E+03 -0.50341267183E+03 -0.26674973780E+03  0.67648438124E+03  0.12699999809E+01 0. -1.
</event>
<event>
 5   0  0.5031575E-03  0.1203654E+04  0.7818609E-02  0.9109664E-01
       -2   -1    0    0    0  501  0.00000000000E+00  0.00000000000E+00  0.27338078946E+03  0.27338078947E+03  0.25500000920E-02 0.  1.
        2   -1    0    0  501    0  0.00000000000E+00  0.00000000000E+00 -0.13248759374E+04  0.13248759374E+04  0.25500000920E-02 0. -1.
    10030    2    1    2    0    0  0.00000000000E+00  0.00000000000E+00 -0.10514951480E+04  0.15982567269E+04  0.12036538202E+04 0.  0.
        5    1    3    3  502    0 -0.43695221166E+03  0.13188123960E+03 -0.10465809833E+04  0.11417853306E+04  0.46999998093E+01 0. -1.
       -5    1    3    3    0  502  0.43695221166E+03 -0.13188123960E+03 -0.49141647087E+01  0.45647139630E+03  0.46999998093E+01 0.  1.
</event>
<event>
 5   0  0.5467554E-03  0.1189386E+04  0.7818609E-02  0.9122198E-01
       -2   -1    0    0    0  501  0.00000000000E+00  0.00000000000E+00  0.20649936824E+03  0.20649936825E+03  0.25500000920E-02 0. -1.
        2   -1    0    0  501    0  0.00000000000E+00  0.00000000000E+00 -0.17126428731E+04  0.17126428731E+04  0.25500000920E-02 0.  1.
    10030    2    1    2    0    0  0.00000000000E+00  0.00000000000E+00 -0.15061435049E+04  0.19191422414E+04  0.11893858438E+04 0.  0.
        1    1    3    3  502    0 -0.35213646394E+03 -0.34762449627E+03 -0.22080130019E+03  0.54184508287E+03  0.50400001928E-02 0. -1.
       -1    1    3    3    0  502  0.35213646394E+03  0.34762449627E+03 -0.12853422047E+04  0.13772971585E+04  0.50400001928E-02 0.  1.
</event>
<event>
 5   0  0.2938349E-03  0.1200658E+04  0.7818609E-02  0.9112281E-01
        1   -1    0    0  501    0  0.00000000000E+00  0.00000000000E+00  0.12426190518E+04  0.12426190518E+04  0.50400001928E-02 0.  1.
       -1   -1    0    0    0  501  0.00000000000E+00  0.00000000000E+00 -0.29002846168E+03  0.29002846172E+03  0.50400001928E-02 0. -1.
    10030    2    1    2    0    0  0.00000000000E+00  0.00000000000E+00  0.95259059012E+03  0.15326475135E+04  0.12006579731E+04 0.  0.
        4    1    3    3  502    0  0.47207263210E+03  0.21741506009E+03  0.92766419845E+02  0.52794800869E+03  0.12699999809E+01 0. -1.
       -4    1    3    3    0  502 -0.47207263210E+03 -0.21741506009E+03  0.85982417027E+03  0.10046995048E+04  0.12699999809E+01 0.  1.
</event>
<event>
 5   0  0.5467554E-03  0.1203126E+04  0.7818609E-02  0.9110124E-01
       -2   -1    0    0    0  501  0.00000000000E+00  0.00000000000E+00  0.13066504421E+04  0.13066504421E+04  0.25500000920E-02 0. -1.
        2   -1    0    0  501    0  0.00000000000E+00  0.00000000000E+00 -0.27695114536E+03  0.27695114537E+03  0.25500000920E-02 0.  1.
    10030    2    1    2    0    0  0.00000000000E+00  0.00000000000E+00  0.10296992967E+04  0.15836015875E+04  0.12031264880E+04 0.  0.
        1    1    3    3  502    0 -0.24868368584E+01  0.52579421381E+03  0.89952610170E+03  0.10419275154E+04  0.50400001928E-02 0. -1.
       -1    1    3    3    0  502  0.24868368584E+01 -0.52579421381E+03  0.13017319502E+03  0.54167407208E+03  0.50400001928E-02 0.  1.
</event>
<event>
 5   0  0.2792518E-03  0.1201775E+04  0.7818609E-02  0.9111304E-01
        1   -1    0    0  501    0  0.00000000000E+00  0.00000000000E+00  0.81289937013E+03  0.81289937014E+03  0.50400001928E-02 0. -1.
       -1   -1    0    0    0  501  0.00000000000E+00  0.00000000000E+00 -0.44417032350E+03  0.44417032353E+03  0.50400001928E-02 0.  1.
    10030    2    1    2    0    0  0.00000000000E+00  0.00000000000E+00  0.36872904662E+03  0.12570696937E+04  0.12017749810E+04 0.  0.
        2    1    3    3  502    0 -0.58201168862E+03  0.46631363693E+02  0.33286007584E+03  0.67209219595E+03  0.25500000920E-02 0. -1.
       -2    1    3    3    0  502  0.58201168862E+03 -0.46631363693E+02  0.35868970781E+02  0.58497749772E+03  0.25500000920E-02 0.  1.
</event>
<event>
 5   0  0.5108045E-03  0.1183526E+04  0.7818609E-02  0.9127399E-01
       -2   -1    0    0    0  501  0.00000000000E+00  0.00000000000E+00  0.25021080180E+03  0.25021080182E+03  0.25500000920E-02 0.  1.
        2   -1    0    0  501    0  0.00000000000E+00  0.00000000000E+00 -0.13995545527E+04  0.13995545527E+04  0.25500000920E-02 0. -1.
    10030    2    1    2    0    0  0.00000000000E+00  0.00000000000E+00 -0.11493437509E+04  0.16497653545E+04  0.11835263695E+04 0.  0.
        3    1    3    3  502    0  0.77940139997E+02 -0.34755218908E+03 -0.12333975862E+04  0.12837978055E+04  0.10100000352E+00 0. -1.
       -3    1    3    3    0  502 -0.77940139997E+02  0.34755218908E+03  0.84053835242E+02  0.36596754908E+03  0.10100000352E+00 0.  1.
</event>
<event>
 5   0  0.2938349E-03  0.1196022E+04  0.7818609E-02  0.9116346E-01
        1   -1    0    0  501    0  0.00000000000E+00  0.00000000000E+00  0.13038588480E+04  0.13038588480E+04  0.50400001928E-02 0.  1.
       -1   -1    0    0    0  501  0.00000000000E+00  0.00000000000E+00 -0.27427583544E+03  0.27427583548E+03  0.50400001928E-02 0. -1.
    10030    2    1    2    0    0  0.00000000000E+00  0.00000000000E+00  0.10295830126E+04  0.15781346835E+04  0.11960216969E+04 0.  0.
        4    1    3    3  502    0  0.18957870032E+03 -0.16188849291E+03 -0.20244070788E+03  0.32114143435E+03  0.12699999809E+01 0. -1.
       -4    1    3    3    0  502 -0.18957870032E+03  0.16188849291E+03  0.12320237205E+04  0.12569932492E+04  0.12699999809E+01 0.  1.
</event>
<event>
 5   0  0.2875848E-03  0.1200070E+04  0.7818609E-02  0.9112795E-01
        1   -1    0    0  501    0  0.00000000000E+00  0.00000000000E+00  0.10134238166E+04  0.10134238166E+04  0.50400001928E-02 0. -1.
       -1   -1    0    0    0  501  0.00000000000E+00  0.00000000000E+00 -0.35527297556E+03  0.35527297560E+03  0.50400001928E-02 0.  1.
    10030    2    1    2    0    0  0.00000000000E+00  0.00000000000E+00  0.65815084106E+03  0.13686967922E+04  0.12000701561E+04 0.  0.
        1    1    3    3  502    0  0.46122883223E+03  0.78210254076E+02  0.75763136933E+03  0.89042359096E+03  0.50400001928E-02 0. -1.
       -1    1    3    3    0  502 -0.46122883223E+03 -0.78210254076E+02 -0.99480528275E+02  0.47827320127E+03  0.50400001928E-02 0.  1.
</event>
<event>
 5   0  0.5108045E-03  0.1203099E+04  0.7818609E-02  0.9110148E-01
       -2   -1    0    0    0  501  0.00000000000E+00  0.00000000000E+00  0.16594691803E+03  0.16594691805E+03  0.25500000920E-02 0.  1.
        2   -1    0    0  501    0  0.00000000000E+00  0.00000000000E+00 -0.21805870411E+04  0.21805870411E+04  0.25500000920E-02 0. -1.
    10030    2    1    2    0    0  0.00000000000E+00  0.00000000000E+00 -0.20146401231E+04  0.23465339592E+04  0.12030988305E+04 0.  0.
        3    1    3    3  502    0  0.12829428497E+03 -0.28892753516E+03 -0.91317566304E+01  0.31626245953E+03  0.10100000352E+00 0.  1.
       -3    1    3    3    0  502 -0.12829428497E+03  0.28892753516E+03 -0.20055083665E+04  0.20302714996E+04  0.10100000352E+00 0. -1.
</event>
<event>
 5   0  0.5189537E-03  0.1302670E+04  0.7818609E-02  0.9027451E-01
        2   -1    0    0  501    0  0.00000000000E+00  0.00000000000E+00  0.13966245109E+04  0.13966245109E+04  0.25500000920E-02 0.  1.
       -2   -1    0    0    0  501  0.00000000000E+00  0.00000000000E+00 -0.30375880213E+03  0.30375880214E+03  0.25500000920E-02 0. -1.
    10030    2    1    2    0    0  0.00000000000E+00  0.00000000000E+00  0.10928657087E+04  0.17003833130E+04  0.13026695490E+04 0.  0.
        4    1    3    3  502    0 -0.54807415852E+03 -0.52767296850E+02  0.10006077658E+04  0.11420977124E+04  0.12699999809E+01 0.  1.
       -4    1    3    3    0  502  0.54807415852E+03  0.52767296850E+02  0.92257942906E+02  0.55828560055E+03  0.12699999809E+01 0. -1.
</event>
<event>
 5   0  0.2926844E-03  0.1236651E+04  0.7818609E-02  0.9081367E-01
        1   -1    0    0  501    0  0.00000000000E+00  0.00000000000E+00  0.30119220031E+03  0.30119220036E+03  0.50400001928E-02 0. -1.
       -1   -1    0    0    0  501  0.00000000000E+00  0.00000000000E+00 -0.12693771617E+04  0.12693771618E+04  0.50400001928E-02 0.  1.
    10030    2    1    2    0    0  0.00000000000E+00  0.00000000000E+00 -0.96818496143E+03  0.15705693621E+04  0.12366511237E+04 0.  0.
        5    1    3    3  502    0 -0.30194900315E+03 -0.78977873397E+02  0.19378522619E+03  0.36740374096E+03  0.46999998093E+01 0. -1.
       -5    1    3    3    0  502  0.30194900315E+03  0.78977873397E+02 -0.11619701876E+04  0.12031656211E+04  0.46999998093E+01 0.  1.
</event>
<event>
 5   0  0.5467554E-03  0.1208146E+04  0.7818609E-02  0.9105756E-01
       -2   -1    0    0    0  501  0.00000000000E+00  0.00000000000E+00  0.68203757663E+03  0.68203757663E+03  0.25500000920E-02 0. -1.
        2   -1    0    0  501    0  0.00000000000E+00  0.00000000000E+00 -0.53502047978E+03  0.53502047978E+03  0.25500000920E-02 0.  1.
    10030    2    1    2    0    0  0.00000000000E+00  0.00000000000E+00  0.14701709685E+03  0.12170580564E+04  0.12081458049E+04 0.  0.
        1    1    3    3  502    0 -0.81538922142E+02 -0.35761699360E+03  0.55701327363E+03  0.66693500205E+03  0.50400001928E-02 0. -1.
       -1    1    3    3    0  502  0.81538922142E+02  0.35761699360E+03 -0.40999617678E+03  0.55012305436E+03  0.50400001928E-02 0.  1.
</event>
<event>
 5   0  0.5108045E-03  0.1207003E+04  0.7818609E-02  0.9106749E-01
       -2   -1    0    0    0  501  0.00000000000E+00  0.00000000000E+00  0.35063956119E+03  0.35063956120E+03  0.25500000920E-02 0.  1.
        2   -1    0    0  501    0  0.00000000000E+00  0.00000000000E+00 -0.10387133638E+04  0.10387133638E+04  0.25500000920E-02 0. -1.
    10030    2    1    2    0    0  0.00000000000E+00  0.00000000000E+00 -0.68807380261E+03  0.13893529250E+04  0.12070028966E+04 0.  0.
        3    1    3    3  502    0 -0.27132869732E+02 -0.18601765514E+03  0.31607847340E+03  0.36775585949E+03  0.10100000352E+00 0.  1.
       -3    1    3    3    0  502  0.27132869732E+02  0.18601765514E+03 -0.10041522760E+04  0.10215970655E+04  0.10100000352E+00 0. -1.
</event>
<event>
 5   0  0.2875848E-03  0.1195621E+04  0.7818609E-02  0.9116698E-01
        1   -1    0    0  501    0  0.00000000000E+00  0.00000000000E+00  0.15084731641E+04  0.15084731641E+04  0.50400001928E-02 0. -1.
       -1   -1    0    0    0  501  0.00000000000E+00  0.00000000000E+00 -0.23691324346E+03  0.23691324352E+03  0.50400001928E-02 0.  1.
    10030    2    1    2    0    0  0.00000000000E+00  0.00000000000E+00  0.12715599206E+04  0.17453864076E+04  0.11956207928E+04 0.  0.
        1    1    3    3  502    0  0.24585749254E+03  0.11906225754E+03  0.14120336786E+04  0.14382144615E+04  0.50400001928E-02 0. -1.
       -1    1    3    3    0  502 -0.24585749254E+03 -0.11906225754E+03 -0.14047375792E+03  0.30717194614E+03  0.50400001928E-02 0.  1.
</event>
<event>
 5   0  0.2875848E-03  0.1177745E+04  0.7818609E-02  0.9132563E-01
       -1   -1    0    0    0  501  0.00000000000E+00  0.00000000000E+00  0.21873612374E+03  0.21873612379E+03  0.50400001928E-02 0. -1.
        1   -1    0    0  501    0  0.00000000000E+00  0.00000000000E+00 -0.15853375214E+04  0.15853375214E+04  0.50400001928E-02 0.  1.
    10030    2    1    2    0    0  0.00000000000E+00  0.00000000000E+00 -0.13666013977E+04  0.18040736452E+04  0.11777445976E+04 0.  0.
        1    1    3    3  502    0 -0.36684700341E+02 -0.26418540572E+03  0.12090488438E+03  0.29284413418E+03  0.50400001928E-02 0. -1.
       -1    1    3    3    0  502  0.36684700341E+02  0.26418540572E+03 -0.14875062820E+04  0.15112295110E+04  0.50400001928E-02 0.  1.
</event>
<event>
 5   0  0.2930868E-03  0.1233155E+04  0.7818609E-02  0.9084321E-01
       -1   -1    0    0    0  501  0.00000000000E+00  0.00000000000E+00  0.20758222679E+03  0.20758222685E+03  0.50400001928E-02 0.  1.
        1   -1    0    0  501    0  0.00000000000E+00  0.00000000000E+00 -0.18314083063E+04  0.18314083063E+04  0.50400001928E-02 0. -1.
    10030    2    1    2    0    0  0.00000000000E+00  0.00000000000E+00 -0.16238260796E+04  0.20389905332E+04  0.12331550016E+04 0.  0.
        3    1    3    3  502    0  0.67124259187E+02 -0.23677917706E+03  0.12284541861E+03  0.27506554116E+03  0.10100000352E+00 0.  1.
       -3    1    3    3    0  502 -0.67124259187E+02  0.23677917706E+03 -0.17466714982E+04  0.17639249920E+04  0.10100000352E+00 0. -1.
</event>
<event>
 5   0  0.2926844E-03  0.1188650E+04  0.7818609E-02  0.9122850E-01
        1   -1    0    0  501    0  0.00000000000E+00  0.00000000000E+00  0.98032994787E+03  0.98032994789E+03  0.50400001928E-02 0.  1.
       -1   -1    0    0    0  501  0.00000000000E+00  0.00000000000E+00 -0.36030921315E+03  0.36030921319E+03  0.50400001928E-02 0. -1.
    10030    2    1    2    0    0  0.00000000000E+00  0.00000000000E+00  0.62002073472E+03  0.13406391611E+04  0.11886495063E+04 0.  0.
        5    1    3    3  502    0 -0.61896099761E+02  0.31357275745E+03 -0.25509607724E+03  0.40896833618E+03  0.46999998093E+01 0. -1.
       -5    1    3    3    0  502  0.61896099761E+02 -0.31357275745E+03  0.87511681196E+03  0.93167082489E+03  0.46999998093E+01 0.  1.
</event>
<event>
 5   0  0.2926844E-03  0.1219163E+04  0.7818609E-02  0.9096246E-01
        1   -1    0    0  501    0  0.00000000000E+00  0.00000000000E+00  0.18663103311E+03  0.18663103317E+03  0.50400001928E-02 0. -1.
       -1   -1    0    0    0  501  0.00000000000E+00  0.00000000000E+00 -0.19910395751E+04  0.19910395751E+04  0.50400001928E-02 0.  1.
    10030    2    1    2    0    0  0.00000000000E+00  0.00000000000E+00 -0.18044085420E+04  0.21776706083E+04  0.12191632753E+04 0.  0.
        5    1    3    3  502    0  0.10824731874E+02 -0.49490082963E+02  0.18283193518E+03  0.18977894945E+03  0.46999998093E+01 0. -1.
       -5    1    3    3    0  502 -0.10824731874E+02  0.49490082963E+02 -0.19872404772E+04  0.19878916588E+04  0.46999998093E+01 0.  1.
</event>
<event>
 5   0  0.5189537E-03  0.1200972E+04  0.7818609E-02  0.9112006E-01
        2   -1    0    0  501    0  0.00000000000E+00  0.00000000000E+00  0.37205689302E+03  0.37205689303E+03  0.25500000920E-02 0. -1.
       -2   -1    0    0    0  501  0.00000000000E+00  0.00000000000E+00 -0.96916157948E+03  0.96916157949E+03  0.25500000920E-02 0.  1.
    10030    2    1    2    0    0  0.00000000000E+00  0.00000000000E+00 -0.59710468646E+03  0.13412184725E+04  0.12009716834E+04 0.  0.
        4    1    3    3  502    0 -0.45453797132E+03  0.64292379597E+02 -0.73085261034E+03  0.86306745298E+03  0.12699999809E+01 0.  1.
       -4    1    3    3    0  502  0.45453797132E+03 -0.64292379597E+02  0.13374792388E+03  0.47815101954E+03  0.12699999809E+01 0. -1.
</event>
<event>
 5   0  0.5467554E-03  0.1176478E+04  0.7818609E-02  0.9133698E-01
        2   -1    0    0  501    0  0.00000000000E+00  0.00000000000E+00  0.11602982315E+04  0.11602982315E+04  0.25500000920E-02 0. -1.
       -2   -1    0    0    0  501  0.00000000000E+00  0.00000000000E+00 -0.29822064467E+03  0.29822064468E+03  0.25500000920E-02 0.  1.
    10030    2    1    2    0    0  0.00000000000E+00  0.00000000000E+00  0.86207758684E+03  0.14585188762E+04  0.11764776014E+04 0.  0.
        1    1    3    3  502    0 -0.83673657586E+02  0.43014141759E+03 -0.55470929658E+02  0.44170119330E+03  0.50400001928E-02 0.  1.
       -1    1    3    3    0  502  0.83673657586E+02 -0.43014141759E+03  0.91754851649E+03  0.10168176829E+04  0.50400001928E-02 0. -1.
</event>
<event>
 5   0  0.2792518E-03  0.1193446E+04  0.7818609E-02  0.9118613E-01
       -1   -1    0    0    0  501  0.00000000000E+00  0.00000000000E+00  0.38015299692E+03  0.38015299695E+03  0.50400001928E-02 0.  1.
        1   -1    0    0  501    0  0.00000000000E+00  0.00000000000E+00 -0.93667092291E+03  0.93667092292E+03  0.50400001928E-02 0. -1.
    10030    2    1    2    0    0  0.00000000000E+00  0.00000000000E+00 -0.55651792599E+03  0.13168239199E+04  0.11934458656E+04 0.  0.
        2    1    3    3  502    0  0.58406560693E+03 -0.12163318291E+03 -0.26470067102E+03  0.65268193604E+03  0.25500000920E-02 0. -1.
       -2    1    3    3    0  502 -0.58406560693E+03  0.12163318291E+03 -0.29181725497E+03  0.66414198384E+03  0.25500000920E-02 0.  1.
</event>
<event>
 5   0  0.5031575E-03  0.1172113E+04  0.7818609E-02  0.9137622E-01
        2   -1    0    0  501    0  0.00000000000E+00  0.00000000000E+00  0.70182493932E+03  0.70182493932E+03  0.25500000920E-02 0. -1.
       -2   -1    0    0    0  501  0.00000000000E+00  0.00000000000E+00 -0.48938478621E+03  0.48938478621E+03  0.25500000920E-02 0.  1.
    10030    2    1    2    0    0  0.00000000000E+00  0.00000000000E+00  0.21244015311E+03  0.11912097255E+04  0.11721133868E+04 0.  0.
        5    1    3    3  502    0 -0.58267088027E+03 -0.62151751896E+02  0.97586800445E+02  0.59406520568E+03  0.46999998093E+01 0. -1.
       -5    1    3    3    0  502  0.58267088027E+03  0.62151751896E+02  0.11485335266E+03  0.59714451986E+03  0.46999998093E+01 0.  1.
</event>
<event>
 5   0  0.2792518E-03  0.1170639E+04  0.7818609E-02  0.9138952E-01
        1   -1    0    0  501    0  0.00000000000E+00  0.00000000000E+00  0.61357973006E+03  0.61357973008E+03  0.50400001928E-02 0.  1.
       -1   -1    0    0    0  501  0.00000000000E+00  0.00000000000E+00 -0.55836090116E+03  0.55836090118E+03  0.50400001928E-02 0. -1.
    10030    2    1    2    0    0  0.00000000000E+00  0.00000000000E+00  0.55218828902E+02  0.11719406313E+04  0.11706390238E+04 0.  0.
        2    1    3    3  502    0 -0.54546504992E+03 -0.17478539684E+03 -0.93010547907E+02  0.58028701318E+03  0.25500000920E-02 0.  1.
       -2    1    3    3    0  502  0.54546504992E+03  0.17478539684E+03  0.14822937681E+03  0.59165361808E+03  0.25500000920E-02 0. -1.
</event>
<event>
 5   0  0.5003526E-03  0.1197042E+04  0.7818609E-02  0.9115450E-01
       -2   -1    0    0    0  501  0.00000000000E+00  0.00000000000E+00  0.21385521366E+03  0.21385521368E+03  0.25500000920E-02 0.  1.
        2   -1    0    0  501    0  0.00000000000E+00  0.00000000000E+00 -0.16750925132E+04  0.16750925132E+04  0.25500000920E-02 0. -1.
    10030    2    1    2    0    0  0.00000000000E+00  0.00000000000E+00 -0.14612372996E+04  0.18889477269E+04  0.11970417993E+04 0.  0.
        2    1    3    3  502    0 -0.29783028984E+03 -0.81422615323E+02  0.78480184324E+02  0.31857756225E+03  0.25500000920E-02 0.  1.
       -2    1    3    3    0  502  0.29783028984E+03  0.81422615323E+02 -0.15397174839E+04  0.15703701646E+04  0.25500000920E-02 0. -1.
</event>
<event>
 5   0  0.5108045E-03  0.1232407E+04  0.7818609E-02  0.9084954E-01
       -2   -1    0    0    0  501  0.00000000000E+00  0.00000000000E+00  0.18742230445E+03  0.18742230446E+03  0.25500000920E-02 0. -1.
        2   -1    0    0  501    0  0.00000000000E+00  0.00000000000E+00 -0.20259426973E+04  0.20259426973E+04  0.25500000920E-02 0.  1.
    10030    2    1    2    0    0  0.00000000000E+00  0.00000000000E+00 -0.18385203928E+04  0.22133650017E+04  0.12324071552E+04 0.  0.
        3    1    3    3  502    0  0.66606990224E+02  0.41851363023E+03 -0.11584418660E+03  0.43932907439E+03  0.10100000352E+00 0. -1.
       -3    1    3    3    0  502 -0.66606990224E+02 -0.41851363023E+03 -0.17226762062E+04  0.17740359273E+04  0.10100000352E+00 0.  1.
</event>
<event>
 5   0  0.1922125E-03  0.1197796E+04  0.7818609E-02  0.9114788E-01
        3   -1    0    0  501    0  0.00000000000E+00  0.00000000000E+00  0.82183108788E+03  0.82183109408E+03  0.10100000352E+00 0. -1.
       -3   -1    0    0    0  501  0.00000000000E+00  0.00000000000E+00 -0.43643890304E+03  0.43643891472E+03  0.10100000352E+00 0.  1.
    10030    2    1    2    0    0  0.00000000000E+00  0.00000000000E+00  0.38539218484E+03  0.12582700088E+04  0.11977964263E+04 0.  0.
        5    1    3    3  502    0 -0.39509629827E+03 -0.31486283483E+03  0.53051768805E+03  0.73260548523E+03  0.46999998093E+01 0. -1.
       -5    1    3    3    0  502  0.39509629827E+03  0.31486283483E+03 -0.14512550321E+03  0.52566452357E+03  0.46999998093E+01 0.  1.
</event>
<event>
 5   0  0.5467554E-03  0.1147476E+04  0.7818609E-02  0.9160115E-01
        2   -1    0    0  501    0  0.00000000000E+00  0.00000000000E+00  0.66855280468E+03  0.66855280469E+03  0.25500000920E-02 0. -1.
       -2   -1    0    0    0  501  0.00000000000E+00  0.00000000000E+00 -0.49237011864E+03  0.49237011865E+03  0.25500000920E-02 0.  1.
    10030    2    1    2    0    0  0.00000000000E+00  0.00000000000E+00  0.17618268604E+03  0.11609229233E+04  0.11474762285E+04 0.  0.
        1    1    3    3  502    0  0.22332047181E+03 -0.21937592213E+03 -0.39835233158E+03  0.50663834087E+03  0.50400001928E-02 0.  1.
       -1    1    3    3    0  502 -0.22332047181E+03  0.21937592213E+03  0.57453501763E+03  0.65428458246E+03  0.50400001928E-02 0. -1.
</event>
<event>
 5   0  0.5189537E-03  0.1207701E+04  0.7818609E-02  0.9106143E-01
        2   -1    0    0  501    0  0.00000000000E+00  0.00000000000E+00  0.85275628834E+03  0.85275628834E+03  0.25500000920E-02 0.  1.
       -2   -1    0    0    0  501  0.00000000000E+00  0.00000000000E+00 -0.42759610083E+03  0.42759610084E+03  0.25500000920E-02 0. -1.
    10030    2    1    2    0    0  0.00000000000E+00  0.00000000000E+00  0.42516018751E+03  0.12803523892E+04  0.12077007309E+04 0.  0.
        4    1    3    3  502    0  0.94780901096E+02 -0.81121157130E+02  0.83894323693E+03  0.84816945773E+03  0.12699999809E+01 0.  1.
       -4    1    3    3    0  502 -0.94780901096E+02  0.81121157130E+02 -0.41378304942E+03  0.43218293144E+03  0.12699999809E+01 0. -1.
</event>
<event>
 5   0  0.2926844E-03  0.1198861E+04  0.7818609E-02  0.9113854E-01
       -1   -1    0    0    0  501  0.00000000000E+00  0.00000000000E+00  0.33613517434E+03  0.33613517437E+03  0.50400001928E-02 0.  1.
        1   -1    0    0  501    0  0.00000000000E+00  0.00000000000E+00 -0.10689654409E+04  0.10689654410E+04  0.50400001928E-02 0. -1.
    10030    2    1    2    0    0  0.00000000000E+00  0.00000000000E+00 -0.73283026661E+03  0.14051006153E+04  0.11988609342E+04 0.  0.
        5    1    3    3  502    0 -0.22430529285E+03 -0.20611485150E+03  0.23862764281E+03  0.38699023026E+03  0.46999998093E+01 0.  1.
       -5    1    3    3    0  502  0.22430529285E+03  0.20611485150E+03 -0.97145790942E+03  0.10181103851E+04  0.46999998093E+01 0. -1.
</event>
<event>
 5   0  0.2938349E-03  0.1201614E+04  0.7818609E-02  0.9111445E-01
       -1   -1    0    0    0  501  0.00000000000E+00  0.00000000000E+00  0.26227359257E+03  0.26227359262E+03  0.50400001928E-02 0. -1.
        1   -1    0    0  501    0  0.00000000000E+00  0.00000000000E+00 -0.13763065075E+04  0.13763065075E+04  0.50400001928E-02 0.  1.
    10030    2    1    2    0    0  0.00000000000E+00  0.00000000000E+00 -0.11140329149E+04  0.16385801001E+04  0.12016136688E+04 0.  0.
        4    1    3    3  502    0  0.84914362046E+02 -0.59076967657E+03 -0.65097953730E+03  0.88317338644E+03  0.12699999809E+01 0.  1.
       -4    1    3    3    0  502 -0.84914362046E+02  0.59076967657E+03 -0.46305337762E+03  0.75540671367E+03  0.12699999809E+01 0. -1.
</event>
<event>
 5   0  0.1922125E-03  0.1190764E+04  0.7818609E-02  0.9120979E-01
       -3   -1    0    0    0  501  0.00000000000E+00  0.00000000000E+00  0.45179258550E+03  0.45179259679E+03  0.10100000352E+00 0.  1.
        3   -1    0    0  501    0  0.00000000000E+00  0.00000000000E+00 -0.78460770487E+03  0.78460771137E+03  0.10100000352E+00 0. -1.
    10030    2    1    2    0    0  0.00000000000E+00  0.00000000000E+00 -0.33281511937E+03  0.12364003082E+04  0.11907643841E+04 0.  0.
        2    1    3    3  502    0  0.20539721525E+03  0.28721870902E+03  0.33133614739E+03  0.48421714696E+03  0.25500000920E-02 0.  1.
       -2    1    3    3    0  502 -0.20539721525E+03 -0.28721870902E+03 -0.66415126676E+03  0.75218316120E+03  0.25500000920E-02 0. -1.
</event>
<event>
 5   0  0.5108045E-03  0.1219849E+04  0.7818609E-02  0.9095658E-01
        2   -1    0    0  501    0  0.00000000000E+00  0.00000000000E+00  0.85749778185E+03  0.85749778186E+03  0.25500000920E-02 0. -1.
       -2   -1    0    0    0  501  0.00000000000E+00  0.00000000000E+00 -0.43382952356E+03  0.43382952357E+03  0.25500000920E-02 0.  1.
    10030    2    1    2    0    0  0.00000000000E+00  0.00000000000E+00  0.42366825829E+03  0.12913273054E+04  0.12198489319E+04 0.  0.
        3    1    3    3  502    0  0.15174144789E+02 -0.21275005003E+03 -0.39306346403E+03  0.44720435532E+03  0.10100000352E+00 0.  1.
       -3    1    3    3    0  502 -0.15174144789E+02  0.21275005003E+03  0.81673172232E+03  0.84412295011E+03  0.10100000352E+00 0. -1.
</event>
<event>
 5   0  0.5003526E-03  0.1203248E+04  0.7818609E-02  0.9110018E-01
       -2   -1    0    0    0  501  0.00000000000E+00  0.00000000000E+00  0.45271221726E+03  0.45271221727E+03  0.25500000920E-02 0.  1.
        2   -1    0    0  501    0  0.00000000000E+00  0.00000000000E+00 -0.79951824067E+03  0.79951824067E+03  0.25500000920E-02 0. -1.
    10030    2    1    2    0    0  0.00000000000E+00  0.00000000000E+00 -0.34680602341E+03  0.12522304579E+04  0.12032483958E+04 0.  0.
        2    1    3    3  502    0  0.29421117170E+03 -0.48945875946E+03  0.23567570637E+02  0.57156410066E+03  0.25500000920E-02 0.  1.
       -2    1    3    3    0  502 -0.29421117170E+03  0.48945875946E+03 -0.37037359404E+03  0.68066635729E+03  0.25500000920E-02 0. -1.
</event>
<event>
 5   0  0.5031575E-03  0.7997860E+03  0.7818609E-02  0.9560327E-01
        2   -1    0    0  501    0  0.00000000000E+00  0.00000000000E+00  0.59270068537E+03  0.59270068537E+03  0.25500000920E-02 0.  1.
       -2   -1    0    0    0  501  0.00000000000E+00  0.00000000000E+00 -0.26980635811E+03  0.26980635812E+03  0.25500000920E-02 0. -1.
    10030    2    1    2    0    0  0.00000000000E+00  0.00000000000E+00  0.32289432725E+03  0.86250704349E+03  0.79978600482E+03 0.  0.
        5    1    3    3  502    0  0.11328492585E+03  0.14162804587E+03 -0.22287134586E+03  0.28737728617E+03  0.46999998093E+01 0. -1.
       -5    1    3    3    0  502 -0.11328492585E+03 -0.14162804587E+03  0.54576567312E+03  0.57512975732E+03  0.46999998093E+01 0.  1.
</event>
<event>
 5   0  0.2938349E-03  0.1217427E+04  0.7818609E-02  0.9097738E-01
       -1   -1    0    0    0  501  0.00000000000E+00  0.00000000000E+00  0.33485171137E+03  0.33485171141E+03  0.50400001928E-02 0. -1.
        1   -1    0    0  501    0  0.00000000000E+00  0.00000000000E+00 -0.11065557442E+04  0.11065557442E+04  0.50400001928E-02 0.  1.
    10030    2    1    2    0    0  0.00000000000E+00  0.00000000000E+00 -0.77170403280E+03  0.14414074556E+04  0.12174269337E+04 0.  0.
        4    1    3    3  502    0 -0.14950931154E+03 -0.57638690223E+03 -0.53540673115E+03  0.80077267433E+03  0.12699999809E+01 0.  1.
       -4    1    3    3    0  502  0.14950931154E+03  0.57638690223E+03 -0.23629730165E+03  0.64063478126E+03  0.12699999809E+01 0. -1.
</event>
<event>
 5   0  0.2875848E-03  0.1198950E+04  0.7818609E-02  0.9113776E-01
       -1   -1    0    0    0  501  0.00000000000E+00  0.00000000000E+00  0.95317116772E+03  0.95317116773E+03  0.50400001928E-02 0.  1.
        1   -1    0    0  501    0  0.00000000000E+00  0.00000000000E+00 -0.37702576182E+03  0.37702576186E+03  0.50400001928E-02 0. -1.
    10030    2    1    2    0    0  0.00000000000E+00  0.00000000000E+00  0.57614540590E+03  0.13301969296E+04  0.11989496832E+04 0.  0.
        1    1    3    3  502    0  0.10350822537E+02  0.30771163480E+03 -0.28260461825E+03  0.41792219372E+03  0.50400001928E-02 0. -1.
       -1    1    3    3    0  502 -0.10350822537E+02 -0.30771163480E+03  0.85875002415E+03  0.91227473587E+03  0.50400001928E-02 0.  1.
</event>
<event>
 5   0  0.5003526E-03  0.1154528E+04  0.7818609E-02  0.9153616E-01
        2   -1    0    0  501    0  0.00000000000E+00  0.00000000000E+00  0.19734839512E+04  0.19734839512E+04  0.25500000920E-02 0. -1.
       -2   -1    0    0    0  501  0.00000000000E+00  0.00000000000E+00 -0.16885562043E+03  0.16885562045E+03  0.25500000920E-02 0.  1.
    10030    2    1    2    0    0  0.00000000000E+00  0.00000000000E+00  0.18046283308E+04  0.21423395717E+04  0.11545282275E+04 0.  0.
        2    1    3    3  502    0 -0.39396784174E+03 -0.40184455389E+03  0.66363967746E+03  0.87011914548E+03  0.25500000920E-02 0. -1.
       -2    1    3    3    0  502  0.39396784174E+03  0.40184455389E+03  0.11409886533E+04  0.12722204262E+04  0.25500000920E-02 0.  1.
</event>
<event>
 5   0  0.1922125E-03  0.1455919E+04  0.7818609E-02  0.8914307E-01
       -3   -1    0    0    0  501  0.00000000000E+00  0.00000000000E+00  0.13462065891E+04  0.13462065929E+04  0.10100000352E+00 0.  1.
        3   -1    0    0  501    0  0.00000000000E+00  0.00000000000E+00 -0.39364337143E+03  0.39364338439E+03  0.10100000352E+00 0. -1.
    10030    2    1    2    0    0  0.00000000000E+00  0.00000000000E+00  0.95256321767E+03  0.17398499773E+04  0.14559193864E+04 0.  0.
        3    1    3    3  502    0  0.25912311949E+03 -0.36783579193E+03 -0.20757508525E+03  0.49551527433E+03  0.10100000352E+00 0. -1.
       -3    1    3    3    0  502 -0.25912311949E+03  0.36783579193E+03  0.11601383029E+04  0.12443347030E+04  0.10100000352E+00 0.  1.
</event>
<event>
 5   0  0.2938349E-03  0.1225627E+04  0.7818609E-02  0.9090717E-01
        1   -1    0    0  501    0  0.00000000000E+00  0.00000000000E+00  0.10888198255E+04  0.10888198255E+04  0.50400001928E-02 0. -1.
       -1   -1    0    0    0  501  0.00000000000E+00  0.00000000000E+00 -0.34490576639E+03  0.34490576642E+03  0.50400001928E-02 0.  1.
    10030    2    1    2    0    0  0.00000000000E+00  0.00000000000E+00  0.74391405911E+03  0.14337255919E+04  0.12256267562E+04 0.  0.
        4    1    3    3  502    0 -0.43545644255E+03  0.37412120233E+03  0.62271159121E+03  0.84697126641E+03  0.12699999809E+01 0.  1.
       -4    1    3    3    0  502  0.43545644255E+03 -0.37412120233E+03  0.12120246790E+03  0.58675432552E+03  0.12699999809E+01 0. -1.
</event>
<event>
 5   0  0.5189537E-03  0.1273639E+04  0.7818609E-02  0.9050735E-01
       -2   -1    0    0    0  501  0.00000000000E+00  0.00000000000E+00  0.40357661068E+03  0.40357661069E+03  0.25500000920E-02 0.  1.
        2   -1    0    0  501    0  0.00000000000E+00  0.00000000000E+00 -0.10048627327E+04  0.10048627328E+04  0.25500000920E-02 0. -1.
    10030    2    1    2    0    0  0.00000000000E+00  0.00000000000E+00 -0.60128612206E+03  0.14084393434E+04  0.12736390319E+04 0.  0.
        4    1    3    3  502    0 -0.13932356621E+03 -0.49852565765E+03  0.10955989794E+03  0.52909722317E+03  0.12699999809E+01 0.  1.
       -4    1    3    3    0  502  0.13932356621E+03  0.49852565765E+03 -0.71084602000E+03  0.87934212027E+03  0.12699999809E+01 0. -1.
</event>
<event>
 5   0  0.2926844E-03  0.1244014E+04  0.7818609E-02  0.9075180E-01
        1   -1    0    0  501    0  0.00000000000E+00  0.00000000000E+00  0.17951364472E+04  0.17951364473E+04  0.50400001928E-02 0. -1.
       -1   -1    0    0    0  501  0.00000000000E+00  0.00000000000E+00 -0.21552277225E+03  0.21552277231E+03  0.50400001928E-02 0.  1.
    10030    2    1    2    0    0  0.00000000000E+00  0.00000000000E+00  0.15796136750E+04  0.20106592196E+04  0.12440141217E+04 0.  0.
        5    1    3    3  502    0  0.15533334214E+03  0.43435345062E+03  0.11545466945E+03  0.47554520074E+03  0.46999998093E+01 0.  1.
       -5    1    3    3    0  502 -0.15533334214E+03 -0.43435345062E+03  0.14641590056E+04  0.15351140188E+04  0.46999998093E+01 0. -1.
</event>
<event>
 5   0  0.5031575E-03  0.1155035E+04  0.7818609E-02  0.9153151E-01
       -2   -1    0    0    0  501  0.00000000000E+00  0.00000000000E+00  0.67676230343E+03  0.67676230343E+03  0.25500000920E-02 0.  1.
        2   -1    0    0  501    0  0.00000000000E+00  0.00000000000E+00 -0.49282647368E+03  0.49282647368E+03  0.25500000920E-02 0. -1.
    10030    2    1    2    0    0  0.00000000000E+00  0.00000000000E+00  0.18393582975E+03  0.11695887771E+04  0.11550348558E+04 0.  0.
        5    1    3    3  502    0  0.57285226566E+03  0.83082547237E+00  0.17944947545E+02  0.57315313807E+03  0.46999998093E+01 0.  1.
       -5    1    3    3    0  502 -0.57285226566E+03 -0.83082547237E+00  0.16599088221E+03  0.59643563904E+03  0.46999998093E+01 0. -1.
</event>
<event>
 5   0  0.5467554E-03  0.1039592E+04  0.7818609E-02  0.9266156E-01
        2   -1    0    0  501    0  0.00000000000E+00  0.00000000000E+00  0.71232134547E+03  0.71232134547E+03  0.25500000920E-02 0. -1.
       -2   -1    0    0    0  501  0.00000000000E+00  0.00000000000E+00 -0.37930626642E+03  0.37930626643E+03  0.25500000920E-02 0.  1.
    10030    2    1    2    0    0  0.00000000000E+00  0.00000000000E+00  0.33301507904E+03  0.10916276119E+04  0.10395921317E+04 0.  0.
        1    1    3    3  502    0 -0.51755628956E+03 -0.24932431535E+02  0.12318965956E+03  0.53259912810E+03  0.50400001928E-02 0.  1.
       -1    1    3    3    0  502  0.51755628956E+03  0.24932431535E+02  0.20982541949E+03  0.55902848380E+03  0.50400001928E-02 0. -1.
</event>
<event>
 5   0  0.2930868E-03  0.1229987E+04  0.7818609E-02  0.9087006E-01
        1   -1    0    0  501    0  0.00000000000E+00  0.00000000000E+00  0.19171269894E+04  0.19171269894E+04  0.50400001928E-02 0.  1.
       -1   -1    0    0    0  501  0.00000000000E+00  0.00000000000E+00 -0.19728334177E+03  0.19728334183E+03  0.50400001928E-02 0. -1.
    10030    2    1    2    0    0  0.00000000000E+00  0.00000000000E+00  0.17198436477E+04  0.21144103313E+04  0.12299873481E+04 0.  0.
        3    1    3    3  502    0 -0.38432352229E+03  0.42144202348E+03  0.46454298073E+03  0.73560732738E+03  0.10100000352E+00 0. -1.
       -3    1    3    3    0  502  0.38432352229E+03 -0.42144202348E+03  0.12553006669E+04  0.13788030039E+04  0.10100000352E+00 0.  1.
</event>
<event>
 5   0  0.2938349E-03  0.1189012E+04  0.7818609E-02  0.9122529E-01
        1   -1    0    0  501    0  0.00000000000E+00  0.00000000000E+00  0.57103653408E+03  0.57103653410E+03  0.50400001928E-02 0.  1.
       -1   -1    0    0    0  501  0.00000000000E+00  0.00000000000E+00 -0.61893966113E+03  0.61893966115E+03  0.50400001928E-02 0. -1.
    10030    2    1    2    0    0  0.00000000000E+00  0.00000000000E+00 -0.47903127049E+02  0.11899761952E+04  0.11890116213E+04 0.  0.
        4    1    3    3  502    0  0.47218231716E+03  0.31898752503E+03  0.14567446959E+03  0.58815971110E+03  0.12699999809E+01 0.  1.
       -4    1    3    3    0  502 -0.47218231716E+03 -0.31898752503E+03 -0.19357759664E+03  0.60181648415E+03  0.12699999809E+01 0. -1.
</event>
<event>
 5   0  0.2938349E-03  0.1182313E+04  0.7818609E-02  0.9128480E-01
       -1   -1    0    0    0  501  0.00000000000E+00  0.00000000000E+00  0.79511991415E+03  0.79511991416E+03  0.50400001928E-02 0. -1.
        1   -1    0    0  501    0  0.00000000000E+00  0.00000000000E+00 -0.43951371472E+03  0.43951371475E+03  0.50400001928E-02 0.  1.
    10030    2    1    2    0    0  0.00000000000E+00  0.00000000000E+00  0.35560619943E+03  0.12346336289E+04  0.11823131686E+04 0.  0.
        4    1    3    3  502    0 -0.15025407248E+03 -0.86603775341E+01  0.77477704082E+03  0.78926064409E+03  0.12699999809E+01 0. -1.
       -4    1    3    3    0  502  0.15025407248E+03  0.86603775341E+01 -0.41917084139E+03  0.44537298482E+03  0.12699999809E+01 0.  1.
</event>
<event>
 5   0  0.2938349E-03  0.1224988E+04  0.7818609E-02  0.9091261E-01
       -1   -1    0    0    0  501  0.00000000000E+00  0.00000000000E+00  0.56779950347E+03  0.56779950350E+03  0.50400001928E-02 0. -1.
        1   -1    0    0  501    0  0.00000000000E+00  0.00000000000E+00 -0.66070687784E+03  0.66070687786E+03  0.50400001928E-02 0.  1.
    10030    2    1    2    0    0  0.00000000000E+00  0.00000000000E+00 -0.92907374366E+02  0.12285063814E+04  0.12249882239E+04 0.  0.
        4    1    3    3  502    0  0.41508078371E+03 -0.43538106632E+03  0.69197476194E+02  0.60550692277E+03  0.12699999809E+01 0.  1.
       -4    1    3    3    0  502 -0.41508078371E+03  0.43538106632E+03 -0.16210485056E+03  0.62299945858E+03  0.12699999809E+01 0. -1.
</event>
<event>
 5   0  0.2930868E-03  0.1196368E+04  0.7818609E-02  0.9116041E-01
       -1   -1    0    0    0  501  0.00000000000E+00  0.00000000000E+00  0.20053982594E+03  0.20053982600E+03  0.50400001928E-02 0. -1.
        1   -1    0    0  501    0  0.00000000000E+00  0.00000000000E+00 -0.17843051351E+04  0.17843051351E+04  0.50400001928E-02 0.  1.
    10030    2    1    2    0    0  0.00000000000E+00  0.00000000000E+00 -0.15837653092E+04  0.19848449611E+04  0.11963682398E+04 0.  0.
        3    1    3    3  502    0 -0.27743398456E+03 -0.47544713759E+03 -0.11802747275E+04  0.13023317700E+04  0.10100000352E+00 0.  1.
       -3    1    3    3    0  502  0.27743398456E+03  0.47544713759E+03 -0.40349058167E+03  0.68251319117E+03  0.10100000352E+00 0. -1.
</event>
<event>
 5   0  0.5031575E-03  0.1194284E+04  0.7818609E-02  0.9117874E-01
       -2   -1    0    0    0  501  0.00000000000E+00  0.00000000000E+00  0.19167071372E+03  0.19167071374E+03  0.25500000920E-02 0. -1.
        2   -1    0    0  501    0  0.00000000000E+00  0.00000000000E+00 -0.18603714557E+04  0.18603714557E+04  0.25500000920E-02 0.  1.
    10030    2    1    2    0    0  0.00000000000E+00  0.00000000000E+00 -0.16687007420E+04  0.20520421694E+04  0.11942842622E+04 0.  0.
        5    1    3    3  502    0 -0.31482004027E+03  0.50716287231E+03 -0.80824712605E+03  0.10047941797E+04  0.46999998093E+01 0. -1.
       -5    1    3    3    0  502  0.31482004027E+03 -0.50716287231E+03 -0.86045361591E+03  0.10472479897E+04  0.46999998093E+01 0.  1.
</event>
<event>
 5   0  0.5003526E-03  0.1250119E+04  0.7818609E-02  0.9070084E-01
        2   -1    0    0  501    0  0.00000000000E+00  0.00000000000E+00  0.92230652311E+03  0.92230652311E+03  0.25500000920E-02 0. -1.
       -2   -1    0    0    0  501  0.00000000000E+00  0.00000000000E+00 -0.42361099170E+03  0.42361099171E+03  0.25500000920E-02 0.  1.
    10030    2    1    2    0    0  0.00000000000E+00  0.00000000000E+00  0.49869553140E+03  0.13459175148E+04  0.12501186838E+04 0.  0.
        2    1    3    3  502    0  0.24136683597E+03 -0.46638061503E+03 -0.11564526306E+03  0.53771986615E+03  0.25500000920E-02 0.  1.
       -2    1    3    3    0  502 -0.24136683597E+03  0.46638061503E+03  0.61434079446E+03  0.80819764867E+03  0.25500000920E-02 0. -1.
</event>
<event>
 5   0  0.2792518E-03  0.1206932E+04  0.7818609E-02  0.9106811E-01
       -1   -1    0    0    0  501  0.00000000000E+00  0.00000000000E+00  0.39335779832E+03  0.39335779835E+03  0.50400001928E-02 0.  1.
        1   -1    0    0  501    0  0.00000000000E+00  0.00000000000E+00 -0.92580075018E+03  0.92580075019E+03  0.50400001928E-02 0. -1.
    10030    2    1    2    0    0  0.00000000000E+00  0.00000000000E+00 -0.53244295186E+03  0.13191585485E+04  0.12069315553E+04 0.  0.
        2    1    3    3  502    0  0.36228735630E+03 -0.33510616812E+03 -0.64582376881E+03  0.81279555413E+03  0.25500000920E-02 0. -1.
       -2    1    3    3    0  502 -0.36228735630E+03  0.33510616812E+03  0.11338081695E+03  0.50636299441E+03  0.25500000920E-02 0.  1.
</event>
<event>
 5   0  0.2875848E-03  0.1201380E+04  0.7818609E-02  0.9111650E-01
        1   -1    0    0  501    0  0.00000000000E+00  0.00000000000E+00  0.44152125258E+03  0.44152125261E+03  0.50400001928E-02 0.  1.
       -1   -1    0    0    0  501  0.00000000000E+00  0.00000000000E+00 -0.81723908999E+03  0.81723909000E+03  0.50400001928E-02 0. -1.
    10030    2    1    2    0    0  0.00000000000E+00  0.00000000000E+00 -0.37571783741E+03  0.12587603426E+04  0.12013799178E+04 0.  0.
        1    1    3    3  502    0 -0.17752230224E+03 -0.40072044211E+03 -0.61825503382E+03  0.75784584672E+03  0.50400001928E-02 0. -1.
       -1    1    3    3    0  502  0.17752230224E+03  0.40072044211E+03  0.24253719642E+03  0.50091449589E+03  0.50400001928E-02 0.  1.
</event>
<event>
 5   0  0.2930868E-03  0.1195011E+04  0.7818609E-02  0.9117235E-01
        1   -1    0    0  501    0  0.00000000000E+00  0.00000000000E+00  0.55231568285E+03  0.55231568287E+03  0.50400001928E-02 0.  1.
       -1   -1    0    0    0  501  0.00000000000E+00  0.00000000000E+00 -0.64639251445E+03  0.64639251447E+03  0.50400001928E-02 0. -1.
    10030    2    1    2    0    0  0.00000000000E+00  0.00000000000E+00 -0.94076831607E+02  0.11987081973E+04  0.11950108335E+04 0.  0.
        3    1    3    3  502    0 -0.12193695379E+03 -0.55762646562E+03  0.13013427268E+03  0.58544925910E+03  0.10100000352E+00 0. -1.
       -3    1    3    3    0  502  0.12193695379E+03  0.55762646562E+03 -0.22421110428E+03  0.61325893825E+03  0.10100000352E+00 0.  1.
</event>
<event>
 5   0  0.2875848E-03  0.1233896E+04  0.7818609E-02  0.9083694E-01
       -1   -1    0    0    0  501  0.00000000000E+00  0.00000000000E+00  0.78987165209E+03  0.78987165211E+03  0.50400001928E-02 0.  1.
        1   -1    0    0  501    0  0.00000000000E+00  0.00000000000E+00 -0.48188163767E+03  0.48188163770E+03  0.50400001928E-02 0. -1.
    10030    2    1    2    0    0  0.00000000000E+00  0.00000000000E+00  0.30799001442E+03  0.12717532898E+04  0.12338956930E+04 0.  0.
        1    1    3    3  502    0  0.24818906214E+03 -0.57807480811E+02 -0.42510221811E+03  0.49563233478E+03  0.50400001928E-02 0. -1.
       -1    1    3    3    0  502 -0.24818906214E+03  0.57807480811E+02  0.73309223253E+03  0.77612095503E+03  0.50400001928E-02 0.  1.
</event>
<event>
 5   0  0.2938349E-03  0.1192704E+04  0.7818609E-02  0.9119267E-01
        1   -1    0    0  501    0  0.00000000000E+00  0.00000000000E+00  0.51868326404E+03  0.51868326406E+03  0.50400001928E-02 0.  1.
       -1   -1    0    0    0  501  0.00000000000E+00  0.00000000000E+00 -0.68565080959E+03  0.68565080961E+03  0.50400001928E-02 0. -1.
    10030    2    1    2    0    0  0.00000000000E+00  0.00000000000E+00 -0.16696754556E+03  0.12043340737E+04  0.11927038190E+04 0.  0.
        4    1    3    3  502    0 -0.39373576017E+03 -0.43117702577E+03 -0.20587840483E+03  0.61913569342E+03  0.12699999809E+01 0. -1.
       -4    1    3    3    0  502  0.39373576017E+03  0.43117702577E+03  0.38910859275E+02  0.58519838026E+03  0.12699999809E+01 0.  1.
</event>
<event>
 5   0  0.2938349E-03  0.1220611E+04  0.7818609E-02  0.9095004E-01
       -1   -1    0    0    0  501  0.00000000000E+00  0.00000000000E+00  0.18900997679E+03  0.18900997685E+03  0.50400001928E-02 0.  1.
        1   -1    0    0  501    0  0.00000000000E+00  0.00000000000E+00 -0.19706521432E+04  0.19706521432E+04  0.50400001928E-02 0. -1.
    10030    2    1    2    0    0  0.00000000000E+00  0.00000000000E+00 -0.17816421664E+04  0.21596621201E+04  0.12206111845E+04 0.  0.
        4    1    3    3  502    0  0.20275530454E+03 -0.30631395254E+03 -0.28496505233E+02  0.36844485985E+03  0.12699999809E+01 0.  1.
       -4    1    3    3    0  502 -0.20275530454E+03  0.30631395254E+03 -0.17531456612E+04  0.17912172602E+04  0.12699999809E+01 0. -1.
</event>
<event>
 5   0  0.2930868E-03  0.1191763E+04  0.7818609E-02  0.9120097E-01
       -1   -1    0    0    0  501  0.00000000000E+00  0.00000000000E+00  0.75620063585E+03  0.75620063586E+03  0.50400001928E-02 0.  1.
        1   -1    0    0  501    0  0.00000000000E+00  0.00000000000E+00 -0.46955107958E+03  0.46955107961E+03  0.50400001928E-02 0. -1.
    10030    2    1    2    0    0  0.00000000000E+00  0.00000000000E+00  0.28664955627E+03  0.12257517155E+04  0.11917631056E+04 0.  0.
        3    1    3    3  502    0 -0.50456526207E+03  0.17937121120E+03 -0.12550018281E+03  0.55000949190E+03  0.10100000352E+00 0. -1.
       -3    1    3    3    0  502  0.50456526207E+03 -0.17937121120E+03  0.41214973908E+03  0.67574222357E+03  0.10100000352E+00 0.  1.
</event>
<event>
 5   0  0.5003526E-03  0.1187383E+04  0.7818609E-02  0.9123972E-01
       -2   -1    0    0    0  501  0.00000000000E+00  0.00000000000E+00  0.28436172195E+03  0.28436172196E+03  0.25500000920E-02 0.  1.
        2   -1    0    0  501    0  0.00000000000E+00  0.00000000000E+00 -0.12395115541E+04  0.12395115541E+04  0.25500000920E-02 0. -1.
    10030    2    1    2    0    0  0.00000000000E+00  0.00000000000E+00 -0.95514983211E+03  0.15238732760E+04  0.11873830720E+04 0.  0.
        2    1    3    3  502    0 -0.98989394090E+01 -0.57973591966E+03 -0.64131589376E+03  0.86456798527E+03  0.25500000920E-02 0.  1.
       -2    1    3    3    0  502  0.98989394090E+01  0.57973591966E+03 -0.31383393835E+03  0.65930529075E+03  0.25500000920E-02 0. -1.
</event>
<event>
 5   0  0.1922125E-03  0.1167655E+04  0.7818609E-02  0.9141649E-01
       -3   -1    0    0    0  501  0.00000000000E+00  0.00000000000E+00  0.13449061837E+04  0.13449061875E+04  0.10100000352E+00 0.  1.
        3   -1    0    0  501    0  0.00000000000E+00  0.00000000000E+00 -0.25344113929E+03  0.25344115942E+03  0.10100000352E+00 0. -1.
    10030    2    1    2    0    0  0.00000000000E+00  0.00000000000E+00  0.10914650444E+04  0.15983473469E+04  0.11676550425E+04 0.  0.
        2    1    3    3  502    0  0.17569411760E+03 -0.17577258864E+03  0.12688833021E+04  0.12929923666E+04  0.25500000920E-02 0.  1.
       -2    1    3    3    0  502 -0.17569411760E+03  0.17577258864E+03 -0.17741825761E+03  0.30535498034E+03  0.25500000920E-02 0. -1.
</event>
<event>
 5   0  0.5467554E-03  0.1209921E+04  0.7818609E-02  0.9104217E-01
       -2   -1    0    0    0  501  0.00000000000E+00  0.00000000000E+00  0.22802103256E+03  0.22802103257E+03  0.25500000920E-02 0. -1.
        2   -1    0    0  501    0  0.00000000000E+00  0.00000000000E+00 -0.16050150235E+04  0.16050150235E+04  0.25500000920E-02 0.  1.
    10030    2    1    2    0    0  0.00000000000E+00  0.00000000000E+00 -0.13769939909E+04  0.18330360561E+04  0.12099209610E+04 0.  0.
        1    1    3    3  502    0  0.11974516936E+03  0.42098266363E+03 -0.13212031101E+04  0.13918128347E+04  0.50400001928E-02 0.  1.
       -1    1    3    3    0  502 -0.11974516936E+03 -0.42098266363E+03 -0.55790880831E+02  0.44122322136E+03  0.50400001928E-02 0. -1.
</event>
<event>
 5   0  0.2930868E-03  0.1204407E+04  0.7818609E-02  0.9109008E-01
        1   -1    0    0  501    0  0.00000000000E+00  0.00000000000E+00  0.80203755937E+03  0.80203755939E+03  0.50400001928E-02 0.  1.
       -1   -1    0    0    0  501  0.00000000000E+00  0.00000000000E+00 -0.45215974091E+03  0.45215974094E+03  0.50400001928E-02 0. -1.
    10030    2    1    2    0    0  0.00000000000E+00  0.00000000000E+00  0.34987781846E+03  0.12541973003E+04  0.12044070659E+04 0.  0.
        3    1    3    3  502    0 -0.12725868417E+03 -0.27509337595E+03  0.71681403077E+03  0.77826313230E+03  0.10100000352E+00 0.  1.
       -3    1    3    3    0  502  0.12725868417E+03  0.27509337595E+03 -0.36693621231E+03  0.47593416802E+03  0.10100000352E+00 0. -1.
</event>
<event>
 5   0  0.5467554E-03  0.1270270E+04  0.7818609E-02  0.9053479E-01
        2   -1    0    0  501    0  0.00000000000E+00  0.00000000000E+00  0.27997711948E+04  0.27997711948E+04  0.25500000920E-02 0.  1.
       -2   -1    0    0    0  501  0.00000000000E+00  0.00000000000E+00 -0.14408203253E+03  0.14408203255E+03  0.25500000920E-02 0. -1.
    10030    2    1    2    0    0  0.00000000000E+00  0.00000000000E+00  0.26556891623E+04  0.29438532273E+04  0.12702704033E+04 0.  0.
        1    1    3    3  502    0  0.55203879862E+01  0.63457316068E+02 -0.13666111369E+03  0.15077654216E+03  0.50400001928E-02 0. -1.
       -1    1    3    3    0  502 -0.55203879862E+01 -0.63457316068E+02  0.27923502759E+04  0.27930766852E+04  0.50400001928E-02 0.  1.
</event>
<event>
 5   0  0.2875848E-03  0.1192725E+04  0.7818609E-02  0.9119248E-01
       -1   -1    0    0    0  501  0.00000000000E+00  0.00000000000E+00  0.40376876565E+03  0.40376876568E+03  0.50400001928E-02 0.  1.
        1   -1    0    0  501    0  0.00000000000E+00  0.00000000000E+00 -0.88082189514E+03  0.88082189515E+03  0.50400001928E-02 0. -1.
    10030    2    1    2    0    0  0.00000000000E+00  0.00000000000E+00 -0.47705312948E+03  0.12845906608E+04  0.11927252314E+04 0.  0.
        1    1    3    3  502    0 -0.13350894111E+03 -0.37344840932E+03  0.24115322718E+03  0.46415862675E+03  0.50400001928E-02 0.  1.
       -1    1    3    3    0  502  0.13350894111E+03  0.37344840932E+03 -0.71820635666E+03  0.82043203409E+03  0.50400001928E-02 0. -1.
</event>
<event>
 5   0  0.5031575E-03  0.1216419E+04  0.7818609E-02  0.9098605E-01
       -2   -1    0    0    0  501  0.00000000000E+00  0.00000000000E+00  0.55056045950E+03  0.55056045951E+03  0.25500000920E-02 0. -1.
        2   -1    0    0  501    0  0.00000000000E+00  0.00000000000E+00 -0.67189544236E+03  0.67189544237E+03  0.25500000920E-02 0.  1.
    10030    2    1    2    0    0  0.00000000000E+00  0.00000000000E+00 -0.12133498286E+03  0.12224559019E+04  0.12164194400E+04 0.  0.
        5    1    3    3  502    0  0.42157905334E+03  0.21154710032E+03  0.32518562568E+03  0.57293006119E+03  0.46999998093E+01 0.  1.
       -5    1    3    3    0  502 -0.42157905334E+03 -0.21154710032E+03 -0.44652060854E+03  0.64952584069E+03  0.46999998093E+01 0. -1.
</event>
<event>
 5   0  0.2792518E-03  0.1198915E+04  0.7818609E-02  0.9113807E-01
        1   -1    0    0  501    0  0.00000000000E+00  0.00000000000E+00  0.23502640128E+03  0.23502640134E+03  0.50400001928E-02 0. -1.
       -1   -1    0    0    0  501  0.00000000000E+00  0.00000000000E+00 -0.15289744994E+04  0.15289744994E+04  0.50400001928E-02 0.  1.
    10030    2    1    2    0    0  0.00000000000E+00  0.00000000000E+00 -0.12939480981E+04  0.17640009007E+04  0.11989151334E+04 0.  0.
        2    1    3    3  502    0 -0.56633136075E+01 -0.55886056882E+03 -0.32802369316E+03  0.64804070226E+03  0.25500000920E-02 0. -1.
       -2    1    3    3    0  502  0.56633136075E+01  0.55886056882E+03 -0.96592440493E+03  0.11159601985E+04  0.25500000920E-02 0.  1.
</event>
<event>
 5   0  0.5108045E-03  0.1151216E+04  0.7818609E-02  0.9156662E-01
        2   -1    0    0  501    0  0.00000000000E+00  0.00000000000E+00  0.41009137519E+03  0.41009137520E+03  0.25500000920E-02 0. -1.
       -2   -1    0    0    0  501  0.00000000000E+00  0.00000000000E+00 -0.80792928439E+03  0.80792928439E+03  0.25500000920E-02 0.  1.
    10030    2    1    2    0    0  0.00000000000E+00  0.00000000000E+00 -0.39783790920E+03  0.12180206596E+04  0.11512164545E+04 0.  0.
        3    1    3    3  502    0 -0.19347102000E+03 -0.20604581697E+03  0.33161588184E+03  0.43572355635E+03  0.10100000352E+00 0. -1.
       -3    1    3    3    0  502  0.19347102000E+03  0.20604581697E+03 -0.72945379104E+03  0.78229710324E+03  0.10100000352E+00 0.  1.
</event>
<event>
 5   0  0.5003526E-03  0.1194699E+04  0.7818609E-02  0.9117509E-01
       -2   -1    0    0    0  501  0.00000000000E+00  0.00000000000E+00  0.14886516642E+03  0.14886516644E+03  0.25500000920E-02 0. -1.
        2   -1    0    0  501    0  0.00000000000E+00  0.00000000000E+00 -0.23969769888E+04  0.23969769888E+04  0.25500000920E-02 0.  1.
    10030    2    1    2    0    0  0.00000000000E+00  0.00000000000E+00 -0.22481118224E+04  0.25458421553E+04  0.11946989217E+04 0.  0.
        2    1    3    3  502    0 -0.40334258937E+03 -0.15511912308E+03 -0.24523862011E+03  0.49687942959E+03  0.25500000920E-02 0. -1.
       -2    1    3    3    0  502  0.40334258937E+03  0.15511912308E+03 -0.20028732023E+04  0.20489627257E+04  0.25500000920E-02 0.  1.
</event>
<event>
 5   0  0.2792518E-03  0.1125909E+04  0.7818609E-02  0.9180301E-01
        1   -1    0    0  501    0  0.00000000000E+00  0.00000000000E+00  0.97457807561E+03  0.97457807562E+03  0.50400001928E-02 0.  1.
       -1   -1    0    0    0  501  0.00000000000E+00  0.00000000000E+00 -0.32518447835E+03  0.32518447839E+03  0.50400001928E-02 0. -1.
    10030    2    1    2    0    0  0.00000000000E+00  0.00000000000E+00  0.64939359726E+03  0.12997625540E+04  0.11259088119E+04 0.  0.
        2    1    3    3  502    0 -0.10063746532E+03 -0.41755538542E+03  0.74480958769E+03  0.85978004236E+03  0.25500000920E-02 0.  1.
       -2    1    3    3    0  502  0.10063746532E+03  0.41755538542E+03 -0.95415990425E+02  0.43998251165E+03  0.25500000920E-02 0. -1.
</event>
<event>
 5   0  0.1922125E-03  0.1213167E+04  0.7818609E-02  0.9101409E-01
        4   -1    0    0  501    0  0.00000000000E+00  0.00000000000E+00  0.91246324932E+03  0.91246413313E+03  0.12699999809E+01 0. -1.
       -4   -1    0    0    0  501  0.00000000000E+00  0.00000000000E+00 -0.40323984484E+03  0.40324184476E+03  0.12699999809E+01 0.  1.
    10030    2    1    2    0    0  0.00000000000E+00  0.00000000000E+00  0.50922340448E+03  0.13157059779E+04  0.12131668247E+04 0.  0.
        4    1    3    3  502    0  0.44586228804E+03 -0.32587147586E+03 -0.17506974324E+02  0.55253371455E+03  0.12699999809E+01 0.  1.
       -4    1    3    3    0  502 -0.44586228804E+03  0.32587147586E+03  0.52673037881E+03  0.76317226334E+03  0.12699999809E+01 0. -1.
</event>
<event>
 5   0  0.5031575E-03  0.1194969E+04  0.7818609E-02  0.9117272E-01
        2   -1    0    0  501    0  0.00000000000E+00  0.00000000000E+00  0.10674975580E+04  0.10674975580E+04  0.25500000920E-02 0.  1.
       -2   -1    0    0    0  501  0.00000000000E+00  0.00000000000E+00 -0.33441526251E+03  0.33441526252E+03  0.25500000920E-02 0. -1.
    10030    2    1    2    0    0  0.00000000000E+00  0.00000000000E+00  0.73308229552E+03  0.14019128205E+04  0.11949685788E+04 0.  0.
        5    1    3    3  502    0  0.15631343449E+03  0.53619273254E+03  0.11759239848E+03  0.57077718806E+03  0.46999998093E+01 0. -1.
       -5    1    3    3    0  502 -0.15631343449E+03 -0.53619273254E+03  0.61548989704E+03  0.83113563249E+03  0.46999998093E+01 0.  1.
</event>
<event>
 5   0  0.5108045E-03  0.1230118E+04  0.7818609E-02  0.9086895E-01
        2   -1    0    0  501    0  0.00000000000E+00  0.00000000000E+00  0.92346364344E+03  0.92346364344E+03  0.25500000920E-02 0.  1.
       -2   -1    0    0    0  501  0.00000000000E+00  0.00000000000E+00 -0.40965060210E+03  0.40965060211E+03  0.25500000920E-02 0. -1.
    10030    2    1    2    0    0  0.00000000000E+00  0.00000000000E+00  0.51381304134E+03  0.13331142455E+04  0.12301177790E+04 0.  0.
        3    1    3    3  502    0  0.39161165065E+03  0.26041347802E+03  0.68648246263E+03  0.83212561922E+03  0.10100000352E+00 0.  1.
       -3    1    3    3    0  502 -0.39161165065E+03 -0.26041347802E+03 -0.17266942129E+03  0.50098862633E+03  0.10100000352E+00 0. -1.
</event>
<event>
 5   0  0.5467554E-03  0.1249384E+04  0.7818609E-02  0.9070696E-01
        2   -1    0    0  501    0  0.00000000000E+00  0.00000000000E+00  0.26651843077E+04  0.26651843077E+04  0.25500000920E-02 0.  1.
       -2   -1    0    0    0  501  0.00000000000E+00  0.00000000000E+00 -0.14642132242E+03  0.14642132244E+03  0.25500000920E-02 0. -1.
    10030    2    1    2    0    0  0.00000000000E+00  0.00000000000E+00  0.25187629853E+04  0.28116056302E+04  0.12493835454E+04 0.  0.
        1    1    3    3  502    0 -0.13113209290E+03  0.27086770031E+03  0.27457855806E+02  0.30219012348E+03  0.50400001928E-02 0. -1.
       -1    1    3    3    0  502  0.13113209290E+03 -0.27086770031E+03  0.24913051295E+04  0.25094155067E+04  0.50400001928E-02 0.  1.
</event>
<event>
 5   0  0.2926844E-03  0.1187450E+04  0.7818609E-02  0.9123913E-01
        1   -1    0    0  501    0  0.00000000000E+00  0.00000000000E+00  0.74718030953E+03  0.74718030955E+03  0.50400001928E-02 0.  1.
       -1   -1    0    0    0  501  0.00000000000E+00  0.00000000000E+00 -0.47178603545E+03  0.47178603548E+03  0.50400001928E-02 0. -1.
    10030    2    1    2    0    0  0.00000000000E+00  0.00000000000E+00  0.27539427408E+03  0.12189663450E+04  0.11874497649E+04 0.  0.
        5    1    3    3  502    0  0.18327741448E+02 -0.20819410606E+03  0.70814985491E+03  0.73836237642E+03  0.46999998093E+01 0.  1.
       -5    1    3    3    0  502 -0.18327741448E+02  0.20819410606E+03 -0.43275558083E+03  0.48060396861E+03  0.46999998093E+01 0. -1.
</event>
<event>
 5   0  0.2875848E-03  0.1205143E+04  0.7818609E-02  0.9108367E-01
        1   -1    0    0  501    0  0.00000000000E+00  0.00000000000E+00  0.13031171385E+04  0.13031171385E+04  0.50400001928E-02 0. -1.
       -1   -1    0    0    0  501  0.00000000000E+00  0.00000000000E+00 -0.27863372260E+03  0.27863372265E+03  0.50400001928E-02 0.  1.
    10030    2    1    2    0    0  0.00000000000E+00  0.00000000000E+00  0.10244834159E+04  0.15817508612E+04  0.12051429448E+04 0.  0.
        1    1    3    3  502    0  0.24814561974E+03 -0.30710227487E+03 -0.85204657526E+02  0.40391569606E+03  0.50400001928E-02 0.  1.
       -1    1    3    3    0  502 -0.24814561974E+03  0.30710227487E+03  0.11096880735E+04  0.11778351651E+04  0.50400001928E-02 0. -1.
</event>
<event>
 5   0  0.5003526E-03  0.1219595E+04  0.7818609E-02  0.9095876E-01
       -2   -1    0    0    0  501  0.00000000000E+00  0.00000000000E+00  0.56588163999E+03  0.56588163999E+03  0.25500000920E-02 0.  1.
        2   -1    0    0  501    0  0.00000000000E+00  0.00000000000E+00 -0.65712173670E+03  0.65712173671E+03  0.25500000920E-02 0. -1.
    10030    2    1    2    0    0  0.00000000000E+00  0.00000000000E+00 -0.91240096716E+02  0.12230033767E+04  0.12195952214E+04 0.  0.
        2    1    3    3  502    0 -0.44768684114E+02  0.49743162427E+03 -0.39647012828E+03  0.63767626467E+03  0.25500000920E-02 0. -1.
       -2    1    3    3    0  502  0.44768684114E+02 -0.49743162427E+03  0.30523003156E+03  0.58532711203E+03  0.25500000920E-02 0.  1.
</event>
<event>
 5   0  0.2792518E-03  0.9069127E+03  0.7818609E-02  0.9416981E-01
        1   -1    0    0  501    0  0.00000000000E+00  0.00000000000E+00  0.37682821528E+03  0.37682821532E+03  0.50400001928E-02 0.  1.
       -1   -1    0    0    0  501  0.00000000000E+00  0.00000000000E+00 -0.54566682898E+03  0.54566682900E+03  0.50400001928E-02 0. -1.
    10030    2    1    2    0    0  0.00000000000E+00  0.00000000000E+00 -0.16883861369E+03  0.92249504432E+03  0.90691269112E+03 0.  0.
        2    1    3    3  502    0  0.97720118065E+02 -0.38132796066E+03 -0.31336977592E+03  0.50315092320E+03  0.25500000920E-02 0. -1.
       -2    1    3    3    0  502 -0.97720118065E+02  0.38132796066E+03  0.14453116223E+03  0.41934412111E+03  0.25500000920E-02 0.  1.
</event>
<event>
 5   0  0.5108045E-03  0.1192486E+04  0.7818609E-02  0.9119459E-01
       -2   -1    0    0    0  501  0.00000000000E+00  0.00000000000E+00  0.90016947917E+03  0.90016947918E+03  0.25500000920E-02 0.  1.
        2   -1    0    0  501    0  0.00000000000E+00  0.00000000000E+00 -0.39493188471E+03  0.39493188472E+03  0.25500000920E-02 0. -1.
    10030    2    1    2    0    0  0.00000000000E+00  0.00000000000E+00  0.50523759447E+03  0.12951013639E+04  0.11924858556E+04 0.  0.
        3    1    3    3  502    0  0.41541025023E+03 -0.21173931539E+03  0.65622463071E+03  0.80500309927E+03  0.10100000352E+00 0.  1.
       -3    1    3    3    0  502 -0.41541025023E+03  0.21173931539E+03 -0.15098703624E+03  0.49009826463E+03  0.10100000352E+00 0. -1.
</event>
<event>
 5   0  0.5031575E-03  0.1516471E+04  0.7818609E-02  0.8873573E-01
        2   -1    0    0  501    0  0.00000000000E+00  0.00000000000E+00  0.55441724760E+03  0.55441724761E+03  0.25500000920E-02 0. -1.
       -2   -1    0    0    0  501  0.00000000000E+00  0.00000000000E+00 -0.10369830544E+04  0.10369830544E+04  0.25500000920E-02 0.  1.
    10030    2    1    2    0    0  0.00000000000E+00  0.00000000000E+00 -0.48256580682E+03  0.15914003020E+04  0.15164712867E+04 0.  0.
        5    1    3    3  502    0  0.13126477164E+03 -0.16990171453E+02 -0.10247503787E+04  0.10332736979E+04  0.46999998093E+01 0.  1.
       -5    1    3    3    0  502 -0.13126477164E+03  0.16990171453E+02  0.54218457189E+03  0.55812660409E+03  0.46999998093E+01 0. -1.
</event>
<event>
 5   0  0.2926844E-03  0.1202714E+04  0.7818609E-02  0.9110485E-01
        1   -1    0    0  501    0  0.00000000000E+00  0.00000000000E+00  0.12742568225E+04  0.12742568225E+04  0.50400001928E-02 0.  1.
       -1   -1    0    0    0  501  0.00000000000E+00  0.00000000000E+00 -0.28379675465E+03  0.28379675470E+03  0.50400001928E-02 0. -1.
    10030    2    1    2    0    0  0.00000000000E+00  0.00000000000E+00  0.99046006781E+03  0.15580535772E+04  0.12027135168E+04 0.  0.
        5    1    3    3  502    0  0.19082179288E+03  0.18366642672E+03  0.11946062024E+04  0.12236226468E+04  0.46999998093E+01 0.  1.
       -5    1    3    3    0  502 -0.19082179288E+03 -0.18366642672E+03 -0.20414613457E+03  0.33443093039E+03  0.46999998093E+01 0. -1.
</event>
<event>
 5   0  0.2926844E-03  0.1197887E+04  0.7818609E-02  0.9114708E-01
       -1   -1    0    0    0  501  0.00000000000E+00  0.00000000000E+00  0.42819851298E+03  0.42819851301E+03  0.50400001928E-02 0.  1.
        1   -1    0    0  501    0  0.00000000000E+00  0.00000000000E+00 -0.83777278716E+03  0.83777278718E+03  0.50400001928E-02 0. -1.
    10030    2    1    2    0    0  0.00000000000E+00  0.00000000000E+00 -0.40957427418E+03  0.12659713002E+04  0.11978865751E+04 0.  0.
        5    1    3    3  502    0 -0.46283998462E+03 -0.32437191288E+03  0.46506808308E+01  0.56522712962E+03  0.46999998093E+01 0.  1.
       -5    1    3    3    0  502  0.46283998462E+03  0.32437191288E+03 -0.41422495501E+03  0.70074417056E+03  0.46999998093E+01 0. -1.
</event>
<event>
 5   0  0.5467554E-03  0.1190190E+04  0.7818609E-02  0.9121487E-01
       -2   -1    0    0    0  501  0.00000000000E+00  0.00000000000E+00  0.26044322663E+03  0.26044322664E+03  0.25500000920E-02 0. -1.
        2   -1    0    0  501    0  0.00000000000E+00  0.00000000000E+00 -0.13597520259E+04  0.13597520259E+04  0.25500000920E-02 0.  1.
    10030    2    1    2    0    0  0.00000000000E+00  0.00000000000E+00 -0.10993087993E+04  0.16201952526E+04  0.11901902454E+04 0.  0.
        1    1    3    3  502    0  0.40398404468E+03 -0.37105342305E+03 -0.86379852066E+03  0.10232456379E+04  0.50400001928E-02 0.  1.
       -1    1    3    3    0  502 -0.40398404468E+03  0.37105342305E+03 -0.23551027864E+03  0.59694961470E+03  0.50400001928E-02 0. -1.
</event>
<event>
 5   0  0.5189537E-03  0.9693154E+03  0.7818609E-02  0.9342854E-01
       -2   -1    0    0    0  501  0.00000000000E+00  0.00000000000E+00  0.25349198389E+03  0.25349198390E+03  0.25500000920E-02 0. -1.
        2   -1    0    0  501    0  0.00000000000E+00  0.00000000000E+00 -0.92662929838E+03  0.92662929838E+03  0.25500000920E-02 0.  1.
    10030    2    1    2    0    0  0.00000000000E+00  0.00000000000E+00 -0.67313731448E+03  0.11801212823E+04  0.96931542686E+03 0.  0.
        4    1    3    3  502    0 -0.42260692585E+03  0.18676512803E+03 -0.15840998649E+03  0.48843951882E+03  0.12699999809E+01 0. -1.
       -4    1    3    3    0  502  0.42260692585E+03 -0.18676512803E+03 -0.51472732800E+03  0.69168176347E+03  0.12699999809E+01 0.  1.
</event>
<event>
 5   0  0.2792518E-03  0.1193985E+04  0.7818609E-02  0.9118138E-01
       -1   -1    0    0    0  501  0.00000000000E+00  0.00000000000E+00  0.70167064549E+03  0.70167064550E+03  0.50400001928E-02 0. -1.
        1   -1    0    0  501    0  0.00000000000E+00  0.00000000000E+00 -0.50793093753E+03  0.50793093756E+03  0.50400001928E-02 0.  1.
    10030    2    1    2    0    0  0.00000000000E+00  0.00000000000E+00  0.19373970796E+03  0.12096015831E+04  0.11939853078E+04 0.  0.
        2    1    3    3  502    0 -0.27319512913E+03  0.44798051148E+01 -0.44086866914E+03  0.51867218035E+03  0.25500000920E-02 0.  1.
       -2    1    3    3    0  502  0.27319512913E+03 -0.44798051148E+01  0.63460837710E+03  0.69092940271E+03  0.25500000920E-02 0. -1.
</event>
<event>
 5   0  0.2938349E-03  0.1194502E+04  0.7818609E-02  0.9117682E-01
       -1   -1    0    0    0  501  0.00000000000E+00  0.00000000000E+00  0.27982810311E+03  0.27982810316E+03  0.50400001928E-02 0. -1.
        1   -1    0    0  501    0  0.00000000000E+00  0.00000000000E+00 -0.12747429596E+04  0.12747429596E+04  0.50400001928E-02 0.  1.
    10030    2    1    2    0    0  0.00000000000E+00  0.00000000000E+00 -0.99491485650E+03  0.15545710628E+04  0.11945022468E+04 0.  0.
        4    1    3    3  502    0  0.56725849056E+03 -0.17200118501E+02 -0.73964127087E+03  0.93228153562E+03  0.12699999809E+01 0.  1.
       -4    1    3    3    0  502 -0.56725849056E+03  0.17200118501E+02 -0.25527358563E+03  0.62228952716E+03  0.12699999809E+01 0. -1.
</event>
<event>
 5   0  0.5031575E-03  0.1391357E+04  0.7818609E-02  0.8960098E-01
       -2   -1    0    0    0  501  0.00000000000E+00  0.00000000000E+00  0.40723551926E+03  0.40723551927E+03  0.25500000920E-02 0.  1.
        2   -1    0    0  501    0  0.00000000000E+00  0.00000000000E+00 -0.11884250293E+04  0.11884250293E+04  0.25500000920E-02 0. -1.
    10030    2    1    2    0    0  0.00000000000E+00  0.00000000000E+00 -0.78118951004E+03  0.15956605486E+04  0.13913574435E+04 0.  0.
        5    1    3    3  502    0  0.34302852755E+03 -0.47520142402E+03 -0.82040914631E+03  0.10082550379E+04  0.46999998093E+01 0. -1.
       -5    1    3    3    0  502 -0.34302852755E+03  0.47520142402E+03  0.39219636262E+02  0.58740551068E+03  0.46999998093E+01 0.  1.
</event>
<event>
 5   0  0.2875848E-03  0.1235370E+04  0.7818609E-02  0.9082448E-01
        1   -1    0    0  501    0  0.00000000000E+00  0.00000000000E+00  0.16026879216E+04  0.16026879216E+04  0.50400001928E-02 0. -1.
       -1   -1    0    0    0  501  0.00000000000E+00  0.00000000000E+00 -0.23805941778E+03  0.23805941784E+03  0.50400001928E-02 0.  1.
    10030    2    1    2    0    0  0.00000000000E+00  0.00000000000E+00  0.13646285038E+04  0.18407473395E+04  0.12353703146E+04 0.  0.
        1    1    3    3  502    0  0.34677634470E+03 -0.48602465752E+03  0.91819773963E+03  0.10952446713E+04  0.50400001928E-02 0. -1.
       -1    1    3    3    0  502 -0.34677634470E+03  0.48602465752E+03  0.44643076420E+03  0.74550266814E+03  0.50400001928E-02 0.  1.
</event>
<event>
 5   0  0.5031575E-03  0.1223618E+04  0.7818609E-02  0.9092432E-01
       -2   -1    0    0    0  501  0.00000000000E+00  0.00000000000E+00  0.28719607982E+03  0.28719607983E+03  0.25500000920E-02 0.  1.
        2   -1    0    0  501    0  0.00000000000E+00  0.00000000000E+00 -0.13033255317E+04  0.13033255317E+04  0.25500000920E-02 0. -1.
    10030    2    1    2    0    0  0.00000000000E+00  0.00000000000E+00 -0.10161294518E+04  0.15905216115E+04  0.12236175602E+04 0.  0.
        5    1    3    3  502    0  0.45162341345E+03 -0.29359284899E+02  0.27029564629E+02  0.45340750164E+03  0.46999998093E+01 0.  1.
       -5    1    3    3    0  502 -0.45162341345E+03  0.29359284899E+02 -0.10431590165E+04  0.11371141099E+04  0.46999998093E+01 0. -1.
</event>
<event>
 5   0  0.2792518E-03  0.1212327E+04  0.7818609E-02  0.9102135E-01
       -1   -1    0    0    0  501  0.00000000000E+00  0.00000000000E+00  0.26109505220E+03  0.26109505225E+03  0.50400001928E-02 0.  1.
        1   -1    0    0  501    0  0.00000000000E+00  0.00000000000E+00 -0.14072813221E+04  0.14072813221E+04  0.50400001928E-02 0. -1.
    10030    2    1    2    0    0  0.00000000000E+00  0.00000000000E+00 -0.11461862699E+04  0.16683763744E+04  0.12123270026E+04 0.  0.
        2    1    3    3  502    0  0.17708610223E+03 -0.56518062343E+03 -0.39554196802E+03  0.71220929029E+03  0.25500000920E-02 0.  1.
       -2    1    3    3    0  502 -0.17708610223E+03  0.56518062343E+03 -0.75064430191E+03  0.95616708409E+03  0.25500000920E-02 0. -1.
</event>
<event>
 5   0  0.5467554E-03  0.1230485E+04  0.7818609E-02  0.9086584E-01
        2   -1    0    0  501    0  0.00000000000E+00  0.00000000000E+00  0.14493982907E+04  0.14493982907E+04  0.25500000920E-02 0.  1.
       -2   -1    0    0    0  501  0.00000000000E+00  0.00000000000E+00 -0.26115897380E+03  0.26115897382E+03  0.25500000920E-02 0. -1.
    10030    2    1    2    0    0  0.00000000000E+00  0.00000000000E+00  0.11882393169E+04  0.17105572645E+04  0.12304850592E+04 0.  0.
        1    1    3    3  502    0  0.17099211794E+03 -0.33803505931E+03 -0.79804847267E+02  0.38713669342E+03  0.50400001928E-02 0. -1.
       -1    1    3    3    0  502 -0.17099211794E+03  0.33803505931E+03  0.12680441641E+04  0.13234205711E+04  0.50400001928E-02 0.  1.
</event>
<event>
 5   0  0.5003526E-03  0.1142045E+04  0.7818609E-02  0.9165154E-01
       -2   -1    0    0    0  501  0.00000000000E+00  0.00000000000E+00  0.32959579644E+03  0.32959579645E+03  0.25500000920E-02 0.  1.
        2   -1    0    0  501    0  0.00000000000E+00  0.00000000000E+00 -0.98929333250E+03  0.98929333251E+03  0.25500000920E-02 0. -1.
    10030    2    1    2    0    0  0.00000000000E+00  0.00000000000E+00 -0.65969753606E+03  0.13188891290E+04  0.11420453999E+04 0.  0.
        2    1    3    3  502    0 -0.33316609037E+03 -0.39301817998E+03 -0.61414789737E+03  0.80164865958E+03  0.25500000920E-02 0. -1.
       -2    1    3    3    0  502  0.33316609037E+03  0.39301817998E+03 -0.45549638696E+02  0.51724046937E+03  0.25500000920E-02 0.  1.
</event>
<event>
 5   0  0.1922125E-03  0.1180587E+04  0.7818609E-02  0.9130021E-01
        3   -1    0    0  501    0  0.00000000000E+00  0.00000000000E+00  0.23648561115E+03  0.23648563272E+03  0.10100000352E+00 0.  1.
       -3   -1    0    0    0  501  0.00000000000E+00  0.00000000000E+00 -0.14734356538E+04  0.14734356573E+04  0.10100000352E+00 0. -1.
    10030    2    1    2    0    0  0.00000000000E+00  0.00000000000E+00 -0.12369500427E+04  0.17099212900E+04  0.11805868922E+04 0.  0.
        1    1    3    3  502    0 -0.36049502318E+03 -0.46529165560E+03 -0.55380966412E+03  0.80818199102E+03  0.50400001928E-02 0.  1.
       -1    1    3    3    0  502  0.36049502318E+03  0.46529165560E+03 -0.68314037858E+03  0.90173929901E+03  0.50400001928E-02 0. -1.
</event>
<event>
 5   0  0.2938349E-03  0.1184981E+04  0.7818609E-02  0.9126105E-01
       -1   -1    0    0    0  501  0.00000000000E+00  0.00000000000E+00  0.51455162854E+03  0.51455162857E+03  0.50400001928E-02 0. -1.
        1   -1    0    0  501    0  0.00000000000E+00  0.00000000000E+00 -0.68223431308E+03  0.68223431310E+03  0.50400001928E-02 0.  1.
    10030    2    1    2    0    0  0.00000000000E+00  0.00000000000E+00 -0.16768268454E+03  0.11967859417E+04  0.11849806359E+04 0.  0.
        4    1    3    3  502    0  0.16448044025E+03  0.29790903493E+03  0.40600559919E+03  0.52976010401E+03  0.12699999809E+01 0. -1.
       -4    1    3    3    0  502 -0.16448044025E+03 -0.29790903493E+03 -0.57368828373E+03  0.66702583766E+03  0.12699999809E+01 0.  1.
</event>
<event>
 5   0  0.5189537E-03  0.1166694E+04  0.7818609E-02  0.9142519E-01
        2   -1    0    0  501    0  0.00000000000E+00  0.00000000000E+00  0.47456619618E+03  0.47456619619E+03  0.25500000920E-02 0.  1.
       -2   -1    0    0    0  501  0.00000000000E+00  0.00000000000E+00 -0.71706267906E+03  0.71706267906E+03  0.25500000920E-02 0. -1.
    10030    2    1    2    0    0  0.00000000000E+00  0.00000000000E+00 -0.24249648287E+03  0.11916288753E+04  0.11666939754E+04 0.  0.
        4    1    3    3  502    0  0.34368115827E+03  0.23355693828E+02  0.35958912207E+03  0.49796403142E+03  0.12699999809E+01 0.  1.
       -4    1    3    3    0  502 -0.34368115827E+03 -0.23355693828E+02 -0.60208560494E+03  0.69366484383E+03  0.12699999809E+01 0. -1.
</event>
<event>
 5   0  0.5031575E-03  0.1194221E+04  0.7818609E-02  0.9117930E-01
        2   -1    0    0  501    0  0.00000000000E+00  0.00000000000E+00  0.46413888153E+03  0.46413888154E+03  0.25500000920E-02 0. -1.
       -2   -1    0    0    0  501  0.00000000000E+00  0.00000000000E+00 -0.76817730241E+03  0.76817730241E+03  0.25500000920E-02 0.  1.
    10030    2    1    2    0    0  0.00000000000E+00  0.00000000000E+00 -0.30403842087E+03  0.12323161840E+04  0.11942210080E+04 0.  0.
        5    1    3    3  502    0  0.16132440620E+02  0.58328334960E+03 -0.28270489496E+03  0.64840100956E+03  0.46999998093E+01 0.  1.
       -5    1    3    3    0  502 -0.16132440620E+02 -0.58328334960E+03 -0.21333525912E+02  0.58391517440E+03  0.46999998093E+01 0. -1.
</event>
<event>
 5   0  0.2875848E-03  0.1187287E+04  0.7818609E-02  0.9124058E-01
        1   -1    0    0  501    0  0.00000000000E+00  0.00000000000E+00  0.81202397157E+03  0.81202397159E+03  0.50400001928E-02 0.  1.
       -1   -1    0    0    0  501  0.00000000000E+00  0.00000000000E+00 -0.43399269646E+03  0.43399269648E+03  0.50400001928E-02 0. -1.
    10030    2    1    2    0    0  0.00000000000E+00  0.00000000000E+00  0.37803127512E+03  0.12460166681E+04  0.11872867776E+04 0.  0.
        1    1    3    3  502    0  0.49193055349E+03  0.21266923278E+03 -0.78934541184E+02  0.54171443939E+03  0.50400001928E-02 0. -1.
       -1    1    3    3    0  502 -0.49193055349E+03 -0.21266923278E+03  0.45696581630E+03  0.70430222868E+03  0.50400001928E-02 0.  1.
</event>
<event>
 5   0  0.5189537E-03  0.1209989E+04  0.7818609E-02  0.9104158E-01
        2   -1    0    0  501    0  0.00000000000E+00  0.00000000000E+00  0.38676820245E+03  0.38676820246E+03  0.25500000920E-02 0. -1.
       -2   -1    0    0    0  501  0.00000000000E+00  0.00000000000E+00 -0.94635051994E+03  0.94635051994E+03  0.25500000920E-02 0.  1.
    10030    2    1    2    0    0  0.00000000000E+00  0.00000000000E+00 -0.55958231749E+03  0.13331187224E+04  0.12099889082E+04 0.  0.
        4    1    3    3  502    0 -0.56735025495E+02  0.54697833879E+03 -0.55767206453E+03  0.78320106658E+03  0.12699999809E+01 0.  1.
       -4    1    3    3    0  502  0.56735025495E+02 -0.54697833879E+03 -0.19102529541E+01  0.54991765583E+03  0.12699999809E+01 0. -1.
</event>
<event>
 5   0  0.1922125E-03  0.1213744E+04  0.7818609E-02  0.9100911E-01
       -3   -1    0    0    0  501  0.00000000000E+00  0.00000000000E+00  0.67521015306E+03  0.67521016061E+03  0.10100000352E+00 0.  1.
        3   -1    0    0  501    0  0.00000000000E+00  0.00000000000E+00 -0.54545040358E+03  0.54545041293E+03  0.10100000352E+00 0. -1.
    10030    2    1    2    0    0  0.00000000000E+00  0.00000000000E+00  0.12975974948E+03  0.12206605735E+04  0.12137440600E+04 0.  0.
        5    1    3    3  502    0 -0.11440980286E+03 -0.34510241862E+03  0.55353581462E+03  0.66227582652E+03  0.46999998093E+01 0.  1.
       -5    1    3    3    0  502  0.11440980286E+03  0.34510241862E+03 -0.42377606513E+03  0.55838474702E+03  0.46999998093E+01 0. -1.
</event>
<event>
 5   0  0.2930868E-03  0.1191464E+04  0.7818609E-02  0.9120361E-01
        1   -1    0    0  501    0  0.00000000000E+00  0.00000000000E+00  0.74453761684E+03  0.74453761686E+03  0.50400001928E-02 0.  1.
       -1   -1    0    0    0  501  0.00000000000E+00  0.00000000000E+00 -0.47666745189E+03  0.47666745192E+03  0.50400001928E-02 0. -1.
    10030    2    1    2    0    0  0.00000000000E+00  0.00000000000E+00  0.26787016495E+03  0.12212050688E+04  0.11914643909E+04 0.  0.
        3    1    3    3  502    0  0.23916649966E+03  0.22226814594E+03 -0.37679313406E+03  0.49857478810E+03  0.10100000352E+00 0. -1.
       -3    1    3    3    0  502 -0.23916649966E+03 -0.22226814594E+03  0.64466329901E+03  0.72263028067E+03  0.10100000352E+00 0.  1.
</event>
<event>
 5   0  0.2792518E-03  0.1023484E+04  0.7818609E-02  0.9283156E-01
       -1   -1    0    0    0  501  0.00000000000E+00  0.00000000000E+00  0.33737575558E+03  0.33737575561E+03  0.50400001928E-02 0. -1.
        1   -1    0    0  501    0  0.00000000000E+00  0.00000000000E+00 -0.77622611606E+03  0.77622611608E+03  0.50400001928E-02 0.  1.
    10030    2    1    2    0    0  0.00000000000E+00  0.00000000000E+00 -0.43885036049E+03  0.11136018717E+04  0.10234839958E+04 0.  0.
        2    1    3    3  502    0 -0.29825715969E+03  0.28182947860E+03 -0.55211717847E+03  0.68790883631E+03  0.25500000920E-02 0.  1.
       -2    1    3    3    0  502  0.29825715969E+03 -0.28182947860E+03  0.11326681798E+03  0.42569303538E+03  0.25500000920E-02 0. -1.
</event>
<event>
 5   0  0.2792518E-03  0.1212822E+04  0.7818609E-02  0.9101707E-01
       -1   -1    0    0    0  501  0.00000000000E+00  0.00000000000E+00  0.84401754255E+03  0.84401754256E+03  0.50400001928E-02 0.  1.
        1   -1    0    0  501    0  0.00000000000E+00  0.00000000000E+00 -0.43569500574E+03  0.43569500577E+03  0.50400001928E-02 0. -1.
    10030    2    1    2    0    0  0.00000000000E+00  0.00000000000E+00  0.40832253680E+03  0.12797125483E+04  0.12128218799E+04 0.  0.
        2    1    3    3  502    0 -0.30634376894E+03  0.50607279344E+03  0.34484940571E+03  0.68474614979E+03  0.25500000920E-02 0.  1.
       -2    1    3    3    0  502  0.30634376894E+03 -0.50607279344E+03  0.63473131095E+02  0.59496639855E+03  0.25500000920E-02 0. -1.
</event>
<event>
 5   0  0.2875848E-03  0.1267289E+04  0.7818609E-02  0.9055916E-01
       -1   -1    0    0    0  501  0.00000000000E+00  0.00000000000E+00  0.82154081284E+03  0.82154081286E+03  0.50400001928E-02 0. -1.
        1   -1    0    0  501    0  0.00000000000E+00  0.00000000000E+00 -0.48872201300E+03  0.48872201302E+03  0.50400001928E-02 0.  1.
    10030    2    1    2    0    0  0.00000000000E+00  0.00000000000E+00  0.33281879985E+03  0.13102628259E+04  0.12672885699E+04 0.  0.
        1    1    3    3  502    0  0.47708985024E+03  0.35656639384E+03 -0.57141923844E+02  0.59834732214E+03  0.50400001928E-02 0.  1.
       -1    1    3    3    0  502 -0.47708985024E+03 -0.35656639384E+03  0.38996072369E+03  0.71191550374E+03  0.50400001928E-02 0. -1.
</event>
<event>
 5   0  0.2926844E-03  0.1226408E+04  0.7818609E-02  0.9090050E-01
       -1   -1    0    0    0  501  0.00000000000E+00  0.00000000000E+00  0.60510877634E+03  0.60510877636E+03  0.50400001928E-02 0.  1.
        1   -1    0    0  501    0  0.00000000000E+00  0.00000000000E+00 -0.62140775361E+03  0.62140775363E+03  0.50400001928E-02 0. -1.
    10030    2    1    2    0    0  0.00000000000E+00  0.00000000000E+00 -0.16298977269E+02  0.12265165300E+04  0.12264082280E+04 0.  0.
        5    1    3    3  502    0  0.40366203248E+03 -0.42641071212E+03 -0.18487973274E+03  0.61560680426E+03  0.46999998093E+01 0. -1.
       -5    1    3    3    0  502 -0.40366203248E+03  0.42641071212E+03  0.16858075547E+03  0.61090972573E+03  0.46999998093E+01 0.  1.
</event>
<event>
 5   0  0.2792518E-03  0.1190138E+04  0.7818609E-02  0.9121533E-01
       -1   -1    0    0    0  501  0.00000000000E+00  0.00000000000E+00  0.56360840933E+03  0.56360840935E+03  0.50400001928E-02 0. -1.
        1   -1    0    0  501    0  0.00000000000E+00  0.00000000000E+00 -0.62828524506E+03  0.62828524508E+03  0.50400001928E-02 0.  1.
    10030    2    1    2    0    0  0.00000000000E+00  0.00000000000E+00 -0.64676835730E+02  0.11918936544E+04  0.11901375510E+04 0.  0.
        2    1    3    3  502    0  0.12597039147E+03 -0.57257372167E+03 -0.13445770288E+03  0.60148822111E+03  0.25500000920E-02 0. -1.
       -2    1    3    3    0  502 -0.12597039147E+03  0.57257372167E+03  0.69780867155E+02  0.59040543332E+03  0.25500000920E-02 0.  1.
</event>
<event>
 5   0  0.5189537E-03  0.1189933E+04  0.7818609E-02  0.9121714E-01
        2   -1    0    0  501    0  0.00000000000E+00  0.00000000000E+00  0.25592088739E+03  0.25592088741E+03  0.25500000920E-02 0. -1.
       -2   -1    0    0    0  501  0.00000000000E+00  0.00000000000E+00 -0.13831814267E+04  0.13831814267E+04  0.25500000920E-02 0.  1.
    10030    2    1    2    0    0  0.00000000000E+00  0.00000000000E+00 -0.11272605393E+04  0.16391023141E+04  0.11899328017E+04 0.  0.
        4    1    3    3  502    0  0.32331805141E+03  0.41776849224E+03 -0.18659873976E+03  0.56025510088E+03  0.12699999809E+01 0. -1.
       -4    1    3    3    0  502 -0.32331805141E+03 -0.41776849224E+03 -0.94066179958E+03  0.10788472133E+04  0.12699999809E+01 0.  1.
</event>
<event>
 5   0  0.5189537E-03  0.1189898E+04  0.7818609E-02  0.9121745E-01
        2   -1    0    0  501    0  0.00000000000E+00  0.00000000000E+00  0.14589690043E+04  0.14589690043E+04  0.25500000920E-02 0.  1.
       -2   -1    0    0    0  501  0.00000000000E+00  0.00000000000E+00 -0.24261258632E+03  0.24261258633E+03  0.25500000920E-02 0. -1.
    10030    2    1    2    0    0  0.00000000000E+00  0.00000000000E+00  0.12163564179E+04  0.17015815906E+04  0.11898978838E+04 0.  0.
        4    1    3    3  502    0 -0.48071844031E+03 -0.29866909825E+03  0.34578090688E+03  0.66321904192E+03  0.12699999809E+01 0. -1.
       -4    1    3    3    0  502  0.48071844031E+03  0.29866909825E+03  0.87057551106E+03  0.10383625487E+04  0.12699999809E+01 0.  1.
</event>
<event>
 5   0  0.5467554E-03  0.1309934E+04  0.7818609E-02  0.9021724E-01
       -2   -1    0    0    0  501  0.00000000000E+00  0.00000000000E+00  0.23331415525E+03  0.23331415526E+03  0.25500000920E-02 0. -1.
        2   -1    0    0  501    0  0.00000000000E+00  0.00000000000E+00 -0.18386442207E+04  0.18386442207E+04  0.25500000920E-02 0.  1.
    10030    2    1    2    0    0  0.00000000000E+00  0.00000000000E+00 -0.16053300655E+04  0.20719583760E+04  0.13099339268E+04 0.  0.
        1    1    3    3  502    0 -0.13921800050E+03  0.61581431606E+03 -0.10783252211E+04  0.12495576041E+04  0.50400001928E-02 0.  1.
       -1    1    3    3    0  502  0.13921800050E+03 -0.61581431606E+03 -0.52700484437E+03  0.82240077185E+03  0.50400001928E-02 0. -1.
</event>
<event>
 5   0  0.2938349E-03  0.1172154E+04  0.7818609E-02  0.9137586E-01
        1   -1    0    0  501    0  0.00000000000E+00  0.00000000000E+00  0.97487334807E+03  0.97487334808E+03  0.50400001928E-02 0. -1.
       -1   -1    0    0    0  501  0.00000000000E+00  0.00000000000E+00 -0.35233920887E+03  0.35233920891E+03  0.50400001928E-02 0.  1.
    10030    2    1    2    0    0  0.00000000000E+00  0.00000000000E+00  0.62253413919E+03  0.13272125570E+04  0.11721537514E+04 0.  0.
        4    1    3    3  502    0 -0.83074391917E+02  0.43092525855E+03  0.75109335071E+03  0.86990848221E+03  0.12699999809E+01 0. -1.
       -4    1    3    3    0  502  0.83074391917E+02 -0.43092525855E+03 -0.12855921151E+03  0.45730407478E+03  0.12699999809E+01 0.  1.
</event>
<event>
 5   0  0.2938349E-03  0.1211742E+04  0.7818609E-02  0.9102640E-01
       -1   -1    0    0    0  501  0.00000000000E+00  0.00000000000E+00  0.39420348995E+03  0.39420348999E+03  0.50400001928E-02 0.  1.
        1   -1    0    0  501    0  0.00000000000E+00  0.00000000000E+00 -0.93119393241E+03  0.93119393243E+03  0.50400001928E-02 0. -1.
    10030    2    1    2    0    0  0.00000000000E+00  0.00000000000E+00 -0.53699044246E+03  0.13253974224E+04  0.12117423786E+04 0.  0.
        4    1    3    3  502    0  0.11336507634E+03  0.56104255751E+03 -0.51223716796E+02  0.57467023060E+03  0.12699999809E+01 0.  1.
       -4    1    3    3    0  502 -0.11336507634E+03 -0.56104255751E+03 -0.48576672566E+03  0.75072719182E+03  0.12699999809E+01 0. -1.
</event>
<event>
 5   0  0.5031575E-03  0.1206667E+04  0.7818609E-02  0.9107041E-01
       -2   -1    0    0    0  501  0.00000000000E+00  0.00000000000E+00  0.53556077673E+03  0.53556077673E+03  0.25500000920E-02 0.  1.
        2   -1    0    0  501    0  0.00000000000E+00  0.00000000000E+00 -0.67968242060E+03  0.67968242061E+03  0.25500000920E-02 0. -1.
    10030    2    1    2    0    0  0.00000000000E+00  0.00000000000E+00 -0.14412164387E+03  0.12152431973E+04  0.12066668888E+04 0.  0.
        5    1    3    3  502    0  0.23757851665E+03 -0.16085623672E+03 -0.60655967066E+03  0.67101043549E+03  0.46999998093E+01 0. -1.
       -5    1    3    3    0  502 -0.23757851665E+03  0.16085623672E+03  0.46243802678E+03  0.54423276186E+03  0.46999998093E+01 0.  1.
</event>
<event>
 5   0  0.2926844E-03  0.1183389E+04  0.7818609E-02  0.9127522E-01
        1   -1    0    0  501    0  0.00000000000E+00  0.00000000000E+00  0.64739549881E+03  0.64739549883E+03  0.50400001928E-02 0.  1.
       -1   -1    0    0    0  501  0.00000000000E+00  0.00000000000E+00 -0.54078549628E+03  0.54078549630E+03  0.50400001928E-02 0. -1.
    10030    2    1    2    0    0  0.00000000000E+00  0.00000000000E+00  0.10661000253E+03  0.11881809951E+04  0.11833885180E+04 0.  0.
        5    1    3    3  502    0 -0.52060643309E+03  0.22000513138E+03 -0.12246592406E+03  0.57831938284E+03  0.46999998093E+01 0. -1.
       -5    1    3    3    0  502  0.52060643309E+03 -0.22000513138E+03  0.22907592659E+03  0.60986161229E+03  0.46999998093E+01 0.  1.
</event>
<event>
 5   0  0.1922125E-03  0.1193037E+04  0.7818609E-02  0.9118973E-01
        3   -1    0    0  501    0  0.00000000000E+00  0.00000000000E+00  0.62702522898E+03  0.62702523711E+03  0.10100000352E+00 0. -1.
       -3   -1    0    0    0  501  0.00000000000E+00  0.00000000000E+00 -0.56749625436E+03  0.56749626335E+03  0.10100000352E+00 0.  1.
    10030    2    1    2    0    0  0.00000000000E+00  0.00000000000E+00  0.59528974614E+02  0.11945215005E+04  0.11930372652E+04 0.  0.
        2    1    3    3  502    0 -0.42937756320E+03  0.36132292420E+03 -0.17276205055E+03  0.58716784096E+03  0.25500000920E-02 0.  1.
       -2    1    3    3    0  502  0.42937756320E+03 -0.36132292420E+03  0.23229102517E+03  0.60735365951E+03  0.25500000920E-02 0. -1.
</event>
<event>
 5   0  0.5003526E-03  0.1199574E+04  0.7818609E-02  0.9113230E-01
       -2   -1    0    0    0  501  0.00000000000E+00  0.00000000000E+00  0.74482674569E+03  0.74482674569E+03  0.25500000920E-02 0. -1.
        2   -1    0    0  501    0  0.00000000000E+00  0.00000000000E+00 -0.48299041313E+03  0.48299041314E+03  0.25500000920E-02 0.  1.
    10030    2    1    2    0    0  0.00000000000E+00  0.00000000000E+00  0.26183633256E+03  0.12278171588E+04  0.11995735536E+04 0.  0.
        2    1    3    3  502    0 -0.37081855215E+03 -0.13259955039E+03 -0.33212144228E+03  0.51516375242E+03  0.25500000920E-02 0.  1.
       -2    1    3    3    0  502  0.37081855215E+03  0.13259955039E+03  0.59395777483E+03  0.71265340641E+03  0.25500000920E-02 0. -1.
</event>
<event>
 5   0  0.2930868E-03  0.1056432E+04  0.7818609E-02  0.9248728E-01
       -1   -1    0    0    0  501  0.00000000000E+00  0.00000000000E+00  0.38723331551E+03  0.38723331555E+03  0.50400001928E-02 0.  1.
        1   -1    0    0  501    0  0.00000000000E+00  0.00000000000E+00 -0.72052746629E+03  0.72052746631E+03  0.50400001928E-02 0. -1.
    10030    2    1    2    0    0  0.00000000000E+00  0.00000000000E+00 -0.33329415078E+03  0.11077607819E+04  0.10564321838E+04 0.  0.
        3    1    3    3  502    0 -0.37603976103E+03 -0.24199925193E+03 -0.46145232823E+03  0.64257902334E+03  0.10100000352E+00 0. -1.
       -3    1    3    3    0  502  0.37603976103E+03  0.24199925193E+03  0.12815817745E+03  0.46518175852E+03  0.10100000352E+00 0.  1.
</event>
<event>
 5   0  0.5108045E-03  0.1207296E+04  0.7818609E-02  0.9106494E-01
        2   -1    0    0  501    0  0.00000000000E+00  0.00000000000E+00  0.15596891198E+04  0.15596891198E+04  0.25500000920E-02 0. -1.
       -2   -1    0    0    0  501  0.00000000000E+00  0.00000000000E+00 -0.23363059245E+03  0.23363059246E+03  0.25500000920E-02 0.  1.
    10030    2    1    2    0    0  0.00000000000E+00  0.00000000000E+00  0.13260585273E+04  0.17933197122E+04  0.12072963068E+04 0.  0.
        3    1    3    3  502    0  0.15493301189E+03  0.75211048219E+02 -0.19636264755E+03  0.26118813047E+03  0.10100000352E+00 0.  1.
       -3    1    3    3    0  502 -0.15493301189E+03 -0.75211048219E+02  0.15224211749E+04  0.15321315817E+04  0.10100000352E+00 0. -1.
</event>
<event>
 5   0  0.5189537E-03  0.1194876E+04  0.7818609E-02  0.9117353E-01
       -2   -1    0    0    0  501  0.00000000000E+00  0.00000000000E+00  0.47398057750E+03  0.47398057751E+03  0.25500000920E-02 0.  1.
        2   -1    0    0  501    0  0.00000000000E+00  0.00000000000E+00 -0.75305249839E+03  0.75305249840E+03  0.25500000920E-02 0. -1.
    10030    2    1    2    0    0  0.00000000000E+00  0.00000000000E+00 -0.27907192089E+03  0.12270330759E+04  0.11948761577E+04 0.  0.
        4    1    3    3  502    0  0.22566515024E+03  0.42640075773E+03 -0.50142354063E+03  0.69582292735E+03  0.12699999809E+01 0. -1.
       -4    1    3    3    0  502 -0.22566515024E+03 -0.42640075773E+03  0.22235161973E+03  0.53121014856E+03  0.12699999809E+01 0.  1.
</event>
<event>
 5   0  0.5189537E-03  0.1179575E+04  0.7818609E-02  0.9130925E-01
        2   -1    0    0  501    0  0.00000000000E+00  0.00000000000E+00  0.95171655414E+03  0.95171655414E+03  0.25500000920E-02 0. -1.
       -2   -1    0    0    0  501  0.00000000000E+00  0.00000000000E+00 -0.36549688248E+03  0.36549688248E+03  0.25500000920E-02 0.  1.
    10030    2    1    2    0    0  0.00000000000E+00  0.00000000000E+00  0.58621967167E+03  0.13172134366E+04  0.11795752346E+04 0.  0.
        4    1    3    3  502    0  0.51185015499E+03  0.21573363915E+03  0.71690025052E+02  0.56006486840E+03  0.12699999809E+01 0. -1.
       -4    1    3    3    0  502 -0.51185015499E+03 -0.21573363915E+03  0.51452964661E+03  0.75714856823E+03  0.12699999809E+01 0.  1.
</event>
<event>
 5   0  0.2792518E-03  0.1170493E+04  0.7818609E-02  0.9139083E-01
       -1   -1    0    0    0  501  0.00000000000E+00  0.00000000000E+00  0.43047741077E+03  0.43047741080E+03  0.50400001928E-02 0.  1.
        1   -1    0    0  501    0  0.00000000000E+00  0.00000000000E+00 -0.79565994130E+03  0.79565994132E+03  0.50400001928E-02 0. -1.
    10030    2    1    2    0    0  0.00000000000E+00  0.00000000000E+00 -0.36518253053E+03  0.12261373521E+04  0.11704932831E+04 0.  0.
        2    1    3    3  502    0  0.12737448818E+03  0.50994563441E+03  0.87025046035E+02  0.53276840084E+03  0.25500000920E-02 0. -1.
       -2    1    3    3    0  502 -0.12737448818E+03 -0.50994563441E+03 -0.45220757656E+03  0.69336895128E+03  0.25500000920E-02 0.  1.
</event>
<event>
 5   0  0.5467554E-03  0.1219713E+04  0.7818609E-02  0.9095774E-01
        2   -1    0    0  501    0  0.00000000000E+00  0.00000000000E+00  0.36374062289E+03  0.36374062290E+03  0.25500000920E-02 0. -1.
       -2   -1    0    0    0  501  0.00000000000E+00  0.00000000000E+00 -0.10225010781E+04  0.10225010781E+04  0.25500000920E-02 0.  1.
    10030    2    1    2    0    0  0.00000000000E+00  0.00000000000E+00 -0.65876045518E+03  0.13862417010E+04  0.12197133746E+04 0.  0.
        1    1    3    3  502    0  0.23590891545E+02  0.17588432275E+01 -0.10219794236E+04  0.10222531809E+04  0.50400001928E-02 0.  1.
       -1    1    3    3    0  502 -0.23590891545E+02 -0.17588432275E+01  0.36321896840E+03  0.36398852004E+03  0.50400001928E-02 0. -1.
</event>
<event>
 5   0  0.2875848E-03  0.9266151E+03  0.7818609E-02  0.9392910E-01
        1   -1    0    0  501    0  0.00000000000E+00  0.00000000000E+00  0.10830453714E+04  0.10830453715E+04  0.50400001928E-02 0.  1.
       -1   -1    0    0    0  501  0.00000000000E+00  0.00000000000E+00 -0.19819471311E+03  0.19819471317E+03  0.50400001928E-02 0. -1.
    10030    2    1    2    0    0  0.00000000000E+00  0.00000000000E+00  0.88485065834E+03  0.12812400846E+04  0.92661505864E+03 0.  0.
        1    1    3    3  502    0 -0.12063787784E+03  0.23840184833E+03  0.96578602766E+03  0.10020636657E+04  0.50400001928E-02 0.  1.
       -1    1    3    3    0  502  0.12063787784E+03 -0.23840184833E+03 -0.80935369319E+02  0.27917641894E+03  0.50400001928E-02 0. -1.
</event>
<event>
 5   0  0.2926844E-03  0.1140974E+04  0.7818609E-02  0.9166151E-01
        1   -1    0    0  501    0  0.00000000000E+00  0.00000000000E+00  0.84565000949E+03  0.84565000951E+03  0.50400001928E-02 0. -1.
       -1   -1    0    0    0  501  0.00000000000E+00  0.00000000000E+00 -0.38485799678E+03  0.38485799681E+03  0.50400001928E-02 0.  1.
    10030    2    1    2    0    0  0.00000000000E+00  0.00000000000E+00  0.46079201272E+03  0.12305080063E+04  0.11409735644E+04 0.  0.
        5    1    3    3  502    0 -0.62435979329E+02 -0.39810722069E+03 -0.20507899320E+03  0.45218037787E+03  0.46999998093E+01 0.  1.
       -5    1    3    3    0  502  0.62435979329E+02  0.39810722069E+03  0.66587100592E+03  0.77832762845E+03  0.46999998093E+01 0. -1.
</event>
<event>
 5   0  0.5467554E-03  0.1255189E+04  0.7818609E-02  0.9065875E-01
        2   -1    0    0  501    0  0.00000000000E+00  0.00000000000E+00  0.11131073138E+04  0.11131073138E+04  0.25500000920E-02 0. -1.
       -2   -1    0    0    0  501  0.00000000000E+00  0.00000000000E+00 -0.35385178464E+03  0.35385178465E+03  0.25500000920E-02 0.  1.
    10030    2    1    2    0    0  0.00000000000E+00  0.00000000000E+00  0.75925552913E+03  0.14669590984E+04  0.12551892439E+04 0.  0.
        1    1    3    3  502    0 -0.59578189860E+03  0.14932445030E+03  0.22895342549E+03  0.65549487659E+03  0.50400001928E-02 0.  1.
       -1    1    3    3    0  502  0.59578189860E+03 -0.14932445030E+03  0.53030210364E+03  0.81146422183E+03  0.50400001928E-02 0. -1.
</event>
<event>
 5   0  0.2926844E-03  0.1190925E+04  0.7818609E-02  0.9120837E-01
        1   -1    0    0  501    0  0.00000000000E+00  0.00000000000E+00  0.79653304047E+03  0.79653304049E+03  0.50400001928E-02 0.  1.
       -1   -1    0    0    0  501  0.00000000000E+00  0.00000000000E+00 -0.44514857158E+03  0.44514857161E+03  0.50400001928E-02 0. -1.
    10030    2    1    2    0    0  0.00000000000E+00  0.00000000000E+00  0.35138446889E+03  0.12416816121E+04  0.11909249266E+04 0.  0.
        5    1    3    3  502    0 -0.46128512896E+03 -0.11789574004E+03 -0.19713732013E+03  0.51533347330E+03  0.46999998093E+01 0. -1.
       -5    1    3    3    0  502  0.46128512896E+03  0.11789574004E+03  0.54852178902E+03  0.72634813880E+03  0.46999998093E+01 0.  1.
</event>
<event>
 5   0  0.2930868E-03  0.1191633E+04  0.7818609E-02  0.9120211E-01
       -1   -1    0    0    0  501  0.00000000000E+00  0.00000000000E+00  0.55552815220E+03  0.55552815223E+03  0.50400001928E-02 0.  1.
        1   -1    0    0  501    0  0.00000000000E+00  0.00000000000E+00 -0.63902719850E+03  0.63902719852E+03  0.50400001928E-02 0. -1.
    10030    2    1    2    0    0  0.00000000000E+00  0.00000000000E+00 -0.83499046299E+02  0.11945553507E+04  0.11916334987E+04 0.  0.
        3    1    3    3  502    0  0.16015381091E+02 -0.26044704153E+03  0.49520219033E+03  0.55974491814E+03  0.10100000352E+00 0.  1.
       -3    1    3    3    0  502 -0.16015381091E+02  0.26044704153E+03 -0.57870123663E+03  0.63481043261E+03  0.10100000352E+00 0. -1.
</event>
<event>
 5   0  0.2938349E-03  0.1170158E+04  0.7818609E-02  0.9139385E-01
       -1   -1    0    0    0  501  0.00000000000E+00  0.00000000000E+00  0.48716292667E+03  0.48716292669E+03  0.50400001928E-02 0. -1.
        1   -1    0    0  501    0  0.00000000000E+00  0.00000000000E+00 -0.70267605192E+03  0.70267605194E+03  0.50400001928E-02 0.  1.
    10030    2    1    2    0    0  0.00000000000E+00  0.00000000000E+00 -0.21551312526E+03  0.11898389786E+04  0.11701584884E+04 0.  0.
        4    1    3    3  502    0  0.59724724343E+02 -0.53548681511E+03 -0.33963343926E+03  0.63691887853E+03  0.12699999809E+01 0.  1.
       -4    1    3    3    0  502 -0.59724724343E+02  0.53548681511E+03  0.12412031400E+03  0.55292010011E+03  0.12699999809E+01 0. -1.
</event>
<event>
 5   0  0.5031575E-03  0.7960769E+03  0.7818609E-02  0.9565713E-01
       -2   -1    0    0    0  501  0.00000000000E+00  0.00000000000E+00  0.16039728863E+03  0.16039728865E+03  0.25500000920E-02 0. -1.
        2   -1    0    0  501    0  0.00000000000E+00  0.00000000000E+00 -0.98776363826E+03  0.98776363826E+03  0.25500000920E-02 0.  1.
    10030    2    1    2    0    0  0.00000000000E+00  0.00000000000E+00 -0.82736634963E+03  0.11481609269E+04  0.79607690433E+03 0.  0.
        5    1    3    3  502    0 -0.56463270960E+02  0.38049224245E+03 -0.26624587195E+03  0.46783693939E+03  0.46999998093E+01 0.  1.
       -5    1    3    3    0  502  0.56463270960E+02 -0.38049224245E+03 -0.56112047768E+03  0.68032398753E+03  0.46999998093E+01 0. -1.
</event>
<event>
 5   0  0.5467554E-03  0.1190334E+04  0.7818609E-02  0.9121360E-01
        2   -1    0    0  501    0  0.00000000000E+00  0.00000000000E+00  0.55410289693E+03  0.55410289694E+03  0.25500000920E-02 0. -1.
       -2   -1    0    0    0  501  0.00000000000E+00  0.00000000000E+00 -0.63927387693E+03  0.63927387694E+03  0.25500000920E-02 0.  1.
    10030    2    1    2    0    0  0.00000000000E+00  0.00000000000E+00 -0.85170980006E+02  0.11933767739E+04  0.11903335787E+04 0.  0.
        1    1    3    3  502    0 -0.49901395833E+03 -0.31729649258E+03  0.24903119165E+02  0.59187174302E+03  0.50400001928E-02 0. -1.
       -1    1    3    3    0  502  0.49901395833E+03  0.31729649258E+03 -0.11007409917E+03  0.60150503086E+03  0.50400001928E-02 0.  1.
</event>
<event>
 5   0  0.2792518E-03  0.1158776E+04  0.7818609E-02  0.9149726E-01
        1   -1    0    0  501    0  0.00000000000E+00  0.00000000000E+00  0.88904626492E+03  0.88904626493E+03  0.50400001928E-02 0.  1.
       -1   -1    0    0    0  501  0.00000000000E+00  0.00000000000E+00 -0.37758470851E+03  0.37758470854E+03  0.50400001928E-02 0. -1.
    10030    2    1    2    0    0  0.00000000000E+00  0.00000000000E+00  0.51146155641E+03  0.12666309735E+04  0.11587756898E+04 0.  0.
        2    1    3    3  502    0 -0.23482346472E+03  0.46251126333E+03  0.53788767810E+03  0.74724954503E+03  0.25500000920E-02 0.  1.
       -2    1    3    3    0  502  0.23482346472E+03 -0.46251126333E+03 -0.26426121692E+02  0.51938142844E+03  0.25500000920E-02 0. -1.
</event>
<event>
 5   0  0.2926844E-03  0.1206682E+04  0.7818609E-02  0.9107028E-01
       -1   -1    0    0    0  501  0.00000000000E+00  0.00000000000E+00  0.28056972267E+03  0.28056972272E+03  0.50400001928E-02 0. -1.
        1   -1    0    0  501    0  0.00000000000E+00  0.00000000000E+00 -0.12974334704E+04  0.12974334704E+04  0.50400001928E-02 0.  1.
    10030    2    1    2    0    0  0.00000000000E+00  0.00000000000E+00 -0.10168637477E+04  0.15780031931E+04  0.12066823095E+04 0.  0.
        5    1    3    3  502    0  0.37128844271E+02 -0.41370962492E+03  0.63782527766E+02  0.42026718368E+03  0.46999998093E+01 0. -1.
       -5    1    3    3    0  502 -0.37128844271E+02  0.41370962492E+03 -0.10806462755E+04  0.11577360094E+04  0.46999998093E+01 0.  1.
</event>
<event>
 5   0  0.5108045E-03  0.1205141E+04  0.7818609E-02  0.9108368E-01
       -2   -1    0    0    0  501  0.00000000000E+00  0.00000000000E+00  0.66557864021E+03  0.66557864022E+03  0.25500000920E-02 0. -1.
        2   -1    0    0  501    0  0.00000000000E+00  0.00000000000E+00 -0.54552736887E+03  0.54552736888E+03  0.25500000920E-02 0.  1.
    10030    2    1    2    0    0  0.00000000000E+00  0.00000000000E+00  0.12005127134E+03  0.12111060091E+04  0.12051412604E+04 0.  0.
        3    1    3    3  502    0 -0.46581178110E+03  0.37941732704E+03  0.13393051126E+02  0.60093053466E+03  0.10100000352E+00 0.  1.
       -3    1    3    3    0  502  0.46581178110E+03 -0.37941732704E+03  0.10665822022E+03  0.61017547444E+03  0.10100000352E+00 0. -1.
</event>
<event>
 5   0  0.5108045E-03  0.1124219E+04  0.7818609E-02  0.9181903E-01
        2   -1    0    0  501    0  0.00000000000E+00  0.00000000000E+00  0.14840821382E+04  0.14840821382E+04  0.25500000920E-02 0.  1.
       -2   -1    0    0    0  501  0.00000000000E+00  0.00000000000E+00 -0.21290410145E+03  0.21290410147E+03  0.25500000920E-02 0. -1.
    10030    2    1    2    0    0  0.00000000000E+00  0.00000000000E+00  0.12711780368E+04  0.16969862397E+04  0.11242191497E+04 0.  0.
        3    1    3    3  502    0  0.48816348916E+03 -0.47912040155E+01  0.10561914980E+04  0.11635579222E+04  0.10100000352E+00 0. -1.
       -3    1    3    3    0  502 -0.48816348916E+03  0.47912040155E+01  0.21498653875E+03  0.53342831742E+03  0.10100000352E+00 0.  1.
</event>
<event>
 5   0  0.1922125E-03  0.1223238E+04  0.7818609E-02  0.9092756E-01
       -3   -1    0    0    0  501  0.00000000000E+00  0.00000000000E+00  0.12701657095E+04  0.12701657135E+04  0.10100000352E+00 0.  1.
        3   -1    0    0  501    0  0.00000000000E+00  0.00000000000E+00 -0.29451112009E+03  0.29451113741E+03  0.10100000352E+00 0. -1.
    10030    2    1    2    0    0  0.00000000000E+00  0.00000000000E+00  0.97565458936E+03  0.15646768509E+04  0.12232382311E+04 0.  0.
        4    1    3    3  502    0  0.10258567685E+03 -0.19830431929E+03 -0.24052049499E+03  0.32817700339E+03  0.12699999809E+01 0. -1.
       -4    1    3    3    0  502 -0.10258567685E+03  0.19830431929E+03  0.12161750843E+04  0.12364998475E+04  0.12699999809E+01 0.  1.
</event>
<event>
 5   0  0.2792518E-03  0.1135411E+04  0.7818609E-02  0.9171349E-01
        1   -1    0    0  501    0  0.00000000000E+00  0.00000000000E+00  0.61621609026E+03  0.61621609028E+03  0.50400001928E-02 0.  1.
       -1   -1    0    0    0  501  0.00000000000E+00  0.00000000000E+00 -0.52301352857E+03  0.52301352860E+03  0.50400001928E-02 0. -1.
    10030    2    1    2    0    0  0.00000000000E+00  0.00000000000E+00  0.93202561686E+02  0.11392296189E+04  0.11354106777E+04 0.  0.
        2    1    3    3  502    0 -0.19633966838E+03 -0.20661734221E+03  0.53922042476E+03  0.60991692710E+03  0.25500000920E-02 0.  1.
       -2    1    3    3    0  502  0.19633966838E+03  0.20661734221E+03 -0.44601786308E+03  0.52931269177E+03  0.25500000920E-02 0. -1.
</event>
<event>
 5   0  0.2926844E-03  0.1167347E+04  0.7818609E-02  0.9141928E-01
        1   -1    0    0  501    0  0.00000000000E+00  0.00000000000E+00  0.96606380777E+03  0.96606380778E+03  0.50400001928E-02 0.  1.
       -1   -1    0    0    0  501  0.00000000000E+00  0.00000000000E+00 -0.35264216558E+03  0.35264216562E+03  0.50400001928E-02 0. -1.
    10030    2    1    2    0    0  0.00000000000E+00  0.00000000000E+00  0.61342164218E+03  0.13187059734E+04  0.11673471348E+04 0.  0.
        5    1    3    3  502    0  0.20925273810E+03 -0.52368086357E+03  0.47662764126E+03  0.73839308886E+03  0.46999998093E+01 0. -1.
       -5    1    3    3    0  502 -0.20925273810E+03  0.52368086357E+03  0.13679400093E+03  0.58031288454E+03  0.46999998093E+01 0.  1.
</event>
<event>
 5   0  0.2792518E-03  0.1167063E+04  0.7818609E-02  0.9142185E-01
       -1   -1    0    0    0  501  0.00000000000E+00  0.00000000000E+00  0.31391810368E+03  0.31391810372E+03  0.50400001928E-02 0.  1.
        1   -1    0    0  501    0  0.00000000000E+00  0.00000000000E+00 -0.10847059842E+04  0.10847059842E+04  0.50400001928E-02 0. -1.
    10030    2    1    2    0    0  0.00000000000E+00  0.00000000000E+00 -0.77078788056E+03  0.13986240880E+04  0.11670627158E+04 0.  0.
        2    1    3    3  502    0 -0.96496348658E+02  0.56793174901E+03 -0.49685820811E+03  0.76074049177E+03  0.25500000920E-02 0. -1.
       -2    1    3    3    0  502  0.96496348658E+02 -0.56793174901E+03 -0.27392967244E+03  0.63788359619E+03  0.25500000920E-02 0.  1.
</event>
<event>
 5   0  0.2926844E-03  0.1233640E+04  0.7818609E-02  0.9083910E-01
        1   -1    0    0  501    0  0.00000000000E+00  0.00000000000E+00  0.32151265782E+03  0.32151265786E+03  0.50400001928E-02 0.  1.
       -1   -1    0    0    0  501  0.00000000000E+00  0.00000000000E+00 -0.11833658966E+04  0.11833658966E+04  0.50400001928E-02 0. -1.
    10030    2    1    2    0    0  0.00000000000E+00  0.00000000000E+00 -0.86185323879E+03  0.15048785545E+04  0.12336403279E+04 0.  0.
        5    1    3    3  502    0  0.47545719081E+03  0.13850102497E+03 -0.87947157784E+03  0.10093237441E+04  0.46999998093E+01 0. -1.
       -5    1    3    3    0  502 -0.47545719081E+03 -0.13850102497E+03  0.17618339045E+02  0.49555481037E+03  0.46999998093E+01 0.  1.
</event>
<event>
 5   0  0.2792518E-03  0.1128153E+04  0.7818609E-02  0.9178179E-01
        1   -1    0    0  501    0  0.00000000000E+00  0.00000000000E+00  0.42109243415E+03  0.42109243418E+03  0.50400001928E-02 0.  1.
       -1   -1    0    0    0  501  0.00000000000E+00  0.00000000000E+00 -0.75561122762E+03  0.75561122763E+03  0.50400001928E-02 0. -1.
    10030    2    1    2    0    0  0.00000000000E+00  0.00000000000E+00 -0.33451879346E+03  0.11767036618E+04  0.11281527754E+04 0.  0.
        2    1    3    3  502    0  0.24030803849E+03 -0.51007362686E+03 -0.18404912809E+03  0.59312489388E+03  0.25500000920E-02 0. -1.
       -2    1    3    3    0  502 -0.24030803849E+03  0.51007362686E+03 -0.15046966537E+03  0.58357876793E+03  0.25500000920E-02 0.  1.
</event>
<event>
 5   0  0.5108045E-03  0.1208178E+04  0.7818609E-02  0.9105729E-01
       -2   -1    0    0    0  501  0.00000000000E+00  0.00000000000E+00  0.29026926223E+03  0.29026926224E+03  0.25500000920E-02 0.  1.
        2   -1    0    0  501    0  0.00000000000E+00  0.00000000000E+00 -0.12571886457E+04  0.12571886457E+04  0.25500000920E-02 0. -1.
    10030    2    1    2    0    0  0.00000000000E+00  0.00000000000E+00 -0.96691938346E+03  0.15474579079E+04  0.12081775046E+04 0.  0.
        3    1    3    3  502    0  0.58540551725E+03  0.14907123794E+03 -0.48495164608E+03  0.77466119230E+03  0.10100000352E+00 0. -1.
       -3    1    3    3    0  502 -0.58540551725E+03 -0.14907123794E+03 -0.48196773737E+03  0.77279671562E+03  0.10100000352E+00 0.  1.
</event>
<event>
 5   0  0.5003526E-03  0.1026752E+04  0.7818609E-02  0.9279681E-01
        2   -1    0    0  501    0  0.00000000000E+00  0.00000000000E+00  0.14697915708E+04  0.14697915708E+04  0.25500000920E-02 0. -1.
       -2   -1    0    0    0  501  0.00000000000E+00  0.00000000000E+00 -0.17931446516E+03  0.17931446517E+03  0.25500000920E-02 0.  1.
    10030    2    1    2    0    0  0.00000000000E+00  0.00000000000E+00  0.12904771056E+04  0.16491060360E+04  0.10267519455E+04 0.  0.
        2    1    3    3  502    0  0.11080074118E+03  0.26729147232E+03  0.13263499836E+04  0.13575440377E+04  0.25500000920E-02 0. -1.
       -2    1    3    3    0  502 -0.11080074118E+03 -0.26729147232E+03 -0.35872877973E+02  0.29156199821E+03  0.25500000920E-02 0.  1.
</event>
<event>
 5   0  0.5467554E-03  0.1187386E+04  0.7818609E-02  0.9123969E-01
        2   -1    0    0  501    0  0.00000000000E+00  0.00000000000E+00  0.27185834269E+03  0.27185834270E+03  0.25500000920E-02 0.  1.
       -2   -1    0    0    0  501  0.00000000000E+00  0.00000000000E+00 -0.12965265362E+04  0.12965265362E+04  0.25500000920E-02 0. -1.
    10030    2    1    2    0    0  0.00000000000E+00  0.00000000000E+00 -0.10246681935E+04  0.15683848789E+04  0.11873862984E+04 0.  0.
        1    1    3    3  502    0  0.20003006570E+03 -0.15389705494E+03  0.19747339454E+03  0.32045603799E+03  0.50400001928E-02 0.  1.
       -1    1    3    3    0  502 -0.20003006570E+03  0.15389705494E+03 -0.12221415880E+04  0.12479288409E+04  0.50400001928E-02 0. -1.
</event>
<event>
 5   0  0.2792518E-03  0.1207035E+04  0.7818609E-02  0.9106721E-01
       -1   -1    0    0    0  501  0.00000000000E+00  0.00000000000E+00  0.59309559132E+03  0.59309559134E+03  0.50400001928E-02 0.  1.
        1   -1    0    0  501    0  0.00000000000E+00  0.00000000000E+00 -0.61412259789E+03  0.61412259791E+03  0.50400001928E-02 0. -1.
    10030    2    1    2    0    0  0.00000000000E+00  0.00000000000E+00 -0.21027006570E+02  0.12072181892E+04  0.12070350539E+04 0.  0.
        2    1    3    3  502    0 -0.25128255112E+03  0.38087909425E+03 -0.40556913003E+03  0.61049006886E+03  0.25500000920E-02 0. -1.
       -2    1    3    3    0  502  0.25128255112E+03 -0.38087909425E+03  0.38454212346E+03  0.59672812039E+03  0.25500000920E-02 0.  1.
</event>
<event>
 5   0  0.5189537E-03  0.1230277E+04  0.7818609E-02  0.9086760E-01
       -2   -1    0    0    0  501  0.00000000000E+00  0.00000000000E+00  0.55616527944E+03  0.55616527945E+03  0.25500000920E-02 0. -1.
        2   -1    0    0  501    0  0.00000000000E+00  0.00000000000E+00 -0.68036502793E+03  0.68036502794E+03  0.25500000920E-02 0.  1.
    10030    2    1    2    0    0  0.00000000000E+00  0.00000000000E+00 -0.12419974849E+03  0.12365303074E+04  0.12302770515E+04 0.  0.
        4    1    3    3  502    0 -0.28361346826E+03 -0.21467472644E+03  0.44231948855E+03  0.56760019415E+03  0.12699999809E+01 0. -1.
       -4    1    3    3    0  502  0.28361346826E+03  0.21467472644E+03 -0.56651923704E+03  0.66893011323E+03  0.12699999809E+01 0.  1.
</event>
<event>
 5   0  0.2875848E-03  0.1202315E+04  0.7818609E-02  0.9110833E-01
       -1   -1    0    0    0  501  0.00000000000E+00  0.00000000000E+00  0.20799127934E+03  0.20799127940E+03  0.50400001928E-02 0. -1.
        1   -1    0    0  501    0  0.00000000000E+00  0.00000000000E+00 -0.17375260413E+04  0.17375260413E+04  0.50400001928E-02 0.  1.
    10030    2    1    2    0    0  0.00000000000E+00  0.00000000000E+00 -0.15295347620E+04  0.19455173207E+04  0.12023148744E+04 0.  0.
        1    1    3    3  502    0  0.42798622635E+03 -0.37755578797E+03 -0.10703766317E+04  0.12130237906E+04  0.50400001928E-02 0.  1.
       -1    1    3    3    0  502 -0.42798622635E+03  0.37755578797E+03 -0.45915813029E+03  0.73249353008E+03  0.50400001928E-02 0. -1.
</event>
<event>
 5   0  0.2938349E-03  0.1142680E+04  0.7818609E-02  0.9164563E-01
       -1   -1    0    0    0  501  0.00000000000E+00  0.00000000000E+00  0.58468866685E+03  0.58468866687E+03  0.50400001928E-02 0.  1.
        1   -1    0    0  501    0  0.00000000000E+00  0.00000000000E+00 -0.55829582601E+03  0.55829582603E+03  0.50400001928E-02 0. -1.
    10030    2    1    2    0    0  0.00000000000E+00  0.00000000000E+00  0.26392840839E+02  0.11429844929E+04  0.11426797316E+04 0.  0.
        4    1    3    3  502    0  0.35286092754E+03 -0.12602637331E+03  0.44462821693E+03  0.58145450824E+03  0.12699999809E+01 0.  1.
       -4    1    3    3    0  502 -0.35286092754E+03  0.12602637331E+03 -0.41823537609E+03  0.56152998466E+03  0.12699999809E+01 0. -1.
</event>
<event>
 5   0  0.5108045E-03  0.1380030E+04  0.7818609E-02  0.8968402E-01
       -2   -1    0    0    0  501  0.00000000000E+00  0.00000000000E+00  0.34236345578E+03  0.34236345579E+03  0.25500000920E-02 0. -1.
        2   -1    0    0  501    0  0.00000000000E+00  0.00000000000E+00 -0.13906872243E+04  0.13906872243E+04  0.25500000920E-02 0.  1.
    10030    2    1    2    0    0  0.00000000000E+00  0.00000000000E+00 -0.10483237686E+04  0.17330506801E+04  0.13800296867E+04 0.  0.
        3    1    3    3  502    0 -0.67342093891E+03  0.54199122071E+02 -0.70036535499E+03  0.97311096308E+03  0.10100000352E+00 0. -1.
       -3    1    3    3    0  502  0.67342093891E+03 -0.54199122071E+02 -0.34795841357E+03  0.75993971706E+03  0.10100000352E+00 0.  1.
</event>
<event>
 5   0  0.2926844E-03  0.1178357E+04  0.7818609E-02  0.9132015E-01
       -1   -1    0    0    0  501  0.00000000000E+00  0.00000000000E+00  0.70680435819E+03  0.70680435821E+03  0.50400001928E-02 0. -1.
        1   -1    0    0  501    0  0.00000000000E+00  0.00000000000E+00 -0.49112770222E+03  0.49112770224E+03  0.50400001928E-02 0.  1.
    10030    2    1    2    0    0  0.00000000000E+00  0.00000000000E+00  0.21567665598E+03  0.11979320605E+04  0.11783568227E+04 0.  0.
        5    1    3    3  502    0  0.57518840132E+03  0.18669346199E+02  0.23610430402E+03  0.62205914018E+03  0.46999998093E+01 0.  1.
       -5    1    3    3    0  502 -0.57518840132E+03 -0.18669346199E+02 -0.20427648045E+02  0.57587292028E+03  0.46999998093E+01 0. -1.
</event>
<event>
 5   0  0.5108045E-03  0.1178448E+04  0.7818609E-02  0.9131933E-01
        2   -1    0    0  501    0  0.00000000000E+00  0.00000000000E+00  0.98608944543E+03  0.98608944544E+03  0.25500000920E-02 0. -1.
       -2   -1    0    0    0  501  0.00000000000E+00  0.00000000000E+00 -0.35208237589E+03  0.35208237590E+03  0.25500000920E-02 0.  1.
    10030    2    1    2    0    0  0.00000000000E+00  0.00000000000E+00  0.63400706955E+03  0.13381718213E+04  0.11784476480E+04 0.  0.
        3    1    3    3  502    0  0.34329352941E+03  0.13896879294E+02 -0.22656350616E+03  0.41155145864E+03  0.10100000352E+00 0.  1.
       -3    1    3    3    0  502 -0.34329352941E+03 -0.13896879294E+02  0.86057057570E+03  0.92662036269E+03  0.10100000352E+00 0. -1.
</event>
<event>
 5   0  0.2938349E-03  0.1207449E+04  0.7818609E-02  0.9106361E-01
        1   -1    0    0  501    0  0.00000000000E+00  0.00000000000E+00  0.30926100465E+03  0.30926100469E+03  0.50400001928E-02 0. -1.
       -1   -1    0    0    0  501  0.00000000000E+00  0.00000000000E+00 -0.11785618950E+04  0.11785618950E+04  0.50400001928E-02 0.  1.
    10030    2    1    2    0    0  0.00000000000E+00  0.00000000000E+00 -0.86930089038E+03  0.14878228997E+04  0.12074489401E+04 0.  0.
        4    1    3    3  502    0 -0.27842077604E+01 -0.57721316533E+03 -0.21665544385E+03  0.61654195663E+03  0.12699999809E+01 0. -1.
       -4    1    3    3    0  502  0.27842077604E+01  0.57721316533E+03 -0.65264544653E+03  0.87128094310E+03  0.12699999809E+01 0.  1.
</event>
<event>
 5   0  0.2926844E-03  0.1205262E+04  0.7818609E-02  0.9108263E-01
        1   -1    0    0  501    0  0.00000000000E+00  0.00000000000E+00  0.90834810622E+03  0.90834810623E+03  0.50400001928E-02 0. -1.
       -1   -1    0    0    0  501  0.00000000000E+00  0.00000000000E+00 -0.39980747789E+03  0.39980747793E+03  0.50400001928E-02 0.  1.
    10030    2    1    2    0    0  0.00000000000E+00  0.00000000000E+00  0.50854062832E+03  0.13081555842E+04  0.12052624037E+04 0.  0.
        5    1    3    3  502    0  0.34609728220E+03  0.73717743588E+02  0.78368684898E+03  0.85988650514E+03  0.46999998093E+01 0. -1.
       -5    1    3    3    0  502 -0.34609728220E+03 -0.73717743588E+02 -0.27514622065E+03  0.44826907902E+03  0.46999998093E+01 0.  1.
</event>
<event>
 5   0  0.5031575E-03  0.1195521E+04  0.7818609E-02  0.9116786E-01
        2   -1    0    0  501    0  0.00000000000E+00  0.00000000000E+00  0.27355544114E+04  0.27355544114E+04  0.25500000920E-02 0. -1.
       -2   -1    0    0    0  501  0.00000000000E+00  0.00000000000E+00 -0.13061981603E+03  0.13061981605E+03  0.25500000920E-02 0.  1.
    10030    2    1    2    0    0  0.00000000000E+00  0.00000000000E+00  0.26049345954E+04  0.28661742275E+04  0.11955209977E+04 0.  0.
        5    1    3    3  502    0 -0.40045058493E+03 -0.19233542756E+03  0.22612640470E+04  0.23044936033E+04  0.46999998093E+01 0.  1.
       -5    1    3    3    0  502  0.40045058493E+03  0.19233542756E+03  0.34367054839E+03  0.56168062411E+03  0.46999998093E+01 0. -1.
</event>
<event>
 5   0  0.2875848E-03  0.1207548E+04  0.7818609E-02  0.9106276E-01
       -1   -1    0    0    0  501  0.00000000000E+00  0.00000000000E+00  0.35941881974E+03  0.35941881977E+03  0.50400001928E-02 0.  1.
        1   -1    0    0  501    0  0.00000000000E+00  0.00000000000E+00 -0.10142565421E+04  0.10142565421E+04  0.50400001928E-02 0. -1.
    10030    2    1    2    0    0  0.00000000000E+00  0.00000000000E+00 -0.65483772232E+03  0.13736753618E+04  0.12075477453E+04 0.  0.
        1    1    3    3  502    0  0.18303737389E+03 -0.56168961059E+03 -0.46925112215E+03  0.75444980917E+03  0.50400001928E-02 0. -1.
       -1    1    3    3    0  502 -0.18303737389E+03  0.56168961059E+03 -0.18558660017E+03  0.61922555267E+03  0.50400001928E-02 0.  1.
</event>
<event>
 5   0  0.5031575E-03  0.1180679E+04  0.7818609E-02  0.9129938E-01
       -2   -1    0    0    0  501  0.00000000000E+00  0.00000000000E+00  0.14504896200E+04  0.14504896200E+04  0.25500000920E-02 0.  1.
        2   -1    0    0  501    0  0.00000000000E+00  0.00000000000E+00 -0.24026424020E+03  0.24026424021E+03  0.25500000920E-02 0. -1.
    10030    2    1    2    0    0  0.00000000000E+00  0.00000000000E+00  0.12102253798E+04  0.16907538602E+04  0.11806791037E+04 0.  0.
        5    1    3    3  502    0  0.50643675456E+03  0.28503236909E+03  0.45658915406E+03  0.73906520916E+03  0.46999998093E+01 0. -1.
       -5    1    3    3    0  502 -0.50643675456E+03 -0.28503236909E+03  0.75363622573E+03  0.95168865105E+03  0.46999998093E+01 0.  1.
</event>
<event>
 5   0  0.2792518E-03  0.1203970E+04  0.7818609E-02  0.9109389E-01
       -1   -1    0    0    0  501  0.00000000000E+00  0.00000000000E+00  0.56032639756E+03  0.56032639758E+03  0.50400001928E-02 0.  1.
        1   -1    0    0  501    0  0.00000000000E+00  0.00000000000E+00 -0.64674036240E+03  0.64674036242E+03  0.50400001928E-02 0. -1.
    10030    2    1    2    0    0  0.00000000000E+00  0.00000000000E+00 -0.86413964835E+02  0.12070667600E+04  0.12039695967E+04 0.  0.
        2    1    3    3  502    0 -0.43753660487E+03  0.78029959135E+02 -0.45027947992E+03  0.63267571881E+03  0.25500000920E-02 0. -1.
       -2    1    3    3    0  502  0.43753660487E+03 -0.78029959135E+02  0.36386551509E+03  0.57439104119E+03  0.25500000920E-02 0.  1.
</event>
<event>
 5   0  0.2930868E-03  0.1170977E+04  0.7818609E-02  0.9138647E-01
       -1   -1    0    0    0  501  0.00000000000E+00  0.00000000000E+00  0.38859607356E+03  0.38859607360E+03  0.50400001928E-02 0.  1.
        1   -1    0    0  501    0  0.00000000000E+00  0.00000000000E+00 -0.88214169497E+03  0.88214169499E+03  0.50400001928E-02 0. -1.
    10030    2    1    2    0    0  0.00000000000E+00  0.00000000000E+00 -0.49354562141E+03  0.12707377686E+04  0.11709770263E+04 0.  0.
        3    1    3    3  502    0 -0.13064547915E+03  0.55494933475E+03 -0.10215346357E+03  0.57919974593E+03  0.10100000352E+00 0.  1.
       -3    1    3    3    0  502  0.13064547915E+03 -0.55494933475E+03 -0.39139215784E+03  0.69153802266E+03  0.10100000352E+00 0. -1.
</event>
<event>
 5   0  0.2926844E-03  0.1178019E+04  0.7818609E-02  0.9132317E-01
       -1   -1    0    0    0  501  0.00000000000E+00  0.00000000000E+00  0.21662957286E+03  0.21662957291E+03  0.50400001928E-02 0.  1.
        1   -1    0    0  501    0  0.00000000000E+00  0.00000000000E+00 -0.16014993830E+04  0.16014993830E+04  0.50400001928E-02 0. -1.
    10030    2    1    2    0    0  0.00000000000E+00  0.00000000000E+00 -0.13848698102E+04  0.18181289559E+04  0.11780188918E+04 0.  0.
        5    1    3    3  502    0 -0.25075482927E+03 -0.13462928788E+03  0.10342627183E+03  0.30285658860E+03  0.46999998093E+01 0.  1.
       -5    1    3    3    0  502  0.25075482927E+03  0.13462928788E+03 -0.14882960820E+04  0.15152723673E+04  0.46999998093E+01 0. -1.
</event>
<event>
 5   0  0.5003526E-03  0.1204629E+04  0.7818609E-02  0.9108815E-01
        2   -1    0    0  501    0  0.00000000000E+00  0.00000000000E+00  0.55663364359E+03  0.55663364359E+03  0.25500000920E-02 0. -1.
       -2   -1    0    0    0  501  0.00000000000E+00  0.00000000000E+00 -0.65174389227E+03  0.65174389227E+03  0.25500000920E-02 0.  1.
    10030    2    1    2    0    0  0.00000000000E+00  0.00000000000E+00 -0.95110248679E+02  0.12083775359E+04  0.12046287020E+04 0.  0.
        2    1    3    3  502    0 -0.50895744770E+03  0.12887373503E+02  0.27528305827E+03  0.57877848106E+03  0.25500000920E-02 0. -1.
       -2    1    3    3    0  502  0.50895744770E+03 -0.12887373503E+02 -0.37039330695E+03  0.62959905480E+03  0.25500000920E-02 0.  1.
</event>
<event>
 5   0  0.5467554E-03  0.1191904E+04  0.7818609E-02  0.9119973E-01
        2   -1    0    0  501    0  0.00000000000E+00  0.00000000000E+00  0.18282897973E+04  0.18282897973E+04  0.25500000920E-02 0.  1.
       -2   -1    0    0    0  501  0.00000000000E+00  0.00000000000E+00 -0.19425730323E+03  0.19425730325E+03  0.25500000920E-02 0. -1.
    10030    2    1    2    0    0  0.00000000000E+00  0.00000000000E+00  0.16340324941E+04  0.20225471006E+04  0.11919037639E+04 0.  0.
        1    1    3    3  502    0 -0.32144611545E+03 -0.38981071058E+03  0.28073354926E+03  0.57800633295E+03  0.50400001928E-02 0. -1.
       -1    1    3    3    0  502  0.32144611545E+03  0.38981071058E+03  0.13532989448E+04  0.14445407676E+04  0.50400001928E-02 0.  1.
</event>
<event>
 5   0  0.2875848E-03  0.1195889E+04  0.7818609E-02  0.9116463E-01
        1   -1    0    0  501    0  0.00000000000E+00  0.00000000000E+00  0.58548436035E+03  0.58548436037E+03  0.50400001928E-02 0.  1.
       -1   -1    0    0    0  501  0.00000000000E+00  0.00000000000E+00 -0.61066963769E+03  0.61066963772E+03  0.50400001928E-02 0. -1.
    10030    2    1    2    0    0  0.00000000000E+00  0.00000000000E+00 -0.25185277342E+02  0.11961539981E+04  0.11958888280E+04 0.  0.
        1    1    3    3  502    0 -0.34768618685E+02  0.42009818411E+03 -0.43676942517E+03  0.60700813168E+03  0.50400001928E-02 0. -1.
       -1    1    3    3    0  502  0.34768618685E+02 -0.42009818411E+03  0.41158414783E+03  0.58914586641E+03  0.50400001928E-02 0.  1.
</event>
<event>
 5   0  0.2930868E-03  0.1191842E+04  0.7818609E-02  0.9120028E-01
       -1   -1    0    0    0  501  0.00000000000E+00  0.00000000000E+00  0.39698113963E+03  0.39698113966E+03  0.50400001928E-02 0.  1.
        1   -1    0    0  501    0  0.00000000000E+00  0.00000000000E+00 -0.89455556084E+03  0.89455556086E+03  0.50400001928E-02 0. -1.
    10030    2    1    2    0    0  0.00000000000E+00  0.00000000000E+00 -0.49757442122E+03  0.12915367005E+04  0.11918417446E+04 0.  0.
        3    1    3    3  502    0 -0.27178333028E+03  0.77860726972E+02  0.31968208408E+03  0.42676119377E+03  0.10100000352E+00 0.  1.
       -3    1    3    3    0  502  0.27178333028E+03 -0.77860726972E+02 -0.81725650530E+03  0.86477550675E+03  0.10100000352E+00 0. -1.
</event>
<event>
 5   0  0.2930868E-03  0.1147421E+04  0.7818609E-02  0.9160166E-01
       -1   -1    0    0    0  501  0.00000000000E+00  0.00000000000E+00  0.63897594847E+03  0.63897594849E+03  0.50400001928E-02 0. -1.
        1   -1    0    0  501    0  0.00000000000E+00  0.00000000000E+00 -0.51511162385E+03  0.51511162387E+03  0.50400001928E-02 0.  1.
    10030    2    1    2    0    0  0.00000000000E+00  0.00000000000E+00  0.12386432462E+03  0.11540875724E+04  0.11474213497E+04 0.  0.
        3    1    3    3  502    0 -0.51011983836E+03 -0.22672922045E+03  0.19504734587E+03  0.59133058963E+03  0.10100000352E+00 0. -1.
       -3    1    3    3    0  502  0.51011983836E+03  0.22672922045E+03 -0.71183021253E+02  0.56275698273E+03  0.10100000352E+00 0.  1.
</event>
<event>
 5   0  0.2792518E-03  0.1155504E+04  0.7818609E-02  0.9152721E-01
        1   -1    0    0  501    0  0.00000000000E+00  0.00000000000E+00  0.75231688836E+03  0.75231688838E+03  0.50400001928E-02 0. -1.
       -1   -1    0    0    0  501  0.00000000000E+00  0.00000000000E+00 -0.44369255626E+03  0.44369255628E+03  0.50400001928E-02 0.  1.
    10030    2    1    2    0    0  0.00000000000E+00  0.00000000000E+00  0.30862433210E+03  0.11960094447E+04  0.11555040516E+04 0.  0.
        2    1    3    3  502    0  0.15593785094E+03  0.23791166909E+03 -0.36618620099E+03  0.46369268859E+03  0.25500000920E-02 0.  1.
       -2    1    3    3    0  502 -0.15593785094E+03 -0.23791166909E+03  0.67481053309E+03  0.73231675608E+03  0.25500000920E-02 0. -1.
</event>
<event>
 5   0  0.5467554E-03  0.1252621E+04  0.7818609E-02  0.9068005E-01
        2   -1    0    0  501    0  0.00000000000E+00  0.00000000000E+00  0.60929455209E+03  0.60929455210E+03  0.25500000920E-02 0.  1.
       -2   -1    0    0    0  501  0.00000000000E+00  0.00000000000E+00 -0.64380171571E+03  0.64380171572E+03  0.25500000920E-02 0. -1.
    10030    2    1    2    0    0  0.00000000000E+00  0.00000000000E+00 -0.34507163618E+02  0.12530962678E+04  0.12526210569E+04 0.  0.
        1    1    3    3  502    0 -0.38219266079E+03 -0.13766888905E+03  0.45962520362E+03  0.61341607479E+03  0.50400001928E-02 0.  1.
       -1    1    3    3    0  502  0.38219266079E+03  0.13766888905E+03 -0.49413236724E+03  0.63968019303E+03  0.50400001928E-02 0. -1.
</event>
<event>
 5   0  0.5108045E-03  0.1226826E+04  0.7818609E-02  0.9089695E-01
        2   -1    0    0  501    0  0.00000000000E+00  0.00000000000E+00  0.52327600367E+03  0.52327600368E+03  0.25500000920E-02 0.  1.
       -2   -1    0    0    0  501  0.00000000000E+00  0.00000000000E+00 -0.71907654469E+03  0.71907654469E+03  0.25500000920E-02 0. -1.
    10030    2    1    2    0    0  0.00000000000E+00  0.00000000000E+00 -0.19580054102E+03  0.12423525484E+04  0.12268259871E+04 0.  0.
        3    1    3    3  502    0  0.42407529453E+03 -0.44232188630E+03 -0.69491998644E+02  0.61669899838E+03  0.10100000352E+00 0. -1.
       -3    1    3    3    0  502 -0.42407529453E+03  0.44232188630E+03 -0.12630854237E+03  0.62565354998E+03  0.10100000352E+00 0.  1.
</event>
<event>
 5   0  0.2930868E-03  0.1183590E+04  0.7818609E-02  0.9127343E-01
       -1   -1    0    0    0  501  0.00000000000E+00  0.00000000000E+00  0.63821452320E+03  0.63821452322E+03  0.50400001928E-02 0. -1.
        1   -1    0    0  501    0  0.00000000000E+00  0.00000000000E+00 -0.54875160071E+03  0.54875160073E+03  0.50400001928E-02 0.  1.
    10030    2    1    2    0    0  0.00000000000E+00  0.00000000000E+00  0.89462922492E+02  0.11869661240E+04  0.11835898635E+04 0.  0.
        3    1    3    3  502    0  0.49952333190E+03 -0.23021875993E+03 -0.17428794344E+03  0.57697533220E+03  0.10100000352E+00 0. -1.
       -3    1    3    3    0  502 -0.49952333190E+03  0.23021875993E+03  0.26375086593E+03  0.60999079175E+03  0.10100000352E+00 0.  1.
</event>
<event>
 5   0  0.5189537E-03  0.1200644E+04  0.7818609E-02  0.9112293E-01
       -2   -1    0    0    0  501  0.00000000000E+00  0.00000000000E+00  0.31289319420E+03  0.31289319421E+03  0.25500000920E-02 0. -1.
        2   -1    0    0  501    0  0.00000000000E+00  0.00000000000E+00 -0.11517877618E+04  0.11517877618E+04  0.25500000920E-02 0.  1.
    10030    2    1    2    0    0  0.00000000000E+00  0.00000000000E+00 -0.83889456762E+03  0.14646809560E+04  0.12006440802E+04 0.  0.
        4    1    3    3  502    0  0.22350623654E+03  0.55259454713E+03 -0.33259183298E+03  0.68259410454E+03  0.12699999809E+01 0. -1.
       -4    1    3    3    0  502 -0.22350623654E+03 -0.55259454713E+03 -0.50630273464E+03  0.78208685150E+03  0.12699999809E+01 0.  1.
</event>
<event>
 5   0  0.2930868E-03  0.8170197E+03  0.7818609E-02  0.9535703E-01
       -1   -1    0    0    0  501  0.00000000000E+00  0.00000000000E+00  0.42475169678E+03  0.42475169681E+03  0.50400001928E-02 0.  1.
        1   -1    0    0  501    0  0.00000000000E+00  0.00000000000E+00 -0.39288902033E+03  0.39288902037E+03  0.50400001928E-02 0. -1.
    10030    2    1    2    0    0  0.00000000000E+00  0.00000000000E+00  0.31862676449E+02  0.81764071718E+03  0.81701965230E+03 0.  0.
        3    1    3    3  502    0  0.29365450454E+03 -0.47659188191E+02  0.29610111388E+03  0.41973830669E+03  0.10100000352E+00 0.  1.
       -3    1    3    3    0  502 -0.29365450454E+03  0.47659188191E+02 -0.26423843743E+03  0.39790241049E+03  0.10100000352E+00 0. -1.
</event>
<event>
 5   0  0.2930868E-03  0.1204935E+04  0.7818609E-02  0.9108548E-01
       -1   -1    0    0    0  501  0.00000000000E+00  0.00000000000E+00  0.17831345167E+03  0.17831345174E+03  0.50400001928E-02 0. -1.
        1   -1    0    0  501    0  0.00000000000E+00  0.00000000000E+00 -0.20355561343E+04  0.20355561343E+04  0.50400001928E-02 0.  1.
    10030    2    1    2    0    0  0.00000000000E+00  0.00000000000E+00 -0.18572426826E+04  0.22138695860E+04  0.12049349202E+04 0.  0.
        3    1    3    3  502    0  0.52134913404E+01  0.54969304515E+03 -0.47566168454E+03  0.72694131312E+03  0.10100000352E+00 0.  1.
       -3    1    3    3    0  502 -0.52134913404E+01 -0.54969304515E+03 -0.13815809981E+04  0.14869282729E+04  0.10100000352E+00 0. -1.
</event>
<event>
 5   0  0.5031575E-03  0.1183503E+04  0.7818609E-02  0.9127420E-01
       -2   -1    0    0    0  501  0.00000000000E+00  0.00000000000E+00  0.37993657816E+03  0.37993657817E+03  0.25500000920E-02 0.  1.
        2   -1    0    0  501    0  0.00000000000E+00  0.00000000000E+00 -0.92165291446E+03  0.92165291447E+03  0.25500000920E-02 0. -1.
    10030    2    1    2    0    0  0.00000000000E+00  0.00000000000E+00 -0.54171633630E+03  0.13015894926E+04  0.11835026905E+04 0.  0.
        5    1    3    3  502    0 -0.32740163852E+02  0.32250783351E+03  0.27357534132E+03  0.42420369916E+03  0.46999998093E+01 0.  1.
       -5    1    3    3    0  502  0.32740163852E+02 -0.32250783351E+03 -0.81529167762E+03  0.87738579348E+03  0.46999998093E+01 0. -1.
</event>
<event>
 5   0  0.2938349E-03  0.1201879E+04  0.7818609E-02  0.9111213E-01
        1   -1    0    0  501    0  0.00000000000E+00  0.00000000000E+00  0.76800222814E+03  0.76800222816E+03  0.50400001928E-02 0.  1.
       -1   -1    0    0    0  501  0.00000000000E+00  0.00000000000E+00 -0.47021773388E+03  0.47021773391E+03  0.50400001928E-02 0. -1.
    10030    2    1    2    0    0  0.00000000000E+00  0.00000000000E+00  0.29778449426E+03  0.12382199621E+04  0.12018789745E+04 0.  0.
        4    1    3    3  502    0  0.48332575782E+03  0.15695750340E+03  0.47935137734E+03  0.69858342515E+03  0.12699999809E+01 0.  1.
       -4    1    3    3    0  502 -0.48332575782E+03 -0.15695750340E+03 -0.18156688308E+03  0.53963653692E+03  0.12699999809E+01 0. -1.
</event>
<event>
 5   0  0.2930868E-03  0.1275538E+04  0.7818609E-02  0.9049192E-01
        1   -1    0    0  501    0  0.00000000000E+00  0.00000000000E+00  0.88831398846E+03  0.88831398848E+03  0.50400001928E-02 0.  1.
       -1   -1    0    0    0  501  0.00000000000E+00  0.00000000000E+00 -0.45788920579E+03  0.45788920581E+03  0.50400001928E-02 0. -1.
    10030    2    1    2    0    0  0.00000000000E+00  0.00000000000E+00  0.43042478268E+03  0.13462031943E+04  0.12755381401E+04 0.  0.
        3    1    3    3  502    0  0.64011707594E+02  0.19077680068E+02 -0.45418753997E+03  0.45907274832E+03  0.10100000352E+00 0. -1.
       -3    1    3    3    0  502 -0.64011707594E+02 -0.19077680068E+02  0.88461232265E+03  0.88713044597E+03  0.10100000352E+00 0.  1.
</event>
<event>
 5   0  0.5003526E-03  0.1016592E+04  0.7818609E-02  0.9290531E-01
       -2   -1    0    0    0  501  0.00000000000E+00  0.00000000000E+00  0.59193382794E+03  0.59193382795E+03  0.25500000920E-02 0. -1.
        2   -1    0    0  501    0  0.00000000000E+00  0.00000000000E+00 -0.43647625879E+03  0.43647625880E+03  0.25500000920E-02 0.  1.
    10030    2    1    2    0    0  0.00000000000E+00  0.00000000000E+00  0.15545756915E+03  0.10284100867E+04  0.10165924703E+04 0.  0.
        2    1    3    3  502    0  0.10555049892E+03  0.83529996165E+01  0.58065421534E+03  0.59022876770E+03  0.25500000920E-02 0. -1.
       -2    1    3    3    0  502 -0.10555049892E+03 -0.83529996165E+01 -0.42519664619E+03  0.43818131905E+03  0.25500000920E-02 0.  1.
</event>
<event>
 5   0  0.2938349E-03  0.1211335E+04  0.7818609E-02  0.9102993E-01
        1   -1    0    0  501    0  0.00000000000E+00  0.00000000000E+00  0.62613642413E+03  0.62613642415E+03  0.50400001928E-02 0. -1.
       -1   -1    0    0    0  501  0.00000000000E+00  0.00000000000E+00 -0.58586726347E+03  0.58586726349E+03  0.50400001928E-02 0.  1.
    10030    2    1    2    0    0  0.00000000000E+00  0.00000000000E+00  0.40269160663E+02  0.12120036876E+04  0.12113345259E+04 0.  0.
        4    1    3    3  502    0  0.52058191753E+03 -0.66514677446E+02  0.32262837642E+03  0.61605228459E+03  0.12699999809E+01 0. -1.
       -4    1    3    3    0  502 -0.52058191753E+03  0.66514677446E+02 -0.28235921576E+03  0.59595140305E+03  0.12699999809E+01 0.  1.
</event>
<event>
 5   0  0.5467554E-03  0.1193762E+04  0.7818609E-02  0.9118334E-01
        2   -1    0    0  501    0  0.00000000000E+00  0.00000000000E+00  0.18661919477E+04  0.18661919478E+04  0.25500000920E-02 0. -1.
       -2   -1    0    0    0  501  0.00000000000E+00  0.00000000000E+00 -0.19090594696E+03  0.19090594697E+03  0.25500000920E-02 0.  1.
    10030    2    1    2    0    0  0.00000000000E+00  0.00000000000E+00  0.16752860008E+04  0.20570978947E+04  0.11937623566E+04 0.  0.
        1    1    3    3  502    0 -0.33626472029E+02 -0.19785638770E+02 -0.18870627084E+03  0.19269734767E+03  0.50400001928E-02 0.  1.
       -1    1    3    3    0  502  0.33626472029E+02  0.19785638770E+02  0.18639922716E+04  0.18644005470E+04  0.50400001928E-02 0. -1.
</event>
<event>
 5   0  0.2792518E-03  0.1198060E+04  0.7818609E-02  0.9114557E-01
        1   -1    0    0  501    0  0.00000000000E+00  0.00000000000E+00  0.45271970261E+03  0.45271970263E+03  0.50400001928E-02 0. -1.
       -1   -1    0    0    0  501  0.00000000000E+00  0.00000000000E+00 -0.79262458314E+03  0.79262458315E+03  0.50400001928E-02 0.  1.
    10030    2    1    2    0    0  0.00000000000E+00  0.00000000000E+00 -0.33990488053E+03  0.12453442858E+04  0.11980597073E+04 0.  0.
        2    1    3    3  502    0 -0.20121218201E+03  0.12506769525E+03  0.40195174448E+03  0.46657633404E+03  0.25500000920E-02 0. -1.
       -2    1    3    3    0  502  0.20121218201E+03 -0.12506769525E+03 -0.74185662502E+03  0.77876795175E+03  0.25500000920E-02 0.  1.
</event>
<event>
 5   0  0.2938349E-03  0.1199585E+04  0.7818609E-02  0.9113220E-01
        1   -1    0    0  501    0  0.00000000000E+00  0.00000000000E+00  0.75631233801E+03  0.75631233802E+03  0.50400001928E-02 0. -1.
       -1   -1    0    0    0  501  0.00000000000E+00  0.00000000000E+00 -0.47566468540E+03  0.47566468542E+03  0.50400001928E-02 0.  1.
    10030    2    1    2    0    0  0.00000000000E+00  0.00000000000E+00  0.28064765261E+03  0.12319770234E+04  0.11995850455E+04 0.  0.
        4    1    3    3  502    0 -0.28560226361E+03  0.46440695701E+03  0.39708883159E+03  0.67448026493E+03  0.12699999809E+01 0.  1.
       -4    1    3    3    0  502  0.28560226361E+03 -0.46440695701E+03 -0.11644117898E+03  0.55749675852E+03  0.12699999809E+01 0. -1.
</event>
<event>
 5   0  0.5108045E-03  0.7547836E+03  0.7818609E-02  0.9627875E-01
       -2   -1    0    0    0  501  0.00000000000E+00  0.00000000000E+00  0.17725668001E+03  0.17725668003E+03  0.25500000920E-02 0. -1.
        2   -1    0    0  501    0  0.00000000000E+00  0.00000000000E+00 -0.80349333444E+03  0.80349333445E+03  0.25500000920E-02 0.  1.
    10030    2    1    2    0    0  0.00000000000E+00  0.00000000000E+00 -0.62623665444E+03  0.98075001448E+03  0.75478357397E+03 0.  0.
        3    1    3    3  502    0 -0.18884618631E+03 -0.37233660122E+00 -0.73768243584E+03  0.76147121224E+03  0.10100000352E+00 0.  1.
       -3    1    3    3    0  502  0.18884618631E+03  0.37233660122E+00  0.11144578141E+03  0.21927880224E+03  0.10100000352E+00 0. -1.
</event>
<event>
 5   0  0.2930868E-03  0.1201663E+04  0.7818609E-02  0.9111402E-01
       -1   -1    0    0    0  501  0.00000000000E+00  0.00000000000E+00  0.66096306410E+03  0.66096306412E+03  0.50400001928E-02 0. -1.
        1   -1    0    0  501    0  0.00000000000E+00  0.00000000000E+00 -0.54617052215E+03  0.54617052218E+03  0.50400001928E-02 0.  1.
    10030    2    1    2    0    0  0.00000000000E+00  0.00000000000E+00  0.11479254195E+03  0.12071335863E+04  0.12016630840E+04 0.  0.
        3    1    3    3  502    0 -0.31642250199E+02  0.33679327751E+03 -0.44141999535E+03  0.55613178858E+03  0.10100000352E+00 0.  1.
       -3    1    3    3    0  502  0.31642250199E+02 -0.33679327751E+03  0.55621253730E+03  0.65100179771E+03  0.10100000352E+00 0. -1.
</event>
<event>
 5   0  0.5003526E-03  0.1215670E+04  0.7818609E-02  0.9099250E-01
        2   -1    0    0  501    0  0.00000000000E+00  0.00000000000E+00  0.92977496439E+03  0.92977496440E+03  0.25500000920E-02 0. -1.
       -2   -1    0    0    0  501  0.00000000000E+00  0.00000000000E+00 -0.39736858481E+03  0.39736858482E+03  0.25500000920E-02 0.  1.
    10030    2    1    2    0    0  0.00000000000E+00  0.00000000000E+00  0.53240637958E+03  0.13271435492E+04  0.12156699582E+04 0.  0.
        2    1    3    3  502    0  0.10777734160E+03  0.56739007993E+02 -0.38390970965E+03  0.40276784325E+03  0.25500000920E-02 0.  1.
       -2    1    3    3    0  502 -0.10777734160E+03 -0.56739007993E+02  0.91631608923E+03  0.92437570596E+03  0.25500000920E-02 0. -1.
</event>
<event>
 5   0  0.5108045E-03  0.1233116E+04  0.7818609E-02  0.9084354E-01
       -2   -1    0    0    0  501  0.00000000000E+00  0.00000000000E+00  0.68742561753E+03  0.68742561754E+03  0.25500000920E-02 0. -1.
        2   -1    0    0  501    0  0.00000000000E+00  0.00000000000E+00 -0.55299582248E+03  0.55299582249E+03  0.25500000920E-02 0.  1.
    10030    2    1    2    0    0  0.00000000000E+00  0.00000000000E+00  0.13442979505E+03  0.12404214400E+04  0.12331155579E+04 0.  0.
        3    1    3    3  502    0 -0.42685588384E+03 -0.13759747846E+03  0.49281079076E+03  0.66633437352E+03  0.10100000352E+00 0. -1.
       -3    1    3    3    0  502  0.42685588384E+03  0.13759747846E+03 -0.35838099570E+03  0.57408706651E+03  0.10100000352E+00 0.  1.
</event>
<event>
 5   0  0.5003526E-03  0.1195473E+04  0.7818609E-02  0.9116828E-01
        2   -1    0    0  501    0  0.00000000000E+00  0.00000000000E+00  0.50603519604E+03  0.50603519605E+03  0.25500000920E-02 0.  1.
       -2   -1    0    0    0  501  0.00000000000E+00  0.00000000000E+00 -0.70605522673E+03  0.70605522674E+03  0.25500000920E-02 0. -1.
    10030    2    1    2    0    0  0.00000000000E+00  0.00000000000E+00 -0.20002003069E+03  0.12120904228E+04  0.11954727853E+04 0.  0.
        2    1    3    3  502    0 -0.20331949171E+03 -0.50055150019E+03  0.15927543091E+03  0.56325774113E+03  0.25500000920E-02 0.  1.
       -2    1    3    3    0  502  0.20331949171E+03  0.50055150019E+03 -0.35929546160E+03  0.64883268165E+03  0.25500000920E-02 0. -1.
</event>
<event>
 5   0  0.5003526E-03  0.1181849E+04  0.7818609E-02  0.9128895E-01
       -2   -1    0    0    0  501  0.00000000000E+00  0.00000000000E+00  0.46928669890E+03  0.46928669891E+03  0.25500000920E-02 0.  1.
        2   -1    0    0  501    0  0.00000000000E+00  0.00000000000E+00 -0.74408985692E+03  0.74408985692E+03  0.25500000920E-02 0. -1.
    10030    2    1    2    0    0  0.00000000000E+00  0.00000000000E+00 -0.27480315801E+03  0.12133765558E+04  0.11818485058E+04 0.  0.
        2    1    3    3  502    0  0.18111578458E+03  0.19516820007E+02 -0.71454344543E+03  0.73739824322E+03  0.25500000920E-02 0. -1.
       -2    1    3    3    0  502 -0.18111578458E+03 -0.19516820007E+02  0.43974028742E+03  0.47597831261E+03  0.25500000920E-02 0.  1.
</event>
<event>
 5   0  0.2926844E-03  0.1197520E+04  0.7818609E-02  0.9115030E-01
        1   -1    0    0  501    0  0.00000000000E+00  0.00000000000E+00  0.47236337598E+03  0.47236337601E+03  0.50400001928E-02 0. -1.
       -1   -1    0    0    0  501  0.00000000000E+00  0.00000000000E+00 -0.75897775741E+03  0.75897775742E+03  0.50400001928E-02 0.  1.
    10030    2    1    2    0    0  0.00000000000E+00  0.00000000000E+00 -0.28661438143E+03  0.12313411334E+04  0.11975195962E+04 0.  0.
        5    1    3    3  502    0  0.68044218709E+02 -0.21768093122E+03  0.42593114113E+03  0.48317122276E+03  0.46999998093E+01 0. -1.
       -5    1    3    3    0  502 -0.68044218709E+02  0.21768093122E+03 -0.71254552256E+03  0.74816991067E+03  0.46999998093E+01 0.  1.
</event>
<event>
 5   0  0.2875848E-03  0.1208953E+04  0.7818609E-02  0.9105056E-01
        1   -1    0    0  501    0  0.00000000000E+00  0.00000000000E+00  0.12250629515E+04  0.12250629515E+04  0.50400001928E-02 0.  1.
       -1   -1    0    0    0  501  0.00000000000E+00  0.00000000000E+00 -0.29826393121E+03  0.29826393125E+03  0.50400001928E-02 0. -1.
    10030    2    1    2    0    0  0.00000000000E+00  0.00000000000E+00  0.92679902028E+03  0.15233268828E+04  0.12089534183E+04 0.  0.
        1    1    3    3  502    0  0.24266916001E+03 -0.40569945014E+03 -0.11271469962E+02  0.47287145307E+03  0.50400001928E-02 0. -1.
       -1    1    3    3    0  502 -0.24266916001E+03  0.40569945014E+03  0.93807049024E+03  0.10504554297E+04  0.50400001928E-02 0.  1.
</event>
<event>
 5   0  0.5003526E-03  0.1195584E+04  0.7818609E-02  0.9116730E-01
       -2   -1    0    0    0  501  0.00000000000E+00  0.00000000000E+00  0.20541318011E+03  0.20541318013E+03  0.25500000920E-02 0.  1.
        2   -1    0    0  501    0  0.00000000000E+00  0.00000000000E+00 -0.17396906543E+04  0.17396906543E+04  0.25500000920E-02 0. -1.
    10030    2    1    2    0    0  0.00000000000E+00  0.00000000000E+00 -0.15342774742E+04  0.19451038344E+04  0.11955841915E+04 0.  0.
        2    1    3    3  502    0  0.28140740416E+02 -0.20612291445E+03 -0.16788988253E+04  0.16917386981E+04  0.25500000920E-02 0. -1.
       -2    1    3    3    0  502 -0.28140740416E+02  0.20612291445E+03  0.14462135106E+03  0.25336513635E+03  0.25500000920E-02 0.  1.
</event>
<event>
 5   0  0.5003526E-03  0.1207948E+04  0.7818609E-02  0.9105928E-01
        2   -1    0    0  501    0  0.00000000000E+00  0.00000000000E+00  0.10733724352E+04  0.10733724352E+04  0.25500000920E-02 0.  1.
       -2   -1    0    0    0  501  0.00000000000E+00  0.00000000000E+00 -0.33984877588E+03  0.33984877589E+03  0.25500000920E-02 0. -1.
    10030    2    1    2    0    0  0.00000000000E+00  0.00000000000E+00  0.73352365936E+03  0.14132212111E+04  0.12079475290E+04 0.  0.
        2    1    3    3  502    0 -0.22406031571E+03  0.56038500729E+03  0.33932622818E+03  0.69237032765E+03  0.25500000920E-02 0. -1.
       -2    1    3    3    0  502  0.22406031571E+03 -0.56038500729E+03  0.39419743118E+03  0.72085088349E+03  0.25500000920E-02 0.  1.
</event>
<event>
 5   0  0.1922125E-03  0.1207906E+04  0.7818609E-02  0.9105965E-01
        3   -1    0    0  501    0  0.00000000000E+00  0.00000000000E+00  0.13962306062E+04  0.13962306099E+04  0.10100000352E+00 0. -1.
       -3   -1    0    0    0  501  0.00000000000E+00  0.00000000000E+00 -0.26124550640E+03  0.26124552593E+03  0.10100000352E+00 0.  1.
    10030    2    1    2    0    0  0.00000000000E+00  0.00000000000E+00  0.11349850998E+04  0.16574761358E+04  0.12079056105E+04 0.  0.
        3    1    3    3  502    0 -0.16016551061E+03 -0.51106789417E+03  0.18446810792E+03  0.56645553778E+03  0.10100000352E+00 0.  1.
       -3    1    3    3    0  502  0.16016551061E+03  0.51106789417E+03  0.95051699191E+03  0.10910205980E+04  0.10100000352E+00 0. -1.
</event>
<event>
 5   0  0.5108045E-03  0.1164472E+04  0.7818609E-02  0.9144535E-01
       -2   -1    0    0    0  501  0.00000000000E+00  0.00000000000E+00  0.46396093597E+03  0.46396093598E+03  0.25500000920E-02 0. -1.
        2   -1    0    0  501    0  0.00000000000E+00  0.00000000000E+00 -0.73066239353E+03  0.73066239353E+03  0.25500000920E-02 0.  1.
    10030    2    1    2    0    0  0.00000000000E+00  0.00000000000E+00 -0.26670145756E+03  0.11946233295E+04  0.11644720829E+04 0.  0.
        3    1    3    3  502    0 -0.20623732095E+03 -0.11072475305E+03  0.41356166254E+03  0.47521264968E+03  0.10100000352E+00 0. -1.
       -3    1    3    3    0  502  0.20623732095E+03  0.11072475305E+03 -0.68026312010E+03  0.71941067983E+03  0.10100000352E+00 0.  1.
</event>
<event>
 5   0  0.2792518E-03  0.1200589E+04  0.7818609E-02  0.9112342E-01
       -1   -1    0    0    0  501  0.00000000000E+00  0.00000000000E+00  0.19726700252E+03  0.19726700259E+03  0.50400001928E-02 0.  1.
        1   -1    0    0  501    0  0.00000000000E+00  0.00000000000E+00 -0.18267283777E+04  0.18267283777E+04  0.50400001928E-02 0. -1.
    10030    2    1    2    0    0  0.00000000000E+00  0.00000000000E+00 -0.16294613752E+04  0.20239953803E+04  0.12005885749E+04 0.  0.
        2    1    3    3  502    0  0.14659824685E+03 -0.55778682101E+03 -0.10954922173E+04  0.12380308485E+04  0.25500000920E-02 0. -1.
       -2    1    3    3    0  502 -0.14659824685E+03  0.55778682101E+03 -0.53396915786E+03  0.78596453178E+03  0.25500000920E-02 0.  1.
</event>
<event>
 5   0  0.2875848E-03  0.1212966E+04  0.7818609E-02  0.9101583E-01
        1   -1    0    0  501    0  0.00000000000E+00  0.00000000000E+00  0.94642030207E+03  0.94642030209E+03  0.50400001928E-02 0.  1.
       -1   -1    0    0    0  501  0.00000000000E+00  0.00000000000E+00 -0.38864490788E+03  0.38864490791E+03  0.50400001928E-02 0. -1.
    10030    2    1    2    0    0  0.00000000000E+00  0.00000000000E+00  0.55777539420E+03  0.13350652100E+04  0.12129656733E+04 0.  0.
        1    1    3    3  502    0 -0.10372720242E+03 -0.31521909706E+03 -0.27985305926E+03  0.43409693212E+03  0.50400001928E-02 0. -1.
       -1    1    3    3    0  502  0.10372720242E+03  0.31521909706E+03  0.83762845346E+03  0.90096827788E+03  0.50400001928E-02 0.  1.
</event>
<event>
 5   0  0.5003526E-03  0.1184453E+04  0.7818609E-02  0.9126575E-01
       -2   -1    0    0    0  501  0.00000000000E+00  0.00000000000E+00  0.41304840082E+03  0.41304840083E+03  0.25500000920E-02 0.  1.
        2   -1    0    0  501    0  0.00000000000E+00  0.00000000000E+00 -0.84913125807E+03  0.84913125808E+03  0.25500000920E-02 0. -1.
    10030    2    1    2    0    0  0.00000000000E+00  0.00000000000E+00 -0.43608285726E+03  0.12621796589E+04  0.11844531367E+04 0.  0.
        2    1    3    3  502    0 -0.32086606116E+03 -0.42523476252E+03  0.57690630233E+02  0.53582445006E+03  0.25500000920E-02 0.  1.
       -2    1    3    3    0  502  0.32086606116E+03  0.42523476252E+03 -0.49377348749E+03  0.72635520884E+03  0.25500000920E-02 0. -1.
</event>
<event>
 5   0  0.5031575E-03  0.1247979E+04  0.7818609E-02  0.9071867E-01
        2   -1    0    0  501    0  0.00000000000E+00  0.00000000000E+00  0.47170812821E+03  0.47170812822E+03  0.25500000920E-02 0. -1.
       -2   -1    0    0    0  501  0.00000000000E+00  0.00000000000E+00 -0.82543245346E+03  0.82543245347E+03  0.25500000920E-02 0.  1.
    10030    2    1    2    0    0  0.00000000000E+00  0.00000000000E+00 -0.35372432525E+03  0.12971405817E+04  0.12479794832E+04 0.  0.
        5    1    3    3  502    0  0.22762268650E+03  0.22635303438E+03 -0.73300354438E+03  0.80022751118E+03  0.46999998093E+01 0.  1.
       -5    1    3    3    0  502 -0.22762268650E+03 -0.22635303438E+03  0.37927921913E+03  0.49691307051E+03  0.46999998093E+01 0. -1.
</event>
<event>
 5   0  0.2792518E-03  0.1192546E+04  0.7818609E-02  0.9119406E-01
        1   -1    0    0  501    0  0.00000000000E+00  0.00000000000E+00  0.59874717651E+03  0.59874717653E+03  0.50400001928E-02 0. -1.
       -1   -1    0    0    0  501  0.00000000000E+00  0.00000000000E+00 -0.59380936844E+03  0.59380936846E+03  0.50400001928E-02 0.  1.
    10030    2    1    2    0    0  0.00000000000E+00  0.00000000000E+00  0.49378080708E+01  0.11925565450E+04  0.11925463224E+04 0.  0.
        2    1    3    3  502    0 -0.32697400338E+03 -0.41943137990E+03  0.27211357379E+03  0.59739474251E+03  0.25500000920E-02 0. -1.
       -2    1    3    3    0  502  0.32697400338E+03  0.41943137990E+03 -0.26717576572E+03  0.59516180248E+03  0.25500000920E-02 0.  1.
</event>
<event>
 5   0  0.2926844E-03  0.1215873E+04  0.7818609E-02  0.9099076E-01
       -1   -1    0    0    0  501  0.00000000000E+00  0.00000000000E+00  0.36295212129E+03  0.36295212132E+03  0.50400001928E-02 0. -1.
        1   -1    0    0  501    0  0.00000000000E+00  0.00000000000E+00 -0.10182790011E+04  0.10182790011E+04  0.50400001928E-02 0.  1.
    10030    2    1    2    0    0  0.00000000000E+00  0.00000000000E+00 -0.65532687977E+03  0.13812311224E+04  0.12158725649E+04 0.  0.
        5    1    3    3  502    0  0.63494656584E+02  0.17010367711E+03 -0.98673687119E+03  0.10033137971E+04  0.46999998093E+01 0.  1.
       -5    1    3    3    0  502 -0.63494656584E+02 -0.17010367711E+03  0.33140999142E+03  0.37791732534E+03  0.46999998093E+01 0. -1.
</event>
<event>
 5   0  0.5189537E-03  0.1162110E+04  0.7818609E-02  0.9146683E-01
       -2   -1    0    0    0  501  0.00000000000E+00  0.00000000000E+00  0.65345625387E+03  0.65345625388E+03  0.25500000920E-02 0. -1.
        2   -1    0    0  501    0  0.00000000000E+00  0.00000000000E+00 -0.51667591265E+03  0.51667591266E+03  0.25500000920E-02 0.  1.
    10030    2    1    2    0    0  0.00000000000E+00  0.00000000000E+00  0.13678034122E+03  0.11701321665E+04  0.11621103327E+04 0.  0.
        4    1    3    3  502    0 -0.42950730550E+03 -0.20674996023E+02  0.46188118553E+03  0.63106245601E+03  0.12699999809E+01 0. -1.
       -4    1    3    3    0  502  0.42950730550E+03  0.20674996023E+02 -0.32510084430E+03  0.53906971052E+03  0.12699999809E+01 0.  1.
</event>
<event>
 5   0  0.2930868E-03  0.1187640E+04  0.7818609E-02  0.9123745E-01
       -1   -1    0    0    0  501  0.00000000000E+00  0.00000000000E+00  0.30905863027E+03  0.30905863031E+03  0.50400001928E-02 0. -1.
        1   -1    0    0  501    0  0.00000000000E+00  0.00000000000E+00 -0.11409556454E+04  0.11409556455E+04  0.50400001928E-02 0.  1.
    10030    2    1    2    0    0  0.00000000000E+00  0.00000000000E+00 -0.83189701517E+03  0.14500142758E+04  0.11876399943E+04 0.  0.
        3    1    3    3  502    0 -0.52664420649E+03  0.15161994381E+03 -0.13678864629E+03  0.56484853859E+03  0.10100000352E+00 0.  1.
       -3    1    3    3    0  502  0.52664420649E+03 -0.15161994381E+03 -0.69510836888E+03  0.88516573718E+03  0.10100000352E+00 0. -1.
</event>
<event>
 5   0  0.2792518E-03  0.1208987E+04  0.7818609E-02  0.9105027E-01
        1   -1    0    0  501    0  0.00000000000E+00  0.00000000000E+00  0.17335638615E+04  0.17335638615E+04  0.50400001928E-02 0.  1.
       -1   -1    0    0    0  501  0.00000000000E+00  0.00000000000E+00 -0.21078666086E+03  0.21078666092E+03  0.50400001928E-02 0. -1.
    10030    2    1    2    0    0  0.00000000000E+00  0.00000000000E+00  0.15227772007E+04  0.19443505225E+04  0.12089865803E+04 0.  0.
        2    1    3    3  502    0 -0.28209861939E+03  0.53063067928E+03  0.65637616125E+03  0.88993157822E+03  0.25500000920E-02 0. -1.
       -2    1    3    3    0  502  0.28209861939E+03 -0.53063067928E+03  0.86640103943E+03  0.10544189442E+04  0.25500000920E-02 0.  1.
</event>
<event>
 5   0  0.5003526E-03  0.1094336E+04  0.7818609E-02  0.9210730E-01
        2   -1    0    0  501    0  0.00000000000E+00  0.00000000000E+00  0.57403376448E+03  0.57403376448E+03  0.25500000920E-02 0.  1.
       -2   -1    0    0    0  501  0.00000000000E+00  0.00000000000E+00 -0.52155938655E+03  0.52155938656E+03  0.25500000920E-02 0. -1.
    10030    2    1    2    0    0  0.00000000000E+00  0.00000000000E+00  0.52474377925E+02  0.10955931510E+04  0.10943357767E+04 0.  0.
        2    1    3    3  502    0 -0.31377657147E+03 -0.18050076127E+03  0.43702123977E+03  0.56747143156E+03  0.25500000920E-02 0.  1.
       -2    1    3    3    0  502  0.31377657147E+03  0.18050076127E+03 -0.38454686185E+03  0.52812171948E+03  0.25500000920E-02 0. -1.
</event>
<event>
 5   0  0.5031575E-03  0.1160403E+04  0.7818609E-02  0.9148240E-01
       -2   -1    0    0    0  501  0.00000000000E+00  0.00000000000E+00  0.34724438687E+03  0.34724438688E+03  0.25500000920E-02 0.  1.
        2   -1    0    0  501    0  0.00000000000E+00  0.00000000000E+00 -0.96944284421E+03  0.96944284421E+03  0.25500000920E-02 0. -1.
    10030    2    1    2    0    0  0.00000000000E+00  0.00000000000E+00 -0.62219845734E+03  0.13166872311E+04  0.11604026647E+04 0.  0.
        5    1    3    3  502    0 -0.49976714145E+03  0.24003427192E+03 -0.50508609683E+03  0.75001180163E+03  0.46999998093E+01 0. -1.
       -5    1    3    3    0  502  0.49976714145E+03 -0.24003427192E+03 -0.11711236051E+03  0.56667542946E+03  0.46999998093E+01 0.  1.
</event>
<event>
 5   0  0.2938349E-03  0.1206107E+04  0.7818609E-02  0.9107528E-01
        1   -1    0    0  501    0  0.00000000000E+00  0.00000000000E+00  0.13563510905E+04  0.13563510905E+04  0.50400001928E-02 0. -1.
       -1   -1    0    0    0  501  0.00000000000E+00  0.00000000000E+00 -0.26812617915E+03  0.26812617920E+03  0.50400001928E-02 0.  1.
    10030    2    1    2    0    0  0.00000000000E+00  0.00000000000E+00  0.10882249113E+04  0.16244772697E+04  0.12061065219E+04 0.  0.
        4    1    3    3  502    0 -0.41612955097E+03 -0.34831186679E+03  0.89838636099E+03  0.10495640172E+04  0.12699999809E+01 0. -1.
       -4    1    3    3    0  502  0.41612955097E+03  0.34831186679E+03  0.18983855032E+03  0.57491325244E+03  0.12699999809E+01 0.  1.
</event>
<event>
 5   0  0.5031575E-03  0.1158792E+04  0.7818609E-02  0.9149711E-01
       -2   -1    0    0    0  501  0.00000000000E+00  0.00000000000E+00  0.42575284410E+03  0.42575284411E+03  0.25500000920E-02 0. -1.
        2   -1    0    0  501    0  0.00000000000E+00  0.00000000000E+00 -0.78848500211E+03  0.78848500212E+03  0.25500000920E-02 0.  1.
    10030    2    1    2    0    0  0.00000000000E+00  0.00000000000E+00 -0.36273215801E+03  0.12142378462E+04  0.11587920127E+04 0.  0.
        5    1    3    3  502    0 -0.51735555270E+03  0.17965417599E+03 -0.37947655872E+03  0.66630093762E+03  0.46999998093E+01 0.  1.
       -5    1    3    3    0  502  0.51735555270E+03 -0.17965417599E+03  0.16744400712E+02  0.54793690860E+03  0.46999998093E+01 0. -1.
</event>
<event>
 5   0  0.2930868E-03  0.1200799E+04  0.7818609E-02  0.9112157E-01
        1   -1    0    0  501    0  0.00000000000E+00  0.00000000000E+00  0.83358066703E+03  0.83358066704E+03  0.50400001928E-02 0. -1.
       -1   -1    0    0    0  501  0.00000000000E+00  0.00000000000E+00 -0.43244735543E+03  0.43244735546E+03  0.50400001928E-02 0.  1.
    10030    2    1    2    0    0  0.00000000000E+00  0.00000000000E+00  0.40113331159E+03  0.12660280225E+04  0.12007993255E+04 0.  0.
        3    1    3    3  502    0  0.42081262797E+03  0.42770774527E+03  0.22324219759E+03  0.64019861934E+03  0.10100000352E+00 0.  1.
       -3    1    3    3    0  502 -0.42081262797E+03 -0.42770774527E+03  0.17789111400E+03  0.62582940316E+03  0.10100000352E+00 0. -1.
</event>
<event>
 5   0  0.5003526E-03  0.1213533E+04  0.7818609E-02  0.9101093E-01
        2   -1    0    0  501    0  0.00000000000E+00  0.00000000000E+00  0.12092808058E+04  0.12092808058E+04  0.25500000920E-02 0. -1.
       -2   -1    0    0    0  501  0.00000000000E+00  0.00000000000E+00 -0.30445001428E+03  0.30445001429E+03  0.25500000920E-02 0.  1.
    10030    2    1    2    0    0  0.00000000000E+00  0.00000000000E+00  0.90483079154E+03  0.15137308201E+04  0.12135329556E+04 0.  0.
        2    1    3    3  502    0 -0.19305525127E+03 -0.11764261025E+03 -0.24995255506E+03  0.33702580551E+03  0.25500000920E-02 0.  1.
       -2    1    3    3    0  502  0.19305525127E+03  0.11764261025E+03  0.11547833466E+04  0.11767050146E+04  0.25500000920E-02 0. -1.
</event>
<event>
 5   0  0.5108045E-03  0.1195988E+04  0.7818609E-02  0.9116375E-01
        2   -1    0    0  501    0  0.00000000000E+00  0.00000000000E+00  0.93661967343E+03  0.93661967343E+03  0.25500000920E-02 0.  1.
       -2   -1    0    0    0  501  0.00000000000E+00  0.00000000000E+00 -0.38179525574E+03  0.38179525575E+03  0.25500000920E-02 0. -1.
    10030    2    1    2    0    0  0.00000000000E+00  0.00000000000E+00  0.55482441769E+03  0.13184149292E+04  0.11959882069E+04 0.  0.
        3    1    3    3  502    0 -0.13420598092E+03  0.22906894067E+03  0.86809147765E+03  0.90778116783E+03  0.10100000352E+00 0.  1.
       -3    1    3    3    0  502  0.13420598092E+03 -0.22906894067E+03 -0.31326705997E+03  0.41063376135E+03  0.10100000352E+00 0. -1.
</event>
<event>
 5   0  0.5467554E-03  0.1195743E+04  0.7818609E-02  0.9116591E-01
       -2   -1    0    0    0  501  0.00000000000E+00  0.00000000000E+00  0.49487853209E+03  0.49487853209E+03  0.25500000920E-02 0.  1.
        2   -1    0    0  501    0  0.00000000000E+00  0.00000000000E+00 -0.72229920573E+03  0.72229920573E+03  0.25500000920E-02 0. -1.
    10030    2    1    2    0    0  0.00000000000E+00  0.00000000000E+00 -0.22742067364E+03  0.12171777378E+04  0.11957430672E+04 0.  0.
        1    1    3    3  502    0 -0.17635514523E+03 -0.16576233194E+03  0.44278150758E+03  0.50461247648E+03  0.50400001928E-02 0.  1.
       -1    1    3    3    0  502  0.17635514523E+03  0.16576233194E+03 -0.67020218122E+03  0.71256526135E+03  0.50400001928E-02 0. -1.
</event>
<event>
 5   0  0.2875848E-03  0.1182892E+04  0.7818609E-02  0.9127964E-01
        1   -1    0    0  501    0  0.00000000000E+00  0.00000000000E+00  0.76563309224E+03  0.76563309226E+03  0.50400001928E-02 0.  1.
       -1   -1    0    0    0  501  0.00000000000E+00  0.00000000000E+00 -0.45688792218E+03  0.45688792221E+03  0.50400001928E-02 0. -1.
    10030    2    1    2    0    0  0.00000000000E+00  0.00000000000E+00  0.30874517006E+03  0.12225210145E+04  0.11828922397E+04 0.  0.
        1    1    3    3  502    0 -0.15486078375E+03  0.21127193096E+03 -0.39366673748E+03  0.47285430249E+03  0.50400001928E-02 0. -1.
       -1    1    3    3    0  502  0.15486078375E+03 -0.21127193096E+03  0.70241190754E+03  0.74966671197E+03  0.50400001928E-02 0.  1.
</event>
<event>
 5   0  0.5108045E-03  0.1204773E+04  0.7818609E-02  0.9108689E-01
        2   -1    0    0  501    0  0.00000000000E+00  0.00000000000E+00  0.10079260567E+04  0.10079260567E+04  0.25500000920E-02 0. -1.
       -2   -1    0    0    0  501  0.00000000000E+00  0.00000000000E+00 -0.36001581589E+03  0.36001581590E+03  0.25500000920E-02 0.  1.
    10030    2    1    2    0    0  0.00000000000E+00  0.00000000000E+00  0.64791024079E+03  0.13679418726E+04  0.12047727116E+04 0.  0.
        3    1    3    3  502    0  0.19616203743E+03 -0.29970331083E+03  0.87387145331E+03  0.94443260562E+03  0.10100000352E+00 0. -1.
       -3    1    3    3    0  502 -0.19616203743E+03  0.29970331083E+03 -0.22596121251E+03  0.42350926698E+03  0.10100000352E+00 0.  1.
</event>
<event>
 5   0  0.2938349E-03  0.1271790E+04  0.7818609E-02  0.9052240E-01
        1   -1    0    0  501    0  0.00000000000E+00  0.00000000000E+00  0.17769687849E+04  0.17769687849E+04  0.50400001928E-02 0.  1.
       -1   -1    0    0    0  501  0.00000000000E+00  0.00000000000E+00 -0.22755728710E+03  0.22755728716E+03  0.50400001928E-02 0. -1.
    10030    2    1    2    0    0  0.00000000000E+00  0.00000000000E+00  0.15494114978E+04  0.20045260721E+04  0.12717895990E+04 0.  0.
        4    1    3    3  502    0  0.62816040880E+03 -0.97756909723E+02  0.79801302800E+03  0.10202785494E+04  0.12699999809E+01 0. -1.
       -4    1    3    3    0  502 -0.62816040880E+03  0.97756909723E+02  0.75139846982E+03  0.98424752270E+03  0.12699999809E+01 0.  1.
</event>
<event>
 5   0  0.5031575E-03  0.1165092E+04  0.7818609E-02  0.9143972E-01
       -2   -1    0    0    0  501  0.00000000000E+00  0.00000000000E+00  0.55953507530E+03  0.55953507530E+03  0.25500000920E-02 0. -1.
        2   -1    0    0  501    0  0.00000000000E+00  0.00000000000E+00 -0.60650355300E+03  0.60650355301E+03  0.25500000920E-02 0.  1.
    10030    2    1    2    0    0  0.00000000000E+00  0.00000000000E+00 -0.46968477703E+02  0.11660386283E+04  0.11650922903E+04 0.  0.
        5    1    3    3  502    0 -0.34623825150E+03  0.17059206823E+03  0.41316744823E+03  0.56543081877E+03  0.46999998093E+01 0. -1.
       -5    1    3    3    0  502  0.34623825150E+03 -0.17059206823E+03 -0.46013592593E+03  0.60060780954E+03  0.46999998093E+01 0.  1.
</event>
<event>
 5   0  0.2938349E-03  0.1213577E+04  0.7818609E-02  0.9101055E-01
       -1   -1    0    0    0  501  0.00000000000E+00  0.00000000000E+00  0.15546630681E+03  0.15546630689E+03  0.50400001928E-02 0. -1.
        1   -1    0    0  501    0  0.00000000000E+00  0.00000000000E+00 -0.23683089962E+04  0.23683089962E+04  0.50400001928E-02 0.  1.
    10030    2    1    2    0    0  0.00000000000E+00  0.00000000000E+00 -0.22128426894E+04  0.25237753031E+04  0.12135769496E+04 0.  0.
        4    1    3    3  502    0  0.33046465676E+02  0.27361044690E+03  0.17795650402E+02  0.27617574770E+03  0.12699999809E+01 0. -1.
       -4    1    3    3    0  502 -0.33046465676E+02 -0.27361044690E+03 -0.22306383398E+04  0.22475995554E+04  0.12699999809E+01 0.  1.
</event>
<event>
 5   0  0.2930868E-03  0.1171598E+04  0.7818609E-02  0.9138086E-01
        1   -1    0    0  501    0  0.00000000000E+00  0.00000000000E+00  0.66600276032E+03  0.66600276034E+03  0.50400001928E-02 0.  1.
       -1   -1    0    0    0  501  0.00000000000E+00  0.00000000000E+00 -0.51525416328E+03  0.51525416331E+03  0.50400001928E-02 0. -1.
    10030    2    1    2    0    0  0.00000000000E+00  0.00000000000E+00  0.15074859704E+03  0.11812569236E+04  0.11715983869E+04 0.  0.
        3    1    3    3  502    0  0.14725107861E+03 -0.30782447123E+03  0.55545288806E+03  0.65189470492E+03  0.10100000352E+00 0.  1.
       -3    1    3    3    0  502 -0.14725107861E+03  0.30782447123E+03 -0.40470429103E+03  0.52936221873E+03  0.10100000352E+00 0. -1.
</event>
<event>
 5   0  0.5108045E-03  0.1238528E+04  0.7818609E-02  0.9079785E-01
        2   -1    0    0  501    0  0.00000000000E+00  0.00000000000E+00  0.58631823688E+03  0.58631823688E+03  0.25500000920E-02 0.  1.
       -2   -1    0    0    0  501  0.00000000000E+00  0.00000000000E+00 -0.65406148821E+03  0.65406148822E+03  0.25500000920E-02 0. -1.
    10030    2    1    2    0    0  0.00000000000E+00  0.00000000000E+00 -0.67743251335E+02  0.12403797251E+04  0.12385284471E+04 0.  0.
        3    1    3    3  502    0 -0.42008084699E+03  0.44169701104E+03  0.75488668837E+02  0.61421715777E+03  0.10100000352E+00 0.  1.
       -3    1    3    3    0  502  0.42008084699E+03 -0.44169701104E+03 -0.14323192017E+03  0.62616256733E+03  0.10100000352E+00 0. -1.
</event>
<event>
 5   0  0.5189537E-03  0.1213150E+04  0.7818609E-02  0.9101424E-01
        2   -1    0    0  501    0  0.00000000000E+00  0.00000000000E+00  0.15336546266E+04  0.15336546266E+04  0.25500000920E-02 0.  1.
       -2   -1    0    0    0  501  0.00000000000E+00  0.00000000000E+00 -0.23990622390E+03  0.23990622391E+03  0.25500000920E-02 0. -1.
    10030    2    1    2    0    0  0.00000000000E+00  0.00000000000E+00  0.12937484027E+04  0.17735608505E+04  0.12131500983E+04 0.  0.
        4    1    3    3  502    0 -0.33659696366E+03  0.49902263597E+03  0.53736892234E+03  0.80690029047E+03  0.12699999809E+01 0.  1.
       -4    1    3    3    0  502  0.33659696366E+03 -0.49902263597E+03  0.75637948037E+03  0.96666056006E+03  0.12699999809E+01 0. -1.
</event>
<event>
 5   0  0.5108045E-03  0.1201243E+04  0.7818609E-02  0.9111769E-01
        2   -1    0    0  501    0  0.00000000000E+00  0.00000000000E+00  0.15568579295E+04  0.15568579295E+04  0.25500000920E-02 0.  1.
       -2   -1    0    0    0  501  0.00000000000E+00  0.00000000000E+00 -0.23171418662E+03  0.23171418663E+03  0.25500000920E-02 0. -1.
    10030    2    1    2    0    0  0.00000000000E+00  0.00000000000E+00  0.13251437429E+04  0.17885721161E+04  0.12012428045E+04 0.  0.
        3    1    3    3  502    0 -0.12035168567E+03  0.51555479790E+03  0.24021596427E+03  0.58136477152E+03  0.10100000352E+00 0. -1.
       -3    1    3    3    0  502  0.12035168567E+03 -0.51555479790E+03  0.10849277786E+04  0.12072073446E+04  0.10100000352E+00 0.  1.
</event>
<event>
 5   0  0.2938349E-03  0.1198926E+04  0.7818609E-02  0.9113797E-01
        1   -1    0    0  501    0  0.00000000000E+00  0.00000000000E+00  0.11251138104E+04  0.11251138104E+04  0.50400001928E-02 0. -1.
       -1   -1    0    0    0  501  0.00000000000E+00  0.00000000000E+00 -0.31939517477E+03  0.31939517481E+03  0.50400001928E-02 0.  1.
    10030    2    1    2    0    0  0.00000000000E+00  0.00000000000E+00  0.80571863560E+03  0.14445089852E+04  0.11989260563E+04 0.  0.
        4    1    3    3  502    0 -0.77372712863E+02 -0.41672976946E+03 -0.10788883845E+03  0.43736923968E+03  0.12699999809E+01 0.  1.
       -4    1    3    3    0  502  0.77372712863E+02  0.41672976946E+03  0.91360747404E+03  0.10071397455E+04  0.12699999809E+01 0. -1.
</event>
<event>
 5   0  0.2792518E-03  0.1214831E+04  0.7818609E-02  0.9099973E-01
       -1   -1    0    0    0  501  0.00000000000E+00  0.00000000000E+00  0.68952221196E+03  0.68952221198E+03  0.50400001928E-02 0.  1.
        1   -1    0    0  501    0  0.00000000000E+00  0.00000000000E+00 -0.53508576121E+03  0.53508576124E+03  0.50400001928E-02 0. -1.
    10030    2    1    2    0    0  0.00000000000E+00  0.00000000000E+00  0.15443645075E+03  0.12246079732E+04  0.12148308815E+04 0.  0.
        2    1    3    3  502    0 -0.43827008596E+03 -0.25540624477E+03  0.41403378415E+03  0.65478011006E+03  0.25500000920E-02 0.  1.
       -2    1    3    3    0  502  0.43827008596E+03  0.25540624477E+03 -0.25959733340E+03  0.56982786315E+03  0.25500000920E-02 0. -1.
</event>
<event>
 5   0  0.5031575E-03  0.1191698E+04  0.7818609E-02  0.9120155E-01
       -2   -1    0    0    0  501  0.00000000000E+00  0.00000000000E+00  0.13053439702E+04  0.13053439702E+04  0.25500000920E-02 0.  1.
        2   -1    0    0  501    0  0.00000000000E+00  0.00000000000E+00 -0.27198648955E+03  0.27198648956E+03  0.25500000920E-02 0. -1.
    10030    2    1    2    0    0  0.00000000000E+00  0.00000000000E+00  0.10333574806E+04  0.15773304597E+04  0.11916978209E+04 0.  0.
        5    1    3    3  502    0 -0.22132087279E+03 -0.54817418326E+03  0.61515995934E+03  0.85318329185E+03  0.46999998093E+01 0. -1.
       -5    1    3    3    0  502  0.22132087279E+03  0.54817418326E+03  0.41819752128E+03  0.72414716787E+03  0.46999998093E+01 0.  1.
</event>
<event>
 5   0  0.2875848E-03  0.1207911E+04  0.7818609E-02  0.9105960E-01
       -1   -1    0    0    0  501  0.00000000000E+00  0.00000000000E+00  0.72322593165E+03  0.72322593166E+03  0.50400001928E-02 0.  1.
        1   -1    0    0  501    0  0.00000000000E+00  0.00000000000E+00 -0.50435489514E+03  0.50435489516E+03  0.50400001928E-02 0. -1.
    10030    2    1    2    0    0  0.00000000000E+00  0.00000000000E+00  0.21887103651E+03  0.12275808268E+04  0.12079114851E+04 0.  0.
        1    1    3    3  502    0  0.52581095573E+03 -0.21174428260E+03 -0.10240477052E+03  0.57602043317E+03  0.50400001928E-02 0. -1.
       -1    1    3    3    0  502 -0.52581095573E+03  0.21174428260E+03  0.32127580703E+03  0.65156039366E+03  0.50400001928E-02 0.  1.
</event>
<event>
 5   0  0.5108045E-03  0.1161178E+04  0.7818609E-02  0.9147533E-01
        2   -1    0    0  501    0  0.00000000000E+00  0.00000000000E+00  0.12372745179E+04  0.12372745179E+04  0.25500000920E-02 0.  1.
       -2   -1    0    0    0  501  0.00000000000E+00  0.00000000000E+00 -0.27244046768E+03  0.27244046769E+03  0.25500000920E-02 0. -1.
    10030    2    1    2    0    0  0.00000000000E+00  0.00000000000E+00  0.96483405023E+03  0.15097149856E+04  0.11611781058E+04 0.  0.
        3    1    3    3  502    0  0.44550656277E+02  0.14013384724E+03  0.12126630948E+04  0.12215457616E+04  0.10100000352E+00 0.  1.
       -3    1    3    3    0  502 -0.44550656277E+02 -0.14013384724E+03 -0.24782904456E+03  0.28816922397E+03  0.10100000352E+00 0. -1.
</event>
<event>
 5   0  0.2792518E-03  0.1195812E+04  0.7818609E-02  0.9116531E-01
        1   -1    0    0  501    0  0.00000000000E+00  0.00000000000E+00  0.12140698731E+04  0.12140698731E+04  0.50400001928E-02 0.  1.
       -1   -1    0    0    0  501  0.00000000000E+00  0.00000000000E+00 -0.29445695018E+03  0.29445695023E+03  0.50400001928E-02 0. -1.
    10030    2    1    2    0    0  0.00000000000E+00  0.00000000000E+00  0.91961292293E+03  0.15085268233E+04  0.11958115440E+04 0.  0.
        2    1    3    3  502    0  0.16237987494E+03  0.48796587319E+03  0.84454265457E+03  0.98880241332E+03  0.25500000920E-02 0.  1.
       -2    1    3    3    0  502 -0.16237987494E+03 -0.48796587319E+03  0.75070268357E+02  0.51972441003E+03  0.25500000920E-02 0. -1.
</event>
<event>
 5   0  0.2938349E-03  0.1329468E+04  0.7818609E-02  0.9006518E-01
        1   -1    0    0  501    0  0.00000000000E+00  0.00000000000E+00  0.74389533658E+03  0.74389533660E+03  0.50400001928E-02 0. -1.
       -1   -1    0    0    0  501  0.00000000000E+00  0.00000000000E+00 -0.59399673192E+03  0.59399673194E+03  0.50400001928E-02 0.  1.
    10030    2    1    2    0    0  0.00000000000E+00  0.00000000000E+00  0.14989860466E+03  0.13378920685E+04  0.13294681626E+04 0.  0.
        4    1    3    3  502    0 -0.48406598837E+03 -0.14820721066E+03  0.50847417603E+03  0.71751854261E+03  0.12699999809E+01 0. -1.
       -4    1    3    3    0  502  0.48406598837E+03  0.14820721066E+03 -0.35857557137E+03  0.62037352593E+03  0.12699999809E+01 0.  1.
</event>
<event>
 5   0  0.1922125E-03  0.9890516E+03  0.7818609E-02  0.9320635E-01
       -3   -1    0    0    0  501  0.00000000000E+00  0.00000000000E+00  0.19508780186E+03  0.19508782800E+03  0.10100000352E+00 0.  1.
        3   -1    0    0  501    0  0.00000000000E+00  0.00000000000E+00 -0.12535676700E+04  0.12535676741E+04  0.10100000352E+00 0. -1.
    10030    2    1    2    0    0  0.00000000000E+00  0.00000000000E+00 -0.10584798681E+04  0.14486555021E+04  0.98905163284E+03 0.  0.
        4    1    3    3  502    0 -0.17948328764E+03  0.10177788694E+03  0.12902634786E+03  0.24335652889E+03  0.12699999809E+01 0.  1.
       -4    1    3    3    0  502  0.17948328764E+03 -0.10177788694E+03 -0.11875062160E+04  0.12052989732E+04  0.12699999809E+01 0. -1.
</event>
<event>
 5   0  0.5189537E-03  0.1200441E+04  0.7818609E-02  0.9112471E-01
       -2   -1    0    0    0  501  0.00000000000E+00  0.00000000000E+00  0.70334071015E+03  0.70334071015E+03  0.25500000920E-02 0. -1.
        2   -1    0    0  501    0  0.00000000000E+00  0.00000000000E+00 -0.51221906749E+03  0.51221906749E+03  0.25500000920E-02 0.  1.
    10030    2    1    2    0    0  0.00000000000E+00  0.00000000000E+00  0.19112164266E+03  0.12155597776E+04  0.12004407902E+04 0.  0.
        4    1    3    3  502    0  0.14448299338E+03 -0.37896886830E+03  0.54359261855E+03  0.67822362563E+03  0.12699999809E+01 0. -1.
       -4    1    3    3    0  502 -0.14448299338E+03  0.37896886830E+03 -0.35247097589E+03  0.53733615202E+03  0.12699999809E+01 0.  1.
</event>
<event>
 5   0  0.2926844E-03  0.1189056E+04  0.7818609E-02  0.9122490E-01
       -1   -1    0    0    0  501  0.00000000000E+00  0.00000000000E+00  0.58065403602E+03  0.58065403604E+03  0.50400001928E-02 0.  1.
        1   -1    0    0  501    0  0.00000000000E+00  0.00000000000E+00 -0.60873310683E+03  0.60873310685E+03  0.50400001928E-02 0. -1.
    10030    2    1    2    0    0  0.00000000000E+00  0.00000000000E+00 -0.28079070807E+02  0.11893871429E+04  0.11890556511E+04 0.  0.
        5    1    3    3  502    0  0.23548248336E+03  0.19288562312E+03  0.49677335401E+03  0.58263429253E+03  0.46999998093E+01 0.  1.
       -5    1    3    3    0  502 -0.23548248336E+03 -0.19288562312E+03 -0.52485242482E+03  0.60675285036E+03  0.46999998093E+01 0. -1.
</event>
<event>
 5   0  0.5003526E-03  0.1201726E+04  0.7818609E-02  0.9111348E-01
       -2   -1    0    0    0  501  0.00000000000E+00  0.00000000000E+00  0.41251986982E+03  0.41251986982E+03  0.25500000920E-02 0. -1.
        2   -1    0    0  501    0  0.00000000000E+00  0.00000000000E+00 -0.87519680030E+03  0.87519680031E+03  0.25500000920E-02 0.  1.
    10030    2    1    2    0    0  0.00000000000E+00  0.00000000000E+00 -0.46267693049E+03  0.12877166701E+04  0.12017255429E+04 0.  0.
        2    1    3    3  502    0 -0.21062061809E+03  0.51406756179E+03  0.13974392941E+02  0.55571736208E+03  0.25500000920E-02 0. -1.
       -2    1    3    3    0  502  0.21062061809E+03 -0.51406756179E+03 -0.47665132343E+03  0.73199930805E+03  0.25500000920E-02 0.  1.
</event>
<event>
 5   0  0.2938349E-03  0.1197230E+04  0.7818609E-02  0.9115284E-01
        1   -1    0    0  501    0  0.00000000000E+00  0.00000000000E+00  0.11420769884E+04  0.11420769884E+04  0.50400001928E-02 0. -1.
       -1   -1    0    0    0  501  0.00000000000E+00  0.00000000000E+00 -0.31376166031E+03  0.31376166035E+03  0.50400001928E-02 0.  1.
    10030    2    1    2    0    0  0.00000000000E+00  0.00000000000E+00  0.82831532810E+03  0.14558386488E+04  0.11972300900E+04 0.  0.
        4    1    3    3  502    0  0.49674339604E+02 -0.38872587906E+03 -0.13609401169E+03  0.41484761297E+03  0.12699999809E+01 0.  1.
       -4    1    3    3    0  502 -0.49674339604E+02  0.38872587906E+03  0.96440933979E+03  0.10409910358E+04  0.12699999809E+01 0. -1.
</event>
<event>
 5   0  0.2875848E-03  0.1329408E+04  0.7818609E-02  0.9006564E-01
       -1   -1    0    0    0  501  0.00000000000E+00  0.00000000000E+00  0.26929718618E+03  0.26929718623E+03  0.50400001928E-02 0.  1.
        1   -1    0    0  501    0  0.00000000000E+00  0.00000000000E+00 -0.16406836609E+04  0.16406836609E+04  0.50400001928E-02 0. -1.
    10030    2    1    2    0    0  0.00000000000E+00  0.00000000000E+00 -0.13713864748E+04  0.19099808472E+04  0.13294081290E+04 0.  0.
        1    1    3    3  502    0 -0.53364737427E+03  0.19990094731E+03 -0.11773177442E+04  0.13079820257E+04  0.50400001928E-02 0. -1.
       -1    1    3    3    0  502  0.53364737427E+03 -0.19990094731E+03 -0.19406873055E+03  0.60199882143E+03  0.50400001928E-02 0.  1.
</event>
<event>
 5   0  0.5003526E-03  0.1263110E+04  0.7818609E-02  0.9059342E-01
        2   -1    0    0  501    0  0.00000000000E+00  0.00000000000E+00  0.11631811035E+04  0.11631811035E+04  0.25500000920E-02 0. -1.
       -2   -1    0    0    0  501  0.00000000000E+00  0.00000000000E+00 -0.34290585797E+03  0.34290585798E+03  0.25500000920E-02 0.  1.
    10030    2    1    2    0    0  0.00000000000E+00  0.00000000000E+00  0.82027524551E+03  0.15060869615E+04  0.12631098357E+04 0.  0.
        2    1    3    3  502    0  0.10755265818E+03  0.19164602183E+03  0.11161197894E+04  0.11375496281E+04  0.25500000920E-02 0. -1.
       -2    1    3    3    0  502 -0.10755265818E+03 -0.19164602183E+03 -0.29584454389E+03  0.36853733342E+03  0.25500000920E-02 0.  1.
</event>
<event>
 5   0  0.5467554E-03  0.1199239E+04  0.7818609E-02  0.9113523E-01
       -2   -1    0    0    0  501  0.00000000000E+00  0.00000000000E+00  0.11634331047E+03  0.11634331050E+03  0.25500000920E-02 0.  1.
        2   -1    0    0  501    0  0.00000000000E+00  0.00000000000E+00 -0.30903646295E+04  0.30903646295E+04  0.25500000920E-02 0. -1.
    10030    2    1    2    0    0  0.00000000000E+00  0.00000000000E+00 -0.29740213191E+04  0.32067079400E+04  0.11992385111E+04 0.  0.
        1    1    3    3  502    0 -0.39097777666E+03 -0.44897149517E+03 -0.16780482359E+04  0.17805293896E+04  0.50400001928E-02 0. -1.
       -1    1    3    3    0  502  0.39097777666E+03  0.44897149517E+03 -0.12959730832E+04  0.14261785504E+04  0.50400001928E-02 0.  1.
</event>
<event>
 5   0  0.2792518E-03  0.1247751E+04  0.7818609E-02  0.9072057E-01
       -1   -1    0    0    0  501  0.00000000000E+00  0.00000000000E+00  0.45281287314E+03  0.45281287316E+03  0.50400001928E-02 0. -1.
        1   -1    0    0  501    0  0.00000000000E+00  0.00000000000E+00 -0.85956209411E+03  0.85956209412E+03  0.50400001928E-02 0.  1.
    10030    2    1    2    0    0  0.00000000000E+00  0.00000000000E+00 -0.40674922097E+03  0.13123749673E+04  0.12477512276E+04 0.  0.
        2    1    3    3  502    0  0.17733797553E+03  0.11574945003E+03 -0.82060196577E+03  0.84748703765E+03  0.25500000920E-02 0.  1.
       -2    1    3    3    0  502 -0.17733797553E+03 -0.11574945003E+03  0.41385274480E+03  0.46488792964E+03  0.25500000920E-02 0. -1.
</event>
<event>
 5   0  0.2875848E-03  0.1205606E+04  0.7818609E-02  0.9107963E-01
        1   -1    0    0  501    0  0.00000000000E+00  0.00000000000E+00  0.43289684764E+03  0.43289684767E+03  0.50400001928E-02 0. -1.
       -1   -1    0    0    0  501  0.00000000000E+00  0.00000000000E+00 -0.83939540620E+03  0.83939540621E+03  0.50400001928E-02 0.  1.
    10030    2    1    2    0    0  0.00000000000E+00  0.00000000000E+00 -0.40649855855E+03  0.12722922539E+04  0.12056062795E+04 0.  0.
        1    1    3    3  502    0 -0.53783337804E+03 -0.27211119890E+03 -0.21158412752E+03  0.63880911871E+03  0.50400001928E-02 0.  1.
       -1    1    3    3    0  502  0.53783337804E+03  0.27211119890E+03 -0.19491443103E+03  0.63348313518E+03  0.50400001928E-02 0. -1.
</event>
<event>
 5   0  0.2875848E-03  0.1261948E+04  0.7818609E-02  0.9060298E-01
        1   -1    0    0  501    0  0.00000000000E+00  0.00000000000E+00  0.12156691361E+04  0.12156691361E+04  0.50400001928E-02 0.  1.
       -1   -1    0    0    0  501  0.00000000000E+00  0.00000000000E+00 -0.32749691907E+03  0.32749691911E+03  0.50400001928E-02 0. -1.
    10030    2    1    2    0    0  0.00000000000E+00  0.00000000000E+00  0.88817221700E+03  0.15431660552E+04  0.12619475373E+04 0.  0.
        1    1    3    3  502    0 -0.56829836305E+02 -0.11953160870E+03  0.11985035519E+04  0.12057894508E+04  0.50400001928E-02 0.  1.
       -1    1    3    3    0  502  0.56829836305E+02  0.11953160870E+03 -0.31033133487E+03  0.33737660440E+03  0.50400001928E-02 0. -1.
</event>
<event>
 5   0  0.5189537E-03  0.1205852E+04  0.7818609E-02  0.9107750E-01
        2   -1    0    0  501    0  0.00000000000E+00  0.00000000000E+00  0.44572646816E+03  0.44572646816E+03  0.25500000920E-02 0. -1.
       -2   -1    0    0    0  501  0.00000000000E+00  0.00000000000E+00 -0.81556673256E+03  0.81556673256E+03  0.25500000920E-02 0.  1.
    10030    2    1    2    0    0  0.00000000000E+00  0.00000000000E+00 -0.36984026440E+03  0.12612932007E+04  0.12058518636E+04 0.  0.
        4    1    3    3  502    0 -0.19544498314E+03 -0.44048452235E+03 -0.56392291853E+03  0.74177896088E+03  0.12699999809E+01 0.  1.
       -4    1    3    3    0  502  0.19544498314E+03  0.44048452235E+03  0.19408265412E+03  0.51951423984E+03  0.12699999809E+01 0. -1.
</event>
<event>
 5   0  0.2930868E-03  0.1208682E+04  0.7818609E-02  0.9105291E-01
       -1   -1    0    0    0  501  0.00000000000E+00  0.00000000000E+00  0.41180208155E+03  0.41180208159E+03  0.50400001928E-02 0.  1.
        1   -1    0    0  501    0  0.00000000000E+00  0.00000000000E+00 -0.88690251754E+03  0.88690251755E+03  0.50400001928E-02 0. -1.
    10030    2    1    2    0    0  0.00000000000E+00  0.00000000000E+00 -0.47510043598E+03  0.12987045991E+04  0.12086824279E+04 0.  0.
        3    1    3    3  502    0  0.44127945325E+03  0.32108537218E+03  0.41411090152E+02  0.54730088679E+03  0.10100000352E+00 0.  1.
       -3    1    3    3    0  502 -0.44127945325E+03 -0.32108537218E+03 -0.51651152614E+03  0.75140371235E+03  0.10100000352E+00 0. -1.
</event>
<event>
 5   0  0.2875848E-03  0.1252384E+04  0.7818609E-02  0.9068201E-01
        1   -1    0    0  501    0  0.00000000000E+00  0.00000000000E+00  0.42881492441E+03  0.42881492444E+03  0.50400001928E-02 0.  1.
       -1   -1    0    0    0  501  0.00000000000E+00  0.00000000000E+00 -0.91441869632E+03  0.91441869633E+03  0.50400001928E-02 0. -1.
    10030    2    1    2    0    0  0.00000000000E+00  0.00000000000E+00 -0.48560377191E+03  0.13432336208E+04  0.12523839414E+04 0.  0.
        1    1    3    3  502    0 -0.61570904219E+03  0.28532831015E+02 -0.36129046678E+03  0.71445262159E+03  0.50400001928E-02 0.  1.
       -1    1    3    3    0  502  0.61570904219E+03 -0.28532831015E+02 -0.12431330513E+03  0.62878099919E+03  0.50400001928E-02 0. -1.
</event>
<event>
 5   0  0.2875848E-03  0.1190741E+04  0.7818609E-02  0.9121000E-01
       -1   -1    0    0    0  501  0.00000000000E+00  0.00000000000E+00  0.55081869626E+03  0.55081869629E+03  0.50400001928E-02 0.  1.
        1   -1    0    0  501    0  0.00000000000E+00  0.00000000000E+00 -0.64352525436E+03  0.64352525438E+03  0.50400001928E-02 0. -1.
    10030    2    1    2    0    0  0.00000000000E+00  0.00000000000E+00 -0.92706558098E+02  0.11943439507E+04  0.11907405119E+04 0.  0.
        1    1    3    3  502    0  0.13399799672E+03 -0.46309469171E+03 -0.39677220542E+03  0.62437195616E+03  0.50400001928E-02 0.  1.
       -1    1    3    3    0  502 -0.13399799672E+03  0.46309469171E+03  0.30406564732E+03  0.56997199451E+03  0.50400001928E-02 0. -1.
</event>
<event>
 5   0  0.5189537E-03  0.1234959E+04  0.7818609E-02  0.9082796E-01
       -2   -1    0    0    0  501  0.00000000000E+00  0.00000000000E+00  0.52393606589E+03  0.52393606590E+03  0.25500000920E-02 0. -1.
        2   -1    0    0  501    0  0.00000000000E+00  0.00000000000E+00 -0.72772378810E+03  0.72772378811E+03  0.25500000920E-02 0.  1.
    10030    2    1    2    0    0  0.00000000000E+00  0.00000000000E+00 -0.20378772221E+03  0.12516598540E+04  0.12349586853E+04 0.  0.
        4    1    3    3  502    0 -0.41804283649E+03  0.15465793177E+03 -0.53499024942E+03  0.69634407363E+03  0.12699999809E+01 0.  1.
       -4    1    3    3    0  502  0.41804283649E+03 -0.15465793177E+03  0.33120252721E+03  0.55531578037E+03  0.12699999809E+01 0. -1.
</event>
<event>
 5   0  0.5108045E-03  0.1206113E+04  0.7818609E-02  0.9107523E-01
       -2   -1    0    0    0  501  0.00000000000E+00  0.00000000000E+00  0.33619054248E+03  0.33619054249E+03  0.25500000920E-02 0.  1.
        2   -1    0    0  501    0  0.00000000000E+00  0.00000000000E+00 -0.10817585405E+04  0.10817585405E+04  0.25500000920E-02 0. -1.
    10030    2    1    2    0    0  0.00000000000E+00  0.00000000000E+00 -0.74556799803E+03  0.14179490830E+04  0.12061127486E+04 0.  0.
        3    1    3    3  502    0  0.18615820176E+03  0.74451591724E+02  0.29586133379E+03  0.35739593538E+03  0.10100000352E+00 0.  1.
       -3    1    3    3    0  502 -0.18615820176E+03 -0.74451591724E+02 -0.10414293318E+04  0.10605531476E+04  0.10100000352E+00 0. -1.
</event>
<event>
 5   0  0.5031575E-03  0.1256054E+04  0.7818609E-02  0.9065160E-01
        2   -1    0    0  501    0  0.00000000000E+00  0.00000000000E+00  0.55524046951E+03  0.55524046951E+03  0.25500000920E-02 0.  1.
       -2   -1    0    0    0  501  0.00000000000E+00  0.00000000000E+00 -0.71035471097E+03  0.71035471097E+03  0.25500000920E-02 0. -1.
    10030    2    1    2    0    0  0.00000000000E+00  0.00000000000E+00 -0.15511424146E+03  0.12655951805E+04  0.12560536346E+04 0.  0.
        5    1    3    3  502    0  0.29015494362E+03  0.52934756708E+03 -0.25206879729E+03  0.65418614067E+03  0.46999998093E+01 0. -1.
       -5    1    3    3    0  502 -0.29015494362E+03 -0.52934756708E+03  0.96954555829E+02  0.61140903982E+03  0.46999998093E+01 0.  1.
</event>
<event>
 5   0  0.5108045E-03  0.1200798E+04  0.7818609E-02  0.9112159E-01
       -2   -1    0    0    0  501  0.00000000000E+00  0.00000000000E+00  0.34055553349E+03  0.34055553350E+03  0.25500000920E-02 0. -1.
        2   -1    0    0  501    0  0.00000000000E+00  0.00000000000E+00 -0.10585023798E+04  0.10585023798E+04  0.25500000920E-02 0.  1.
    10030    2    1    2    0    0  0.00000000000E+00  0.00000000000E+00 -0.71794684627E+03  0.13990579133E+04  0.12007978059E+04 0.  0.
        3    1    3    3  502    0 -0.21268072241E+02  0.11991311143E+02 -0.10579237264E+04  0.10582054354E+04  0.10100000352E+00 0.  1.
       -3    1    3    3    0  502  0.21268072241E+02 -0.11991311143E+02  0.33997688013E+03  0.34085247786E+03  0.10100000352E+00 0. -1.
</event>
<event>
 5   0  0.2926844E-03  0.1199532E+04  0.7818609E-02  0.9113267E-01
       -1   -1    0    0    0  501  0.00000000000E+00  0.00000000000E+00  0.19653943026E+03  0.19653943033E+03  0.50400001928E-02 0.  1.
        1   -1    0    0  501    0  0.00000000000E+00  0.00000000000E+00 -0.18302638378E+04  0.18302638378E+04  0.50400001928E-02 0. -1.
    10030    2    1    2    0    0  0.00000000000E+00  0.00000000000E+00 -0.16337244075E+04  0.20268032681E+04  0.11995315952E+04 0.  0.
        5    1    3    3  502    0  0.11478609924E+02  0.32330042310E+03 -0.16701700851E+04  0.17012187177E+04  0.46999998093E+01 0. -1.
       -5    1    3    3    0  502 -0.11478609924E+02 -0.32330042310E+03  0.36445677634E+02  0.32558455043E+03  0.46999998093E+01 0.  1.
</event>
<event>
 5   0  0.5031575E-03  0.1213305E+04  0.7818609E-02  0.9101290E-01
        2   -1    0    0  501    0  0.00000000000E+00  0.00000000000E+00  0.68184287427E+03  0.68184287428E+03  0.25500000920E-02 0. -1.
       -2   -1    0    0    0  501  0.00000000000E+00  0.00000000000E+00 -0.53975371357E+03  0.53975371357E+03  0.25500000920E-02 0.  1.
    10030    2    1    2    0    0  0.00000000000E+00  0.00000000000E+00  0.14208916071E+03  0.12215965878E+04  0.12133049468E+04 0.  0.
        5    1    3    3  502    0 -0.25581894335E+03 -0.78705915665E+02  0.61916110700E+03  0.67455208795E+03  0.46999998093E+01 0. -1.
       -5    1    3    3    0  502  0.25581894335E+03  0.78705915665E+02 -0.47707194629E+03  0.54704449990E+03  0.46999998093E+01 0.  1.
</event>
<event>
 5   0  0.5003526E-03  0.1207035E+04  0.7818609E-02  0.9106721E-01
       -2   -1    0    0    0  501  0.00000000000E+00  0.00000000000E+00  0.47826366688E+03  0.47826366688E+03  0.25500000920E-02 0.  1.
        2   -1    0    0  501    0  0.00000000000E+00  0.00000000000E+00 -0.76157479387E+03  0.76157479387E+03  0.25500000920E-02 0. -1.
    10030    2    1    2    0    0  0.00000000000E+00  0.00000000000E+00 -0.28331112699E+03  0.12398384608E+04  0.12070352994E+04 0.  0.
        2    1    3    3  502    0 -0.32626086708E+03  0.40206667442E+03  0.17681854371E+03  0.54714583200E+03  0.25500000920E-02 0.  1.
       -2    1    3    3    0  502  0.32626086708E+03 -0.40206667442E+03 -0.46012967071E+03  0.69269262876E+03  0.25500000920E-02 0. -1.
</event>
<event>
 5   0  0.5031575E-03  0.1130724E+04  0.7818609E-02  0.9175753E-01
        2   -1    0    0  501    0  0.00000000000E+00  0.00000000000E+00  0.54964214790E+03  0.54964214791E+03  0.25500000920E-02 0. -1.
       -2   -1    0    0    0  501  0.00000000000E+00  0.00000000000E+00 -0.58153152835E+03  0.58153152835E+03  0.25500000920E-02 0.  1.
    10030    2    1    2    0    0  0.00000000000E+00  0.00000000000E+00 -0.31889380444E+02  0.11311736763E+04  0.11307240836E+04 0.  0.
        5    1    3    3  502    0  0.54498170654E+02 -0.13828815041E+03 -0.56161412103E+03  0.58097002856E+03  0.46999998093E+01 0.  1.
       -5    1    3    3    0  502 -0.54498170654E+02  0.13828815041E+03  0.52972474059E+03  0.55020364770E+03  0.46999998093E+01 0. -1.
</event>
<event>
 5   0  0.2875848E-03  0.1143926E+04  0.7818609E-02  0.9163406E-01
        1   -1    0    0  501    0  0.00000000000E+00  0.00000000000E+00  0.13279785574E+04  0.13279785574E+04  0.50400001928E-02 0. -1.
       -1   -1    0    0    0  501  0.00000000000E+00  0.00000000000E+00 -0.24634539738E+03  0.24634539743E+03  0.50400001928E-02 0.  1.
    10030    2    1    2    0    0  0.00000000000E+00  0.00000000000E+00  0.10816331600E+04  0.15743239548E+04  0.11439255316E+04 0.  0.
        1    1    3    3  502    0 -0.82835173777E+02  0.46021317580E+03  0.99410887730E+03  0.10985946901E+04  0.50400001928E-02 0. -1.
       -1    1    3    3    0  502  0.82835173777E+02 -0.46021317580E+03  0.87524282674E+02  0.47572926468E+03  0.50400001928E-02 0.  1.
</event>
<event>
 5   0  0.5003526E-03  0.1182327E+04  0.7818609E-02  0.9128468E-01
        2   -1    0    0  501    0  0.00000000000E+00  0.00000000000E+00  0.58315263947E+03  0.58315263948E+03  0.25500000920E-02 0. -1.
       -2   -1    0    0    0  501  0.00000000000E+00  0.00000000000E+00 -0.59928421511E+03  0.59928421511E+03  0.25500000920E-02 0.  1.
    10030    2    1    2    0    0  0.00000000000E+00  0.00000000000E+00 -0.16131575637E+02  0.11824368546E+04  0.11823268107E+04 0.  0.
        2    1    3    3  502    0  0.14078876590E+03 -0.53914031098E+03  0.18938718574E+03  0.58852464490E+03  0.25500000920E-02 0. -1.
       -2    1    3    3    0  502 -0.14078876590E+03  0.53914031098E+03 -0.20551876138E+03  0.59391220969E+03  0.25500000920E-02 0.  1.
</event>
<event>
 5   0  0.2926844E-03  0.1195603E+04  0.7818609E-02  0.9116714E-01
       -1   -1    0    0    0  501  0.00000000000E+00  0.00000000000E+00  0.61715117021E+03  0.61715117023E+03  0.50400001928E-02 0. -1.
        1   -1    0    0  501    0  0.00000000000E+00  0.00000000000E+00 -0.57905872981E+03  0.57905872983E+03  0.50400001928E-02 0.  1.
    10030    2    1    2    0    0  0.00000000000E+00  0.00000000000E+00  0.38092440402E+02  0.11962099001E+04  0.11956032331E+04 0.  0.
        5    1    3    3  502    0 -0.31857032943E+03  0.46926162997E+03  0.20795715061E+03  0.60412068218E+03  0.46999998093E+01 0. -1.
       -5    1    3    3    0  502  0.31857032943E+03 -0.46926162997E+03 -0.16986471020E+03  0.59208921788E+03  0.46999998093E+01 0.  1.
</event>
<event>
 5   0  0.2930868E-03  0.1234298E+04  0.7818609E-02  0.9083354E-01
        1   -1    0    0  501    0  0.00000000000E+00  0.00000000000E+00  0.12094922170E+04  0.12094922170E+04  0.50400001928E-02 0. -1.
       -1   -1    0    0    0  501  0.00000000000E+00  0.00000000000E+00 -0.31490294194E+03  0.31490294198E+03  0.50400001928E-02 0.  1.
    10030    2    1    2    0    0  0.00000000000E+00  0.00000000000E+00  0.89458927509E+03  0.15243951590E+04  0.12342976261E+04 0.  0.
        3    1    3    3  502    0  0.21310327959E+03  0.52860148377E+03  0.73966083543E+03  0.93377229456E+03  0.10100000352E+00 0. -1.
       -3    1    3    3    0  502 -0.21310327959E+03 -0.52860148377E+03  0.15492843966E+03  0.59062286447E+03  0.10100000352E+00 0.  1.
</event>
<event>
 5   0  0.5189537E-03  0.1169360E+04  0.7818609E-02  0.9140107E-01
       -2   -1    0    0    0  501  0.00000000000E+00  0.00000000000E+00  0.99474439389E+03  0.99474439390E+03  0.25500000920E-02 0.  1.
        2   -1    0    0  501    0  0.00000000000E+00  0.00000000000E+00 -0.34365679464E+03  0.34365679465E+03  0.25500000920E-02 0. -1.
    10030    2    1    2    0    0  0.00000000000E+00  0.00000000000E+00  0.65108759925E+03  0.13384011885E+04  0.11693599444E+04 0.  0.
        4    1    3    3  502    0  0.14763219632E+03  0.77022965028E+02 -0.31594157892E+03  0.35713932397E+03  0.12699999809E+01 0. -1.
       -4    1    3    3    0  502 -0.14763219632E+03 -0.77022965028E+02  0.96702917818E+03  0.98126186458E+03  0.12699999809E+01 0.  1.
</event>
<event>
 5   0  0.2926844E-03  0.1215454E+04  0.7818609E-02  0.9099436E-01
        1   -1    0    0  501    0  0.00000000000E+00  0.00000000000E+00  0.13499970805E+04  0.13499970805E+04  0.50400001928E-02 0.  1.
       -1   -1    0    0    0  501  0.00000000000E+00  0.00000000000E+00 -0.27358005296E+03  0.27358005301E+03  0.50400001928E-02 0. -1.
    10030    2    1    2    0    0  0.00000000000E+00  0.00000000000E+00  0.10764170275E+04  0.16235771335E+04  0.12154542736E+04 0.  0.
        5    1    3    3  502    0 -0.22231057598E+03  0.56055187485E+03  0.63878990625E+03  0.87847312475E+03  0.46999998093E+01 0.  1.
       -5    1    3    3    0  502  0.22231057598E+03 -0.56055187485E+03  0.43762712130E+03  0.74510400877E+03  0.46999998093E+01 0. -1.
</event>
<event>
 5   0  0.2875848E-03  0.1197430E+04  0.7818609E-02  0.9115109E-01
        1   -1    0    0  501    0  0.00000000000E+00  0.00000000000E+00  0.13647356374E+04  0.13647356374E+04  0.50400001928E-02 0. -1.
       -1   -1    0    0    0  501  0.00000000000E+00  0.00000000000E+00 -0.26265869259E+03  0.26265869264E+03  0.50400001928E-02 0.  1.
    10030    2    1    2    0    0  0.00000000000E+00  0.00000000000E+00  0.11020769448E+04  0.16273943301E+04  0.11974300452E+04 0.  0.
        1    1    3    3  502    0 -0.43557624177E+03  0.26302365894E+03  0.12222669397E+03  0.52330437826E+03  0.50400001928E-02 0.  1.
       -1    1    3    3    0  502  0.43557624177E+03 -0.26302365894E+03  0.97985025084E+03  0.11040899518E+04  0.50400001928E-02 0. -1.
</event>
<event>
 5   0  0.2926844E-03  0.1195303E+04  0.7818609E-02  0.9116978E-01
        1   -1    0    0  501    0  0.00000000000E+00  0.00000000000E+00  0.12706729375E+04  0.12706729375E+04  0.50400001928E-02 0. -1.
       -1   -1    0    0    0  501  0.00000000000E+00  0.00000000000E+00 -0.28110102684E+03  0.28110102689E+03  0.50400001928E-02 0.  1.
    10030    2    1    2    0    0  0.00000000000E+00  0.00000000000E+00  0.98957191063E+03  0.15517739644E+04  0.11953032545E+04 0.  0.
        5    1    3    3  502    0  0.13144555909E+03 -0.44487060105E+03  0.98395645738E+03  0.10878327935E+04  0.46999998093E+01 0. -1.
       -5    1    3    3    0  502 -0.13144555909E+03  0.44487060105E+03  0.56154532550E+01  0.46394117083E+03  0.46999998093E+01 0.  1.
</event>
<event>
 5   0  0.5031575E-03  0.1191111E+04  0.7818609E-02  0.9120673E-01
       -2   -1    0    0    0  501  0.00000000000E+00  0.00000000000E+00  0.24651275039E+03  0.24651275041E+03  0.25500000920E-02 0.  1.
        2   -1    0    0  501    0  0.00000000000E+00  0.00000000000E+00 -0.14388155642E+04  0.14388155642E+04  0.25500000920E-02 0. -1.
    10030    2    1    2    0    0  0.00000000000E+00  0.00000000000E+00 -0.11923028138E+04  0.16853283146E+04  0.11911110478E+04 0.  0.
        5    1    3    3  502    0  0.31159745213E+03 -0.48495178352E+03 -0.38441806446E+03  0.69287123103E+03  0.46999998093E+01 0.  1.
       -5    1    3    3    0  502 -0.31159745213E+03  0.48495178352E+03 -0.80788474935E+03  0.99245708357E+03  0.46999998093E+01 0. -1.
</event>
<event>
 5   0  0.2938349E-03  0.1182488E+04  0.7818609E-02  0.9128324E-01
       -1   -1    0    0    0  501  0.00000000000E+00  0.00000000000E+00  0.55342033103E+03  0.55342033105E+03  0.50400001928E-02 0. -1.
        1   -1    0    0  501    0  0.00000000000E+00  0.00000000000E+00 -0.63165257912E+03  0.63165257914E+03  0.50400001928E-02 0.  1.
    10030    2    1    2    0    0  0.00000000000E+00  0.00000000000E+00 -0.78232248091E+02  0.11850729102E+04  0.11824878510E+04 0.  0.
        4    1    3    3  502    0 -0.17132956550E+03 -0.34297830787E+03 -0.49018875927E+03  0.62231388567E+03  0.12699999809E+01 0.  1.
       -4    1    3    3    0  502  0.17132956550E+03  0.34297830787E+03  0.41195651118E+03  0.56275902452E+03  0.12699999809E+01 0. -1.
</event>
<event>
 5   0  0.1922125E-03  0.1236703E+04  0.7818609E-02  0.9081324E-01
        3   -1    0    0  501    0  0.00000000000E+00  0.00000000000E+00  0.36615842293E+03  0.36615843686E+03  0.10100000352E+00 0. -1.
       -3   -1    0    0    0  501  0.00000000000E+00  0.00000000000E+00 -0.10442431248E+04  0.10442431297E+04  0.10100000352E+00 0.  1.
    10030    2    1    2    0    0  0.00000000000E+00  0.00000000000E+00 -0.67808470190E+03  0.14104015666E+04  0.12367027598E+04 0.  0.
        2    1    3    3  502    0  0.53413316291E+03 -0.15473395555E+03 -0.64742391346E+03  0.85346268603E+03  0.25500000920E-02 0.  1.
       -2    1    3    3    0  502 -0.53413316291E+03  0.15473395555E+03 -0.30660788436E+02  0.55693888055E+03  0.25500000920E-02 0. -1.
</event>
<event>
 5   0  0.5031575E-03  0.1200142E+04  0.7818609E-02  0.9112732E-01
       -2   -1    0    0    0  501  0.00000000000E+00  0.00000000000E+00  0.13678145194E+04  0.13678145194E+04  0.25500000920E-02 0. -1.
        2   -1    0    0  501    0  0.00000000000E+00  0.00000000000E+00 -0.26325580684E+03  0.26325580685E+03  0.25500000920E-02 0.  1.
    10030    2    1    2    0    0  0.00000000000E+00  0.00000000000E+00  0.11045587125E+04  0.16310703262E+04  0.12001418498E+04 0.  0.
        5    1    3    3  502    0 -0.28809948330E+03  0.29935097240E+03 -0.36135526881E+02  0.41706136629E+03  0.46999998093E+01 0.  1.
       -5    1    3    3    0  502  0.28809948330E+03 -0.29935097240E+03  0.11406942394E+04  0.12140089599E+04  0.46999998093E+01 0. -1.
</event>
<event>
 5   0  0.2926844E-03  0.1198275E+04  0.7818609E-02  0.9114368E-01
       -1   -1    0    0    0  501  0.00000000000E+00  0.00000000000E+00  0.33558117523E+03  0.33558117526E+03  0.50400001928E-02 0.  1.
        1   -1    0    0  501    0  0.00000000000E+00  0.00000000000E+00 -0.10696842510E+04  0.10696842510E+04  0.50400001928E-02 0. -1.
    10030    2    1    2    0    0  0.00000000000E+00  0.00000000000E+00 -0.73410307580E+03  0.14052654263E+04  0.11982752574E+04 0.  0.
        5    1    3    3  502    0 -0.39472859643E+03 -0.84986050945E+02 -0.88612717071E+03  0.97379502277E+03  0.46999998093E+01 0. -1.
       -5    1    3    3    0  502  0.39472859643E+03  0.84986050945E+02  0.15202409491E+03  0.43147040354E+03  0.46999998093E+01 0.  1.
</event>
<event>
 5   0  0.5189537E-03  0.1217184E+04  0.7818609E-02  0.9097947E-01
        2   -1    0    0  501    0  0.00000000000E+00  0.00000000000E+00  0.46601532571E+03  0.46601532572E+03  0.25500000920E-02 0. -1.
       -2   -1    0    0    0  501  0.00000000000E+00  0.00000000000E+00 -0.79479036824E+03  0.79479036824E+03  0.25500000920E-02 0.  1.
    10030    2    1    2    0    0  0.00000000000E+00  0.00000000000E+00 -0.32877504253E+03  0.12608056940E+04  0.12171844434E+04 0.  0.
        4    1    3    3  502    0  0.31044699308E+03 -0.51905131406E+03 -0.23457482025E+03  0.64870529622E+03  0.12699999809E+01 0. -1.
       -4    1    3    3    0  502 -0.31044699308E+03  0.51905131406E+03 -0.94200222273E+02  0.61210039774E+03  0.12699999809E+01 0.  1.
</event>
<event>
 5   0  0.2938349E-03  0.1158017E+04  0.7818609E-02  0.9150419E-01
        1   -1    0    0  501    0  0.00000000000E+00  0.00000000000E+00  0.52484730246E+03  0.52484730248E+03  0.50400001928E-02 0. -1.
       -1   -1    0    0    0  501  0.00000000000E+00  0.00000000000E+00 -0.63875898052E+03  0.63875898054E+03  0.50400001928E-02 0.  1.
    10030    2    1    2    0    0  0.00000000000E+00  0.00000000000E+00 -0.11391167807E+03  0.11636062830E+04  0.11580171465E+04 0.  0.
        4    1    3    3  502    0  0.25580561048E+03  0.51509421990E+02 -0.57632534493E+03  0.63264701612E+03  0.12699999809E+01 0.  1.
       -4    1    3    3    0  502 -0.25580561048E+03 -0.51509421990E+02  0.46241366686E+03  0.53095926690E+03  0.12699999809E+01 0. -1.
</event>
<event>
 5   0  0.2792518E-03  0.1193886E+04  0.7818609E-02  0.9118225E-01
       -1   -1    0    0    0  501  0.00000000000E+00  0.00000000000E+00  0.66427048439E+03  0.66427048441E+03  0.50400001928E-02 0.  1.
        1   -1    0    0  501    0  0.00000000000E+00  0.00000000000E+00 -0.53643927400E+03  0.53643927402E+03  0.50400001928E-02 0. -1.
    10030    2    1    2    0    0  0.00000000000E+00  0.00000000000E+00  0.12783121039E+03  0.12007097584E+04  0.11938857172E+04 0.  0.
        2    1    3    3  502    0  0.56443071653E+02  0.73802061047E+02 -0.52912271563E+03  0.53721821707E+03  0.25500000920E-02 0. -1.
       -2    1    3    3    0  502 -0.56443071653E+02 -0.73802061047E+02  0.65695392602E+03  0.66349154137E+03  0.25500000920E-02 0.  1.
</event>
<event>
 5   0  0.2930868E-03  0.1195033E+04  0.7818609E-02  0.9117215E-01
       -1   -1    0    0    0  501  0.00000000000E+00  0.00000000000E+00  0.37279995905E+03  0.37279995908E+03  0.50400001928E-02 0.  1.
        1   -1    0    0  501    0  0.00000000000E+00  0.00000000000E+00 -0.95768854031E+03  0.95768854032E+03  0.50400001928E-02 0. -1.
    10030    2    1    2    0    0  0.00000000000E+00  0.00000000000E+00 -0.58488858126E+03  0.13304884994E+04  0.11950334701E+04 0.  0.
        3    1    3    3  502    0 -0.46568422930E+03 -0.36890864416E+03 -0.36347948408E+03  0.69647163238E+03  0.10100000352E+00 0. -1.
       -3    1    3    3    0  502  0.46568422930E+03  0.36890864416E+03 -0.22140909717E+03  0.63401686702E+03  0.10100000352E+00 0.  1.
</event>
<event>
 5   0  0.5108045E-03  0.1189234E+04  0.7818609E-02  0.9122332E-01
        2   -1    0    0  501    0  0.00000000000E+00  0.00000000000E+00  0.91069743612E+03  0.91069743612E+03  0.25500000920E-02 0.  1.
       -2   -1    0    0    0  501  0.00000000000E+00  0.00000000000E+00 -0.38824029362E+03  0.38824029362E+03  0.25500000920E-02 0. -1.
    10030    2    1    2    0    0  0.00000000000E+00  0.00000000000E+00  0.52245714250E+03  0.12989377297E+04  0.11892341065E+04 0.  0.
        3    1    3    3  502    0  0.45492926352E+03 -0.27150512726E+03  0.55612271945E+03  0.76808082793E+03  0.10100000352E+00 0.  1.
       -3    1    3    3    0  502 -0.45492926352E+03  0.27150512726E+03 -0.33665576945E+02  0.53085690182E+03  0.10100000352E+00 0. -1.
</event>
<event>
 5   0  0.2792518E-03  0.1060668E+04  0.7818609E-02  0.9244399E-01
        1   -1    0    0  501    0  0.00000000000E+00  0.00000000000E+00  0.56006562028E+03  0.56006562030E+03  0.50400001928E-02 0.  1.
       -1   -1    0    0    0  501  0.00000000000E+00  0.00000000000E+00 -0.50218078465E+03  0.50218078467E+03  0.50400001928E-02 0. -1.
    10030    2    1    2    0    0  0.00000000000E+00  0.00000000000E+00  0.57884835627E+02  0.10622464050E+04  0.10606680775E+04 0.  0.
        2    1    3    3  502    0 -0.25978350474E+03  0.44629031092E+03  0.14991820189E+03  0.53771551793E+03  0.25500000920E-02 0.  1.
       -2    1    3    3    0  502  0.25978350474E+03 -0.44629031092E+03 -0.92033366268E+02  0.52453088705E+03  0.25500000920E-02 0. -1.
</event>
<event>
 5   0  0.2792518E-03  0.1197858E+04  0.7818609E-02  0.9114734E-01
        1   -1    0    0  501    0  0.00000000000E+00  0.00000000000E+00  0.10083973118E+04  0.10083973118E+04  0.50400001928E-02 0.  1.
       -1   -1    0    0    0  501  0.00000000000E+00  0.00000000000E+00 -0.35572869173E+03  0.35572869177E+03  0.50400001928E-02 0. -1.
    10030    2    1    2    0    0  0.00000000000E+00  0.00000000000E+00  0.65266862003E+03  0.13641260035E+04  0.11978578488E+04 0.  0.
        2    1    3    3  502    0 -0.23251493013E+03 -0.38559643027E+03 -0.12341140615E+03  0.46688132855E+03  0.25500000920E-02 0. -1.
       -2    1    3    3    0  502  0.23251493013E+03  0.38559643027E+03  0.77608002617E+03  0.89724467499E+03  0.25500000920E-02 0.  1.
</event>
<event>
 5   0  0.5031575E-03  0.9707227E+03  0.7818609E-02  0.9341252E-01
        2   -1    0    0  501    0  0.00000000000E+00  0.00000000000E+00  0.74538049635E+03  0.74538049635E+03  0.25500000920E-02 0.  1.
       -2   -1    0    0    0  501  0.00000000000E+00  0.00000000000E+00 -0.31604750189E+03  0.31604750190E+03  0.25500000920E-02 0. -1.
    10030    2    1    2    0    0  0.00000000000E+00  0.00000000000E+00  0.42933299446E+03  0.10614279982E+04  0.97072270774E+03 0.  0.
        5    1    3    3  502    0  0.66142853119E+02  0.30603208902E+03 -0.19082623811E+03  0.36669777703E+03  0.46999998093E+01 0. -1.
       -5    1    3    3    0  502 -0.66142853119E+02 -0.30603208902E+03  0.62015923257E+03  0.69473022122E+03  0.46999998093E+01 0.  1.
</event>
<event>
 5   0  0.5189537E-03  0.1159351E+04  0.7818609E-02  0.9149200E-01
       -2   -1    0    0    0  501  0.00000000000E+00  0.00000000000E+00  0.27646170584E+03  0.27646170585E+03  0.25500000920E-02 0.  1.
        2   -1    0    0  501    0  0.00000000000E+00  0.00000000000E+00 -0.12154443974E+04  0.12154443974E+04  0.25500000920E-02 0. -1.
    10030    2    1    2    0    0  0.00000000000E+00  0.00000000000E+00 -0.93898269156E+03  0.14919061032E+04  0.11593512521E+04 0.  0.
        4    1    3    3  502    0 -0.21025339185E+03 -0.54017723028E+03 -0.46314918564E+03  0.74196139384E+03  0.12699999809E+01 0.  1.
       -4    1    3    3    0  502  0.21025339185E+03  0.54017723028E+03 -0.47583350592E+03  0.74994470940E+03  0.12699999809E+01 0. -1.
</event>
<event>
 5   0  0.2792518E-03  0.1260034E+04  0.7818609E-02  0.9061873E-01
       -1   -1    0    0    0  501  0.00000000000E+00  0.00000000000E+00  0.28737959980E+03  0.28737959984E+03  0.50400001928E-02 0. -1.
        1   -1    0    0  501    0  0.00000000000E+00  0.00000000000E+00 -0.13811743330E+04  0.13811743330E+04  0.50400001928E-02 0.  1.
    10030    2    1    2    0    0  0.00000000000E+00  0.00000000000E+00 -0.10937947332E+04  0.16685539329E+04  0.12600338521E+04 0.  0.
        2    1    3    3  502    0  0.60696179890E+03 -0.40414401724E+01 -0.32333509612E+03  0.68772417651E+03  0.25500000920E-02 0. -1.
       -2    1    3    3    0  502 -0.60696179890E+03  0.40414401724E+01 -0.77045963709E+03  0.98082975635E+03  0.25500000920E-02 0.  1.
</event>
<event>
 5   0  0.2930868E-03  0.1172550E+04  0.7818609E-02  0.9137228E-01
       -1   -1    0    0    0  501  0.00000000000E+00  0.00000000000E+00  0.34764993519E+03  0.34764993523E+03  0.50400001928E-02 0. -1.
        1   -1    0    0  501    0  0.00000000000E+00  0.00000000000E+00 -0.98869182586E+03  0.98869182587E+03  0.50400001928E-02 0.  1.
    10030    2    1    2    0    0  0.00000000000E+00  0.00000000000E+00 -0.64104189067E+03  0.13363417611E+04  0.11725504667E+04 0.  0.
        3    1    3    3  502    0 -0.48752039751E+03 -0.25023983841E+03 -0.55800996241E+03  0.78209413952E+03  0.10100000352E+00 0.  1.
       -3    1    3    3    0  502  0.48752039751E+03  0.25023983841E+03 -0.83031928256E+02  0.55424762158E+03  0.10100000352E+00 0. -1.
</event>
<event>
 5   0  0.2930868E-03  0.1185720E+04  0.7818609E-02  0.9125448E-01
       -1   -1    0    0    0  501  0.00000000000E+00  0.00000000000E+00  0.43058395371E+03  0.43058395374E+03  0.50400001928E-02 0.  1.
        1   -1    0    0  501    0  0.00000000000E+00  0.00000000000E+00 -0.81629422248E+03  0.81629422249E+03  0.50400001928E-02 0. -1.
    10030    2    1    2    0    0  0.00000000000E+00  0.00000000000E+00 -0.38571026877E+03  0.12468781762E+04  0.11857203612E+04 0.  0.
        3    1    3    3  502    0 -0.14128569831E+03  0.45918851705E+03 -0.55814430478E+03  0.73643792535E+03  0.10100000352E+00 0. -1.
       -3    1    3    3    0  502  0.14128569831E+03 -0.45918851705E+03  0.17243403601E+03  0.51044025088E+03  0.10100000352E+00 0.  1.
</event>
<event>
 5   0  0.5003526E-03  0.1245213E+04  0.7818609E-02  0.9074177E-01
        2   -1    0    0  501    0  0.00000000000E+00  0.00000000000E+00  0.18472525621E+04  0.18472525621E+04  0.25500000920E-02 0. -1.
       -2   -1    0    0    0  501  0.00000000000E+00  0.00000000000E+00 -0.20984604541E+03  0.20984604543E+03  0.25500000920E-02 0.  1.
    10030    2    1    2    0    0  0.00000000000E+00  0.00000000000E+00  0.16374065167E+04  0.20570986076E+04  0.12452126647E+04 0.  0.
        2    1    3    3  502    0  0.14333468245E+03 -0.25352456745E+03 -0.90379076514E+02  0.30493919881E+03  0.25500000920E-02 0.  1.
       -2    1    3    3    0  502 -0.14333468245E+03  0.25352456745E+03  0.17277855932E+04  0.17521594088E+04  0.25500000920E-02 0. -1.
</event>
<event>
 5   0  0.2875848E-03  0.1192161E+04  0.7818609E-02  0.9119746E-01
        1   -1    0    0  501    0  0.00000000000E+00  0.00000000000E+00  0.71590552913E+03  0.71590552915E+03  0.50400001928E-02 0. -1.
       -1   -1    0    0    0  501  0.00000000000E+00  0.00000000000E+00 -0.49631150228E+03  0.49631150231E+03  0.50400001928E-02 0.  1.
    10030    2    1    2    0    0  0.00000000000E+00  0.00000000000E+00  0.21959402685E+03  0.12122170315E+04  0.11921613124E+04 0.  0.
        1    1    3    3  502    0  0.11895502682E+03 -0.21765393848E+03  0.66093816208E+03  0.70594814927E+03  0.50400001928E-02 0. -1.
       -1    1    3    3    0  502 -0.11895502682E+03  0.21765393848E+03 -0.44134413523E+03  0.50626888219E+03  0.50400001928E-02 0.  1.
</event>
<event>
 5   0  0.5031575E-03  0.1231191E+04  0.7818609E-02  0.9085985E-01
       -2   -1    0    0    0  501  0.00000000000E+00  0.00000000000E+00  0.27999951939E+03  0.27999951940E+03  0.25500000920E-02 0.  1.
        2   -1    0    0  501    0  0.00000000000E+00  0.00000000000E+00 -0.13534234842E+04  0.13534234842E+04  0.25500000920E-02 0. -1.
    10030    2    1    2    0    0  0.00000000000E+00  0.00000000000E+00 -0.10734239649E+04  0.16334230037E+04  0.12311911714E+04 0.  0.
        5    1    3    3  502    0 -0.34796127313E+02  0.37552691095E+03  0.10875870912E+03  0.39253251857E+03  0.46999998093E+01 0.  1.
       -5    1    3    3    0  502  0.34796127313E+02 -0.37552691095E+03 -0.11821826740E+04  0.12408904851E+04  0.46999998093E+01 0. -1.
</event>
<event>
 5   0  0.2930868E-03  0.1168645E+04  0.7818609E-02  0.9140753E-01
       -1   -1    0    0    0  501  0.00000000000E+00  0.00000000000E+00  0.29271380339E+03  0.29271380343E+03  0.50400001928E-02 0. -1.
        1   -1    0    0  501    0  0.00000000000E+00  0.00000000000E+00 -0.11664394912E+04  0.11664394912E+04  0.50400001928E-02 0.  1.
    10030    2    1    2    0    0  0.00000000000E+00  0.00000000000E+00 -0.87372568779E+03  0.14591532946E+04  0.11686452668E+04 0.  0.
        3    1    3    3  502    0 -0.43859344565E+03 -0.34430139373E+03 -0.21871648499E+03  0.59895289573E+03  0.10100000352E+00 0. -1.
       -3    1    3    3    0  502  0.43859344565E+03  0.34430139373E+03 -0.65500920280E+03  0.86020039889E+03  0.10100000352E+00 0.  1.
</event>
<event>
 5   0  0.5003526E-03  0.1417328E+04  0.7818609E-02  0.8941370E-01
       -2   -1    0    0    0  501  0.00000000000E+00  0.00000000000E+00  0.46264584879E+03  0.46264584880E+03  0.25500000920E-02 0. -1.
        2   -1    0    0  501    0  0.00000000000E+00  0.00000000000E+00 -0.10855062222E+04  0.10855062222E+04  0.25500000920E-02 0.  1.
    10030    2    1    2    0    0  0.00000000000E+00  0.00000000000E+00 -0.62286037343E+03  0.15481520710E+04  0.14173283989E+04 0.  0.
        2    1    3    3  502    0 -0.31278620194E+03 -0.58450079038E+03 -0.58500480810E+03  0.88414196122E+03  0.25500000920E-02 0. -1.
       -2    1    3    3    0  502  0.31278620194E+03  0.58450079038E+03 -0.37855565327E+02  0.66401010980E+03  0.25500000920E-02 0.  1.
</event>
<event>
 5   0  0.1922125E-03  0.1196886E+04  0.7818609E-02  0.9115586E-01
        3   -1    0    0  501    0  0.00000000000E+00  0.00000000000E+00  0.98597484471E+03  0.98597484989E+03  0.10100000352E+00 0.  1.
       -3   -1    0    0    0  501  0.00000000000E+00  0.00000000000E+00 -0.36322842333E+03  0.36322843737E+03  0.10100000352E+00 0. -1.
    10030    2    1    2    0    0  0.00000000000E+00  0.00000000000E+00  0.62274642138E+03  0.13492032873E+04  0.11968861287E+04 0.  0.
        3    1    3    3  502    0  0.88422836384E+02 -0.47032079201E+03 -0.93678961289E+02  0.48764331574E+03  0.10100000352E+00 0. -1.
       -3    1    3    3    0  502 -0.88422836384E+02  0.47032079201E+03  0.71642538267E+03  0.86155997152E+03  0.10100000352E+00 0.  1.
</event>
<event>
 5   0  0.5031575E-03  0.1211360E+04  0.7818609E-02  0.9102970E-01
        2   -1    0    0  501    0  0.00000000000E+00  0.00000000000E+00  0.72267761406E+03  0.72267761406E+03  0.25500000920E-02 0.  1.
       -2   -1    0    0    0  501  0.00000000000E+00  0.00000000000E+00 -0.50762408846E+03  0.50762408847E+03  0.25500000920E-02 0. -1.
    10030    2    1    2    0    0  0.00000000000E+00  0.00000000000E+00  0.21505352559E+03  0.12303017025E+04  0.12113604998E+04 0.  0.
        5    1    3    3  502    0 -0.27160247741E+03  0.36683226663E+03 -0.29680959129E+03  0.54447391219E+03  0.46999998093E+01 0. -1.
       -5    1    3    3    0  502  0.27160247741E+03 -0.36683226663E+03  0.51186311688E+03  0.68582779034E+03  0.46999998093E+01 0.  1.
</event>
<event>
 5   0  0.2875848E-03  0.1196911E+04  0.7818609E-02  0.9115565E-01
        1   -1    0    0  501    0  0.00000000000E+00  0.00000000000E+00  0.37751619621E+03  0.37751619625E+03  0.50400001928E-02 0.  1.
       -1   -1    0    0    0  501  0.00000000000E+00  0.00000000000E+00 -0.94869818370E+03  0.94869818372E+03  0.50400001928E-02 0. -1.
    10030    2    1    2    0    0  0.00000000000E+00  0.00000000000E+00 -0.57118198749E+03  0.13262143800E+04  0.11969109068E+04 0.  0.
        1    1    3    3  502    0  0.18369274221E+03 -0.46698580053E+03  0.75719153425E+02  0.50749596220E+03  0.50400001928E-02 0.  1.
       -1    1    3    3    0  502 -0.18369274221E+03  0.46698580053E+03 -0.64690114092E+03  0.81871841776E+03  0.50400001928E-02 0. -1.
</event>
<event>
 5   0  0.2938349E-03  0.1202233E+04  0.7818609E-02  0.9110904E-01
       -1   -1    0    0    0  501  0.00000000000E+00  0.00000000000E+00  0.58162731158E+03  0.58162731160E+03  0.50400001928E-02 0. -1.
        1   -1    0    0  501    0  0.00000000000E+00  0.00000000000E+00 -0.62125858492E+03  0.62125858494E+03  0.50400001928E-02 0.  1.
    10030    2    1    2    0    0  0.00000000000E+00  0.00000000000E+00 -0.39631273344E+02  0.12028858965E+04  0.12022328569E+04 0.  0.
        4    1    3    3  502    0  0.42814403001E+03  0.36427568023E+02 -0.44040699434E+03  0.61530009890E+03  0.12699999809E+01 0.  1.
       -4    1    3    3    0  502 -0.42814403001E+03 -0.36427568023E+02  0.40077572100E+03  0.58758579764E+03  0.12699999809E+01 0. -1.
</event>
<event>
 5   0  0.5108045E-03  0.1112708E+04  0.7818609E-02  0.9192894E-01
       -2   -1    0    0    0  501  0.00000000000E+00  0.00000000000E+00  0.17072605749E+03  0.17072605751E+03  0.25500000920E-02 0. -1.
        2   -1    0    0  501    0  0.00000000000E+00  0.00000000000E+00 -0.18130194024E+04  0.18130194024E+04  0.25500000920E-02 0.  1.
    10030    2    1    2    0    0  0.00000000000E+00  0.00000000000E+00 -0.16422933449E+04  0.19837454599E+04  0.11127077869E+04 0.  0.
        3    1    3    3  502    0 -0.10184412202E+03  0.37489491924E+03 -0.11112473086E+03  0.40406328919E+03  0.10100000352E+00 0. -1.
       -3    1    3    3    0  502  0.10184412202E+03 -0.37489491924E+03 -0.15311686141E+04  0.15796821707E+04  0.10100000352E+00 0.  1.
</event>
<event>
 5   0  0.2926844E-03  0.1145526E+04  0.7818609E-02  0.9161921E-01
       -1   -1    0    0    0  501  0.00000000000E+00  0.00000000000E+00  0.71549364513E+03  0.71549364514E+03  0.50400001928E-02 0.  1.
        1   -1    0    0  501    0  0.00000000000E+00  0.00000000000E+00 -0.45850475141E+03  0.45850475144E+03  0.50400001928E-02 0. -1.
    10030    2    1    2    0    0  0.00000000000E+00  0.00000000000E+00  0.25698889371E+03  0.11739983966E+04  0.11455256190E+04 0.  0.
        5    1    3    3  502    0 -0.41175597065E+03  0.17819839080E+03 -0.23635632181E+03  0.50713316467E+03  0.46999998093E+01 0. -1.
       -5    1    3    3    0  502  0.41175597065E+03 -0.17819839080E+03  0.49334521552E+03  0.66686523191E+03  0.46999998093E+01 0.  1.
</event>
<event>
 5   0  0.5467554E-03  0.1195956E+04  0.7818609E-02  0.9116403E-01
       -2   -1    0    0    0  501  0.00000000000E+00  0.00000000000E+00  0.53209698155E+03  0.53209698156E+03  0.25500000920E-02 0.  1.
        2   -1    0    0  501    0  0.00000000000E+00  0.00000000000E+00 -0.67201632208E+03  0.67201632209E+03  0.25500000920E-02 0. -1.
    10030    2    1    2    0    0  0.00000000000E+00  0.00000000000E+00 -0.13991934053E+03  0.12041133036E+04  0.11959562810E+04 0.  0.
        1    1    3    3  502    0 -0.34144792384E+02 -0.59465874096E+03 -0.16750645413E+02  0.59587370239E+03  0.50400001928E-02 0.  1.
       -1    1    3    3    0  502  0.34144792384E+02  0.59465874096E+03 -0.12316869512E+03  0.60823960126E+03  0.50400001928E-02 0. -1.
</event>
<event>
 5   0  0.2875848E-03  0.1175493E+04  0.7818609E-02  0.9134582E-01
       -1   -1    0    0    0  501  0.00000000000E+00  0.00000000000E+00  0.15272993915E+03  0.15272993924E+03  0.50400001928E-02 0. -1.
        1   -1    0    0  501    0  0.00000000000E+00  0.00000000000E+00 -0.22618080593E+04  0.22618080593E+04  0.50400001928E-02 0.  1.
    10030    2    1    2    0    0  0.00000000000E+00  0.00000000000E+00 -0.21090781201E+04  0.24145379985E+04  0.11754927603E+04 0.  0.
        1    1    3    3  502    0  0.47063143089E+03 -0.21724952364E+03 -0.48546861346E+03  0.71019087149E+03  0.50400001928E-02 0. -1.
       -1    1    3    3    0  502 -0.47063143089E+03  0.21724952364E+03 -0.16236095066E+04  0.17043471270E+04  0.50400001928E-02 0.  1.
</event>
<event>
 5   0  0.5003526E-03  0.1192060E+04  0.7818609E-02  0.9119835E-01
       -2   -1    0    0    0  501  0.00000000000E+00  0.00000000000E+00  0.37175736735E+03  0.37175736736E+03  0.25500000920E-02 0. -1.
        2   -1    0    0  501    0  0.00000000000E+00  0.00000000000E+00 -0.95560148495E+03  0.95560148495E+03  0.25500000920E-02 0.  1.
    10030    2    1    2    0    0  0.00000000000E+00  0.00000000000E+00 -0.58384411760E+03  0.13273588523E+04  0.11920602204E+04 0.  0.
        2    1    3    3  502    0 -0.20676097351E+03  0.19365369537E+03 -0.87584633640E+03  0.92052086282E+03  0.25500000920E-02 0.  1.
       -2    1    3    3    0  502  0.20676097351E+03 -0.19365369537E+03  0.29200221880E+03  0.40683798949E+03  0.25500000920E-02 0. -1.
</event>
<event>
 5   0  0.2930868E-03  0.1147577E+04  0.7818609E-02  0.9160022E-01
        1   -1    0    0  501    0  0.00000000000E+00  0.00000000000E+00  0.65299333813E+03  0.65299333815E+03  0.50400001928E-02 0.  1.
       -1   -1    0    0    0  501  0.00000000000E+00  0.00000000000E+00 -0.50419053716E+03  0.50419053718E+03  0.50400001928E-02 0. -1.
    10030    2    1    2    0    0  0.00000000000E+00  0.00000000000E+00  0.14880280097E+03  0.11571838753E+04  0.11475766849E+04 0.  0.
        3    1    3    3  502    0 -0.36224204573E+03  0.44494745768E+03  0.80410479231E+02  0.57936464784E+03  0.10100000352E+00 0.  1.
       -3    1    3    3    0  502  0.36224204573E+03 -0.44494745768E+03  0.68392321741E+02  0.57781922750E+03  0.10100000352E+00 0. -1.
</event>
<event>
 5   0  0.5189537E-03  0.1096264E+04  0.7818609E-02  0.9208841E-01
       -2   -1    0    0    0  501  0.00000000000E+00  0.00000000000E+00  0.37274829234E+03  0.37274829235E+03  0.25500000920E-02 0. -1.
        2   -1    0    0  501    0  0.00000000000E+00  0.00000000000E+00 -0.80603584349E+03  0.80603584350E+03  0.25500000920E-02 0.  1.
    10030    2    1    2    0    0  0.00000000000E+00  0.00000000000E+00 -0.43328755115E+03  0.11787841359E+04  0.10962636257E+04 0.  0.
        4    1    3    3  502    0  0.82673336462E+02  0.30643186151E+03  0.26388657193E+03  0.41276276728E+03  0.12699999809E+01 0. -1.
       -4    1    3    3    0  502 -0.82673336462E+02 -0.30643186151E+03 -0.69717412308E+03  0.76602136857E+03  0.12699999809E+01 0.  1.
</event>
<event>
 5   0  0.5467554E-03  0.1231010E+04  0.7818609E-02  0.9086139E-01
        2   -1    0    0  501    0  0.00000000000E+00  0.00000000000E+00  0.13032988996E+04  0.13032988996E+04  0.25500000920E-02 0. -1.
       -2   -1    0    0    0  501  0.00000000000E+00  0.00000000000E+00 -0.29068254693E+03  0.29068254695E+03  0.25500000920E-02 0.  1.
    10030    2    1    2    0    0  0.00000000000E+00  0.00000000000E+00  0.10126163527E+04  0.15939814466E+04  0.12310097377E+04 0.  0.
        1    1    3    3  502    0  0.17845614873E+03 -0.57692627821E+03  0.35224895632E+03  0.69912077266E+03  0.50400001928E-02 0. -1.
       -1    1    3    3    0  502 -0.17845614873E+03  0.57692627821E+03  0.66036739638E+03  0.89486067392E+03  0.50400001928E-02 0.  1.
</event>
<event>
 5   0  0.2930868E-03  0.9645484E+03  0.7818609E-02  0.9348306E-01
        1   -1    0    0  501    0  0.00000000000E+00  0.00000000000E+00  0.43289184817E+03  0.43289184820E+03  0.50400001928E-02 0. -1.
       -1   -1    0    0    0  501  0.00000000000E+00  0.00000000000E+00 -0.53728984994E+03  0.53728984996E+03  0.50400001928E-02 0.  1.
    10030    2    1    2    0    0  0.00000000000E+00  0.00000000000E+00 -0.10439800177E+03  0.97018169816E+03  0.96454838379E+03 0.  0.
        3    1    3    3  502    0  0.11283809682E+03  0.46778957174E+03 -0.19935717576E+02  0.48161910527E+03  0.10100000352E+00 0. -1.
       -3    1    3    3    0  502 -0.11283809682E+03 -0.46778957174E+03 -0.84462284193E+02  0.48856259289E+03  0.10100000352E+00 0.  1.
</event>
<event>
 5   0  0.2926844E-03  0.1210064E+04  0.7818609E-02  0.9104093E-01
        1   -1    0    0  501    0  0.00000000000E+00  0.00000000000E+00  0.79473528291E+03  0.79473528293E+03  0.50400001928E-02 0. -1.
       -1   -1    0    0    0  501  0.00000000000E+00  0.00000000000E+00 -0.46061092347E+03  0.46061092350E+03  0.50400001928E-02 0.  1.
    10030    2    1    2    0    0  0.00000000000E+00  0.00000000000E+00  0.33412435944E+03  0.12553462064E+04  0.12100640522E+04 0.  0.
        5    1    3    3  502    0 -0.87137594238E+01  0.58348678852E+02  0.79172520009E+03  0.79393411590E+03  0.46999998093E+01 0. -1.
       -5    1    3    3    0  502  0.87137594238E+01 -0.58348678852E+02 -0.45760084065E+03  0.46141209053E+03  0.46999998093E+01 0.  1.
</event>
<event>
 5   0  0.2930868E-03  0.1191512E+04  0.7818609E-02  0.9120318E-01
        1   -1    0    0  501    0  0.00000000000E+00  0.00000000000E+00  0.20214870218E+04  0.20214870218E+04  0.50400001928E-02 0. -1.
       -1   -1    0    0    0  501  0.00000000000E+00  0.00000000000E+00 -0.17557644018E+03  0.17557644025E+03  0.50400001928E-02 0.  1.
    10030    2    1    2    0    0  0.00000000000E+00  0.00000000000E+00  0.18459105816E+04  0.21970634620E+04  0.11915124762E+04 0.  0.
        3    1    3    3  502    0  0.18982703453E+02 -0.51745824123E+03  0.37969351355E+03  0.64209855076E+03  0.10100000352E+00 0.  1.
       -3    1    3    3    0  502 -0.18982703453E+02  0.51745824123E+03  0.14662170681E+04  0.15549649113E+04  0.10100000352E+00 0. -1.
</event>
<event>
 5   0  0.1922125E-03  0.1187580E+04  0.7818609E-02  0.9123797E-01
        3   -1    0    0  501    0  0.00000000000E+00  0.00000000000E+00  0.27675148289E+03  0.27675150132E+03  0.10100000352E+00 0. -1.
       -3   -1    0    0    0  501  0.00000000000E+00  0.00000000000E+00 -0.12740195246E+04  0.12740195286E+04  0.10100000352E+00 0.  1.
    10030    2    1    2    0    0  0.00000000000E+00  0.00000000000E+00 -0.99726804166E+03  0.15507710299E+04  0.11875804142E+04 0.  0.
        2    1    3    3  502    0 -0.27157422877E+03 -0.24496813514E+03 -0.11094817778E+04  0.11682087845E+04  0.25500000920E-02 0.  1.
       -2    1    3    3    0  502  0.27157422877E+03  0.24496813514E+03  0.11221373616E+03  0.38256224533E+03  0.25500000920E-02 0. -1.
</event>
<event>
 5   0  0.5003526E-03  0.1103158E+04  0.7818609E-02  0.9202120E-01
        2   -1    0    0  501    0  0.00000000000E+00  0.00000000000E+00  0.10957531965E+04  0.10957531965E+04  0.25500000920E-02 0. -1.
       -2   -1    0    0    0  501  0.00000000000E+00  0.00000000000E+00 -0.27765301478E+03  0.27765301480E+03  0.25500000920E-02 0.  1.
    10030    2    1    2    0    0  0.00000000000E+00  0.00000000000E+00  0.81810018176E+03  0.13734062113E+04  0.11031576107E+04 0.  0.
        2    1    3    3  502    0  0.79770274562E+01 -0.48278492548E+02  0.10930455877E+04  0.10941403487E+04  0.25500000920E-02 0. -1.
       -2    1    3    3    0  502 -0.79770274562E+01  0.48278492548E+02 -0.27494540593E+03  0.27926586268E+03  0.25500000920E-02 0.  1.
</event>
<event>
 5   0  0.2930868E-03  0.1199020E+04  0.7818609E-02  0.9113714E-01
       -1   -1    0    0    0  501  0.00000000000E+00  0.00000000000E+00  0.34439209611E+03  0.34439209615E+03  0.50400001928E-02 0.  1.
        1   -1    0    0  501    0  0.00000000000E+00  0.00000000000E+00 -0.10436142463E+04  0.10436142463E+04  0.50400001928E-02 0. -1.
    10030    2    1    2    0    0  0.00000000000E+00  0.00000000000E+00 -0.69922215016E+03  0.13880063424E+04  0.11990204299E+04 0.  0.
        3    1    3    3  502    0 -0.39874025879E+03  0.29959516954E+03  0.35479600337E+02  0.50000987173E+03  0.10100000352E+00 0.  1.
       -3    1    3    3    0  502  0.39874025879E+03 -0.29959516954E+03 -0.73470175049E+03  0.88799647069E+03  0.10100000352E+00 0. -1.
</event>
<event>
 5   0  0.5467554E-03  0.1196274E+04  0.7818609E-02  0.9116125E-01
        2   -1    0    0  501    0  0.00000000000E+00  0.00000000000E+00  0.25550225252E+04  0.25550225252E+04  0.25500000920E-02 0.  1.
       -2   -1    0    0    0  501  0.00000000000E+00  0.00000000000E+00 -0.14002523025E+03  0.14002523028E+03  0.25500000920E-02 0. -1.
    10030    2    1    2    0    0  0.00000000000E+00  0.00000000000E+00  0.24149972950E+04  0.26950477555E+04  0.11962735765E+04 0.  0.
        1    1    3    3  502    0  0.28935958807E+03 -0.50273490812E+03  0.15362651856E+04  0.16421273031E+04  0.50400001928E-02 0. -1.
       -1    1    3    3    0  502 -0.28935958807E+03  0.50273490812E+03  0.87873210941E+03  0.10529204524E+04  0.50400001928E-02 0.  1.
</event>
<event>
 5   0  0.5189537E-03  0.1188475E+04  0.7818609E-02  0.9123004E-01
        2   -1    0    0  501    0  0.00000000000E+00  0.00000000000E+00  0.19339141859E+04  0.19339141859E+04  0.25500000920E-02 0. -1.
       -2   -1    0    0    0  501  0.00000000000E+00  0.00000000000E+00 -0.18259252076E+03  0.18259252078E+03  0.25500000920E-02 0.  1.
    10030    2    1    2    0    0  0.00000000000E+00  0.00000000000E+00  0.17513216651E+04  0.21165067066E+04  0.11884751006E+04 0.  0.
        4    1    3    3  502    0 -0.11454753404E+03  0.56514392443E+03  0.62001070528E+03  0.84671345828E+03  0.12699999809E+01 0.  1.
       -4    1    3    3    0  502  0.11454753404E+03 -0.56514392443E+03  0.11313109598E+04  0.12697932484E+04  0.12699999809E+01 0. -1.
</event>
<event>
 5   0  0.2926844E-03  0.1219288E+04  0.7818609E-02  0.9096139E-01
        1   -1    0    0  501    0  0.00000000000E+00  0.00000000000E+00  0.12937742894E+04  0.12937742894E+04  0.50400001928E-02 0. -1.
       -1   -1    0    0    0  501  0.00000000000E+00  0.00000000000E+00 -0.28727253401E+03  0.28727253405E+03  0.50400001928E-02 0.  1.
    10030    2    1    2    0    0  0.00000000000E+00  0.00000000000E+00  0.10065017554E+04  0.15810468234E+04  0.12192880194E+04 0.  0.
        5    1    3    3  502    0 -0.59232734598E+03 -0.75585823101E+02  0.66247989196E+03  0.89188934219E+03  0.46999998093E+01 0. -1.
       -5    1    3    3    0  502  0.59232734598E+03  0.75585823101E+02  0.34402186340E+03  0.68915748124E+03  0.46999998093E+01 0.  1.
</event>
<event>
 5   0  0.5108045E-03  0.1379222E+04  0.7818609E-02  0.8968998E-01
        2   -1    0    0  501    0  0.00000000000E+00  0.00000000000E+00  0.86109088330E+03  0.86109088330E+03  0.25500000920E-02 0.  1.
       -2   -1    0    0    0  501  0.00000000000E+00  0.00000000000E+00 -0.55227994293E+03  0.55227994294E+03  0.25500000920E-02 0. -1.
    10030    2    1    2    0    0  0.00000000000E+00  0.00000000000E+00  0.30881094037E+03  0.14133708262E+04  0.13792218442E+04 0.  0.
        3    1    3    3  502    0  0.61898226951E+03  0.50054125139E+02 -0.15288360620E+03  0.63954505131E+03  0.10100000352E+00 0.  1.
       -3    1    3    3    0  502 -0.61898226951E+03 -0.50054125139E+02  0.46169454657E+03  0.77382577493E+03  0.10100000352E+00 0. -1.
</event>
<event>
 5   0  0.5108045E-03  0.1193245E+04  0.7818609E-02  0.9118789E-01
        2   -1    0    0  501    0  0.00000000000E+00  0.00000000000E+00  0.76587054966E+03  0.76587054966E+03  0.25500000920E-02 0. -1.
       -2   -1    0    0    0  501  0.00000000000E+00  0.00000000000E+00 -0.46477655311E+03  0.46477655312E+03  0.25500000920E-02 0.  1.
    10030    2    1    2    0    0  0.00000000000E+00  0.00000000000E+00  0.30109399655E+03  0.12306471028E+04  0.11932454470E+04 0.  0.
        3    1    3    3  502    0  0.51434921444E+03 -0.14967529335E+03 -0.12036671405E+03  0.54904094919E+03  0.10100000352E+00 0.  1.
       -3    1    3    3    0  502 -0.51434921444E+03  0.14967529335E+03  0.42146071060E+03  0.68160615359E+03  0.10100000352E+00 0. -1.
</event>
<event>
 5   0  0.2792518E-03  0.1219118E+04  0.7818609E-02  0.9096285E-01
        1   -1    0    0  501    0  0.00000000000E+00  0.00000000000E+00  0.15506104575E+04  0.15506104575E+04  0.50400001928E-02 0.  1.
       -1   -1    0    0    0  501  0.00000000000E+00  0.00000000000E+00 -0.23962322632E+03  0.23962322637E+03  0.50400001928E-02 0. -1.
    10030    2    1    2    0    0  0.00000000000E+00  0.00000000000E+00  0.13109872312E+04  0.17902336839E+04  0.12191181742E+04 0.  0.
        2    1    3    3  502    0  0.17068286303E+03 -0.50443410321E+03  0.21993589169E+03  0.57615813860E+03  0.25500000920E-02 0. -1.
       -2    1    3    3    0  502 -0.17068286303E+03  0.50443410321E+03  0.10910513395E+04  0.12140755453E+04  0.25500000920E-02 0.  1.
</event>
<event>
 5   0  0.2926844E-03  0.1233947E+04  0.7818609E-02  0.9083651E-01
        1   -1    0    0  501    0  0.00000000000E+00  0.00000000000E+00  0.14227621879E+04  0.14227621879E+04  0.50400001928E-02 0.  1.
       -1   -1    0    0    0  501  0.00000000000E+00  0.00000000000E+00 -0.26754717654E+03  0.26754717659E+03  0.50400001928E-02 0. -1.
    10030    2    1    2    0    0  0.00000000000E+00  0.00000000000E+00  0.11552150113E+04  0.16903093645E+04  0.12339465245E+04 0.  0.
        5    1    3    3  502    0 -0.69716975658E+02  0.60229255432E+03  0.42131878963E+03  0.73834164868E+03  0.46999998093E+01 0. -1.
       -5    1    3    3    0  502  0.69716975658E+02 -0.60229255432E+03  0.73389622171E+03  0.95196771579E+03  0.46999998093E+01 0.  1.
</event>
<event>
 5   0  0.2875848E-03  0.1193508E+04  0.7818609E-02  0.9118558E-01
       -1   -1    0    0    0  501  0.00000000000E+00  0.00000000000E+00  0.12595559719E+03  0.12595559729E+03  0.50400001928E-02 0. -1.
        1   -1    0    0  501    0  0.00000000000E+00  0.00000000000E+00 -0.28273086745E+04  0.28273086745E+04  0.50400001928E-02 0.  1.
    10030    2    1    2    0    0  0.00000000000E+00  0.00000000000E+00 -0.27013530773E+04  0.29532642718E+04  0.11935080271E+04 0.  0.
        1    1    3    3  502    0  0.52283022839E+02 -0.25616073146E+03 -0.23297870009E+02  0.26247785734E+03  0.50400001928E-02 0. -1.
       -1    1    3    3    0  502 -0.52283022839E+02  0.25616073146E+03 -0.26780552073E+04  0.26907864145E+04  0.50400001928E-02 0.  1.
</event>
<event>
 5   0  0.5031575E-03  0.1057116E+04  0.7818609E-02  0.9248028E-01
       -2   -1    0    0    0  501  0.00000000000E+00  0.00000000000E+00  0.71018832483E+03  0.71018832484E+03  0.25500000920E-02 0. -1.
        2   -1    0    0  501    0  0.00000000000E+00  0.00000000000E+00 -0.39337953364E+03  0.39337953365E+03  0.25500000920E-02 0.  1.
    10030    2    1    2    0    0  0.00000000000E+00  0.00000000000E+00  0.31680879119E+03  0.11035678585E+04  0.10571159861E+04 0.  0.
        5    1    3    3  502    0 -0.76209681068E+02 -0.52195952089E+03  0.19305643428E+03  0.56173172756E+03  0.46999998093E+01 0.  1.
       -5    1    3    3    0  502  0.76209681068E+02  0.52195952089E+03  0.12375235692E+03  0.54183613092E+03  0.46999998093E+01 0. -1.
</event>
<event>
 5   0  0.5108045E-03  0.1177896E+04  0.7818609E-02  0.9132427E-01
       -2   -1    0    0    0  501  0.00000000000E+00  0.00000000000E+00  0.28217386353E+03  0.28217386355E+03  0.25500000920E-02 0. -1.
        2   -1    0    0  501    0  0.00000000000E+00  0.00000000000E+00 -0.12292413847E+04  0.12292413847E+04  0.25500000920E-02 0.  1.
    10030    2    1    2    0    0  0.00000000000E+00  0.00000000000E+00 -0.94706752112E+03  0.15114152482E+04  0.11778960748E+04 0.  0.
        3    1    3    3  502    0  0.47568120969E+03 -0.32198393505E+03 -0.64040970390E+03  0.86027371616E+03  0.10100000352E+00 0. -1.
       -3    1    3    3    0  502 -0.47568120969E+03  0.32198393505E+03 -0.30665781722E+03  0.65114153204E+03  0.10100000352E+00 0.  1.
</event>
<event>
 5   0  0.5189537E-03  0.1184061E+04  0.7818609E-02  0.9126923E-01
       -2   -1    0    0    0  501  0.00000000000E+00  0.00000000000E+00  0.31177261999E+03  0.31177262000E+03  0.25500000920E-02 0.  1.
        2   -1    0    0  501    0  0.00000000000E+00  0.00000000000E+00 -0.11242175470E+04  0.11242175470E+04  0.25500000920E-02 0. -1.
    10030    2    1    2    0    0  0.00000000000E+00  0.00000000000E+00 -0.81244492698E+03  0.14359901670E+04  0.11840612316E+04 0.  0.
        4    1    3    3  502    0 -0.47987224479E+03  0.34234134690E+02 -0.82466970468E+03  0.95474136918E+03  0.12699999809E+01 0. -1.
       -4    1    3    3    0  502  0.47987224479E+03 -0.34234134690E+02  0.12224777704E+02  0.48124879780E+03  0.12699999809E+01 0.  1.
</event>
<event>
 5   0  0.5108045E-03  0.1206634E+04  0.7818609E-02  0.9107070E-01
        2   -1    0    0  501    0  0.00000000000E+00  0.00000000000E+00  0.62011471946E+03  0.62011471946E+03  0.25500000920E-02 0.  1.
       -2   -1    0    0    0  501  0.00000000000E+00  0.00000000000E+00 -0.58697411830E+03  0.58697411831E+03  0.25500000920E-02 0. -1.
    10030    2    1    2    0    0  0.00000000000E+00  0.00000000000E+00  0.33140601157E+02  0.12070888378E+04  0.12066338147E+04 0.  0.
        3    1    3    3  502    0  0.34698562283E+03 -0.17997339093E+03  0.47631061377E+03  0.61616658047E+03  0.10100000352E+00 0.  1.
       -3    1    3    3    0  502 -0.34698562283E+03  0.17997339093E+03 -0.44317001261E+03  0.59092225730E+03  0.10100000352E+00 0. -1.
</event>
<event>
 5   0  0.2926844E-03  0.9783016E+03  0.7818609E-02  0.9332669E-01
       -1   -1    0    0    0  501  0.00000000000E+00  0.00000000000E+00  0.33457391634E+03  0.33457391638E+03  0.50400001928E-02 0.  1.
        1   -1    0    0  501    0  0.00000000000E+00  0.00000000000E+00 -0.71514386874E+03  0.71514386876E+03  0.50400001928E-02 0. -1.
    10030    2    1    2    0    0  0.00000000000E+00  0.00000000000E+00 -0.38056995240E+03  0.10497177851E+04  0.97830155870E+03 0.  0.
        5    1    3    3  502    0 -0.42719143132E+03 -0.21850029804E+03 -0.88426247858E+02  0.48793051816E+03  0.46999998093E+01 0. -1.
       -5    1    3    3    0  502  0.42719143132E+03  0.21850029804E+03 -0.29214370454E+03  0.56178726698E+03  0.46999998093E+01 0.  1.
</event>
<event>
 5   0  0.2938349E-03  0.1196811E+04  0.7818609E-02  0.9115652E-01
        1   -1    0    0  501    0  0.00000000000E+00  0.00000000000E+00  0.94413511781E+03  0.94413511782E+03  0.50400001928E-02 0. -1.
       -1   -1    0    0    0  501  0.00000000000E+00  0.00000000000E+00 -0.37927750100E+03  0.37927750104E+03  0.50400001928E-02 0.  1.
    10030    2    1    2    0    0  0.00000000000E+00  0.00000000000E+00  0.56485761681E+03  0.13234126189E+04  0.11968111098E+04 0.  0.
        4    1    3    3  502    0 -0.47648870848E+03 -0.35420859532E+03  0.36504767589E+03  0.69696960973E+03  0.12699999809E+01 0.  1.
       -4    1    3    3    0  502  0.47648870848E+03  0.35420859532E+03  0.19980994091E+03  0.62644300913E+03  0.12699999809E+01 0. -1.
</event>
<event>
 5   0  0.2926844E-03  0.1263365E+04  0.7818609E-02  0.9059132E-01
       -1   -1    0    0    0  501  0.00000000000E+00  0.00000000000E+00  0.23982122996E+03  0.23982123001E+03  0.50400001928E-02 0. -1.
        1   -1    0    0  501    0  0.00000000000E+00  0.00000000000E+00 -0.16638352369E+04  0.16638352369E+04  0.50400001928E-02 0.  1.
    10030    2    1    2    0    0  0.00000000000E+00  0.00000000000E+00 -0.14240140069E+04  0.19036564669E+04  0.12633653676E+04 0.  0.
        5    1    3    3  502    0  0.21377372726E+03  0.70404197144E+02  0.17732594008E+03  0.28657029935E+03  0.46999998093E+01 0. -1.
       -5    1    3    3    0  502 -0.21377372726E+03 -0.70404197144E+02 -0.16013399470E+04  0.16170861675E+04  0.46999998093E+01 0.  1.
</event>
<event>
 5   0  0.2938349E-03  0.1181318E+04  0.7818609E-02  0.9129368E-01
        1   -1    0    0  501    0  0.00000000000E+00  0.00000000000E+00  0.58345215899E+03  0.58345215901E+03  0.50400001928E-02 0.  1.
       -1   -1    0    0    0  501  0.00000000000E+00  0.00000000000E+00 -0.59795494690E+03  0.59795494692E+03  0.50400001928E-02 0. -1.
    10030    2    1    2    0    0  0.00000000000E+00  0.00000000000E+00 -0.14502787912E+02  0.11814071059E+04  0.11813180855E+04 0.  0.
        4    1    3    3  502    0 -0.31082666205E+03 -0.48329251387E+03 -0.14397901101E+03  0.59238200202E+03  0.12699999809E+01 0. -1.
       -4    1    3    3    0  502  0.31082666205E+03  0.48329251387E+03  0.12947622310E+03  0.58902510392E+03  0.12699999809E+01 0.  1.
</event>
<event>
 5   0  0.5108045E-03  0.1208320E+04  0.7818609E-02  0.9105605E-01
       -2   -1    0    0    0  501  0.00000000000E+00  0.00000000000E+00  0.45913571225E+03  0.45913571225E+03  0.25500000920E-02 0. -1.
        2   -1    0    0  501    0  0.00000000000E+00  0.00000000000E+00 -0.79499260903E+03  0.79499260904E+03  0.25500000920E-02 0.  1.
    10030    2    1    2    0    0  0.00000000000E+00  0.00000000000E+00 -0.33585689679E+03  0.12541283213E+04  0.12083203181E+04 0.  0.
        3    1    3    3  502    0 -0.21739105893E+03  0.46985548716E+03  0.15530433197E+03  0.54050207867E+03  0.10100000352E+00 0.  1.
       -3    1    3    3    0  502  0.21739105893E+03 -0.46985548716E+03 -0.49116122876E+03  0.71362624262E+03  0.10100000352E+00 0. -1.
</event>
<event>
 5   0  0.2930868E-03  0.1174792E+04  0.7818609E-02  0.9135211E-01
        1   -1    0    0  501    0  0.00000000000E+00  0.00000000000E+00  0.64963167249E+03  0.64963167251E+03  0.50400001928E-02 0.  1.
       -1   -1    0    0    0  501  0.00000000000E+00  0.00000000000E+00 -0.53112285833E+03  0.53112285836E+03  0.50400001928E-02 0. -1.
    10030    2    1    2    0    0  0.00000000000E+00  0.00000000000E+00  0.11850881415E+03  0.11807545309E+04  0.11747922894E+04 0.  0.
        3    1    3    3  502    0 -0.13233719603E+03  0.34474831733E+00  0.63445336156E+03  0.64810827066E+03  0.10100000352E+00 0.  1.
       -3    1    3    3    0  502  0.13233719603E+03 -0.34474831733E+00 -0.51594454741E+03  0.53264626020E+03  0.10100000352E+00 0. -1.
</event>
<event>
 5   0  0.1922125E-03  0.1184302E+04  0.7818609E-02  0.9126709E-01
       -4   -1    0    0    0  501  0.00000000000E+00  0.00000000000E+00  0.10504303166E+04  0.10504310844E+04  0.12699999809E+01 0.  1.
        4   -1    0    0  501    0  0.00000000000E+00  0.00000000000E+00 -0.33380639238E+03  0.33380880829E+03  0.12699999809E+01 0. -1.
    10030    2    1    2    0    0  0.00000000000E+00  0.00000000000E+00  0.71662392426E+03  0.13842398927E+04  0.11843015797E+04 0.  0.
        1    1    3    3  502    0 -0.54108476837E+03  0.11929769696E+03  0.11414835733E+03  0.56571593098E+03  0.50400001928E-02 0. -1.
       -1    1    3    3    0  502  0.54108476837E+03 -0.11929769696E+03  0.60247556693E+03  0.81852396168E+03  0.50400001928E-02 0.  1.
</event>
<event>
 5   0  0.5108045E-03  0.1198513E+04  0.7818609E-02  0.9114159E-01
       -2   -1    0    0    0  501  0.00000000000E+00  0.00000000000E+00  0.38464632719E+03  0.38464632720E+03  0.25500000920E-02 0.  1.
        2   -1    0    0  501    0  0.00000000000E+00  0.00000000000E+00 -0.93360716993E+03  0.93360716994E+03  0.25500000920E-02 0. -1.
    10030    2    1    2    0    0  0.00000000000E+00  0.00000000000E+00 -0.54896084275E+03  0.13182534971E+04  0.11985133607E+04 0.  0.
        3    1    3    3  502    0 -0.31102770121E+03  0.15015207928E+03 -0.81312586434E+03  0.88343509059E+03  0.10100000352E+00 0. -1.
       -3    1    3    3    0  502  0.31102770121E+03 -0.15015207928E+03  0.26416502159E+03  0.43481840654E+03  0.10100000352E+00 0.  1.
</event>
<event>
 5   0  0.2930868E-03  0.9731911E+03  0.7818609E-02  0.9338447E-01
       -1   -1    0    0    0  501  0.00000000000E+00  0.00000000000E+00  0.29269755322E+03  0.29269755326E+03  0.50400001928E-02 0. -1.
        1   -1    0    0  501    0  0.00000000000E+00  0.00000000000E+00 -0.80894166679E+03  0.80894166681E+03  0.50400001928E-02 0.  1.
    10030    2    1    2    0    0  0.00000000000E+00  0.00000000000E+00 -0.51624411358E+03  0.11016392201E+04  0.97319113559E+03 0.  0.
        3    1    3    3  502    0  0.39844481587E+02 -0.44435625201E+03 -0.38227525488E+02  0.44777384394E+03  0.10100000352E+00 0. -1.
       -3    1    3    3    0  502 -0.39844481587E+02  0.44435625201E+03 -0.47801658809E+03  0.65386537613E+03  0.10100000352E+00 0.  1.
</event>
<event>
 5   0  0.5189537E-03  0.1144237E+04  0.7818609E-02  0.9163116E-01
       -2   -1    0    0    0  501  0.00000000000E+00  0.00000000000E+00  0.63026998134E+03  0.63026998134E+03  0.25500000920E-02 0.  1.
        2   -1    0    0  501    0  0.00000000000E+00  0.00000000000E+00 -0.51933254347E+03  0.51933254348E+03  0.25500000920E-02 0. -1.
    10030    2    1    2    0    0  0.00000000000E+00  0.00000000000E+00  0.11093743786E+03  0.11496025248E+04  0.11442372350E+04 0.  0.
        4    1    3    3  502    0 -0.49381578381E+03 -0.37179348046E+02  0.34331126146E+03  0.60257826663E+03  0.12699999809E+01 0.  1.
       -4    1    3    3    0  502  0.49381578381E+03  0.37179348046E+02 -0.23237382359E+03  0.54702425820E+03  0.12699999809E+01 0. -1.
</event>
<event>
 5   0  0.1922125E-03  0.1041489E+04  0.7818609E-02  0.9264175E-01
        4   -1    0    0  501    0  0.00000000000E+00  0.00000000000E+00  0.76221099396E+03  0.76221205200E+03  0.12699999809E+01 0. -1.
       -4   -1    0    0    0  501  0.00000000000E+00  0.00000000000E+00 -0.35577164337E+03  0.35577391013E+03  0.12699999809E+01 0.  1.
    10030    2    1    2    0    0  0.00000000000E+00  0.00000000000E+00  0.40643935059E+03  0.11179859621E+04  0.10414891578E+04 0.  0.
        3    1    3    3  502    0 -0.19392190677E+03  0.43249555978E+03 -0.28299235804E+02  0.47482520163E+03  0.10100000352E+00 0.  1.
       -3    1    3    3    0  502  0.19392190677E+03 -0.43249555978E+03  0.43473858639E+03  0.64316076050E+03  0.10100000352E+00 0. -1.
</event>
<event>
 5   0  0.2792518E-03  0.1221550E+04  0.7818609E-02  0.9094201E-01
        1   -1    0    0  501    0  0.00000000000E+00  0.00000000000E+00  0.58460003766E+03  0.58460003768E+03  0.50400001928E-02 0. -1.
       -1   -1    0    0    0  501  0.00000000000E+00  0.00000000000E+00 -0.63812154585E+03  0.63812154587E+03  0.50400001928E-02 0.  1.
    10030    2    1    2    0    0  0.00000000000E+00  0.00000000000E+00 -0.53521508192E+02  0.12227215836E+04  0.12215496384E+04 0.  0.
        2    1    3    3  502    0  0.38743152145E+03  0.89404615524E+02  0.43731052305E+03  0.59104725925E+03  0.25500000920E-02 0. -1.
       -2    1    3    3    0  502 -0.38743152145E+03 -0.89404615524E+02 -0.49083203124E+03  0.63167432430E+03  0.25500000920E-02 0.  1.
</event>
<event>
 5   0  0.2938349E-03  0.1212207E+04  0.7818609E-02  0.9102239E-01
        1   -1    0    0  501    0  0.00000000000E+00  0.00000000000E+00  0.10254205524E+04  0.10254205524E+04  0.50400001928E-02 0. -1.
       -1   -1    0    0    0  501  0.00000000000E+00  0.00000000000E+00 -0.35825423433E+03  0.35825423437E+03  0.50400001928E-02 0.  1.
    10030    2    1    2    0    0  0.00000000000E+00  0.00000000000E+00  0.66716631808E+03  0.13836747868E+04  0.12122066736E+04 0.  0.
        4    1    3    3  502    0 -0.37970486784E+03  0.11101377670E+03 -0.19056522169E+03  0.43910882694E+03  0.12699999809E+01 0.  1.
       -4    1    3    3    0  502  0.37970486784E+03 -0.11101377670E+03  0.85773153978E+03  0.94456595985E+03  0.12699999809E+01 0. -1.
</event>
<event>
 5   0  0.2930868E-03  0.1195319E+04  0.7818609E-02  0.9116964E-01
        1   -1    0    0  501    0  0.00000000000E+00  0.00000000000E+00  0.46525885335E+03  0.46525885337E+03  0.50400001928E-02 0. -1.
       -1   -1    0    0    0  501  0.00000000000E+00  0.00000000000E+00 -0.76773761523E+03  0.76773761525E+03  0.50400001928E-02 0.  1.
    10030    2    1    2    0    0  0.00000000000E+00  0.00000000000E+00 -0.30247876189E+03  0.12329964686E+04  0.11953187400E+04 0.  0.
        3    1    3    3  502    0  0.26476881173E+03 -0.97113600228E+02 -0.69478652432E+03  0.74984124959E+03  0.10100000352E+00 0.  1.
       -3    1    3    3    0  502 -0.26476881173E+03  0.97113600228E+02  0.39230776243E+03  0.48315521903E+03  0.10100000352E+00 0. -1.
</event>
<event>
 5   0  0.2926844E-03  0.1208943E+04  0.7818609E-02  0.9105065E-01
       -1   -1    0    0    0  501  0.00000000000E+00  0.00000000000E+00  0.25203728368E+03  0.25203728373E+03  0.50400001928E-02 0. -1.
        1   -1    0    0  501    0  0.00000000000E+00  0.00000000000E+00 -0.14497284624E+04  0.14497284624E+04  0.50400001928E-02 0.  1.
    10030    2    1    2    0    0  0.00000000000E+00  0.00000000000E+00 -0.11976911787E+04  0.17017657461E+04  0.12089427179E+04 0.  0.
        5    1    3    3  502    0  0.55925261141E+03 -0.82467361894E+02 -0.29759845293E+03  0.63886718363E+03  0.46999998093E+01 0. -1.
       -5    1    3    3    0  502 -0.55925261141E+03  0.82467361894E+02 -0.90009272578E+03  0.10628985625E+04  0.46999998093E+01 0.  1.
</event>
<event>
 5   0  0.5108045E-03  0.1201198E+04  0.7818609E-02  0.9111809E-01
       -2   -1    0    0    0  501  0.00000000000E+00  0.00000000000E+00  0.37342713592E+03  0.37342713593E+03  0.25500000920E-02 0. -1.
        2   -1    0    0  501    0  0.00000000000E+00  0.00000000000E+00 -0.96596853489E+03  0.96596853489E+03  0.25500000920E-02 0.  1.
    10030    2    1    2    0    0  0.00000000000E+00  0.00000000000E+00 -0.59254139896E+03  0.13393956708E+04  0.12011975081E+04 0.  0.
        3    1    3    3  502    0  0.14335691445E+03  0.19611099313E+03  0.31620374493E+03  0.39874245454E+03  0.10100000352E+00 0. -1.
       -3    1    3    3    0  502 -0.14335691445E+03 -0.19611099313E+03 -0.90874514389E+03  0.94065321628E+03  0.10100000352E+00 0.  1.
</event>
<event>
 5   0  0.2875848E-03  0.1261131E+04  0.7818609E-02  0.9060970E-01
        1   -1    0    0  501    0  0.00000000000E+00  0.00000000000E+00  0.59625276150E+03  0.59625276152E+03  0.50400001928E-02 0.  1.
       -1   -1    0    0    0  501  0.00000000000E+00  0.00000000000E+00 -0.66685271455E+03  0.66685271456E+03  0.50400001928E-02 0. -1.
    10030    2    1    2    0    0  0.00000000000E+00  0.00000000000E+00 -0.70599953047E+02  0.12631054761E+04  0.12611308776E+04 0.  0.
        1    1    3    3  502    0 -0.50098815267E+03  0.13123718755E+03  0.32498598663E+03  0.61141493280E+03  0.50400001928E-02 0. -1.
       -1    1    3    3    0  502  0.50098815267E+03 -0.13123718755E+03 -0.39558593968E+03  0.65169054329E+03  0.50400001928E-02 0.  1.
</event>
<event>
 5   0  0.5467554E-03  0.1208562E+04  0.7818609E-02  0.9105395E-01
       -2   -1    0    0    0  501  0.00000000000E+00  0.00000000000E+00  0.22198576773E+03  0.22198576774E+03  0.25500000920E-02 0. -1.
        2   -1    0    0  501    0  0.00000000000E+00  0.00000000000E+00 -0.16449499419E+04  0.16449499419E+04  0.25500000920E-02 0.  1.
    10030    2    1    2    0    0  0.00000000000E+00  0.00000000000E+00 -0.14229641742E+04  0.18669357096E+04  0.12085619152E+04 0.  0.
        1    1    3    3  502    0  0.32912969966E+03  0.10364504007E+03  0.54828167670E+02  0.34939201697E+03  0.50400001928E-02 0. -1.
       -1    1    3    3    0  502 -0.32912969966E+03 -0.10364504007E+03 -0.14777923418E+04  0.15175436927E+04  0.50400001928E-02 0.  1.
</event>
<event>
 5   0  0.2930868E-03  0.1201827E+04  0.7818609E-02  0.9111259E-01
        1   -1    0    0  501    0  0.00000000000E+00  0.00000000000E+00  0.52739600380E+03  0.52739600382E+03  0.50400001928E-02 0. -1.
       -1   -1    0    0    0  501  0.00000000000E+00  0.00000000000E+00 -0.68467890020E+03  0.68467890022E+03  0.50400001928E-02 0.  1.
    10030    2    1    2    0    0  0.00000000000E+00  0.00000000000E+00 -0.15728289640E+03  0.12120749040E+04  0.12018268026E+04 0.  0.
        3    1    3    3  502    0  0.27504678154E+03  0.35649619776E+03  0.32269232283E+03  0.55395903861E+03  0.10100000352E+00 0. -1.
       -3    1    3    3    0  502 -0.27504678154E+03 -0.35649619776E+03 -0.47997521923E+03  0.65811586543E+03  0.10100000352E+00 0.  1.
</event>
<event>
 5   0  0.2792518E-03  0.1213465E+04  0.7818609E-02  0.9101151E-01
        1   -1    0    0  501    0  0.00000000000E+00  0.00000000000E+00  0.45304480674E+03  0.45304480677E+03  0.50400001928E-02 0.  1.
       -1   -1    0    0    0  501  0.00000000000E+00  0.00000000000E+00 -0.81255661080E+03  0.81255661082E+03  0.50400001928E-02 0. -1.
    10030    2    1    2    0    0  0.00000000000E+00  0.00000000000E+00 -0.35951180406E+03  0.12656014176E+04  0.12134653728E+04 0.  0.
        2    1    3    3  502    0  0.10655459126E+03 -0.15048080837E+03 -0.78262750700E+03  0.80405482981E+03  0.25500000920E-02 0. -1.
       -2    1    3    3    0  502 -0.10655459126E+03  0.15048080837E+03  0.42311570294E+03  0.46154658778E+03  0.25500000920E-02 0.  1.
</event>
<event>
 5   0  0.2926844E-03  0.1193851E+04  0.7818609E-02  0.9118256E-01
       -1   -1    0    0    0  501  0.00000000000E+00  0.00000000000E+00  0.37086687154E+03  0.37086687158E+03  0.50400001928E-02 0. -1.
        1   -1    0    0  501    0  0.00000000000E+00  0.00000000000E+00 -0.96077564434E+03  0.96077564435E+03  0.50400001928E-02 0.  1.
    10030    2    1    2    0    0  0.00000000000E+00  0.00000000000E+00 -0.58990877280E+03  0.13316425159E+04  0.11938506732E+04 0.  0.
        5    1    3    3  502    0 -0.34796803906E+03  0.44307066186E+03 -0.51496164233E+03  0.76328300825E+03  0.46999998093E+01 0.  1.
       -5    1    3    3    0  502  0.34796803906E+03 -0.44307066186E+03 -0.74947130468E+02  0.56835950768E+03  0.46999998093E+01 0. -1.
</event>
<event>
 5   0  0.5031575E-03  0.9845429E+03  0.7818609E-02  0.9325662E-01
        2   -1    0    0  501    0  0.00000000000E+00  0.00000000000E+00  0.70725393512E+03  0.70725393513E+03  0.25500000920E-02 0.  1.
       -2   -1    0    0    0  501  0.00000000000E+00  0.00000000000E+00 -0.34263671088E+03  0.34263671089E+03  0.25500000920E-02 0. -1.
    10030    2    1    2    0    0  0.00000000000E+00  0.00000000000E+00  0.36461722424E+03  0.10498906460E+04  0.98454286264E+03 0.  0.
        5    1    3    3  502    0 -0.42814756279E+03  0.19640551057E+03  0.29911859169E+02  0.47201935281E+03  0.46999998093E+01 0. -1.
       -5    1    3    3    0  502  0.42814756279E+03 -0.19640551057E+03  0.33470536507E+03  0.57787129321E+03  0.46999998093E+01 0.  1.
</event>
<event>
 5   0  0.5031575E-03  0.1214447E+04  0.7818609E-02  0.9100304E-01
        2   -1    0    0  501    0  0.00000000000E+00  0.00000000000E+00  0.59252821541E+03  0.59252821542E+03  0.25500000920E-02 0. -1.
       -2   -1    0    0    0  501  0.00000000000E+00  0.00000000000E+00 -0.62228326366E+03  0.62228326366E+03  0.25500000920E-02 0.  1.
    10030    2    1    2    0    0  0.00000000000E+00  0.00000000000E+00 -0.29755048245E+02  0.12148114791E+04  0.12144470210E+04 0.  0.
        5    1    3    3  502    0  0.32755934303E+03  0.45507329374E+03 -0.24799568877E+03  0.61311563145E+03  0.46999998093E+01 0.  1.
       -5    1    3    3    0  502 -0.32755934303E+03 -0.45507329374E+03  0.21824064052E+03  0.60169584763E+03  0.46999998093E+01 0. -1.
</event>
<event>
 5   0  0.5031575E-03  0.1200209E+04  0.7818609E-02  0.9112673E-01
        2   -1    0    0  501    0  0.00000000000E+00  0.00000000000E+00  0.13023119342E+04  0.13023119342E+04  0.25500000920E-02 0.  1.
       -2   -1    0    0    0  501  0.00000000000E+00  0.00000000000E+00 -0.27652789672E+03  0.27652789673E+03  0.25500000920E-02 0. -1.
    10030    2    1    2    0    0  0.00000000000E+00  0.00000000000E+00  0.10257840375E+04  0.15788398310E+04  0.12002092818E+04 0.  0.
        5    1    3    3  502    0  0.54185482177E+03  0.21539233385E+03  0.32637804961E+03  0.66824039583E+03  0.46999998093E+01 0.  1.
       -5    1    3    3    0  502 -0.54185482177E+03 -0.21539233385E+03  0.69940598790E+03  0.91059943513E+03  0.46999998093E+01 0. -1.
</event>
<event>
 5   0  0.2938349E-03  0.1188607E+04  0.7818609E-02  0.9122888E-01
        1   -1    0    0  501    0  0.00000000000E+00  0.00000000000E+00  0.13732696774E+04  0.13732696774E+04  0.50400001928E-02 0. -1.
       -1   -1    0    0    0  501  0.00000000000E+00  0.00000000000E+00 -0.25719385377E+03  0.25719385382E+03  0.50400001928E-02 0.  1.
    10030    2    1    2    0    0  0.00000000000E+00  0.00000000000E+00  0.11160758236E+04  0.16304635312E+04  0.11886067821E+04 0.  0.
        4    1    3    3  502    0  0.16854255179E+03  0.13521922254E+03 -0.20139779681E+03  0.29538706026E+03  0.12699999809E+01 0.  1.
       -4    1    3    3    0  502 -0.16854255179E+03 -0.13521922254E+03  0.13174736204E+04  0.13350764710E+04  0.12699999809E+01 0. -1.
</event>
<event>
 5   0  0.5003526E-03  0.1202046E+04  0.7818609E-02  0.9111067E-01
       -2   -1    0    0    0  501  0.00000000000E+00  0.00000000000E+00  0.74423387634E+03  0.74423387634E+03  0.25500000920E-02 0.  1.
        2   -1    0    0  501    0  0.00000000000E+00  0.00000000000E+00 -0.48537010083E+03  0.48537010084E+03  0.25500000920E-02 0. -1.
    10030    2    1    2    0    0  0.00000000000E+00  0.00000000000E+00  0.25886377550E+03  0.12296039772E+04  0.12020463745E+04 0.  0.
        2    1    3    3  502    0  0.42507152472E+01 -0.53490756494E+03  0.40972973432E+03  0.67381201147E+03  0.25500000920E-02 0.  1.
       -2    1    3    3    0  502 -0.42507152472E+01  0.53490756494E+03 -0.15086595881E+03  0.55579196571E+03  0.25500000920E-02 0. -1.
</event>
<event>
 5   0  0.5108045E-03  0.1193223E+04  0.7818609E-02  0.9118809E-01
        2   -1    0    0  501    0  0.00000000000E+00  0.00000000000E+00  0.77351319987E+03  0.77351319987E+03  0.25500000920E-02 0.  1.
       -2   -1    0    0    0  501  0.00000000000E+00  0.00000000000E+00 -0.46016734306E+03  0.46016734306E+03  0.25500000920E-02 0. -1.
    10030    2    1    2    0    0  0.00000000000E+00  0.00000000000E+00  0.31334585681E+03  0.12336805429E+04  0.11932233890E+04 0.  0.
        3    1    3    3  502    0  0.44743837337E+03 -0.19874779126E+03 -0.19583241938E+03  0.52730648505E+03  0.10100000352E+00 0. -1.
       -3    1    3    3    0  502 -0.44743837337E+03  0.19874779126E+03  0.50917827620E+03  0.70637405788E+03  0.10100000352E+00 0.  1.
</event>
<event>
 5   0  0.2930868E-03  0.1204163E+04  0.7818609E-02  0.9109220E-01
       -1   -1    0    0    0  501  0.00000000000E+00  0.00000000000E+00  0.50437910391E+03  0.50437910394E+03  0.50400001928E-02 0. -1.
        1   -1    0    0  501    0  0.00000000000E+00  0.00000000000E+00 -0.71871014498E+03  0.71871014500E+03  0.50400001928E-02 0.  1.
    10030    2    1    2    0    0  0.00000000000E+00  0.00000000000E+00 -0.21433104107E+03  0.12230892489E+04  0.12041634091E+04 0.  0.
        3    1    3    3  502    0 -0.52238813680E+03  0.13056649166E+03 -0.38077900880E+03  0.65949195443E+03  0.10100000352E+00 0.  1.
       -3    1    3    3    0  502  0.52238813680E+03 -0.13056649166E+03  0.16644796773E+03  0.56359729451E+03  0.10100000352E+00 0. -1.
</event>
<event>
 5   0  0.5108045E-03  0.1197492E+04  0.7818609E-02  0.9115054E-01
       -2   -1    0    0    0  501  0.00000000000E+00  0.00000000000E+00  0.25923481069E+03  0.25923481070E+03  0.25500000920E-02 0.  1.
        2   -1    0    0  501    0  0.00000000000E+00  0.00000000000E+00 -0.13829040397E+04  0.13829040397E+04  0.25500000920E-02 0. -1.
    10030    2    1    2    0    0  0.00000000000E+00  0.00000000000E+00 -0.11236692290E+04  0.16421388504E+04  0.11974921577E+04 0.  0.
        3    1    3    3  502    0 -0.30094930430E+03 -0.78185148250E+01  0.14789901046E+03  0.33541875384E+03  0.10100000352E+00 0.  1.
       -3    1    3    3    0  502  0.30094930430E+03  0.78185148250E+01 -0.12715682395E+04  0.13067200966E+04  0.10100000352E+00 0. -1.
</event>
<event>
 5   0  0.2938349E-03  0.1187668E+04  0.7818609E-02  0.9123720E-01
       -1   -1    0    0    0  501  0.00000000000E+00  0.00000000000E+00  0.15901840560E+04  0.15901840560E+04  0.50400001928E-02 0. -1.
        1   -1    0    0  501    0  0.00000000000E+00  0.00000000000E+00 -0.22175978011E+03  0.22175978017E+03  0.50400001928E-02 0.  1.
    10030    2    1    2    0    0  0.00000000000E+00  0.00000000000E+00  0.13684242759E+04  0.18119438362E+04  0.11876680793E+04 0.  0.
        4    1    3    3  502    0  0.24425383482E+03  0.48023533893E+03  0.30325814180E+03  0.61826614823E+03  0.12699999809E+01 0.  1.
       -4    1    3    3    0  502 -0.24425383482E+03 -0.48023533893E+03  0.10651661341E+04  0.11936776880E+04  0.12699999809E+01 0. -1.
</event>
<event>
 5   0  0.5031575E-03  0.1206843E+04  0.7818609E-02  0.9106888E-01
       -2   -1    0    0    0  501  0.00000000000E+00  0.00000000000E+00  0.28666017492E+03  0.28666017493E+03  0.25500000920E-02 0. -1.
        2   -1    0    0  501    0  0.00000000000E+00  0.00000000000E+00 -0.12702069579E+04  0.12702069579E+04  0.25500000920E-02 0.  1.
    10030    2    1    2    0    0  0.00000000000E+00  0.00000000000E+00 -0.98354678296E+03  0.15568671328E+04  0.12068434012E+04 0.  0.
        5    1    3    3  502    0 -0.62615246315E+02 -0.51635257277E+03 -0.88635256204E+03  0.10277079365E+04  0.46999998093E+01 0.  1.
       -5    1    3    3    0  502  0.62615246315E+02  0.51635257277E+03 -0.97194220915E+02  0.52915919633E+03  0.46999998093E+01 0. -1.
</event>
<event>
 5   0  0.2930868E-03  0.1202365E+04  0.7818609E-02  0.9110789E-01
       -1   -1    0    0    0  501  0.00000000000E+00  0.00000000000E+00  0.46644169728E+03  0.46644169731E+03  0.50400001928E-02 0. -1.
        1   -1    0    0  501    0  0.00000000000E+00  0.00000000000E+00 -0.77484559050E+03  0.77484559052E+03  0.50400001928E-02 0.  1.
    10030    2    1    2    0    0  0.00000000000E+00  0.00000000000E+00 -0.30840389322E+03  0.12412872878E+04  0.12023648238E+04 0.  0.
        3    1    3    3  502    0 -0.11000487712E+03 -0.42991015285E+03 -0.57291291393E+03  0.72467443012E+03  0.10100000352E+00 0.  1.
       -3    1    3    3    0  502  0.11000487712E+03  0.42991015285E+03  0.26450902071E+03  0.51661285771E+03  0.10100000352E+00 0. -1.
</event>
<event>
 5   0  0.5003526E-03  0.1181322E+04  0.7818609E-02  0.9129364E-01
       -2   -1    0    0    0  501  0.00000000000E+00  0.00000000000E+00  0.69806691931E+03  0.69806691932E+03  0.25500000920E-02 0. -1.
        2   -1    0    0  501    0  0.00000000000E+00  0.00000000000E+00 -0.49978071272E+03  0.49978071272E+03  0.25500000920E-02 0.  1.
    10030    2    1    2    0    0  0.00000000000E+00  0.00000000000E+00  0.19828620660E+03  0.11978476320E+04  0.11813219417E+04 0.  0.
        2    1    3    3  502    0  0.52537500183E+03  0.14867432046E+03  0.32758888727E+03  0.63673968400E+03  0.25500000920E-02 0. -1.
       -2    1    3    3    0  502 -0.52537500183E+03 -0.14867432046E+03 -0.12930268068E+03  0.56110794804E+03  0.25500000920E-02 0.  1.
</event>
<event>
 5   0  0.2926844E-03  0.1201186E+04  0.7818609E-02  0.9111819E-01
        1   -1    0    0  501    0  0.00000000000E+00  0.00000000000E+00  0.25819133799E+03  0.25819133804E+03  0.50400001928E-02 0. -1.
       -1   -1    0    0    0  501  0.00000000000E+00  0.00000000000E+00 -0.13970721405E+04  0.13970721405E+04  0.50400001928E-02 0.  1.
    10030    2    1    2    0    0  0.00000000000E+00  0.00000000000E+00 -0.11388808025E+04  0.16552634785E+04  0.12011859561E+04 0.  0.
        5    1    3    3  502    0 -0.19872763840E+03  0.56639040158E+03 -0.54191183437E+03  0.80869109523E+03  0.46999998093E+01 0.  1.
       -5    1    3    3    0  502  0.19872763840E+03 -0.56639040158E+03 -0.59696896811E+03  0.84657238329E+03  0.46999998093E+01 0. -1.
</event>
<event>
 5   0  0.2792518E-03  0.1229033E+04  0.7818609E-02  0.9087817E-01
       -1   -1    0    0    0  501  0.00000000000E+00  0.00000000000E+00  0.83993917440E+03  0.83993917441E+03  0.50400001928E-02 0.  1.
        1   -1    0    0  501    0  0.00000000000E+00  0.00000000000E+00 -0.44959271626E+03  0.44959271629E+03  0.50400001928E-02 0. -1.
    10030    2    1    2    0    0  0.00000000000E+00  0.00000000000E+00  0.39034645814E+03  0.12895318907E+04  0.12290330100E+04 0.  0.
        2    1    3    3  502    0 -0.51520664296E+03  0.21735389642E+03  0.46257106944E+03  0.72570834054E+03  0.25500000920E-02 0.  1.
       -2    1    3    3    0  502  0.51520664296E+03 -0.21735389642E+03 -0.72224611302E+02  0.56382355017E+03  0.25500000920E-02 0. -1.
</event>
<event>
 5   0  0.2926844E-03  0.1197913E+04  0.7818609E-02  0.9114685E-01
       -1   -1    0    0    0  501  0.00000000000E+00  0.00000000000E+00  0.15960818646E+04  0.15960818647E+04  0.50400001928E-02 0. -1.
        1   -1    0    0  501    0  0.00000000000E+00  0.00000000000E+00 -0.22476865337E+03  0.22476865343E+03  0.50400001928E-02 0.  1.
    10030    2    1    2    0    0  0.00000000000E+00  0.00000000000E+00  0.13713132113E+04  0.18208505181E+04  0.11979134718E+04 0.  0.
        5    1    3    3  502    0  0.19444647992E+03 -0.37598605033E+03  0.41570196433E+02  0.42535292973E+03  0.46999998093E+01 0.  1.
       -5    1    3    3    0  502 -0.19444647992E+03  0.37598605033E+03  0.13297430148E+04  0.13954975884E+04  0.46999998093E+01 0. -1.
</event>
<event>
 5   0  0.5031575E-03  0.1226428E+04  0.7818609E-02  0.9090034E-01
       -2   -1    0    0    0  501  0.00000000000E+00  0.00000000000E+00  0.30951481150E+03  0.30951481151E+03  0.25500000920E-02 0. -1.
        2   -1    0    0  501    0  0.00000000000E+00  0.00000000000E+00 -0.12149055451E+04  0.12149055451E+04  0.25500000920E-02 0.  1.
    10030    2    1    2    0    0  0.00000000000E+00  0.00000000000E+00 -0.90539073357E+03  0.15244203566E+04  0.12264277570E+04 0.  0.
        5    1    3    3  502    0  0.14299661397E+03 -0.55259392517E+03 -0.73119161899E+03  0.92761595039E+03  0.46999998093E+01 0.  1.
       -5    1    3    3    0  502 -0.14299661397E+03  0.55259392517E+03 -0.17419911458E+03  0.59680440620E+03  0.46999998093E+01 0. -1.
</event>
<event>
 5   0  0.2926844E-03  0.1212127E+04  0.7818609E-02  0.9102308E-01
       -1   -1    0    0    0  501  0.00000000000E+00  0.00000000000E+00  0.17676951180E+03  0.17676951187E+03  0.50400001928E-02 0. -1.
        1   -1    0    0  501    0  0.00000000000E+00  0.00000000000E+00 -0.20779201653E+04  0.20779201653E+04  0.50400001928E-02 0.  1.
    10030    2    1    2    0    0  0.00000000000E+00  0.00000000000E+00 -0.19011506535E+04  0.22546896772E+04  0.12121269459E+04 0.  0.
        5    1    3    3  502    0  0.10780610248E+03 -0.13463394674E+03 -0.20312695497E+04  0.20385844424E+04  0.46999998093E+01 0.  1.
       -5    1    3    3    0  502 -0.10780610248E+03  0.13463394674E+03  0.13011889619E+03  0.21610523476E+03  0.46999998093E+01 0. -1.
</event>
<event>
 5   0  0.5467554E-03  0.1441152E+04  0.7818609E-02  0.8924558E-01
        2   -1    0    0  501    0  0.00000000000E+00  0.00000000000E+00  0.68257408407E+03  0.68257408407E+03  0.25500000920E-02 0. -1.
       -2   -1    0    0    0  501  0.00000000000E+00  0.00000000000E+00 -0.76069318989E+03  0.76069318990E+03  0.25500000920E-02 0.  1.
    10030    2    1    2    0    0  0.00000000000E+00  0.00000000000E+00 -0.78119105824E+02  0.14432672740E+04  0.14411515637E+04 0.  0.
        1    1    3    3  502    0 -0.65768168029E+02 -0.42660669585E+03 -0.61689077566E+03  0.75290965859E+03  0.50400001928E-02 0.  1.
       -1    1    3    3    0  502  0.65768168029E+02  0.42660669585E+03  0.53877166984E+03  0.69035761538E+03  0.50400001928E-02 0. -1.
</event>
<event>
 5   0  0.5031575E-03  0.7419600E+03  0.7818609E-02  0.9648049E-01
        2   -1    0    0  501    0  0.00000000000E+00  0.00000000000E+00  0.65239667078E+03  0.65239667079E+03  0.25500000920E-02 0. -1.
       -2   -1    0    0    0  501  0.00000000000E+00  0.00000000000E+00 -0.21095470354E+03  0.21095470356E+03  0.25500000920E-02 0.  1.
    10030    2    1    2    0    0  0.00000000000E+00  0.00000000000E+00  0.44144196724E+03  0.86335137435E+03  0.74195996196E+03 0.  0.
        5    1    3    3  502    0  0.25541171990E+02  0.24414720581E+03  0.54432954175E+03  0.59714064473E+03  0.46999998093E+01 0. -1.
       -5    1    3    3    0  502 -0.25541171990E+02 -0.24414720581E+03 -0.10288757452E+03  0.26621072961E+03  0.46999998093E+01 0.  1.
</event>
<event>
 5   0  0.5031575E-03  0.1193033E+04  0.7818609E-02  0.9118976E-01
        2   -1    0    0  501    0  0.00000000000E+00  0.00000000000E+00  0.49692423983E+03  0.49692423984E+03  0.25500000920E-02 0. -1.
       -2   -1    0    0    0  501  0.00000000000E+00  0.00000000000E+00 -0.71606921976E+03  0.71606921977E+03  0.25500000920E-02 0.  1.
    10030    2    1    2    0    0  0.00000000000E+00  0.00000000000E+00 -0.21914497993E+03  0.12129934596E+04  0.11930333653E+04 0.  0.
        5    1    3    3  502    0 -0.52291140488E+03 -0.72705518022E+02  0.17271928528E+03  0.55549659874E+03  0.46999998093E+01 0. -1.
       -5    1    3    3    0  502  0.52291140488E+03  0.72705518022E+02 -0.39186426522E+03  0.65749686087E+03  0.46999998093E+01 0.  1.
</event>
<event>
 5   0  0.2926844E-03  0.1197019E+04  0.7818609E-02  0.9115470E-01
        1   -1    0    0  501    0  0.00000000000E+00  0.00000000000E+00  0.68342734475E+03  0.68342734477E+03  0.50400001928E-02 0.  1.
       -1   -1    0    0    0  501  0.00000000000E+00  0.00000000000E+00 -0.52414289507E+03  0.52414289509E+03  0.50400001928E-02 0. -1.
    10030    2    1    2    0    0  0.00000000000E+00  0.00000000000E+00  0.15928444968E+03  0.12075702399E+04  0.11970189423E+04 0.  0.
        5    1    3    3  502    0  0.45441566613E+03 -0.19997180342E+03 -0.25753311596E+03  0.55931003531E+03  0.46999998093E+01 0. -1.
       -5    1    3    3    0  502 -0.45441566613E+03  0.19997180342E+03  0.41681756563E+03  0.64826020455E+03  0.46999998093E+01 0.  1.
</event>
<event>
 5   0  0.2926844E-03  0.1195239E+04  0.7818609E-02  0.9117034E-01
        1   -1    0    0  501    0  0.00000000000E+00  0.00000000000E+00  0.43438574238E+03  0.43438574241E+03  0.50400001928E-02 0.  1.
       -1   -1    0    0    0  501  0.00000000000E+00  0.00000000000E+00 -0.82219333348E+03  0.82219333350E+03  0.50400001928E-02 0. -1.
    10030    2    1    2    0    0  0.00000000000E+00  0.00000000000E+00 -0.38780759110E+03  0.12565790759E+04  0.11952389913E+04 0.  0.
        5    1    3    3  502    0  0.42847099385E+03  0.83543010340E+02  0.23515876063E+03  0.49587151546E+03  0.46999998093E+01 0.  1.
       -5    1    3    3    0  502 -0.42847099385E+03 -0.83543010340E+02 -0.62296635173E+03  0.76070756045E+03  0.46999998093E+01 0. -1.
</event>
<event>
 5   0  0.5031575E-03  0.1185565E+04  0.7818609E-02  0.9125586E-01
       -2   -1    0    0    0  501  0.00000000000E+00  0.00000000000E+00  0.79035552363E+03  0.79035552364E+03  0.25500000920E-02 0. -1.
        2   -1    0    0  501    0  0.00000000000E+00  0.00000000000E+00 -0.44459848169E+03  0.44459848170E+03  0.25500000920E-02 0.  1.
    10030    2    1    2    0    0  0.00000000000E+00  0.00000000000E+00  0.34575704194E+03  0.12349540053E+04  0.11855646179E+04 0.  0.
        5    1    3    3  502    0 -0.45098110812E+02 -0.84790460477E+02  0.78217824078E+03  0.78806608361E+03  0.46999998093E+01 0. -1.
       -5    1    3    3    0  502  0.45098110812E+02  0.84790460477E+02 -0.43642119884E+03  0.44688792172E+03  0.46999998093E+01 0.  1.
</event>
<event>
 5   0  0.2938349E-03  0.1187704E+04  0.7818609E-02  0.9123688E-01
        1   -1    0    0  501    0  0.00000000000E+00  0.00000000000E+00  0.10390631239E+04  0.10390631239E+04  0.50400001928E-02 0. -1.
       -1   -1    0    0    0  501  0.00000000000E+00  0.00000000000E+00 -0.33940196131E+03  0.33940196135E+03  0.50400001928E-02 0.  1.
    10030    2    1    2    0    0  0.00000000000E+00  0.00000000000E+00  0.69966116258E+03  0.13784650853E+04  0.11877037715E+04 0.  0.
        4    1    3    3  502    0  0.24881450475E+03 -0.19065989709E+03 -0.23555900087E+03  0.39210905361E+03  0.12699999809E+01 0.  1.
       -4    1    3    3    0  502 -0.24881450475E+03  0.19065989709E+03  0.93522016345E+03  0.98635603164E+03  0.12699999809E+01 0. -1.
</event>
<event>
 5   0  0.5467554E-03  0.1192675E+04  0.7818609E-02  0.9119292E-01
        2   -1    0    0  501    0  0.00000000000E+00  0.00000000000E+00  0.16918388501E+04  0.16918388501E+04  0.25500000920E-02 0.  1.
       -2   -1    0    0    0  501  0.00000000000E+00  0.00000000000E+00 -0.21019640516E+03  0.21019640518E+03  0.25500000920E-02 0. -1.
    10030    2    1    2    0    0  0.00000000000E+00  0.00000000000E+00  0.14816424449E+04  0.19020352552E+04  0.11926750512E+04 0.  0.
        1    1    3    3  502    0 -0.16051500692E+03  0.50211448130E+02 -0.17159034862E+03  0.24026965005E+03  0.50400001928E-02 0. -1.
       -1    1    3    3    0  502  0.16051500692E+03 -0.50211448130E+02  0.16532327935E+04  0.16617656052E+04  0.50400001928E-02 0.  1.
</event>
<event>
 5   0  0.2926844E-03  0.1255980E+04  0.7818609E-02  0.9065221E-01
       -1   -1    0    0    0  501  0.00000000000E+00  0.00000000000E+00  0.35074262483E+03  0.35074262487E+03  0.50400001928E-02 0. -1.
        1   -1    0    0  501    0  0.00000000000E+00  0.00000000000E+00 -0.11243898093E+04  0.11243898093E+04  0.50400001928E-02 0.  1.
    10030    2    1    2    0    0  0.00000000000E+00  0.00000000000E+00 -0.77364718442E+03  0.14751324341E+04  0.12559799888E+04 0.  0.
        5    1    3    3  502    0 -0.27059991912E+03  0.56241681843E+03 -0.30534812516E+03  0.69483563626E+03  0.46999998093E+01 0.  1.
       -5    1    3    3    0  502  0.27059991912E+03 -0.56241681843E+03 -0.46829905926E+03  0.78029679788E+03  0.46999998093E+01 0. -1.
</event>
<event>
 5   0  0.2875848E-03  0.1238778E+04  0.7818609E-02  0.9079576E-01
       -1   -1    0    0    0  501  0.00000000000E+00  0.00000000000E+00  0.38607738220E+03  0.38607738223E+03  0.50400001928E-02 0.  1.
        1   -1    0    0  501    0  0.00000000000E+00  0.00000000000E+00 -0.99369316105E+03  0.99369316106E+03  0.50400001928E-02 0. -1.
    10030    2    1    2    0    0  0.00000000000E+00  0.00000000000E+00 -0.60761577885E+03  0.13797705433E+04  0.12387775496E+04 0.  0.
        1    1    3    3  502    0 -0.48959483795E+03 -0.20893953408E+03  0.48910858678E+02  0.53455692529E+03  0.50400001928E-02 0.  1.
       -1    1    3    3    0  502  0.48959483795E+03  0.20893953408E+03 -0.65652663753E+03  0.84521361801E+03  0.50400001928E-02 0. -1.
</event>
<event>
 5   0  0.2875848E-03  0.1195195E+04  0.7818609E-02  0.9117073E-01
       -1   -1    0    0    0  501  0.00000000000E+00  0.00000000000E+00  0.35028422336E+03  0.35028422340E+03  0.50400001928E-02 0. -1.
        1   -1    0    0  501    0  0.00000000000E+00  0.00000000000E+00 -0.10195227927E+04  0.10195227927E+04  0.50400001928E-02 0.  1.
    10030    2    1    2    0    0  0.00000000000E+00  0.00000000000E+00 -0.66923856929E+03  0.13698070161E+04  0.11951949626E+04 0.  0.
        1    1    3    3  502    0  0.47873492295E+03  0.22397023462E+03 -0.14998555029E+02  0.52874828522E+03  0.50400001928E-02 0.  1.
       -1    1    3    3    0  502 -0.47873492295E+03 -0.22397023462E+03 -0.65424001426E+03  0.84105873085E+03  0.50400001928E-02 0. -1.
</event>
<event>
 5   0  0.2938349E-03  0.1205099E+04  0.7818609E-02  0.9108405E-01
       -1   -1    0    0    0  501  0.00000000000E+00  0.00000000000E+00  0.21746861680E+03  0.21746861686E+03  0.50400001928E-02 0. -1.
        1   -1    0    0  501    0  0.00000000000E+00  0.00000000000E+00 -0.16695107824E+04  0.16695107824E+04  0.50400001928E-02 0.  1.
    10030    2    1    2    0    0  0.00000000000E+00  0.00000000000E+00 -0.14520421656E+04  0.18869793993E+04  0.12050994990E+04 0.  0.
        4    1    3    3  502    0  0.13446171667E+03  0.51739973059E+03 -0.29072590104E+03  0.60852740029E+03  0.12699999809E+01 0. -1.
       -4    1    3    3    0  502 -0.13446171667E+03 -0.51739973059E+03 -0.11613162646E+04  0.12784519990E+04  0.12699999809E+01 0.  1.
</event>
<event>
 5   0  0.5189537E-03  0.1211427E+04  0.7818609E-02  0.9102913E-01
        2   -1    0    0  501    0  0.00000000000E+00  0.00000000000E+00  0.63280223024E+03  0.63280223024E+03  0.25500000920E-02 0. -1.
       -2   -1    0    0    0  501  0.00000000000E+00  0.00000000000E+00 -0.57978428123E+03  0.57978428123E+03  0.25500000920E-02 0.  1.
    10030    2    1    2    0    0  0.00000000000E+00  0.00000000000E+00  0.53017949007E+02  0.12125865115E+04  0.12114269045E+04 0.  0.
        4    1    3    3  502    0  0.49483920476E+03  0.97610547882E+02  0.36223055823E+03  0.62097201856E+03  0.12699999809E+01 0. -1.
       -4    1    3    3    0  502 -0.49483920476E+03 -0.97610547882E+02 -0.30921260922E+03  0.59161449291E+03  0.12699999809E+01 0.  1.
</event>
<event>
 5   0  0.5108045E-03  0.1162961E+04  0.7818609E-02  0.9145909E-01
        2   -1    0    0  501    0  0.00000000000E+00  0.00000000000E+00  0.51173098168E+03  0.51173098168E+03  0.25500000920E-02 0.  1.
       -2   -1    0    0    0  501  0.00000000000E+00  0.00000000000E+00 -0.66073696645E+03  0.66073696646E+03  0.25500000920E-02 0. -1.
    10030    2    1    2    0    0  0.00000000000E+00  0.00000000000E+00 -0.14900598478E+03  0.11724679481E+04  0.11629610079E+04 0.  0.
        3    1    3    3  502    0 -0.30503680170E+03 -0.23299577487E+03 -0.51486316680E+03  0.64219823437E+03  0.10100000352E+00 0. -1.
       -3    1    3    3    0  502  0.30503680170E+03  0.23299577487E+03  0.36585718202E+03  0.53026971377E+03  0.10100000352E+00 0.  1.
</event>
<event>
 5   0  0.2938349E-03  0.1186472E+04  0.7818609E-02  0.9124780E-01
        1   -1    0    0  501    0  0.00000000000E+00  0.00000000000E+00  0.18041949427E+04  0.18041949428E+04  0.50400001928E-02 0.  1.
       -1   -1    0    0    0  501  0.00000000000E+00  0.00000000000E+00 -0.19506154522E+03  0.19506154529E+03  0.50400001928E-02 0. -1.
    10030    2    1    2    0    0  0.00000000000E+00  0.00000000000E+00  0.16091333975E+04  0.19992564880E+04  0.11864721716E+04 0.  0.
        4    1    3    3  502    0  0.33326267819E+03 -0.45743931660E+03  0.11041666577E+04  0.12407660384E+04  0.12699999809E+01 0.  1.
       -4    1    3    3    0  502 -0.33326267819E+03  0.45743931660E+03  0.50496673982E+03  0.75849044969E+03  0.12699999809E+01 0. -1.
</event>
<event>
 5   0  0.5031575E-03  0.1024877E+04  0.7818609E-02  0.9281674E-01
        2   -1    0    0  501    0  0.00000000000E+00  0.00000000000E+00  0.87204095776E+03  0.87204095776E+03  0.25500000920E-02 0.  1.
       -2   -1    0    0    0  501  0.00000000000E+00  0.00000000000E+00 -0.30112467540E+03  0.30112467541E+03  0.25500000920E-02 0. -1.
    10030    2    1    2    0    0  0.00000000000E+00  0.00000000000E+00  0.57091628236E+03  0.11731656332E+04  0.10248766762E+04 0.  0.
        5    1    3    3  502    0 -0.38991054292E+03 -0.16528794619E+03 -0.44761731577E+02  0.42588265901E+03  0.46999998093E+01 0. -1.
       -5    1    3    3    0  502  0.38991054292E+03  0.16528794619E+03  0.61567801394E+03  0.74728297416E+03  0.46999998093E+01 0.  1.
</event>
<event>
 5   0  0.5031575E-03  0.1185374E+04  0.7818609E-02  0.9125756E-01
       -2   -1    0    0    0  501  0.00000000000E+00  0.00000000000E+00  0.58225292535E+03  0.58225292535E+03  0.25500000920E-02 0.  1.
        2   -1    0    0  501    0  0.00000000000E+00  0.00000000000E+00 -0.60330800443E+03  0.60330800443E+03  0.25500000920E-02 0. -1.
    10030    2    1    2    0    0  0.00000000000E+00  0.00000000000E+00 -0.21055079078E+02  0.11855609298E+04  0.11853739502E+04 0.  0.
        5    1    3    3  502    0 -0.34315233164E+03 -0.45927674642E+03  0.13971968322E+03  0.59011213543E+03  0.46999998093E+01 0. -1.
       -5    1    3    3    0  502  0.34315233164E+03  0.45927674642E+03 -0.16077476229E+03  0.59544879435E+03  0.46999998093E+01 0.  1.
</event>
<event>
 5   0  0.5189537E-03  0.1178953E+04  0.7818609E-02  0.9131481E-01
        2   -1    0    0  501    0  0.00000000000E+00  0.00000000000E+00  0.13432145723E+04  0.13432145723E+04  0.25500000920E-02 0.  1.
       -2   -1    0    0    0  501  0.00000000000E+00  0.00000000000E+00 -0.25869465253E+03  0.25869465254E+03  0.25500000920E-02 0. -1.
    10030    2    1    2    0    0  0.00000000000E+00  0.00000000000E+00  0.10845199198E+04  0.16019092248E+04  0.11789528015E+04 0.  0.
        4    1    3    3  502    0 -0.37570061268E+03  0.45133272886E+03  0.61192362994E+03  0.84811810751E+03  0.12699999809E+01 0. -1.
       -4    1    3    3    0  502  0.37570061268E+03 -0.45133272886E+03  0.47259628983E+03  0.75379111733E+03  0.12699999809E+01 0.  1.
</event>
<event>
 5   0  0.5003526E-03  0.1190268E+04  0.7818609E-02  0.9121418E-01
       -2   -1    0    0    0  501  0.00000000000E+00  0.00000000000E+00  0.30280258985E+03  0.30280258986E+03  0.25500000920E-02 0. -1.
        2   -1    0    0  501    0  0.00000000000E+00  0.00000000000E+00 -0.11696872899E+04  0.11696872899E+04  0.25500000920E-02 0.  1.
    10030    2    1    2    0    0  0.00000000000E+00  0.00000000000E+00 -0.86688470005E+03  0.14724898798E+04  0.11902677694E+04 0.  0.
        2    1    3    3  502    0 -0.26738271283E+03 -0.53166135833E+03 -0.43987360376E+03  0.74003114958E+03  0.25500000920E-02 0. -1.
       -2    1    3    3    0  502  0.26738271283E+03  0.53166135833E+03 -0.42701109630E+03  0.73245873019E+03  0.25500000920E-02 0.  1.
</event>
<event>
 5   0  0.5003526E-03  0.1231110E+04  0.7818609E-02  0.9086053E-01
        2   -1    0    0  501    0  0.00000000000E+00  0.00000000000E+00  0.10110827022E+04  0.10110827023E+04  0.25500000920E-02 0. -1.
       -2   -1    0    0    0  501  0.00000000000E+00  0.00000000000E+00 -0.37475476461E+03  0.37475476462E+03  0.25500000920E-02 0.  1.
    10030    2    1    2    0    0  0.00000000000E+00  0.00000000000E+00  0.63632793763E+03  0.13858374669E+04  0.12311101658E+04 0.  0.
        2    1    3    3  502    0  0.37941377173E+03  0.21986004791E+03 -0.16811829930E+03  0.46963497890E+03  0.25500000920E-02 0.  1.
       -2    1    3    3    0  502 -0.37941377173E+03 -0.21986004791E+03  0.80444623693E+03  0.91620248797E+03  0.25500000920E-02 0. -1.
</event>
<event>
 5   0  0.5003526E-03  0.1238210E+04  0.7818609E-02  0.9080054E-01
        2   -1    0    0  501    0  0.00000000000E+00  0.00000000000E+00  0.99800611883E+03  0.99800611883E+03  0.25500000920E-02 0.  1.
       -2   -1    0    0    0  501  0.00000000000E+00  0.00000000000E+00 -0.38405654556E+03  0.38405654556E+03  0.25500000920E-02 0. -1.
    10030    2    1    2    0    0  0.00000000000E+00  0.00000000000E+00  0.61394957327E+03  0.13820626644E+04  0.12382096469E+04 0.  0.
        2    1    3    3  502    0  0.16325031173E+03 -0.59657413054E+03  0.27662325606E+03  0.67754836234E+03  0.25500000920E-02 0. -1.
       -2    1    3    3    0  502 -0.16325031173E+03  0.59657413054E+03  0.33732631721E+03  0.70451430206E+03  0.25500000920E-02 0.  1.
</event>
<event>
 5   0  0.5108045E-03  0.1200786E+04  0.7818609E-02  0.9112169E-01
        2   -1    0    0  501    0  0.00000000000E+00  0.00000000000E+00  0.61838566753E+03  0.61838566754E+03  0.25500000920E-02 0. -1.
       -2   -1    0    0    0  501  0.00000000000E+00  0.00000000000E+00 -0.58292368459E+03  0.58292368459E+03  0.25500000920E-02 0.  1.
    10030    2    1    2    0    0  0.00000000000E+00  0.00000000000E+00  0.35461982948E+02  0.12013093521E+04  0.12007858291E+04 0.  0.
        3    1    3    3  502    0  0.57023026310E+03 -0.83105257700E+02 -0.15087320883E+03  0.59567757399E+03  0.10100000352E+00 0.  1.
       -3    1    3    3    0  502 -0.57023026310E+03  0.83105257700E+02  0.18633519177E+03  0.60563177815E+03  0.10100000352E+00 0. -1.
</event>
<event>
 5   0  0.5189537E-03  0.9321001E+03  0.7818609E-02  0.9386321E-01
        2   -1    0    0  501    0  0.00000000000E+00  0.00000000000E+00  0.21794054162E+04  0.21794054162E+04  0.25500000920E-02 0.  1.
       -2   -1    0    0    0  501  0.00000000000E+00  0.00000000000E+00 -0.99661430373E+02  0.99661430406E+02  0.25500000920E-02 0. -1.
    10030    2    1    2    0    0  0.00000000000E+00  0.00000000000E+00  0.20797439858E+04  0.22790668466E+04  0.93210012590E+03 0.  0.
        4    1    3    3  502    0  0.38512687031E+03 -0.78375589601E+02  0.16522950823E+04  0.16983951517E+04  0.12699999809E+01 0. -1.
       -4    1    3    3    0  502 -0.38512687031E+03  0.78375589601E+02  0.42744890349E+03  0.58067169491E+03  0.12699999809E+01 0.  1.
</event>
<event>
 5   0  0.5467554E-03  0.1192155E+04  0.7818609E-02  0.9119751E-01
       -2   -1    0    0    0  501  0.00000000000E+00  0.00000000000E+00  0.20685688468E+03  0.20685688470E+03  0.25500000920E-02 0. -1.
        2   -1    0    0  501    0  0.00000000000E+00  0.00000000000E+00 -0.17176533714E+04  0.17176533715E+04  0.25500000920E-02 0.  1.
    10030    2    1    2    0    0  0.00000000000E+00  0.00000000000E+00 -0.15107964868E+04  0.19245102562E+04  0.11921550661E+04 0.  0.
        1    1    3    3  502    0  0.12264614529E+03 -0.20502720967E+03 -0.16369814021E+04  0.16543235308E+04  0.50400001928E-02 0.  1.
       -1    1    3    3    0  502 -0.12264614529E+03  0.20502720967E+03  0.12618491536E+03  0.27018672534E+03  0.50400001928E-02 0. -1.
</event>
<event>
 5   0  0.2875848E-03  0.1217156E+04  0.7818609E-02  0.9097971E-01
       -1   -1    0    0    0  501  0.00000000000E+00  0.00000000000E+00  0.85224122442E+03  0.85224122443E+03  0.50400001928E-02 0.  1.
        1   -1    0    0  501    0  0.00000000000E+00  0.00000000000E+00 -0.43458049361E+03  0.43458049364E+03  0.50400001928E-02 0. -1.
    10030    2    1    2    0    0  0.00000000000E+00  0.00000000000E+00  0.41766073081E+03  0.12868217181E+04  0.12171563778E+04 0.  0.
        1    1    3    3  502    0  0.19321928525E+03  0.62169426249E+02 -0.39774009600E+03  0.44653769577E+03  0.50400001928E-02 0. -1.
       -1    1    3    3    0  502 -0.19321928525E+03 -0.62169426249E+02  0.81540082681E+03  0.84028402230E+03  0.50400001928E-02 0.  1.
</event>
<event>
 5   0  0.2930868E-03  0.1193381E+04  0.7818609E-02  0.9118670E-01
       -1   -1    0    0    0  501  0.00000000000E+00  0.00000000000E+00  0.15658978253E+03  0.15658978261E+03  0.50400001928E-02 0. -1.
        1   -1    0    0  501    0  0.00000000000E+00  0.00000000000E+00 -0.22737093961E+04  0.22737093961E+04  0.50400001928E-02 0.  1.
    10030    2    1    2    0    0  0.00000000000E+00  0.00000000000E+00 -0.21171196136E+04  0.24302991787E+04  0.11933811796E+04 0.  0.
        3    1    3    3  502    0 -0.20830471314E+03 -0.32899882444E+03 -0.19792851671E+04  0.20172260317E+04  0.10100000352E+00 0.  1.
       -3    1    3    3    0  502  0.20830471314E+03  0.32899882444E+03 -0.13783444653E+03  0.41307314709E+03  0.10100000352E+00 0. -1.
</event>
<event>
 5   0  0.2875848E-03  0.7999245E+03  0.7818609E-02  0.9560126E-01
       -1   -1    0    0    0  501  0.00000000000E+00  0.00000000000E+00  0.38157223881E+03  0.38157223885E+03  0.50400001928E-02 0.  1.
        1   -1    0    0  501    0  0.00000000000E+00  0.00000000000E+00 -0.41923854680E+03  0.41923854683E+03  0.50400001928E-02 0. -1.
    10030    2    1    2    0    0  0.00000000000E+00  0.00000000000E+00 -0.37666307984E+02  0.80081078568E+03  0.79992447375E+03 0.  0.
        1    1    3    3  502    0 -0.13766053326E+03 -0.11126738043E+03  0.34022695091E+03  0.38351692338E+03  0.50400001928E-02 0.  1.
       -1    1    3    3    0  502  0.13766053326E+03  0.11126738043E+03 -0.37789325890E+03  0.41729386230E+03  0.50400001928E-02 0. -1.
</event>
<event>
 5   0  0.5189537E-03  0.1188243E+04  0.7818609E-02  0.9123210E-01
        2   -1    0    0  501    0  0.00000000000E+00  0.00000000000E+00  0.13864186700E+04  0.13864186700E+04  0.25500000920E-02 0.  1.
       -2   -1    0    0    0  501  0.00000000000E+00  0.00000000000E+00 -0.25459857518E+03  0.25459857519E+03  0.25500000920E-02 0. -1.
    10030    2    1    2    0    0  0.00000000000E+00  0.00000000000E+00  0.11318200948E+04  0.16410172452E+04  0.11882427664E+04 0.  0.
        4    1    3    3  502    0  0.12976251373E+03  0.28819220570E+03  0.12606809773E+04  0.12996965788E+04  0.12699999809E+01 0.  1.
       -4    1    3    3    0  502 -0.12976251373E+03 -0.28819220570E+03 -0.12886088249E+03  0.34132066643E+03  0.12699999809E+01 0. -1.
</event>
<event>
 5   0  0.5003526E-03  0.1204484E+04  0.7818609E-02  0.9108941E-01
       -2   -1    0    0    0  501  0.00000000000E+00  0.00000000000E+00  0.23175324236E+03  0.23175324238E+03  0.25500000920E-02 0.  1.
        2   -1    0    0  501    0  0.00000000000E+00  0.00000000000E+00 -0.15650069003E+04  0.15650069003E+04  0.25500000920E-02 0. -1.
    10030    2    1    2    0    0  0.00000000000E+00  0.00000000000E+00 -0.13332536579E+04  0.17967601427E+04  0.12044839949E+04 0.  0.
        2    1    3    3  502    0  0.21830191560E+03 -0.43958198640E+03 -0.14600081748E+03  0.51205887145E+03  0.25500000920E-02 0.  1.
       -2    1    3    3    0  502 -0.21830191560E+03  0.43958198640E+03 -0.11872528405E+04  0.12847012712E+04  0.25500000920E-02 0. -1.
</event>
<event>
 5   0  0.5003526E-03  0.1261453E+04  0.7818609E-02  0.9060705E-01
       -2   -1    0    0    0  501  0.00000000000E+00  0.00000000000E+00  0.49487578678E+03  0.49487578679E+03  0.25500000920E-02 0.  1.
        2   -1    0    0  501    0  0.00000000000E+00  0.00000000000E+00 -0.80386978861E+03  0.80386978861E+03  0.25500000920E-02 0. -1.
    10030    2    1    2    0    0  0.00000000000E+00  0.00000000000E+00 -0.30899400183E+03  0.12987455754E+04  0.12614526453E+04 0.  0.
        2    1    3    3  502    0 -0.16505853119E+03 -0.42334017399E+03 -0.60487009558E+03  0.75652432490E+03  0.25500000920E-02 0. -1.
       -2    1    3    3    0  502  0.16505853119E+03  0.42334017399E+03  0.29587609376E+03  0.54222125050E+03  0.25500000920E-02 0.  1.
</event>
<event>
 5   0  0.5467554E-03  0.1207270E+04  0.7818609E-02  0.9106517E-01
       -2   -1    0    0    0  501  0.00000000000E+00  0.00000000000E+00  0.18238256525E+03  0.18238256527E+03  0.25500000920E-02 0.  1.
        2   -1    0    0  501    0  0.00000000000E+00  0.00000000000E+00 -0.19978617461E+04  0.19978617461E+04  0.25500000920E-02 0. -1.
    10030    2    1    2    0    0  0.00000000000E+00  0.00000000000E+00 -0.18154791809E+04  0.21802443114E+04  0.12072698957E+04 0.  0.
        1    1    3    3  502    0 -0.35271073304E+03  0.33241958320E+03 -0.15575418064E+04  0.16312094039E+04  0.50400001928E-02 0. -1.
       -1    1    3    3    0  502  0.35271073304E+03 -0.33241958320E+03 -0.25793737442E+03  0.54903490749E+03  0.50400001928E-02 0.  1.
</event>
<event>
 5   0  0.5031575E-03  0.1229188E+04  0.7818609E-02  0.9087685E-01
       -2   -1    0    0    0  501  0.00000000000E+00  0.00000000000E+00  0.58430956267E+03  0.58430956267E+03  0.25500000920E-02 0.  1.
        2   -1    0    0  501    0  0.00000000000E+00  0.00000000000E+00 -0.64644767977E+03  0.64644767978E+03  0.25500000920E-02 0. -1.
    10030    2    1    2    0    0  0.00000000000E+00  0.00000000000E+00 -0.62138117102E+02  0.12307572424E+04  0.12291876359E+04 0.  0.
        5    1    3    3  502    0  0.57156143630E+03  0.22353715175E+03 -0.63547145713E+02  0.61701836553E+03  0.46999998093E+01 0.  1.
       -5    1    3    3    0  502 -0.57156143630E+03 -0.22353715175E+03  0.14090286113E+01  0.61373887692E+03  0.46999998093E+01 0. -1.
</event>
<event>
 5   0  0.2792518E-03  0.1176235E+04  0.7818609E-02  0.9133916E-01
        1   -1    0    0  501    0  0.00000000000E+00  0.00000000000E+00  0.94104845483E+03  0.94104845484E+03  0.50400001928E-02 0.  1.
       -1   -1    0    0    0  501  0.00000000000E+00  0.00000000000E+00 -0.36755012402E+03  0.36755012405E+03  0.50400001928E-02 0. -1.
    10030    2    1    2    0    0  0.00000000000E+00  0.00000000000E+00  0.57349833081E+03  0.13085985789E+04  0.11762354804E+04 0.  0.
        2    1    3    3  502    0 -0.39402606962E+03  0.27365269688E+03 -0.91740616872E+02  0.48842469516E+03  0.25500000920E-02 0. -1.
       -2    1    3    3    0  502  0.39402606962E+03 -0.27365269688E+03  0.66523894768E+03  0.82017388374E+03  0.25500000920E-02 0.  1.
</event>
<event>
 5   0  0.2930868E-03  0.1275057E+04  0.7818609E-02  0.9049582E-01
        1   -1    0    0  501    0  0.00000000000E+00  0.00000000000E+00  0.62862530568E+03  0.62862530570E+03  0.50400001928E-02 0.  1.
       -1   -1    0    0    0  501  0.00000000000E+00  0.00000000000E+00 -0.64655795246E+03  0.64655795248E+03  0.50400001928E-02 0. -1.
    10030    2    1    2    0    0  0.00000000000E+00  0.00000000000E+00 -0.17932646774E+02  0.12751832582E+04  0.12750571603E+04 0.  0.
        3    1    3    3  502    0  0.39445666201E+03  0.48320389019E+03  0.12280642261E+03  0.63573853535E+03  0.10100000352E+00 0.  1.
       -3    1    3    3    0  502 -0.39445666201E+03 -0.48320389019E+03 -0.14073906938E+03  0.63944472283E+03  0.10100000352E+00 0. -1.
</event>
<event>
 5   0  0.2875848E-03  0.1206336E+04  0.7818609E-02  0.9107328E-01
       -1   -1    0    0    0  501  0.00000000000E+00  0.00000000000E+00  0.31018906388E+03  0.31018906392E+03  0.50400001928E-02 0. -1.
        1   -1    0    0  501    0  0.00000000000E+00  0.00000000000E+00 -0.11728712277E+04  0.11728712277E+04  0.50400001928E-02 0.  1.
    10030    2    1    2    0    0  0.00000000000E+00  0.00000000000E+00 -0.86268216383E+03  0.14830602916E+04  0.12063363183E+04 0.  0.
        1    1    3    3  502    0  0.42463981113E+03  0.28228367320E+03 -0.82744347097E+03  0.97193916426E+03  0.50400001928E-02 0.  1.
       -1    1    3    3    0  502 -0.42463981113E+03 -0.28228367320E+03 -0.35238692861E+02  0.51112112738E+03  0.50400001928E-02 0. -1.
</event>
<event>
 5   0  0.2792518E-03  0.1185447E+04  0.7818609E-02  0.9125691E-01
       -1   -1    0    0    0  501  0.00000000000E+00  0.00000000000E+00  0.54468774932E+03  0.54468774935E+03  0.50400001928E-02 0.  1.
        1   -1    0    0  501    0  0.00000000000E+00  0.00000000000E+00 -0.64499496995E+03  0.64499496996E+03  0.50400001928E-02 0. -1.
    10030    2    1    2    0    0  0.00000000000E+00  0.00000000000E+00 -0.10030722062E+03  0.11896827193E+04  0.11854465126E+04 0.  0.
        2    1    3    3  502    0 -0.31930207082E+03  0.15764056639E+03 -0.52567857240E+03  0.63493489595E+03  0.25500000920E-02 0. -1.
       -2    1    3    3    0  502  0.31930207082E+03 -0.15764056639E+03  0.42537135178E+03  0.55474782336E+03  0.25500000920E-02 0.  1.
</event>
<event>
 5   0  0.5108045E-03  0.1253370E+04  0.7818609E-02  0.9067383E-01
       -2   -1    0    0    0  501  0.00000000000E+00  0.00000000000E+00  0.68701596229E+03  0.68701596229E+03  0.25500000920E-02 0. -1.
        2   -1    0    0  501    0  0.00000000000E+00  0.00000000000E+00 -0.57165214349E+03  0.57165214350E+03  0.25500000920E-02 0.  1.
    10030    2    1    2    0    0  0.00000000000E+00  0.00000000000E+00  0.11536381879E+03  0.12586681058E+04  0.12533700929E+04 0.  0.
        3    1    3    3  502    0 -0.38563196192E+03 -0.15305589400E+03  0.52934374478E+03  0.67256444084E+03  0.10100000352E+00 0. -1.
       -3    1    3    3    0  502  0.38563196192E+03  0.15305589400E+03 -0.41397992599E+03  0.58610366495E+03  0.10100000352E+00 0.  1.
</event>
<event>
 5   0  0.2792518E-03  0.1203539E+04  0.7818609E-02  0.9109765E-01
       -1   -1    0    0    0  501  0.00000000000E+00  0.00000000000E+00  0.28222223095E+03  0.28222223099E+03  0.50400001928E-02 0.  1.
        1   -1    0    0  501    0  0.00000000000E+00  0.00000000000E+00 -0.12831250887E+04  0.12831250887E+04  0.50400001928E-02 0. -1.
    10030    2    1    2    0    0  0.00000000000E+00  0.00000000000E+00 -0.10009028577E+04  0.15653473197E+04  0.12035388239E+04 0.  0.
        2    1    3    3  502    0 -0.49199158684E+03  0.31313156740E+03 -0.69344934139E+03  0.90607896405E+03  0.25500000920E-02 0. -1.
       -2    1    3    3    0  502  0.49199158684E+03 -0.31313156740E+03 -0.30745351634E+03  0.65926835563E+03  0.25500000920E-02 0.  1.
</event>
<event>
 5   0  0.5031575E-03  0.1216077E+04  0.7818609E-02  0.9098900E-01
        2   -1    0    0  501    0  0.00000000000E+00  0.00000000000E+00  0.74006536585E+03  0.74006536585E+03  0.25500000920E-02 0.  1.
       -2   -1    0    0    0  501  0.00000000000E+00  0.00000000000E+00 -0.49956500914E+03  0.49956500915E+03  0.25500000920E-02 0. -1.
    10030    2    1    2    0    0  0.00000000000E+00  0.00000000000E+00  0.24050035671E+03  0.12396303750E+04  0.12160769075E+04 0.  0.
        5    1    3    3  502    0  0.95482808932E+02 -0.34374554232E+02  0.73135290177E+03  0.73837506303E+03  0.46999998093E+01 0.  1.
       -5    1    3    3    0  502 -0.95482808932E+02  0.34374554232E+02 -0.49085254507E+03  0.50125531197E+03  0.46999998093E+01 0. -1.
</event>
<event>
 5   0  0.5467554E-03  0.1187398E+04  0.7818609E-02  0.9123959E-01
       -2   -1    0    0    0  501  0.00000000000E+00  0.00000000000E+00  0.46746464143E+03  0.46746464143E+03  0.25500000920E-02 0.  1.
        2   -1    0    0  501    0  0.00000000000E+00  0.00000000000E+00 -0.75402183991E+03  0.75402183991E+03  0.25500000920E-02 0. -1.
    10030    2    1    2    0    0  0.00000000000E+00  0.00000000000E+00 -0.28655719848E+03  0.12214864813E+04  0.11873980782E+04 0.  0.
        1    1    3    3  502    0 -0.36605100557E+03 -0.12039963413E+03  0.32133920174E+03  0.50174524729E+03  0.50400001928E-02 0.  1.
       -1    1    3    3    0  502  0.36605100557E+03  0.12039963413E+03 -0.60789640022E+03  0.71974123406E+03  0.50400001928E-02 0. -1.
</event>
<event>
 5   0  0.2926844E-03  0.1204874E+04  0.7818609E-02  0.9108601E-01
       -1   -1    0    0    0  501  0.00000000000E+00  0.00000000000E+00  0.22855855600E+03  0.22855855606E+03  0.50400001928E-02 0. -1.
        1   -1    0    0  501    0  0.00000000000E+00  0.00000000000E+00 -0.15879101548E+04  0.15879101548E+04  0.50400001928E-02 0.  1.
    10030    2    1    2    0    0  0.00000000000E+00  0.00000000000E+00 -0.13593515988E+04  0.18164687108E+04  0.12048741878E+04 0.  0.
        5    1    3    3  502    0  0.38552546421E+03  0.45040441212E+03 -0.84074470240E+03  0.10287700242E+04  0.46999998093E+01 0. -1.
       -5    1    3    3    0  502 -0.38552546421E+03 -0.45040441212E+03 -0.51860689636E+03  0.78769868666E+03  0.46999998093E+01 0.  1.
</event>
<event>
 5   0  0.2930868E-03  0.1213722E+04  0.7818609E-02  0.9100930E-01
       -1   -1    0    0    0  501  0.00000000000E+00  0.00000000000E+00  0.78441641096E+03  0.78441641097E+03  0.50400001928E-02 0.  1.
        1   -1    0    0  501    0  0.00000000000E+00  0.00000000000E+00 -0.46949555492E+03  0.46949555494E+03  0.50400001928E-02 0. -1.
    10030    2    1    2    0    0  0.00000000000E+00  0.00000000000E+00  0.31492085604E+03  0.12539119659E+04  0.12137215796E+04 0.  0.
        3    1    3    3  502    0 -0.18199646453E+03  0.53066154466E+03  0.39654441989E+03  0.68700209260E+03  0.10100000352E+00 0.  1.
       -3    1    3    3    0  502  0.18199646453E+03 -0.53066154466E+03 -0.81623563851E+02  0.56690987332E+03  0.10100000352E+00 0. -1.
</event>
<event>
 5   0  0.2875848E-03  0.1225856E+04  0.7818609E-02  0.9090521E-01
       -1   -1    0    0    0  501  0.00000000000E+00  0.00000000000E+00  0.23456155543E+03  0.23456155549E+03  0.50400001928E-02 0.  1.
        1   -1    0    0  501    0  0.00000000000E+00  0.00000000000E+00 -0.16016293757E+04  0.16016293757E+04  0.50400001928E-02 0. -1.
    10030    2    1    2    0    0  0.00000000000E+00  0.00000000000E+00 -0.13670678202E+04  0.18361909312E+04  0.12258559094E+04 0.  0.
        1    1    3    3  502    0  0.47520269077E+03 -0.13990422615E+03 -0.14286204828E+03  0.51555829416E+03  0.50400001928E-02 0.  1.
       -1    1    3    3    0  502 -0.47520269077E+03  0.13990422615E+03 -0.12242057720E+04  0.13206326370E+04  0.50400001928E-02 0. -1.
</event>
<event>
 5   0  0.2926844E-03  0.1189528E+04  0.7818609E-02  0.9122073E-01
       -1   -1    0    0    0  501  0.00000000000E+00  0.00000000000E+00  0.45116764575E+03  0.45116764578E+03  0.50400001928E-02 0. -1.
        1   -1    0    0  501    0  0.00000000000E+00  0.00000000000E+00 -0.78406354368E+03  0.78406354370E+03  0.50400001928E-02 0.  1.
    10030    2    1    2    0    0  0.00000000000E+00  0.00000000000E+00 -0.33289589793E+03  0.12352311895E+04  0.11895278108E+04 0.  0.
        5    1    3    3  502    0 -0.59439607038E+02 -0.54691332742E+03  0.68232445759E+02  0.55436902082E+03  0.46999998093E+01 0. -1.
       -5    1    3    3    0  502  0.59439607038E+02  0.54691332742E+03 -0.40112834369E+03  0.68086216865E+03  0.46999998093E+01 0.  1.
</event>
<event>
 5   0  0.5003526E-03  0.1247068E+04  0.7818609E-02  0.9072627E-01
       -2   -1    0    0    0  501  0.00000000000E+00  0.00000000000E+00  0.31543329906E+03  0.31543329907E+03  0.25500000920E-02 0. -1.
        2   -1    0    0  501    0  0.00000000000E+00  0.00000000000E+00 -0.12325733191E+04  0.12325733191E+04  0.25500000920E-02 0.  1.
    10030    2    1    2    0    0  0.00000000000E+00  0.00000000000E+00 -0.91714002004E+03  0.15480066182E+04  0.12470680309E+04 0.  0.
        2    1    3    3  502    0 -0.39236186468E+03 -0.41309048345E+03 -0.14404105969E+03  0.58765585784E+03  0.25500000920E-02 0. -1.
       -2    1    3    3    0  502  0.39236186468E+03  0.41309048345E+03 -0.77309896036E+03  0.96035076034E+03  0.25500000920E-02 0.  1.
</event>
<event>
 5   0  0.2792518E-03  0.1215856E+04  0.7818609E-02  0.9099090E-01
       -1   -1    0    0    0  501  0.00000000000E+00  0.00000000000E+00  0.25432134153E+03  0.25432134158E+03  0.50400001928E-02 0. -1.
        1   -1    0    0  501    0  0.00000000000E+00  0.00000000000E+00 -0.14531874119E+04  0.14531874119E+04  0.50400001928E-02 0.  1.
    10030    2    1    2    0    0  0.00000000000E+00  0.00000000000E+00 -0.11988660703E+04  0.17075087535E+04  0.12158561957E+04 0.  0.
        2    1    3    3  502    0  0.12063348105E+03  0.17966176212E+03 -0.13972642378E+04  0.14139229596E+04  0.25500000920E-02 0.  1.
       -2    1    3    3    0  502 -0.12063348105E+03 -0.17966176212E+03  0.19839816742E+03  0.29358579387E+03  0.25500000920E-02 0. -1.
</event>
<event>
 5   0  0.5031575E-03  0.1155749E+04  0.7818609E-02  0.9152496E-01
       -2   -1    0    0    0  501  0.00000000000E+00  0.00000000000E+00  0.24043865455E+03  0.24043865456E+03  0.25500000920E-02 0.  1.
        2   -1    0    0  501    0  0.00000000000E+00  0.00000000000E+00 -0.13888734551E+04  0.13888734551E+04  0.25500000920E-02 0. -1.
    10030    2    1    2    0    0  0.00000000000E+00  0.00000000000E+00 -0.11484348006E+04  0.16293121097E+04  0.11557488739E+04 0.  0.
        5    1    3    3  502    0  0.46993131601E+02  0.14998569709E+03  0.20969850419E+03  0.26210611669E+03  0.46999998093E+01 0.  1.
       -5    1    3    3    0  502 -0.46993131601E+02 -0.14998569709E+03 -0.13581333048E+04  0.13672059930E+04  0.46999998093E+01 0. -1.
</event>
<event>
 5   0  0.2875848E-03  0.1190233E+04  0.7818609E-02  0.9121449E-01
        1   -1    0    0  501    0  0.00000000000E+00  0.00000000000E+00  0.15668374800E+04  0.15668374800E+04  0.50400001928E-02 0. -1.
       -1   -1    0    0    0  501  0.00000000000E+00  0.00000000000E+00 -0.22603709350E+03  0.22603709355E+03  0.50400001928E-02 0.  1.
    10030    2    1    2    0    0  0.00000000000E+00  0.00000000000E+00  0.13408003865E+04  0.17928745735E+04  0.11902325655E+04 0.  0.
        1    1    3    3  502    0 -0.10423359251E+03 -0.73647710409E+02  0.15459804424E+04  0.15512395545E+04  0.50400001928E-02 0. -1.
       -1    1    3    3    0  502  0.10423359251E+03  0.73647710409E+02 -0.20518005593E+03  0.24163501905E+03  0.50400001928E-02 0.  1.
</event>
<event>
 5   0  0.5031575E-03  0.1247674E+04  0.7818609E-02  0.9072122E-01
        2   -1    0    0  501    0  0.00000000000E+00  0.00000000000E+00  0.15156231237E+04  0.15156231237E+04  0.25500000920E-02 0. -1.
       -2   -1    0    0    0  501  0.00000000000E+00  0.00000000000E+00 -0.25677378828E+03  0.25677378829E+03  0.25500000920E-02 0.  1.
    10030    2    1    2    0    0  0.00000000000E+00  0.00000000000E+00  0.12588493354E+04  0.17723969120E+04  0.12476735007E+04 0.  0.
        5    1    3    3  502    0 -0.43869122878E+02 -0.43650988398E+03 -0.58245192800E+00  0.43873432508E+03  0.46999998093E+01 0.  1.
       -5    1    3    3    0  502  0.43869122878E+02  0.43650988398E+03  0.12594317874E+04  0.13336625869E+04  0.46999998093E+01 0. -1.
</event>
<event>
 5   0  0.5031575E-03  0.1189630E+04  0.7818609E-02  0.9121982E-01
        2   -1    0    0  501    0  0.00000000000E+00  0.00000000000E+00  0.13611654374E+04  0.13611654374E+04  0.25500000920E-02 0. -1.
       -2   -1    0    0    0  501  0.00000000000E+00  0.00000000000E+00 -0.25992801536E+03  0.25992801537E+03  0.25500000920E-02 0.  1.
    10030    2    1    2    0    0  0.00000000000E+00  0.00000000000E+00  0.11012374220E+04  0.16210934528E+04  0.11896302463E+04 0.  0.
        5    1    3    3  502    0  0.22066384106E+03  0.51298471489E+03  0.27156023910E+03  0.62097737633E+03  0.46999998093E+01 0.  1.
       -5    1    3    3    0  502 -0.22066384106E+03 -0.51298471489E+03  0.82967718294E+03  0.10001160764E+04  0.46999998093E+01 0. -1.
</event>
<event>
 5   0  0.1922125E-03  0.1239036E+04  0.7818609E-02  0.9079358E-01
       -4   -1    0    0    0  501  0.00000000000E+00  0.00000000000E+00  0.14111480948E+04  0.14111486663E+04  0.12699999809E+01 0. -1.
        4   -1    0    0  501    0  0.00000000000E+00  0.00000000000E+00 -0.27197680514E+03  0.27197977026E+03  0.12699999809E+01 0.  1.
    10030    2    1    2    0    0  0.00000000000E+00  0.00000000000E+00  0.11391712896E+04  0.16831284365E+04  0.12390359586E+04 0.  0.
        2    1    3    3  502    0  0.19295428511E+03 -0.30742914026E+03  0.12515850813E+04  0.13031535781E+04  0.25500000920E-02 0. -1.
       -2    1    3    3    0  502 -0.19295428511E+03  0.30742914026E+03 -0.11241379169E+03  0.37997485837E+03  0.25500000920E-02 0.  1.
</event>
<event>
 5   0  0.5108045E-03  0.1206744E+04  0.7818609E-02  0.9106974E-01
       -2   -1    0    0    0  501  0.00000000000E+00  0.00000000000E+00  0.43988699893E+03  0.43988699894E+03  0.25500000920E-02 0. -1.
        2   -1    0    0  501    0  0.00000000000E+00  0.00000000000E+00 -0.82761723498E+03  0.82761723499E+03  0.25500000920E-02 0.  1.
    10030    2    1    2    0    0  0.00000000000E+00  0.00000000000E+00 -0.38773023605E+03  0.12675042339E+04  0.12067444829E+04 0.  0.
        3    1    3    3  502    0 -0.98960759499E+02 -0.47488938921E+03  0.18301141239E+03  0.51846538088E+03  0.10100000352E+00 0. -1.
       -3    1    3    3    0  502  0.98960759499E+02  0.47488938921E+03 -0.57074164844E+03  0.74903885304E+03  0.10100000352E+00 0.  1.
</event>
<event>
 5   0  0.2875848E-03  0.1132157E+04  0.7818609E-02  0.9174404E-01
       -1   -1    0    0    0  501  0.00000000000E+00  0.00000000000E+00  0.15105041593E+03  0.15105041601E+03  0.50400001928E-02 0.  1.
        1   -1    0    0  501    0  0.00000000000E+00  0.00000000000E+00 -0.21214435764E+04  0.21214435764E+04  0.50400001928E-02 0. -1.
    10030    2    1    2    0    0  0.00000000000E+00  0.00000000000E+00 -0.19703931604E+04  0.22724939924E+04  0.11321571175E+04 0.  0.
        1    1    3    3  502    0 -0.30376365355E+02 -0.20179643353E+03 -0.20450425362E+04  0.20551991386E+04  0.50400001928E-02 0. -1.
       -1    1    3    3    0  502  0.30376365355E+02  0.20179643353E+03  0.74649375798E+02  0.21729485381E+03  0.50400001928E-02 0.  1.
</event>
<event>
 5   0  0.2938349E-03  0.1211782E+04  0.7818609E-02  0.9102606E-01
        1   -1    0    0  501    0  0.00000000000E+00  0.00000000000E+00  0.95260609098E+03  0.95260609099E+03  0.50400001928E-02 0.  1.
       -1   -1    0    0    0  501  0.00000000000E+00  0.00000000000E+00 -0.38536776103E+03  0.38536776106E+03  0.50400001928E-02 0. -1.
    10030    2    1    2    0    0  0.00000000000E+00  0.00000000000E+00  0.56723832994E+03  0.13379738521E+04  0.12117816246E+04 0.  0.
        4    1    3    3  502    0 -0.42510931539E+03  0.26343779678E+03  0.66126762972E+03  0.82909221068E+03  0.12699999809E+01 0.  1.
       -4    1    3    3    0  502  0.42510931539E+03 -0.26343779678E+03 -0.94029299774E+02  0.50888164137E+03  0.12699999809E+01 0. -1.
</event>
<event>
 5   0  0.2926844E-03  0.1190991E+04  0.7818609E-02  0.9120779E-01
       -1   -1    0    0    0  501  0.00000000000E+00  0.00000000000E+00  0.13931580580E+03  0.13931580589E+03  0.50400001928E-02 0.  1.
        1   -1    0    0  501    0  0.00000000000E+00  0.00000000000E+00 -0.25454015618E+04  0.25454015618E+04  0.50400001928E-02 0. -1.
    10030    2    1    2    0    0  0.00000000000E+00  0.00000000000E+00 -0.24060857560E+04  0.26847173677E+04  0.11909906293E+04 0.  0.
        5    1    3    3  502    0  0.29026801465E+03 -0.51256424314E+03 -0.10063340140E+04  0.11660651189E+04  0.46999998093E+01 0. -1.
       -5    1    3    3    0  502 -0.29026801465E+03  0.51256424314E+03 -0.13997517420E+04  0.15186522489E+04  0.46999998093E+01 0.  1.
</event>
<event>
 5   0  0.5003526E-03  0.1145471E+04  0.7818609E-02  0.9161972E-01
       -2   -1    0    0    0  501  0.00000000000E+00  0.00000000000E+00  0.54750692607E+03  0.54750692608E+03  0.25500000920E-02 0. -1.
        2   -1    0    0  501    0  0.00000000000E+00  0.00000000000E+00 -0.59912612346E+03  0.59912612346E+03  0.25500000920E-02 0.  1.
    10030    2    1    2    0    0  0.00000000000E+00  0.00000000000E+00 -0.51619197390E+02  0.11466330495E+04  0.11454705622E+04 0.  0.
        2    1    3    3  502    0  0.26322203278E+03 -0.32981325410E+03 -0.41345327181E+03  0.59076749157E+03  0.25500000920E-02 0. -1.
       -2    1    3    3    0  502 -0.26322203278E+03  0.32981325410E+03  0.36183407442E+03  0.55586555797E+03  0.25500000920E-02 0.  1.
</event>
<event>
 5   0  0.2930868E-03  0.1139591E+04  0.7818609E-02  0.9167440E-01
        1   -1    0    0  501    0  0.00000000000E+00  0.00000000000E+00  0.70203368040E+03  0.70203368042E+03  0.50400001928E-02 0.  1.
       -1   -1    0    0    0  501  0.00000000000E+00  0.00000000000E+00 -0.46246616253E+03  0.46246616256E+03  0.50400001928E-02 0. -1.
    10030    2    1    2    0    0  0.00000000000E+00  0.00000000000E+00  0.23956751786E+03  0.11644998430E+04  0.11395908427E+04 0.  0.
        3    1    3    3  502    0  0.39429498993E+03  0.19671826152E+03 -0.24936045847E+03  0.50630747768E+03  0.10100000352E+00 0. -1.
       -3    1    3    3    0  502 -0.39429498993E+03 -0.19671826152E+03  0.48892797634E+03  0.65819236530E+03  0.10100000352E+00 0.  1.
</event>
<event>
 5   0  0.2938349E-03  0.1232898E+04  0.7818609E-02  0.9084538E-01
        1   -1    0    0  501    0  0.00000000000E+00  0.00000000000E+00  0.64754041840E+03  0.64754041842E+03  0.50400001928E-02 0.  1.
       -1   -1    0    0    0  501  0.00000000000E+00  0.00000000000E+00 -0.58685078569E+03  0.58685078571E+03  0.50400001928E-02 0. -1.
    10030    2    1    2    0    0  0.00000000000E+00  0.00000000000E+00  0.60689632710E+02  0.12343912041E+04  0.12328983791E+04 0.  0.
        4    1    3    3  502    0  0.30108405446E+03 -0.41303242747E+02 -0.50663510456E+03  0.59079464095E+03  0.12699999809E+01 0. -1.
       -4    1    3    3    0  502 -0.30108405446E+03  0.41303242747E+02  0.56732473727E+03  0.64359656317E+03  0.12699999809E+01 0.  1.
</event>
<event>
 5   0  0.5189537E-03  0.1242136E+04  0.7818609E-02  0.9076754E-01
        2   -1    0    0  501    0  0.00000000000E+00  0.00000000000E+00  0.44129898743E+03  0.44129898744E+03  0.25500000920E-02 0.  1.
       -2   -1    0    0    0  501  0.00000000000E+00  0.00000000000E+00 -0.87406858750E+03  0.87406858750E+03  0.25500000920E-02 0. -1.
    10030    2    1    2    0    0  0.00000000000E+00  0.00000000000E+00 -0.43276960006E+03  0.13153675749E+04  0.12421361964E+04 0.  0.
        4    1    3    3  502    0 -0.57970648850E+03 -0.15658850751E+02 -0.45179516581E+03  0.73513624395E+03  0.12699999809E+01 0. -1.
       -4    1    3    3    0  502  0.57970648850E+03  0.15658850751E+02  0.19025565750E+02  0.58023133099E+03  0.12699999809E+01 0.  1.
</event>
<event>
 5   0  0.2938349E-03  0.1152145E+04  0.7818609E-02  0.9155807E-01
       -1   -1    0    0    0  501  0.00000000000E+00  0.00000000000E+00  0.30472240849E+03  0.30472240853E+03  0.50400001928E-02 0.  1.
        1   -1    0    0  501    0  0.00000000000E+00  0.00000000000E+00 -0.10890557560E+04  0.10890557560E+04  0.50400001928E-02 0. -1.
    10030    2    1    2    0    0  0.00000000000E+00  0.00000000000E+00 -0.78433334751E+03  0.13937781645E+04  0.11521452912E+04 0.  0.
        4    1    3    3  502    0  0.36908064053E+03 -0.72775914974E+02  0.13561321785E+03  0.39988674743E+03  0.12699999809E+01 0.  1.
       -4    1    3    3    0  502 -0.36908064053E+03  0.72775914974E+02 -0.91994656536E+03  0.99389141712E+03  0.12699999809E+01 0. -1.
</event>
<event>
 5   0  0.2938349E-03  0.1178102E+04  0.7818609E-02  0.9132242E-01
       -1   -1    0    0    0  501  0.00000000000E+00  0.00000000000E+00  0.57236517405E+03  0.57236517408E+03  0.50400001928E-02 0.  1.
        1   -1    0    0  501    0  0.00000000000E+00  0.00000000000E+00 -0.60622372762E+03  0.60622372764E+03  0.50400001928E-02 0. -1.
    10030    2    1    2    0    0  0.00000000000E+00  0.00000000000E+00 -0.33858553566E+02  0.11785889017E+04  0.11781024563E+04 0.  0.
        4    1    3    3  502    0 -0.49164675595E+03 -0.71065901085E+02 -0.33362410716E+03  0.59839247381E+03  0.12699999809E+01 0. -1.
       -4    1    3    3    0  502  0.49164675595E+03  0.71065901085E+02  0.29976555360E+03  0.58019642791E+03  0.12699999809E+01 0.  1.
</event>
<event>
 5   0  0.2875848E-03  0.1132681E+04  0.7818609E-02  0.9173912E-01
        1   -1    0    0  501    0  0.00000000000E+00  0.00000000000E+00  0.64246008593E+03  0.64246008595E+03  0.50400001928E-02 0.  1.
       -1   -1    0    0    0  501  0.00000000000E+00  0.00000000000E+00 -0.49923936245E+03  0.49923936248E+03  0.50400001928E-02 0. -1.
    10030    2    1    2    0    0  0.00000000000E+00  0.00000000000E+00  0.14322072348E+03  0.11416994484E+04  0.11326806500E+04 0.  0.
        1    1    3    3  502    0 -0.58818070501E+02  0.15049844012E+03  0.61873248976E+03  0.63948357274E+03  0.50400001928E-02 0.  1.
       -1    1    3    3    0  502  0.58818070501E+02 -0.15049844012E+03 -0.47551176628E+03  0.50221587569E+03  0.50400001928E-02 0. -1.
</event>
<event>
 5   0  0.5467554E-03  0.1241235E+04  0.7818609E-02  0.9077510E-01
       -2   -1    0    0    0  501  0.00000000000E+00  0.00000000000E+00  0.53683690822E+03  0.53683690822E+03  0.25500000920E-02 0. -1.
        2   -1    0    0  501    0  0.00000000000E+00  0.00000000000E+00 -0.71747314983E+03  0.71747314983E+03  0.25500000920E-02 0.  1.
    10030    2    1    2    0    0  0.00000000000E+00  0.00000000000E+00 -0.18063624161E+03  0.12543100581E+04  0.12412349777E+04 0.  0.
        1    1    3    3  502    0  0.33512569231E+03  0.44483733363E+03  0.18638478854E+03  0.58730637018E+03  0.50400001928E-02 0. -1.
       -1    1    3    3    0  502 -0.33512569231E+03 -0.44483733363E+03 -0.36702103016E+03  0.66700368787E+03  0.50400001928E-02 0.  1.
</event>
<event>
 5   0  0.2930868E-03  0.1434280E+04  0.7818609E-02  0.8929372E-01
        1   -1    0    0  501    0  0.00000000000E+00  0.00000000000E+00  0.11180508312E+04  0.11180508313E+04  0.50400001928E-02 0. -1.
       -1   -1    0    0    0  501  0.00000000000E+00  0.00000000000E+00 -0.45998812843E+03  0.45998812846E+03  0.50400001928E-02 0.  1.
    10030    2    1    2    0    0  0.00000000000E+00  0.00000000000E+00  0.65806270282E+03  0.15780389597E+04  0.14342804599E+04 0.  0.
        3    1    3    3  502    0  0.22587921169E+03 -0.51687839189E+03  0.81625507393E+03  0.99219808818E+03  0.10100000352E+00 0. -1.
       -3    1    3    3    0  502 -0.22587921169E+03  0.51687839189E+03 -0.15819237111E+03  0.58584087153E+03  0.10100000352E+00 0.  1.
</event>
<event>
 5   0  0.5003526E-03  0.1210419E+04  0.7818609E-02  0.9103785E-01
       -2   -1    0    0    0  501  0.00000000000E+00  0.00000000000E+00  0.36686653980E+03  0.36686653981E+03  0.25500000920E-02 0. -1.
        2   -1    0    0  501    0  0.00000000000E+00  0.00000000000E+00 -0.99839793241E+03  0.99839793242E+03  0.25500000920E-02 0.  1.
    10030    2    1    2    0    0  0.00000000000E+00  0.00000000000E+00 -0.63153139261E+03  0.13652644722E+04  0.12104194229E+04 0.  0.
        2    1    3    3  502    0 -0.20406999838E+03 -0.15754220338E+03  0.30183440021E+03  0.39694850452E+03  0.25500000920E-02 0. -1.
       -2    1    3    3    0  502  0.20406999838E+03  0.15754220338E+03 -0.93336579282E+03  0.96831596770E+03  0.25500000920E-02 0.  1.
</event>
<event>
 5   0  0.5031575E-03  0.1158865E+04  0.7818609E-02  0.9149644E-01
        2   -1    0    0  501    0  0.00000000000E+00  0.00000000000E+00  0.82351594705E+03  0.82351594706E+03  0.25500000920E-02 0.  1.
       -2   -1    0    0    0  501  0.00000000000E+00  0.00000000000E+00 -0.40769324297E+03  0.40769324298E+03  0.25500000920E-02 0. -1.
    10030    2    1    2    0    0  0.00000000000E+00  0.00000000000E+00  0.41582270408E+03  0.12312091900E+04  0.11588647671E+04 0.  0.
        5    1    3    3  502    0 -0.74598034950E+02  0.49247468994E+03 -0.10658068986E+03  0.50938955672E+03  0.46999998093E+01 0. -1.
       -5    1    3    3    0  502  0.74598034950E+02 -0.49247468994E+03  0.52240339394E+03  0.72181963332E+03  0.46999998093E+01 0.  1.
</event>
<event>
 5   0  0.1922125E-03  0.1203304E+04  0.7818609E-02  0.9109970E-01
        3   -1    0    0  501    0  0.00000000000E+00  0.00000000000E+00  0.70606232087E+03  0.70606232810E+03  0.10100000352E+00 0. -1.
       -3   -1    0    0    0  501  0.00000000000E+00  0.00000000000E+00 -0.51268137106E+03  0.51268138101E+03  0.10100000352E+00 0.  1.
    10030    2    1    2    0    0  0.00000000000E+00  0.00000000000E+00  0.19338094982E+03  0.12187437091E+04  0.12033038007E+04 0.  0.
        5    1    3    3  502    0  0.64578364612E+02  0.32091344223E+03 -0.41457077242E+03  0.52824882198E+03  0.46999998093E+01 0.  1.
       -5    1    3    3    0  502 -0.64578364612E+02 -0.32091344223E+03  0.60795172224E+03  0.69049488713E+03  0.46999998093E+01 0. -1.
</event>
<event>
 5   0  0.2926844E-03  0.1201942E+04  0.7818609E-02  0.9111159E-01
        1   -1    0    0  501    0  0.00000000000E+00  0.00000000000E+00  0.21452279792E+04  0.21452279792E+04  0.50400001928E-02 0. -1.
       -1   -1    0    0    0  501  0.00000000000E+00  0.00000000000E+00 -0.16835780660E+03  0.16835780668E+03  0.50400001928E-02 0.  1.
    10030    2    1    2    0    0  0.00000000000E+00  0.00000000000E+00  0.19768701726E+04  0.23135857859E+04  0.12019415582E+04 0.  0.
        5    1    3    3  502    0 -0.11220009381E+03 -0.35122291337E+03  0.74986866729E+02  0.37628648143E+03  0.46999998093E+01 0.  1.
       -5    1    3    3    0  502  0.11220009381E+03  0.35122291337E+03  0.19018833058E+04  0.19372993044E+04  0.46999998093E+01 0. -1.
</event>
<event>
 5   0  0.5189537E-03  0.1232115E+04  0.7818609E-02  0.9085202E-01
        2   -1    0    0  501    0  0.00000000000E+00  0.00000000000E+00  0.87186040963E+03  0.87186040963E+03  0.25500000920E-02 0.  1.
       -2   -1    0    0    0  501  0.00000000000E+00  0.00000000000E+00 -0.43530687243E+03  0.43530687243E+03  0.25500000920E-02 0. -1.
    10030    2    1    2    0    0  0.00000000000E+00  0.00000000000E+00  0.43655353720E+03  0.13071672821E+04  0.12321149753E+04 0.  0.
        4    1    3    3  502    0 -0.20973658286E+03 -0.30845026100E+03 -0.30188920715E+03  0.47986425580E+03  0.12699999809E+01 0. -1.
       -4    1    3    3    0  502  0.20973658286E+03  0.30845026100E+03  0.73844274435E+03  0.82730302627E+03  0.12699999809E+01 0.  1.
</event>
<event>
 5   0  0.5189537E-03  0.1187746E+04  0.7818609E-02  0.9123651E-01
       -2   -1    0    0    0  501  0.00000000000E+00  0.00000000000E+00  0.84419405976E+03  0.84419405977E+03  0.25500000920E-02 0. -1.
        2   -1    0    0  501    0  0.00000000000E+00  0.00000000000E+00 -0.41777721278E+03  0.41777721279E+03  0.25500000920E-02 0.  1.
    10030    2    1    2    0    0  0.00000000000E+00  0.00000000000E+00  0.42641684699E+03  0.12619712726E+04  0.11877458337E+04 0.  0.
        4    1    3    3  502    0  0.57526553824E+03 -0.31080433165E+02  0.36639538978E+03  0.68274711816E+03  0.12699999809E+01 0. -1.
       -4    1    3    3    0  502 -0.57526553824E+03  0.31080433165E+02  0.60021457208E+02  0.57922415439E+03  0.12699999809E+01 0.  1.
</event>
<event>
 5   0  0.5003526E-03  0.1189705E+04  0.7818609E-02  0.9121916E-01
       -2   -1    0    0    0  501  0.00000000000E+00  0.00000000000E+00  0.32802901285E+03  0.32802901286E+03  0.25500000920E-02 0.  1.
        2   -1    0    0  501    0  0.00000000000E+00  0.00000000000E+00 -0.10787138492E+04  0.10787138492E+04  0.25500000920E-02 0. -1.
    10030    2    1    2    0    0  0.00000000000E+00  0.00000000000E+00 -0.75068483639E+03  0.14067428621E+04  0.11897049031E+04 0.  0.
        2    1    3    3  502    0 -0.48342814400E+03 -0.23227391585E+02 -0.78427720153E+03  0.92159264916E+03  0.25500000920E-02 0. -1.
       -2    1    3    3    0  502  0.48342814400E+03  0.23227391585E+02  0.33592365140E+02  0.48515021296E+03  0.25500000920E-02 0.  1.
</event>
<event>
 5   0  0.2926844E-03  0.1189150E+04  0.7818609E-02  0.9122407E-01
        1   -1    0    0  501    0  0.00000000000E+00  0.00000000000E+00  0.63865519523E+03  0.63865519525E+03  0.50400001928E-02 0. -1.
       -1   -1    0    0    0  501  0.00000000000E+00  0.00000000000E+00 -0.55353746362E+03  0.55353746364E+03  0.50400001928E-02 0.  1.
    10030    2    1    2    0    0  0.00000000000E+00  0.00000000000E+00  0.85117731613E+02  0.11921926589E+04  0.11891502461E+04 0.  0.
        5    1    3    3  502    0  0.54345584301E+03  0.10124795842E+03 -0.17686654476E+03  0.58043024304E+03  0.46999998093E+01 0.  1.
       -5    1    3    3    0  502 -0.54345584301E+03 -0.10124795842E+03  0.26198427638E+03  0.61176241585E+03  0.46999998093E+01 0. -1.
</event>
<event>
 5   0  0.5108045E-03  0.1269552E+04  0.7818609E-02  0.9054065E-01
        2   -1    0    0  501    0  0.00000000000E+00  0.00000000000E+00  0.12810223446E+04  0.12810223446E+04  0.25500000920E-02 0.  1.
       -2   -1    0    0    0  501  0.00000000000E+00  0.00000000000E+00 -0.31454622366E+03  0.31454622367E+03  0.25500000920E-02 0. -1.
    10030    2    1    2    0    0  0.00000000000E+00  0.00000000000E+00  0.96647612091E+03  0.15955685682E+04  0.12695522690E+04 0.  0.
        3    1    3    3  502    0 -0.87560949229E+02 -0.54577346391E+02  0.12704131487E+04  0.12745960871E+04  0.10100000352E+00 0.  1.
       -3    1    3    3    0  502  0.87560949229E+02  0.54577346391E+02 -0.30393702782E+03  0.32097248114E+03  0.10100000352E+00 0. -1.
</event>
<event>
 5   0  0.1922125E-03  0.1181147E+04  0.7818609E-02  0.9129521E-01
       -3   -1    0    0    0  501  0.00000000000E+00  0.00000000000E+00  0.31194604951E+03  0.31194606586E+03  0.10100000352E+00 0. -1.
        3   -1    0    0  501    0  0.00000000000E+00  0.00000000000E+00 -0.11180680038E+04  0.11180680083E+04  0.10100000352E+00 0.  1.
    10030    2    1    2    0    0  0.00000000000E+00  0.00000000000E+00 -0.80612195424E+03  0.14300140742E+04  0.11811467509E+04 0.  0.
        1    1    3    3  502    0 -0.40627143458E+02  0.39868765904E+03 -0.92825144447E+03  0.10110653581E+04  0.50400001928E-02 0.  1.
       -1    1    3    3    0  502  0.40627143458E+02 -0.39868765904E+03  0.12212949022E+03  0.41894871603E+03  0.50400001928E-02 0. -1.
</event>
<event>
 5   0  0.2930868E-03  0.1187379E+04  0.7818609E-02  0.9123976E-01
        1   -1    0    0  501    0  0.00000000000E+00  0.00000000000E+00  0.91463569326E+03  0.91463569328E+03  0.50400001928E-02 0. -1.
       -1   -1    0    0    0  501  0.00000000000E+00  0.00000000000E+00 -0.38536345993E+03  0.38536345996E+03  0.50400001928E-02 0.  1.
    10030    2    1    2    0    0  0.00000000000E+00  0.00000000000E+00  0.52927223334E+03  0.12999991532E+04  0.11873789208E+04 0.  0.
        3    1    3    3  502    0 -0.34470412159E+03 -0.41055596717E+03  0.54396186804E+03  0.76372223858E+03  0.10100000352E+00 0. -1.
       -3    1    3    3    0  502  0.34470412159E+03  0.41055596717E+03 -0.14689634708E+02  0.53627691465E+03  0.10100000352E+00 0.  1.
</event>
<event>
 5   0  0.1922125E-03  0.1188850E+04  0.7818609E-02  0.9122673E-01
       -3   -1    0    0    0  501  0.00000000000E+00  0.00000000000E+00  0.56068682652E+03  0.56068683562E+03  0.10100000352E+00 0. -1.
        3   -1    0    0  501    0  0.00000000000E+00  0.00000000000E+00 -0.63019280751E+03  0.63019281560E+03  0.10100000352E+00 0.  1.
    10030    2    1    2    0    0  0.00000000000E+00  0.00000000000E+00 -0.69505980990E+02  0.11908796512E+04  0.11888495541E+04 0.  0.
        1    1    3    3  502    0 -0.51480760511E+03  0.53187240188E+02  0.25812456608E+03  0.57834595566E+03  0.50400001928E-02 0. -1.
       -1    1    3    3    0  502  0.51480760511E+03 -0.53187240188E+02 -0.32763054707E+03  0.61253369556E+03  0.50400001928E-02 0.  1.
</event>
<event>
 5   0  0.5189537E-03  0.1194551E+04  0.7818609E-02  0.9117639E-01
       -2   -1    0    0    0  501  0.00000000000E+00  0.00000000000E+00  0.73608352946E+03  0.73608352946E+03  0.25500000920E-02 0. -1.
        2   -1    0    0  501    0  0.00000000000E+00  0.00000000000E+00 -0.48464375566E+03  0.48464375567E+03  0.25500000920E-02 0.  1.
    10030    2    1    2    0    0  0.00000000000E+00  0.00000000000E+00  0.25143977380E+03  0.12207272851E+04  0.11945514408E+04 0.  0.
        4    1    3    3  502    0 -0.62752112661E+01 -0.16392169389E+03  0.71261011722E+03  0.73124858431E+03  0.12699999809E+01 0. -1.
       -4    1    3    3    0  502  0.62752112661E+01  0.16392169389E+03 -0.46117034342E+03  0.48947870081E+03  0.12699999809E+01 0.  1.
</event>
<event>
 5   0  0.2938349E-03  0.1283393E+04  0.7818609E-02  0.9042839E-01
       -1   -1    0    0    0  501  0.00000000000E+00  0.00000000000E+00  0.30575387257E+03  0.30575387261E+03  0.50400001928E-02 0. -1.
        1   -1    0    0  501    0  0.00000000000E+00  0.00000000000E+00 -0.13467517607E+04  0.13467517607E+04  0.50400001928E-02 0.  1.
    10030    2    1    2    0    0  0.00000000000E+00  0.00000000000E+00 -0.10409978881E+04  0.16525056333E+04  0.12833932620E+04 0.  0.
        4    1    3    3  502    0 -0.48772293659E+03  0.25055262864E+02  0.15478843606E+02  0.48861297217E+03  0.12699999809E+01 0. -1.
       -4    1    3    3    0  502  0.48772293659E+03 -0.25055262864E+02 -0.10564767317E+04  0.11638926612E+04  0.12699999809E+01 0.  1.
</event>
<event>
 5   0  0.2930868E-03  0.1192213E+04  0.7818609E-02  0.9119700E-01
       -1   -1    0    0    0  501  0.00000000000E+00  0.00000000000E+00  0.35658676200E+03  0.35658676204E+03  0.50400001928E-02 0.  1.
        1   -1    0    0  501    0  0.00000000000E+00  0.00000000000E+00 -0.99651165685E+03  0.99651165687E+03  0.50400001928E-02 0. -1.
    10030    2    1    2    0    0  0.00000000000E+00  0.00000000000E+00 -0.63992489485E+03  0.13530984189E+04  0.11922128418E+04 0.  0.
        3    1    3    3  502    0 -0.17174407828E+03 -0.30948032799E+03  0.22442037181E+03  0.41909260948E+03  0.10100000352E+00 0.  1.
       -3    1    3    3    0  502  0.17174407828E+03  0.30948032799E+03 -0.86434526666E+03  0.93400580942E+03  0.10100000352E+00 0. -1.
</event>
<event>
 5   0  0.5003526E-03  0.1185853E+04  0.7818609E-02  0.9125330E-01
       -2   -1    0    0    0  501  0.00000000000E+00  0.00000000000E+00  0.78587729506E+03  0.78587729506E+03  0.25500000920E-02 0. -1.
        2   -1    0    0  501    0  0.00000000000E+00  0.00000000000E+00 -0.44734933101E+03  0.44734933102E+03  0.25500000920E-02 0.  1.
    10030    2    1    2    0    0  0.00000000000E+00  0.00000000000E+00  0.33852796405E+03  0.12332266261E+04  0.11858527433E+04 0.  0.
        2    1    3    3  502    0 -0.33022380291E+03  0.47294596292E+03  0.26536727035E+02  0.57743384187E+03  0.25500000920E-02 0. -1.
       -2    1    3    3    0  502  0.33022380291E+03 -0.47294596292E+03  0.31199123701E+03  0.65579278421E+03  0.25500000920E-02 0.  1.
</event>
<event>
 5   0  0.2930868E-03  0.1189577E+04  0.7818609E-02  0.9122029E-01
       -1   -1    0    0    0  501  0.00000000000E+00  0.00000000000E+00  0.64421919223E+03  0.64421919225E+03  0.50400001928E-02 0.  1.
        1   -1    0    0  501    0  0.00000000000E+00  0.00000000000E+00 -0.54915082970E+03  0.54915082972E+03  0.50400001928E-02 0. -1.
    10030    2    1    2    0    0  0.00000000000E+00  0.00000000000E+00  0.95068362535E+02  0.11933700220E+04  0.11895772425E+04 0.  0.
        3    1    3    3  502    0  0.14926060061E+03  0.49066664992E+03  0.34972709105E+03  0.62075883937E+03  0.10100000352E+00 0. -1.
       -3    1    3    3    0  502 -0.14926060061E+03 -0.49066664992E+03 -0.25465872852E+03  0.57261118261E+03  0.10100000352E+00 0.  1.
</event>
<event>
 5   0  0.5467554E-03  0.1177454E+04  0.7818609E-02  0.9132823E-01
       -2   -1    0    0    0  501  0.00000000000E+00  0.00000000000E+00  0.45822265588E+03  0.45822265588E+03  0.25500000920E-02 0. -1.
        2   -1    0    0  501    0  0.00000000000E+00  0.00000000000E+00 -0.75640022069E+03  0.75640022070E+03  0.25500000920E-02 0.  1.
    10030    2    1    2    0    0  0.00000000000E+00  0.00000000000E+00 -0.29817756482E+03  0.12146228766E+04  0.11774544034E+04 0.  0.
        1    1    3    3  502    0 -0.44989157762E+01  0.40553307542E+03  0.29114061845E+03  0.49923959703E+03  0.50400001928E-02 0. -1.
       -1    1    3    3    0  502  0.44989157762E+01 -0.40553307542E+03 -0.58931818327E+03  0.71538327955E+03  0.50400001928E-02 0.  1.
</event>
<event>
 5   0  0.5467554E-03  0.1219333E+04  0.7818609E-02  0.9096101E-01
       -2   -1    0    0    0  501  0.00000000000E+00  0.00000000000E+00  0.86020696748E+03  0.86020696748E+03  0.25500000920E-02 0. -1.
        2   -1    0    0  501    0  0.00000000000E+00  0.00000000000E+00 -0.43209750968E+03  0.43209750968E+03  0.25500000920E-02 0.  1.
    10030    2    1    2    0    0  0.00000000000E+00  0.00000000000E+00  0.42810945780E+03  0.12923044772E+04  0.12193330775E+04 0.  0.
        1    1    3    3  502    0 -0.14817554922E+03 -0.44365620984E+03  0.62848876385E+03  0.78344428789E+03  0.50400001928E-02 0. -1.
       -1    1    3    3    0  502  0.14817554922E+03  0.44365620984E+03 -0.20037930605E+03  0.50886018928E+03  0.50400001928E-02 0.  1.
</event>
<event>
 5   0  0.5108045E-03  0.1189019E+04  0.7818609E-02  0.9122523E-01
       -2   -1    0    0    0  501  0.00000000000E+00  0.00000000000E+00  0.61793512438E+03  0.61793512439E+03  0.25500000920E-02 0. -1.
        2   -1    0    0  501    0  0.00000000000E+00  0.00000000000E+00 -0.57197201495E+03  0.57197201496E+03  0.25500000920E-02 0.  1.
    10030    2    1    2    0    0  0.00000000000E+00  0.00000000000E+00  0.45963109430E+02  0.11899071393E+04  0.11890190885E+04 0.  0.
        3    1    3    3  502    0 -0.33901862980E+03  0.12909266448E+03 -0.44837239217E+03  0.57674635642E+03  0.10100000352E+00 0.  1.
       -3    1    3    3    0  502  0.33901862980E+03 -0.12909266448E+03  0.49433550160E+03  0.61316078293E+03  0.10100000352E+00 0. -1.
</event>
<event>
 5   0  0.5108045E-03  0.1171369E+04  0.7818609E-02  0.9138293E-01
       -2   -1    0    0    0  501  0.00000000000E+00  0.00000000000E+00  0.39107760087E+03  0.39107760087E+03  0.25500000920E-02 0. -1.
        2   -1    0    0  501    0  0.00000000000E+00  0.00000000000E+00 -0.87713090013E+03  0.87713090014E+03  0.25500000920E-02 0.  1.
    10030    2    1    2    0    0  0.00000000000E+00  0.00000000000E+00 -0.48605329927E+03  0.12682085010E+04  0.11713688541E+04 0.  0.
        3    1    3    3  502    0 -0.35134823448E+03  0.39084173337E+03 -0.52289981357E+03  0.74136837514E+03  0.10100000352E+00 0.  1.
       -3    1    3    3    0  502  0.35134823448E+03 -0.39084173337E+03  0.36846514306E+02  0.52684012588E+03  0.10100000352E+00 0. -1.
</event>
<event>
 5   0  0.5031575E-03  0.7522881E+03  0.7818609E-02  0.9631768E-01
        2   -1    0    0  501    0  0.00000000000E+00  0.00000000000E+00  0.13560196069E+04  0.13560196069E+04  0.25500000920E-02 0. -1.
       -2   -1    0    0    0  501  0.00000000000E+00  0.00000000000E+00 -0.10433796698E+03  0.10433796701E+03  0.25500000920E-02 0.  1.
    10030    2    1    2    0    0  0.00000000000E+00  0.00000000000E+00  0.12516816399E+04  0.14603575739E+04  0.75228805385E+03 0.  0.
        5    1    3    3  502    0  0.24755099318E+03  0.14175796456E+03  0.15000228685E+03  0.32233459448E+03  0.46999998093E+01 0.  1.
       -5    1    3    3    0  502 -0.24755099318E+03 -0.14175796456E+03  0.11016793531E+04  0.11380229794E+04  0.46999998093E+01 0. -1.
</event>
<event>
 5   0  0.2930868E-03  0.1195048E+04  0.7818609E-02  0.9117202E-01
       -1   -1    0    0    0  501  0.00000000000E+00  0.00000000000E+00  0.24158881692E+03  0.24158881698E+03  0.50400001928E-02 0.  1.
        1   -1    0    0  501    0  0.00000000000E+00  0.00000000000E+00 -0.14778631810E+04  0.14778631810E+04  0.50400001928E-02 0. -1.
    10030    2    1    2    0    0  0.00000000000E+00  0.00000000000E+00 -0.12362743641E+04  0.17194519980E+04  0.11950484802E+04 0.  0.
        3    1    3    3  502    0  0.65263748617E+02 -0.58434151080E+03 -0.77122619920E+03  0.96979596755E+03  0.10100000352E+00 0.  1.
       -3    1    3    3    0  502 -0.65263748617E+02  0.58434151080E+03 -0.46504816488E+03  0.74965603045E+03  0.10100000352E+00 0. -1.
</event>
<event>
 5   0  0.2938349E-03  0.1202615E+04  0.7818609E-02  0.9110571E-01
        1   -1    0    0  501    0  0.00000000000E+00  0.00000000000E+00  0.87267626768E+03  0.87267626769E+03  0.50400001928E-02 0. -1.
       -1   -1    0    0    0  501  0.00000000000E+00  0.00000000000E+00 -0.41432368805E+03  0.41432368808E+03  0.50400001928E-02 0.  1.
    10030    2    1    2    0    0  0.00000000000E+00  0.00000000000E+00  0.45835257962E+03  0.12869999558E+04  0.12026145679E+04 0.  0.
        4    1    3    3  502    0 -0.41665595824E+03 -0.19966273129E+02 -0.23430418395E+03  0.47843589238E+03  0.12699999809E+01 0.  1.
       -4    1    3    3    0  502  0.41665595824E+03  0.19966273129E+02  0.69265676357E+03  0.80856406340E+03  0.12699999809E+01 0. -1.
</event>
<event>
 5   0  0.5189537E-03  0.1196656E+04  0.7818609E-02  0.9115788E-01
       -2   -1    0    0    0  501  0.00000000000E+00  0.00000000000E+00  0.43276258690E+03  0.43276258690E+03  0.25500000920E-02 0. -1.
        2   -1    0    0  501    0  0.00000000000E+00  0.00000000000E+00 -0.82723535456E+03  0.82723535456E+03  0.25500000920E-02 0.  1.
    10030    2    1    2    0    0  0.00000000000E+00  0.00000000000E+00 -0.39447276766E+03  0.12599979415E+04  0.11966561946E+04 0.  0.
        4    1    3    3  502    0 -0.48558641113E+03 -0.30365609350E+03 -0.14882272049E+02  0.57290861463E+03  0.12699999809E+01 0. -1.
       -4    1    3    3    0  502  0.48558641113E+03  0.30365609350E+03 -0.37959049561E+03  0.68708932684E+03  0.12699999809E+01 0.  1.
</event>
<event>
 5   0  0.2930868E-03  0.1209851E+04  0.7818609E-02  0.9104278E-01
       -1   -1    0    0    0  501  0.00000000000E+00  0.00000000000E+00  0.94671536162E+03  0.94671536163E+03  0.50400001928E-02 0. -1.
        1   -1    0    0  501    0  0.00000000000E+00  0.00000000000E+00 -0.38653084350E+03  0.38653084353E+03  0.50400001928E-02 0.  1.
    10030    2    1    2    0    0  0.00000000000E+00  0.00000000000E+00  0.56018451812E+03  0.13332462052E+04  0.12098507136E+04 0.  0.
        3    1    3    3  502    0 -0.23692309774E+03 -0.26669736684E+03 -0.25827880156E+03  0.44041797109E+03  0.10100000352E+00 0.  1.
       -3    1    3    3    0  502  0.23692309774E+03  0.26669736684E+03  0.81846331968E+03  0.89282823408E+03  0.10100000352E+00 0. -1.
</event>
<event>
 5   0  0.2792518E-03  0.1229433E+04  0.7818609E-02  0.9087477E-01
       -1   -1    0    0    0  501  0.00000000000E+00  0.00000000000E+00  0.28505523324E+03  0.28505523329E+03  0.50400001928E-02 0. -1.
        1   -1    0    0  501    0  0.00000000000E+00  0.00000000000E+00 -0.13256253829E+04  0.13256253829E+04  0.50400001928E-02 0.  1.
    10030    2    1    2    0    0  0.00000000000E+00  0.00000000000E+00 -0.10405701497E+04  0.16106806162E+04  0.12294331259E+04 0.  0.
        2    1    3    3  502    0 -0.59369711485E+03  0.15162674477E+03 -0.58459376819E+03  0.84688653769E+03  0.25500000920E-02 0.  1.
       -2    1    3    3    0  502  0.59369711485E+03 -0.15162674477E+03 -0.45597638150E+03  0.76379407853E+03  0.25500000920E-02 0. -1.
</event>
<event>
 5   0  0.2926844E-03  0.1200119E+04  0.7818609E-02  0.9112752E-01
        1   -1    0    0  501    0  0.00000000000E+00  0.00000000000E+00  0.49214721750E+03  0.49214721753E+03  0.50400001928E-02 0.  1.
       -1   -1    0    0    0  501  0.00000000000E+00  0.00000000000E+00 -0.73163390969E+03  0.73163390971E+03  0.50400001928E-02 0. -1.
    10030    2    1    2    0    0  0.00000000000E+00  0.00000000000E+00 -0.23948669219E+03  0.12237811272E+04  0.12001193156E+04 0.  0.
        5    1    3    3  502    0 -0.62967973712E+02 -0.27526564919E+03 -0.65962829962E+03  0.71754283983E+03  0.46999998093E+01 0. -1.
       -5    1    3    3    0  502  0.62967973712E+02  0.27526564919E+03  0.42014160743E+03  0.50623828740E+03  0.46999998093E+01 0.  1.
</event>
<event>
 5   0  0.2930868E-03  0.1213970E+04  0.7818609E-02  0.9100716E-01
        1   -1    0    0  501    0  0.00000000000E+00  0.00000000000E+00  0.87612119744E+03  0.87612119745E+03  0.50400001928E-02 0. -1.
       -1   -1    0    0    0  501  0.00000000000E+00  0.00000000000E+00 -0.42052480117E+03  0.42052480120E+03  0.50400001928E-02 0.  1.
    10030    2    1    2    0    0  0.00000000000E+00  0.00000000000E+00  0.45559639627E+03  0.12966459987E+04  0.12139698388E+04 0.  0.
        3    1    3    3  502    0 -0.55135268035E+03 -0.23609138199E+03  0.12816199652E+03  0.61331429653E+03  0.10100000352E+00 0. -1.
       -3    1    3    3    0  502  0.55135268035E+03  0.23609138199E+03  0.32743439975E+03  0.68333170212E+03  0.10100000352E+00 0.  1.
</event>
<event>
 5   0  0.2926844E-03  0.1141667E+04  0.7818609E-02  0.9165506E-01
        1   -1    0    0  501    0  0.00000000000E+00  0.00000000000E+00  0.42860186475E+03  0.42860186478E+03  0.50400001928E-02 0.  1.
       -1   -1    0    0    0  501  0.00000000000E+00  0.00000000000E+00 -0.76026465287E+03  0.76026465288E+03  0.50400001928E-02 0. -1.
    10030    2    1    2    0    0  0.00000000000E+00  0.00000000000E+00 -0.33166278811E+03  0.11888665177E+04  0.11416669356E+04 0.  0.
        5    1    3    3  502    0  0.13164767310E+03 -0.45408042968E+03  0.16724953548E+03  0.50151235635E+03  0.46999998093E+01 0.  1.
       -5    1    3    3    0  502 -0.13164767310E+03  0.45408042968E+03 -0.49891232359E+03  0.68735416132E+03  0.46999998093E+01 0. -1.
</event>
<event>
 5   0  0.2792518E-03  0.1179404E+04  0.7818609E-02  0.9131077E-01
       -1   -1    0    0    0  501  0.00000000000E+00  0.00000000000E+00  0.26425361489E+03  0.26425361494E+03  0.50400001928E-02 0.  1.
        1   -1    0    0  501    0  0.00000000000E+00  0.00000000000E+00 -0.13159653670E+04  0.13159653670E+04  0.50400001928E-02 0. -1.
    10030    2    1    2    0    0  0.00000000000E+00  0.00000000000E+00 -0.10517117521E+04  0.15802189820E+04  0.11794042655E+04 0.  0.
        2    1    3    3  502    0 -0.53537078194E+03  0.12576407393E+02 -0.85668791953E+03  0.10102941313E+04  0.25500000920E-02 0. -1.
       -2    1    3    3    0  502  0.53537078194E+03 -0.12576407393E+02 -0.19502383261E+03  0.56992485072E+03  0.25500000920E-02 0.  1.
</event>
<event>
 5   0  0.2792518E-03  0.1178173E+04  0.7818609E-02  0.9132179E-01
       -1   -1    0    0    0  501  0.00000000000E+00  0.00000000000E+00  0.51439483987E+03  0.51439483990E+03  0.50400001928E-02 0. -1.
        1   -1    0    0  501    0  0.00000000000E+00  0.00000000000E+00 -0.67462331329E+03  0.67462331330E+03  0.50400001928E-02 0.  1.
    10030    2    1    2    0    0  0.00000000000E+00  0.00000000000E+00 -0.16022847341E+03  0.11890181532E+04  0.11781727399E+04 0.  0.
        2    1    3    3  502    0  0.48521601548E+03  0.30562446887E+03  0.55967108349E+02  0.57617116804E+03  0.25500000920E-02 0. -1.
       -2    1    3    3    0  502 -0.48521601548E+03 -0.30562446887E+03 -0.21619558176E+03  0.61284698517E+03  0.25500000920E-02 0.  1.
</event>
<event>
 5   0  0.5031575E-03  0.1206172E+04  0.7818609E-02  0.9107471E-01
        2   -1    0    0  501    0  0.00000000000E+00  0.00000000000E+00  0.23254948057E+03  0.23254948058E+03  0.25500000920E-02 0. -1.
       -2   -1    0    0    0  501  0.00000000000E+00  0.00000000000E+00 -0.15640228132E+04  0.15640228132E+04  0.25500000920E-02 0.  1.
    10030    2    1    2    0    0  0.00000000000E+00  0.00000000000E+00 -0.13314733326E+04  0.17965722938E+04  0.12061719493E+04 0.  0.
        5    1    3    3  502    0 -0.31891169332E+03 -0.25679644988E+03 -0.13252286211E+04  0.13870479706E+04  0.46999998093E+01 0.  1.
       -5    1    3    3    0  502  0.31891169332E+03  0.25679644988E+03 -0.62447115608E+01  0.40952432312E+03  0.46999998093E+01 0. -1.
</event>
<event>
 5   0  0.2930868E-03  0.1189447E+04  0.7818609E-02  0.9122144E-01
       -1   -1    0    0    0  501  0.00000000000E+00  0.00000000000E+00  0.70350472469E+03  0.70350472470E+03  0.50400001928E-02 0. -1.
        1   -1    0    0  501    0  0.00000000000E+00  0.00000000000E+00 -0.50276313524E+03  0.50276313526E+03  0.50400001928E-02 0.  1.
    10030    2    1    2    0    0  0.00000000000E+00  0.00000000000E+00  0.20074158945E+03  0.12062678600E+04  0.11894473356E+04 0.  0.
        3    1    3    3  502    0  0.45003254458E+03  0.37391376863E+03  0.20843961093E+03  0.62111824893E+03  0.10100000352E+00 0.  1.
       -3    1    3    3    0  502 -0.45003254458E+03 -0.37391376863E+03 -0.76980214804E+01  0.58514961103E+03  0.10100000352E+00 0. -1.
</event>
<event>
 5   0  0.5031575E-03  0.1193128E+04  0.7818609E-02  0.9118893E-01
       -2   -1    0    0    0  501  0.00000000000E+00  0.00000000000E+00  0.38327645854E+03  0.38327645855E+03  0.25500000920E-02 0.  1.
        2   -1    0    0  501    0  0.00000000000E+00  0.00000000000E+00 -0.92854233111E+03  0.92854233111E+03  0.25500000920E-02 0. -1.
    10030    2    1    2    0    0  0.00000000000E+00  0.00000000000E+00 -0.54526587257E+03  0.13118187897E+04  0.11931276818E+04 0.  0.
        5    1    3    3  502    0 -0.32979267613E+03 -0.80464484710E+02  0.26670445819E+03  0.43173035629E+03  0.46999998093E+01 0.  1.
       -5    1    3    3    0  502  0.32979267613E+03  0.80464484710E+02 -0.81197033076E+03  0.88008843337E+03  0.46999998093E+01 0. -1.
</event>
<event>
 5   0  0.2930868E-03  0.1193271E+04  0.7818609E-02  0.9118767E-01
       -1   -1    0    0    0  501  0.00000000000E+00  0.00000000000E+00  0.58914948750E+03  0.58914948752E+03  0.50400001928E-02 0. -1.
        1   -1    0    0  501    0  0.00000000000E+00  0.00000000000E+00 -0.60421694437E+03  0.60421694439E+03  0.50400001928E-02 0.  1.
    10030    2    1    2    0    0  0.00000000000E+00  0.00000000000E+00 -0.15067456873E+02  0.11933664319E+04  0.11932713072E+04 0.  0.
        3    1    3    3  502    0 -0.39284814417E+02  0.42039982529E+03 -0.42910592287E+03  0.60200599083E+03  0.10100000352E+00 0.  1.
       -3    1    3    3    0  502  0.39284814417E+02 -0.42039982529E+03  0.41403846599E+03  0.59136044108E+03  0.10100000352E+00 0. -1.
</event>
<event>
 5   0  0.5189537E-03  0.1266545E+04  0.7818609E-02  0.9056524E-01
       -2   -1    0    0    0  501  0.00000000000E+00  0.00000000000E+00  0.40467010572E+03  0.40467010572E+03  0.25500000920E-02 0.  1.
        2   -1    0    0  501    0  0.00000000000E+00  0.00000000000E+00 -0.99101461211E+03  0.99101461212E+03  0.25500000920E-02 0. -1.
    10030    2    1    2    0    0  0.00000000000E+00  0.00000000000E+00 -0.58634450640E+03  0.13956847178E+04  0.12665448873E+04 0.  0.
        4    1    3    3  502    0  0.33920456367E+03  0.17502201014E+03 -0.85000671931E+03  0.93177544280E+03  0.12699999809E+01 0. -1.
       -4    1    3    3    0  502 -0.33920456367E+03 -0.17502201014E+03  0.26366221291E+03  0.46390927504E+03  0.12699999809E+01 0.  1.
</event>
<event>
 5   0  0.2938349E-03  0.1030191E+04  0.7818609E-02  0.9276038E-01
       -1   -1    0    0    0  501  0.00000000000E+00  0.00000000000E+00  0.60596665755E+03  0.60596665757E+03  0.50400001928E-02 0.  1.
        1   -1    0    0  501    0  0.00000000000E+00  0.00000000000E+00 -0.43785102823E+03  0.43785102826E+03  0.50400001928E-02 0. -1.
    10030    2    1    2    0    0  0.00000000000E+00  0.00000000000E+00  0.16811562932E+03  0.10438176858E+04  0.10301905146E+04 0.  0.
        4    1    3    3  502    0 -0.11560420141E+03  0.29696617601E+03 -0.32597818229E+03  0.45586909229E+03  0.12699999809E+01 0. -1.
       -4    1    3    3    0  502  0.11560420141E+03 -0.29696617601E+03  0.49409381160E+03  0.58794859354E+03  0.12699999809E+01 0.  1.
</event>
<event>
 5   0  0.5189537E-03  0.1196356E+04  0.7818609E-02  0.9116052E-01
        2   -1    0    0  501    0  0.00000000000E+00  0.00000000000E+00  0.11283441660E+04  0.11283441660E+04  0.25500000920E-02 0.  1.
       -2   -1    0    0    0  501  0.00000000000E+00  0.00000000000E+00 -0.31711682408E+03  0.31711682409E+03  0.25500000920E-02 0. -1.
    10030    2    1    2    0    0  0.00000000000E+00  0.00000000000E+00  0.81122734195E+03  0.14454609901E+04  0.11963559979E+04 0.  0.
        4    1    3    3  502    0 -0.77040022837E+02  0.58622719160E+03  0.29608589678E+03  0.66126088382E+03  0.12699999809E+01 0.  1.
       -4    1    3    3    0  502  0.77040022837E+02 -0.58622719160E+03  0.51514144516E+03  0.78420010630E+03  0.12699999809E+01 0. -1.
</event>
<event>
 5   0  0.5003526E-03  0.1019710E+04  0.7818609E-02  0.9287188E-01
        2   -1    0    0  501    0  0.00000000000E+00  0.00000000000E+00  0.19404095711E+04  0.19404095711E+04  0.25500000920E-02 0.  1.
       -2   -1    0    0    0  501  0.00000000000E+00  0.00000000000E+00 -0.13396758365E+03  0.13396758367E+03  0.25500000920E-02 0. -1.
    10030    2    1    2    0    0  0.00000000000E+00  0.00000000000E+00  0.18064419874E+04  0.20743771547E+04  0.10197097264E+04 0.  0.
        2    1    3    3  502    0 -0.31457708927E+03 -0.32474140445E+03  0.13826225735E+04  0.14546686584E+04  0.25500000920E-02 0. -1.
       -2    1    3    3    0  502  0.31457708927E+03  0.32474140445E+03  0.42381941392E+03  0.61970849638E+03  0.25500000920E-02 0.  1.
</event>
<event>
 5   0  0.2875848E-03  0.1102299E+04  0.7818609E-02  0.9202954E-01
        1   -1    0    0  501    0  0.00000000000E+00  0.00000000000E+00  0.69989373681E+03  0.69989373683E+03  0.50400001928E-02 0. -1.
       -1   -1    0    0    0  501  0.00000000000E+00  0.00000000000E+00 -0.43401676504E+03  0.43401676507E+03  0.50400001928E-02 0.  1.
    10030    2    1    2    0    0  0.00000000000E+00  0.00000000000E+00  0.26587697177E+03  0.11339105019E+04  0.11022987173E+04 0.  0.
        1    1    3    3  502    0 -0.38891395145E+03  0.13428741230E+03  0.51016813054E+03  0.65540727200E+03  0.50400001928E-02 0. -1.
       -1    1    3    3    0  502  0.38891395145E+03 -0.13428741230E+03 -0.24429115877E+03  0.47850322989E+03  0.50400001928E-02 0.  1.
</event>
<event>
 5   0  0.1922125E-03  0.1199526E+04  0.7818609E-02  0.9113271E-01
        3   -1    0    0  501    0  0.00000000000E+00  0.00000000000E+00  0.38978163507E+03  0.38978164816E+03  0.10100000352E+00 0.  1.
       -3   -1    0    0    0  501  0.00000000000E+00  0.00000000000E+00 -0.92286520303E+03  0.92286520856E+03  0.10100000352E+00 0. -1.
    10030    2    1    2    0    0  0.00000000000E+00  0.00000000000E+00 -0.53308356796E+03  0.13126468567E+04  0.11995264399E+04 0.  0.
        3    1    3    3  502    0 -0.17007120515E+03 -0.38398883667E+03 -0.73510883529E+03  0.84661481882E+03  0.10100000352E+00 0. -1.
       -3    1    3    3    0  502  0.17007120515E+03  0.38398883667E+03  0.20202526733E+03  0.46603203790E+03  0.10100000352E+00 0.  1.
</event>
<event>
 5   0  0.2875848E-03  0.1200844E+04  0.7818609E-02  0.9112118E-01
        1   -1    0    0  501    0  0.00000000000E+00  0.00000000000E+00  0.11106096138E+04  0.11106096138E+04  0.50400001928E-02 0. -1.
       -1   -1    0    0    0  501  0.00000000000E+00  0.00000000000E+00 -0.32460234361E+03  0.32460234365E+03  0.50400001928E-02 0.  1.
    10030    2    1    2    0    0  0.00000000000E+00  0.00000000000E+00  0.78600727015E+03  0.14352119574E+04  0.12008438425E+04 0.  0.
        1    1    3    3  502    0 -0.50750993672E+03  0.89649098630E+02  0.76119186951E+03  0.91924771362E+03  0.50400001928E-02 0. -1.
       -1    1    3    3    0  502  0.50750993672E+03 -0.89649098630E+02  0.24815400640E+02  0.51596424381E+03  0.50400001928E-02 0.  1.
</event>
<event>
 5   0  0.5031575E-03  0.1217282E+04  0.7818609E-02  0.9097863E-01
        2   -1    0    0  501    0  0.00000000000E+00  0.00000000000E+00  0.52344698423E+03  0.52344698424E+03  0.25500000920E-02 0.  1.
       -2   -1    0    0    0  501  0.00000000000E+00  0.00000000000E+00 -0.70770039103E+03  0.70770039103E+03  0.25500000920E-02 0. -1.
    10030    2    1    2    0    0  0.00000000000E+00  0.00000000000E+00 -0.18425340680E+03  0.12311473753E+04  0.12172816197E+04 0.  0.
        5    1    3    3  502    0  0.12394932342E+02 -0.54329607914E+03 -0.36928704438E+03  0.65705347964E+03  0.46999998093E+01 0. -1.
       -5    1    3    3    0  502 -0.12394932342E+02  0.54329607914E+03  0.18503363759E+03  0.57409389563E+03  0.46999998093E+01 0.  1.
</event>
<event>
 5   0  0.5108045E-03  0.1199871E+04  0.7818609E-02  0.9112970E-01
       -2   -1    0    0    0  501  0.00000000000E+00  0.00000000000E+00  0.33166218989E+03  0.33166218990E+03  0.25500000920E-02 0.  1.
        2   -1    0    0  501    0  0.00000000000E+00  0.00000000000E+00 -0.10852075812E+04  0.10852075812E+04  0.25500000920E-02 0. -1.
    10030    2    1    2    0    0  0.00000000000E+00  0.00000000000E+00 -0.75354539135E+03  0.14168697711E+04  0.11998705312E+04 0.  0.
        3    1    3    3  502    0 -0.81701356886E+02 -0.54576488004E+03 -0.65468193422E+03  0.85623761959E+03  0.10100000352E+00 0. -1.
       -3    1    3    3    0  502  0.81701356886E+02  0.54576488004E+03 -0.98863457134E+02  0.56063215156E+03  0.10100000352E+00 0.  1.
</event>
<event>
 5   0  0.5031575E-03  0.1202555E+04  0.7818609E-02  0.9110623E-01
        2   -1    0    0  501    0  0.00000000000E+00  0.00000000000E+00  0.34558334667E+03  0.34558334668E+03  0.25500000920E-02 0.  1.
       -2   -1    0    0    0  501  0.00000000000E+00  0.00000000000E+00 -0.10461577639E+04  0.10461577639E+04  0.25500000920E-02 0. -1.
    10030    2    1    2    0    0  0.00000000000E+00  0.00000000000E+00 -0.70057441726E+03  0.13917411106E+04  0.12025551151E+04 0.  0.
        5    1    3    3  502    0  0.50451479491E+03 -0.28241633617E+03 -0.15935239167E+03  0.59975781774E+03  0.46999998093E+01 0.  1.
       -5    1    3    3    0  502 -0.50451479491E+03  0.28241633617E+03 -0.54122202558E+03  0.79198329287E+03  0.46999998093E+01 0. -1.
</event>
<event>
 5   0  0.2792518E-03  0.1192393E+04  0.7818609E-02  0.9119541E-01
       -1   -1    0    0    0  501  0.00000000000E+00  0.00000000000E+00  0.22886408534E+03  0.22886408540E+03  0.50400001928E-02 0. -1.
        1   -1    0    0  501    0  0.00000000000E+00  0.00000000000E+00 -0.15531065653E+04  0.15531065653E+04  0.50400001928E-02 0.  1.
    10030    2    1    2    0    0  0.00000000000E+00  0.00000000000E+00 -0.13242424800E+04  0.17819706507E+04  0.11923930788E+04 0.  0.
        2    1    3    3  502    0 -0.14242149370E+03 -0.27387442564E+03 -0.14243770094E+04  0.14574432915E+04  0.25500000920E-02 0.  1.
       -2    1    3    3    0  502  0.14242149370E+03  0.27387442564E+03  0.10013452947E+03  0.32452735922E+03  0.25500000920E-02 0. -1.
</event>
<event>
 5   0  0.5189537E-03  0.1144990E+04  0.7818609E-02  0.9162418E-01
       -2   -1    0    0    0  501  0.00000000000E+00  0.00000000000E+00  0.12998090860E+04  0.12998090860E+04  0.25500000920E-02 0. -1.
        2   -1    0    0  501    0  0.00000000000E+00  0.00000000000E+00 -0.25215273459E+03  0.25215273460E+03  0.25500000920E-02 0.  1.
    10030    2    1    2    0    0  0.00000000000E+00  0.00000000000E+00  0.10476563515E+04  0.15519618206E+04  0.11449898087E+04 0.  0.
        4    1    3    3  502    0 -0.22186932571E+03  0.22122164170E+03  0.11732846082E+04  0.12143983685E+04  0.12699999809E+01 0. -1.
       -4    1    3    3    0  502  0.22186932571E+03 -0.22122164170E+03 -0.12562825679E+03  0.33756345219E+03  0.12699999809E+01 0.  1.
</event>
<event>
 5   0  0.2875848E-03  0.1189565E+04  0.7818609E-02  0.9122039E-01
       -1   -1    0    0    0  501  0.00000000000E+00  0.00000000000E+00  0.37393203367E+03  0.37393203370E+03  0.50400001928E-02 0.  1.
        1   -1    0    0  501    0  0.00000000000E+00  0.00000000000E+00 -0.94607167602E+03  0.94607167604E+03  0.50400001928E-02 0. -1.
    10030    2    1    2    0    0  0.00000000000E+00  0.00000000000E+00 -0.57213964235E+03  0.13200037097E+04  0.11895654767E+04 0.  0.
        1    1    3    3  502    0 -0.43746132459E+03 -0.18121433575E+03  0.11333624817E+03  0.48688412499E+03  0.50400001928E-02 0.  1.
       -1    1    3    3    0  502  0.43746132459E+03  0.18121433575E+03 -0.68547589052E+03  0.83311958475E+03  0.50400001928E-02 0. -1.
</event>
<event>
 5   0  0.5108045E-03  0.1205199E+04  0.7818609E-02  0.9108318E-01
        2   -1    0    0  501    0  0.00000000000E+00  0.00000000000E+00  0.13974620302E+04  0.13974620302E+04  0.25500000920E-02 0. -1.
       -2   -1    0    0    0  501  0.00000000000E+00  0.00000000000E+00 -0.25984676983E+03  0.25984676984E+03  0.25500000920E-02 0.  1.
    10030    2    1    2    0    0  0.00000000000E+00  0.00000000000E+00  0.11376152604E+04  0.16573088001E+04  0.12051987297E+04 0.  0.
        3    1    3    3  502    0 -0.53095372948E+02 -0.32502245331E+03  0.12627626761E+04  0.13050012644E+04  0.10100000352E+00 0.  1.
       -3    1    3    3    0  502  0.53095372948E+02  0.32502245331E+03 -0.12514741575E+03  0.35230753561E+03  0.10100000352E+00 0. -1.
</event>
<event>
 5   0  0.2875848E-03  0.1198487E+04  0.7818609E-02  0.9114182E-01
       -1   -1    0    0    0  501  0.00000000000E+00  0.00000000000E+00  0.11855460417E+04  0.11855460418E+04  0.50400001928E-02 0.  1.
        1   -1    0    0  501    0  0.00000000000E+00  0.00000000000E+00 -0.30289229644E+03  0.30289229648E+03  0.50400001928E-02 0. -1.
    10030    2    1    2    0    0  0.00000000000E+00  0.00000000000E+00  0.88265374530E+03  0.14884383382E+04  0.11984869848E+04 0.  0.
        1    1    3    3  502    0  0.21400990209E+03 -0.42207431950E+03  0.89788785332E+03  0.10149628400E+04  0.50400001928E-02 0.  1.
       -1    1    3    3    0  502 -0.21400990209E+03  0.42207431950E+03 -0.15234108020E+02  0.47347549826E+03  0.50400001928E-02 0. -1.
</event>
<event>
 5   0  0.5031575E-03  0.1198687E+04  0.7818609E-02  0.9114007E-01
       -2   -1    0    0    0  501  0.00000000000E+00  0.00000000000E+00  0.26343096812E+03  0.26343096814E+03  0.25500000920E-02 0.  1.
        2   -1    0    0  501    0  0.00000000000E+00  0.00000000000E+00 -0.13635923892E+04  0.13635923892E+04  0.25500000920E-02 0. -1.
    10030    2    1    2    0    0  0.00000000000E+00  0.00000000000E+00 -0.11001614210E+04  0.16270233573E+04  0.11986867201E+04 0.  0.
        5    1    3    3  502    0 -0.17063509189E+03 -0.46388738614E+03 -0.90020056583E+02  0.50242764871E+03  0.46999998093E+01 0.  1.
       -5    1    3    3    0  502  0.17063509189E+03  0.46388738614E+03 -0.10101413645E+04  0.11245957086E+04  0.46999998093E+01 0. -1.
</event>
<event>
 5   0  0.1922125E-03  0.1198389E+04  0.7818609E-02  0.9114268E-01
       -3   -1    0    0    0  501  0.00000000000E+00  0.00000000000E+00  0.53395585556E+03  0.53395586511E+03  0.10100000352E+00 0. -1.
        3   -1    0    0  501    0  0.00000000000E+00  0.00000000000E+00 -0.67240377873E+03  0.67240378632E+03  0.10100000352E+00 0.  1.
    10030    2    1    2    0    0  0.00000000000E+00  0.00000000000E+00 -0.13844792318E+03  0.12063596514E+04  0.11983888272E+04 0.  0.
        5    1    3    3  502    0  0.47115217332E+03 -0.14292101392E+03  0.27451623192E+03  0.56373046594E+03  0.46999998093E+01 0. -1.
       -5    1    3    3    0  502 -0.47115217332E+03  0.14292101392E+03 -0.41296415509E+03  0.64262918549E+03  0.46999998093E+01 0.  1.
</event>
<event>
 5   0  0.2938349E-03  0.1191253E+04  0.7818609E-02  0.9120547E-01
       -1   -1    0    0    0  501  0.00000000000E+00  0.00000000000E+00  0.27235056002E+03  0.27235056006E+03  0.50400001928E-02 0. -1.
        1   -1    0    0  501    0  0.00000000000E+00  0.00000000000E+00 -0.13026260791E+04  0.13026260791E+04  0.50400001928E-02 0.  1.
    10030    2    1    2    0    0  0.00000000000E+00  0.00000000000E+00 -0.10302755191E+04  0.15749766392E+04  0.11912530247E+04 0.  0.
        4    1    3    3  502    0  0.51867012714E+03 -0.11006252260E+02 -0.12825285821E+03  0.53440644356E+03  0.12699999809E+01 0. -1.
       -4    1    3    3    0  502 -0.51867012714E+03  0.11006252260E+02 -0.90202266090E+03  0.10405701956E+04  0.12699999809E+01 0.  1.
</event>
<event>
 5   0  0.5003526E-03  0.1211693E+04  0.7818609E-02  0.9102682E-01
       -2   -1    0    0    0  501  0.00000000000E+00  0.00000000000E+00  0.31284311068E+03  0.31284311069E+03  0.25500000920E-02 0. -1.
        2   -1    0    0  501    0  0.00000000000E+00  0.00000000000E+00 -0.11732725808E+04  0.11732725808E+04  0.25500000920E-02 0.  1.
    10030    2    1    2    0    0  0.00000000000E+00  0.00000000000E+00 -0.86042947012E+03  0.14861156915E+04  0.12116934330E+04 0.  0.
        2    1    3    3  502    0  0.36959745781E+03 -0.21182635756E+03  0.98136336560E+02  0.43715377974E+03  0.25500000920E-02 0. -1.
       -2    1    3    3    0  502 -0.36959745781E+03  0.21182635756E+03 -0.95856580668E+03  0.10489619118E+04  0.25500000920E-02 0.  1.
</event>
<event>
 5   0  0.5108045E-03  0.1230368E+04  0.7818609E-02  0.9086683E-01
        2   -1    0    0  501    0  0.00000000000E+00  0.00000000000E+00  0.77601108737E+03  0.77601108737E+03  0.25500000920E-02 0.  1.
       -2   -1    0    0    0  501  0.00000000000E+00  0.00000000000E+00 -0.48768788955E+03  0.48768788956E+03  0.25500000920E-02 0. -1.
    10030    2    1    2    0    0  0.00000000000E+00  0.00000000000E+00  0.28832319782E+03  0.12636989769E+04  0.12303677653E+04 0.  0.
        3    1    3    3  502    0 -0.46303531557E+03  0.28407718651E+03  0.44068609345E+03  0.69950396319E+03  0.10100000352E+00 0.  1.
       -3    1    3    3    0  502  0.46303531557E+03 -0.28407718651E+03 -0.15236289563E+03  0.56419501374E+03  0.10100000352E+00 0. -1.
</event>
<event>
 5   0  0.2926844E-03  0.1208009E+04  0.7818609E-02  0.9105875E-01
        1   -1    0    0  501    0  0.00000000000E+00  0.00000000000E+00  0.15276084199E+04  0.15276084199E+04  0.50400001928E-02 0.  1.
       -1   -1    0    0    0  501  0.00000000000E+00  0.00000000000E+00 -0.23881850625E+03  0.23881850630E+03  0.50400001928E-02 0. -1.
    10030    2    1    2    0    0  0.00000000000E+00  0.00000000000E+00  0.12887899137E+04  0.17664269262E+04  0.12080085447E+04 0.  0.
        5    1    3    3  502    0  0.52550741632E+03  0.21677133466E+03  0.34596699920E+03  0.66547960951E+03  0.46999998093E+01 0. -1.
       -5    1    3    3    0  502 -0.52550741632E+03 -0.21677133466E+03  0.94282291447E+03  0.11009473167E+04  0.46999998093E+01 0.  1.
</event>
<event>
 5   0  0.1922125E-03  0.1211067E+04  0.7818609E-02  0.9103224E-01
        4   -1    0    0  501    0  0.00000000000E+00  0.00000000000E+00  0.10343980244E+04  0.10343988040E+04  0.12699999809E+01 0.  1.
       -4   -1    0    0    0  501  0.00000000000E+00  0.00000000000E+00 -0.35447570681E+03  0.35447798186E+03  0.12699999809E+01 0. -1.
    10030    2    1    2    0    0  0.00000000000E+00  0.00000000000E+00  0.67992231760E+03  0.13888767859E+04  0.12110674500E+04 0.  0.
        5    1    3    3  502    0 -0.53129048958E+03 -0.94740793215E+01  0.67291385596E+03  0.85743483137E+03  0.46999998093E+01 0.  1.
       -5    1    3    3    0  502  0.53129048958E+03  0.94740793215E+01  0.70084616362E+01  0.53144195453E+03  0.46999998093E+01 0. -1.
</event>
<event>
 5   0  0.5467554E-03  0.1154184E+04  0.7818609E-02  0.9153932E-01
       -2   -1    0    0    0  501  0.00000000000E+00  0.00000000000E+00  0.10872600992E+04  0.10872600992E+04  0.25500000920E-02 0.  1.
        2   -1    0    0  501    0  0.00000000000E+00  0.00000000000E+00 -0.30630679203E+03  0.30630679204E+03  0.25500000920E-02 0. -1.
    10030    2    1    2    0    0  0.00000000000E+00  0.00000000000E+00  0.78095330719E+03  0.13935668913E+04  0.11541839595E+04 0.  0.
        1    1    3    3  502    0 -0.41470910482E+03 -0.19826640807E+03 -0.30805342551E+02  0.46069749223E+03  0.50400001928E-02 0. -1.
       -1    1    3    3    0  502  0.41470910482E+03  0.19826640807E+03  0.81175864974E+03  0.93286939903E+03  0.50400001928E-02 0.  1.
</event>
<event>
 5   0  0.5003526E-03  0.1194715E+04  0.7818609E-02  0.9117495E-01
        2   -1    0    0  501    0  0.00000000000E+00  0.00000000000E+00  0.10450334494E+04  0.10450334494E+04  0.25500000920E-02 0. -1.
       -2   -1    0    0    0  501  0.00000000000E+00  0.00000000000E+00 -0.34145886894E+03  0.34145886895E+03  0.25500000920E-02 0.  1.
    10030    2    1    2    0    0  0.00000000000E+00  0.00000000000E+00  0.70357458045E+03  0.13864923184E+04  0.11947149278E+04 0.  0.
        2    1    3    3  502    0  0.38466657915E+03 -0.85437587507E+02 -0.16924417430E+03  0.42884909818E+03  0.25500000920E-02 0.  1.
       -2    1    3    3    0  502 -0.38466657915E+03  0.85437587507E+02  0.87281875476E+03  0.95764322017E+03  0.25500000920E-02 0. -1.
</event>
<event>
 5   0  0.2792518E-03  0.1212215E+04  0.7818609E-02  0.9102232E-01
        1   -1    0    0  501    0  0.00000000000E+00  0.00000000000E+00  0.36294514434E+03  0.36294514438E+03  0.50400001928E-02 0.  1.
       -1   -1    0    0    0  501  0.00000000000E+00  0.00000000000E+00 -0.10121809770E+04  0.10121809770E+04  0.50400001928E-02 0. -1.
    10030    2    1    2    0    0  0.00000000000E+00  0.00000000000E+00 -0.64923583266E+03  0.13751261214E+04  0.12122147843E+04 0.  0.
        2    1    3    3  502    0 -0.57877116118E+03 -0.16889972279E+03 -0.39512376854E+03  0.72085086242E+03  0.25500000920E-02 0.  1.
       -2    1    3    3    0  502  0.57877116118E+03  0.16889972279E+03 -0.25411206412E+03  0.65427525898E+03  0.25500000920E-02 0. -1.
</event>
<event>
 5   0  0.5003526E-03  0.1222242E+04  0.7818609E-02  0.9093608E-01
       -2   -1    0    0    0  501  0.00000000000E+00  0.00000000000E+00  0.35794774358E+03  0.35794774359E+03  0.25500000920E-02 0.  1.
        2   -1    0    0  501    0  0.00000000000E+00  0.00000000000E+00 -0.10433618018E+04  0.10433618018E+04  0.25500000920E-02 0. -1.
    10030    2    1    2    0    0  0.00000000000E+00  0.00000000000E+00 -0.68541405820E+03  0.14013095454E+04  0.12222422063E+04 0.  0.
        2    1    3    3  502    0 -0.21229293506E+03 -0.51183923137E+03 -0.63818869166E+03  0.84518193025E+03  0.25500000920E-02 0. -1.
       -2    1    3    3    0  502  0.21229293506E+03  0.51183923137E+03 -0.47225366533E+02  0.55612761512E+03  0.25500000920E-02 0.  1.
</event>
<event>
 5   0  0.5031575E-03  0.1212633E+04  0.7818609E-02  0.9101870E-01
        2   -1    0    0  501    0  0.00000000000E+00  0.00000000000E+00  0.39242676600E+03  0.39242676600E+03  0.25500000920E-02 0. -1.
       -2   -1    0    0    0  501  0.00000000000E+00  0.00000000000E+00 -0.93678541917E+03  0.93678541918E+03  0.25500000920E-02 0.  1.
    10030    2    1    2    0    0  0.00000000000E+00  0.00000000000E+00 -0.54435865318E+03  0.13292121852E+04  0.12126329576E+04 0.  0.
        5    1    3    3  502    0  0.41100834264E+03 -0.23070703874E+02  0.21574025743E+03  0.46478604085E+03  0.46999998093E+01 0.  1.
       -5    1    3    3    0  502 -0.41100834264E+03  0.23070703874E+02 -0.76009891061E+03  0.86442614433E+03  0.46999998093E+01 0. -1.
</event>
<event>
 5   0  0.5189537E-03  0.1000684E+04  0.7818609E-02  0.9307795E-01
       -2   -1    0    0    0  501  0.00000000000E+00  0.00000000000E+00  0.41931744268E+03  0.41931744269E+03  0.25500000920E-02 0.  1.
        2   -1    0    0  501    0  0.00000000000E+00  0.00000000000E+00 -0.59702289908E+03  0.59702289908E+03  0.25500000920E-02 0. -1.
    10030    2    1    2    0    0  0.00000000000E+00  0.00000000000E+00 -0.17770545640E+03  0.10163403418E+04  0.10006839966E+04 0.  0.
        4    1    3    3  502    0  0.39669726435E+03  0.29642510711E+03 -0.16293119001E+02  0.49548324118E+03  0.12699999809E+01 0. -1.
       -4    1    3    3    0  502 -0.39669726435E+03 -0.29642510711E+03 -0.16141233740E+03  0.52085710059E+03  0.12699999809E+01 0.  1.
</event>
<event>
 5   0  0.5003526E-03  0.1187273E+04  0.7818609E-02  0.9124070E-01
       -2   -1    0    0    0  501  0.00000000000E+00  0.00000000000E+00  0.41035893434E+03  0.41035893435E+03  0.25500000920E-02 0.  1.
        2   -1    0    0  501    0  0.00000000000E+00  0.00000000000E+00 -0.85877123337E+03  0.85877123337E+03  0.25500000920E-02 0. -1.
    10030    2    1    2    0    0  0.00000000000E+00  0.00000000000E+00 -0.44841229903E+03  0.12691301677E+04  0.11872732595E+04 0.  0.
        2    1    3    3  502    0 -0.35924669995E+03 -0.45710975871E+03 -0.35246588966E+03  0.67988214149E+03  0.25500000920E-02 0. -1.
       -2    1    3    3    0  502  0.35924669995E+03  0.45710975871E+03 -0.95946409368E+02  0.58924802623E+03  0.25500000920E-02 0.  1.
</event>
<event>
 5   0  0.1922125E-03  0.1206691E+04  0.7818609E-02  0.9107020E-01
        4   -1    0    0  501    0  0.00000000000E+00  0.00000000000E+00  0.25448376687E+03  0.25448693582E+03  0.12699999809E+01 0.  1.
       -4   -1    0    0    0  501  0.00000000000E+00  0.00000000000E+00 -0.14304355106E+04  0.14304360743E+04  0.12699999809E+01 0. -1.
    10030    2    1    2    0    0  0.00000000000E+00  0.00000000000E+00 -0.11759517437E+04  0.16849230102E+04  0.12066909491E+04 0.  0.
        1    1    3    3  502    0 -0.27485085573E+03  0.21928877771E+03 -0.12725916477E+04  0.13202727229E+04  0.50400001928E-02 0. -1.
       -1    1    3    3    0  502  0.27485085573E+03 -0.21928877771E+03  0.96639904043E+02  0.36465028726E+03  0.50400001928E-02 0.  1.
</event>
<event>
 5   0  0.2875848E-03  0.1089073E+04  0.7818609E-02  0.9215908E-01
       -1   -1    0    0    0  501  0.00000000000E+00  0.00000000000E+00  0.55182400892E+03  0.55182400895E+03  0.50400001928E-02 0. -1.
        1   -1    0    0  501    0  0.00000000000E+00  0.00000000000E+00 -0.53734526137E+03  0.53734526139E+03  0.50400001928E-02 0.  1.
    10030    2    1    2    0    0  0.00000000000E+00  0.00000000000E+00  0.14478747558E+02  0.10891692703E+04  0.10890730303E+04 0.  0.
        1    1    3    3  502    0 -0.11792374469E+03  0.52833039982E+03  0.66244548303E+02  0.54536901373E+03  0.50400001928E-02 0.  1.
       -1    1    3    3    0  502  0.11792374469E+03 -0.52833039982E+03 -0.51765800745E+02  0.54380025661E+03  0.50400001928E-02 0. -1.
</event>
<event>
 5   0  0.5108045E-03  0.1261294E+04  0.7818609E-02  0.9060835E-01
       -2   -1    0    0    0  501  0.00000000000E+00  0.00000000000E+00  0.47358169308E+03  0.47358169309E+03  0.25500000920E-02 0. -1.
        2   -1    0    0  501    0  0.00000000000E+00  0.00000000000E+00 -0.83980405889E+03  0.83980405890E+03  0.25500000920E-02 0.  1.
    10030    2    1    2    0    0  0.00000000000E+00  0.00000000000E+00 -0.36622236581E+03  0.13133857520E+04  0.12612943004E+04 0.  0.
        3    1    3    3  502    0 -0.62632508167E+02  0.56191940080E+03 -0.47400421053E+03  0.73780501887E+03  0.10100000352E+00 0.  1.
       -3    1    3    3    0  502  0.62632508167E+02 -0.56191940080E+03  0.10778184472E+03  0.57558073311E+03  0.10100000352E+00 0. -1.
</event>
<event>
 5   0  0.2875848E-03  0.1212182E+04  0.7818609E-02  0.9102260E-01
       -1   -1    0    0    0  501  0.00000000000E+00  0.00000000000E+00  0.29634513160E+03  0.29634513164E+03  0.50400001928E-02 0. -1.
        1   -1    0    0  501    0  0.00000000000E+00  0.00000000000E+00 -0.12395900626E+04  0.12395900626E+04  0.50400001928E-02 0.  1.
    10030    2    1    2    0    0  0.00000000000E+00  0.00000000000E+00 -0.94324493101E+03  0.15359351943E+04  0.12121822970E+04 0.  0.
        1    1    3    3  502    0  0.53531162328E+03 -0.11993009587E+03 -0.79813843289E+03  0.96848681973E+03  0.50400001928E-02 0.  1.
       -1    1    3    3    0  502 -0.53531162328E+03  0.11993009587E+03 -0.14510649812E+03  0.56744837452E+03  0.50400001928E-02 0. -1.
</event>
<event>
 5   0  0.5003526E-03  0.1211595E+04  0.7818609E-02  0.9102767E-01
        2   -1    0    0  501    0  0.00000000000E+00  0.00000000000E+00  0.20552390962E+04  0.20552390962E+04  0.25500000920E-02 0.  1.
       -2   -1    0    0    0  501  0.00000000000E+00  0.00000000000E+00 -0.17856358297E+03  0.17856358299E+03  0.25500000920E-02 0. -1.
    10030    2    1    2    0    0  0.00000000000E+00  0.00000000000E+00  0.18766755133E+04  0.22338026792E+04  0.12115954059E+04 0.  0.
        2    1    3    3  502    0 -0.34134226859E+03 -0.42005994592E+03  0.43671272827E+03  0.69547315515E+03  0.25500000920E-02 0. -1.
       -2    1    3    3    0  502  0.34134226859E+03  0.42005994592E+03  0.14399627850E+04  0.15383295241E+04  0.25500000920E-02 0.  1.
</event>
<event>
 5   0  0.5031575E-03  0.1269689E+04  0.7818609E-02  0.9053954E-01
        2   -1    0    0  501    0  0.00000000000E+00  0.00000000000E+00  0.64175160726E+03  0.64175160726E+03  0.25500000920E-02 0.  1.
       -2   -1    0    0    0  501  0.00000000000E+00  0.00000000000E+00 -0.62801154236E+03  0.62801154237E+03  0.25500000920E-02 0. -1.
    10030    2    1    2    0    0  0.00000000000E+00  0.00000000000E+00  0.13740064895E+02  0.12697631496E+04  0.12696888071E+04 0.  0.
        5    1    3    3  502    0  0.31096573549E+03 -0.27947637504E+03  0.48459936743E+03  0.64005106809E+03  0.46999998093E+01 0.  1.
       -5    1    3    3    0  502 -0.31096573549E+03  0.27947637504E+03 -0.47085930253E+03  0.62971208154E+03  0.46999998093E+01 0. -1.
</event>
<event>
 5   0  0.2930868E-03  0.1194641E+04  0.7818609E-02  0.9117560E-01
       -1   -1    0    0    0  501  0.00000000000E+00  0.00000000000E+00  0.75146116078E+03  0.75146116080E+03  0.50400001928E-02 0.  1.
        1   -1    0    0  501    0  0.00000000000E+00  0.00000000000E+00 -0.47479723051E+03  0.47479723054E+03  0.50400001928E-02 0. -1.
    10030    2    1    2    0    0  0.00000000000E+00  0.00000000000E+00  0.27666393027E+03  0.12262583913E+04  0.11946408297E+04 0.  0.
        3    1    3    3  502    0  0.36204271170E+03 -0.34270396999E+03  0.47608571107E+03  0.68933195968E+03  0.10100000352E+00 0.  1.
       -3    1    3    3    0  502 -0.36204271170E+03  0.34270396999E+03 -0.19942178081E+03  0.53692643165E+03  0.10100000352E+00 0. -1.
</event>
<event>
 5   0  0.2875848E-03  0.1183614E+04  0.7818609E-02  0.9127322E-01
        1   -1    0    0  501    0  0.00000000000E+00  0.00000000000E+00  0.58746505105E+03  0.58746505107E+03  0.50400001928E-02 0. -1.
       -1   -1    0    0    0  501  0.00000000000E+00  0.00000000000E+00 -0.59618078879E+03  0.59618078881E+03  0.50400001928E-02 0.  1.
    10030    2    1    2    0    0  0.00000000000E+00  0.00000000000E+00 -0.87157377359E+01  0.11836458399E+04  0.11836137504E+04 0.  0.
        1    1    3    3  502    0  0.72248500494E+02 -0.57078256521E+03  0.13429218440E+03  0.59080197477E+03  0.50400001928E-02 0. -1.
       -1    1    3    3    0  502 -0.72248500494E+02  0.57078256521E+03 -0.14300792214E+03  0.59284386511E+03  0.50400001928E-02 0.  1.
</event>
<event>
 5   0  0.2926844E-03  0.1180370E+04  0.7818609E-02  0.9130215E-01
        1   -1    0    0  501    0  0.00000000000E+00  0.00000000000E+00  0.11987401947E+04  0.11987401947E+04  0.50400001928E-02 0. -1.
       -1   -1    0    0    0  501  0.00000000000E+00  0.00000000000E+00 -0.29057012465E+03  0.29057012470E+03  0.50400001928E-02 0.  1.
    10030    2    1    2    0    0  0.00000000000E+00  0.00000000000E+00  0.90817007005E+03  0.14893103194E+04  0.11803695825E+04 0.  0.
        5    1    3    3  502    0 -0.20034237179E+03  0.45589712244E+03  0.54458877930E+02  0.50096617807E+03  0.46999998093E+01 0.  1.
       -5    1    3    3    0  502  0.20034237179E+03 -0.45589712244E+03  0.85371119212E+03  0.98834414135E+03  0.46999998093E+01 0. -1.
</event>
<event>
 5   0  0.1922125E-03  0.1203934E+04  0.7818609E-02  0.9109420E-01
       -3   -1    0    0    0  501  0.00000000000E+00  0.00000000000E+00  0.49806557727E+03  0.49806558751E+03  0.10100000352E+00 0. -1.
        3   -1    0    0  501    0  0.00000000000E+00  0.00000000000E+00 -0.72754280965E+03  0.72754281666E+03  0.10100000352E+00 0.  1.
    10030    2    1    2    0    0  0.00000000000E+00  0.00000000000E+00 -0.22947723238E+03  0.12256084042E+04  0.12039336195E+04 0.  0.
        5    1    3    3  502    0 -0.14383658491E+03 -0.43067425983E+03 -0.51704016460E+03  0.68812927785E+03  0.46999998093E+01 0.  1.
       -5    1    3    3    0  502  0.14383658491E+03  0.43067425983E+03  0.28756293222E+03  0.53747912631E+03  0.46999998093E+01 0. -1.
</event>
<event>
 5   0  0.1922125E-03  0.1191747E+04  0.7818609E-02  0.9120112E-01
        3   -1    0    0  501    0  0.00000000000E+00  0.00000000000E+00  0.12281349013E+04  0.12281349055E+04  0.10100000352E+00 0.  1.
       -3   -1    0    0    0  501  0.00000000000E+00  0.00000000000E+00 -0.28910909815E+03  0.28910911579E+03  0.10100000352E+00 0. -1.
    10030    2    1    2    0    0  0.00000000000E+00  0.00000000000E+00  0.93902580316E+03  0.15172440213E+04  0.11917466010E+04 0.  0.
        1    1    3    3  502    0 -0.10680245208E+03 -0.24504578614E+03  0.11475178866E+04  0.11782408502E+04  0.50400001928E-02 0.  1.
       -1    1    3    3    0  502  0.10680245208E+03  0.24504578614E+03 -0.20849208344E+03  0.33900317101E+03  0.50400001928E-02 0. -1.
</event>
<event>
 5   0  0.2930868E-03  0.1204949E+04  0.7818609E-02  0.9108535E-01
        1   -1    0    0  501    0  0.00000000000E+00  0.00000000000E+00  0.52704248976E+03  0.52704248979E+03  0.50400001928E-02 0. -1.
       -1   -1    0    0    0  501  0.00000000000E+00  0.00000000000E+00 -0.68870306244E+03  0.68870306246E+03  0.50400001928E-02 0.  1.
    10030    2    1    2    0    0  0.00000000000E+00  0.00000000000E+00 -0.16166057268E+03  0.12157455522E+04  0.12049494210E+04 0.  0.
        3    1    3    3  502    0  0.72344480760E+02 -0.39357392500E+03 -0.53524501001E+03  0.66829738087E+03  0.10100000352E+00 0.  1.
       -3    1    3    3    0  502 -0.72344480760E+02  0.39357392500E+03  0.37358443733E+03  0.54744817138E+03  0.10100000352E+00 0. -1.
</event>
<event>
 5   0  0.5031575E-03  0.1211755E+04  0.7818609E-02  0.9102629E-01
       -2   -1    0    0    0  501  0.00000000000E+00  0.00000000000E+00  0.94227527160E+03  0.94227527161E+03  0.25500000920E-02 0.  1.
        2   -1    0    0  501    0  0.00000000000E+00  0.00000000000E+00 -0.38957557347E+03  0.38957557348E+03  0.25500000920E-02 0. -1.
    10030    2    1    2    0    0  0.00000000000E+00  0.00000000000E+00  0.55269969814E+03  0.13318508451E+04  0.12117548090E+04 0.  0.
        5    1    3    3  502    0 -0.52641095460E+03  0.27306522933E+03  0.41271128456E+03  0.72251353413E+03  0.46999998093E+01 0. -1.
       -5    1    3    3    0  502  0.52641095460E+03 -0.27306522933E+03  0.13998841357E+03  0.60933731096E+03  0.46999998093E+01 0.  1.
</event>
<event>
 5   0  0.1922125E-03  0.1202902E+04  0.7818609E-02  0.9110320E-01
        3   -1    0    0  501    0  0.00000000000E+00  0.00000000000E+00  0.90321381573E+03  0.90321382138E+03  0.10100000352E+00 0. -1.
       -3   -1    0    0    0  501  0.00000000000E+00  0.00000000000E+00 -0.40050704534E+03  0.40050705807E+03  0.10100000352E+00 0.  1.
    10030    2    1    2    0    0  0.00000000000E+00  0.00000000000E+00  0.50270677040E+03  0.13037208795E+04  0.12029023379E+04 0.  0.
        1    1    3    3  502    0  0.30310856510E+03  0.37447121621E+03  0.64158620094E+03  0.80233181868E+03  0.50400001928E-02 0. -1.
       -1    1    3    3    0  502 -0.30310856510E+03 -0.37447121621E+03 -0.13887943055E+03  0.50138906077E+03  0.50400001928E-02 0.  1.
</event>
<event>
 5   0  0.5031575E-03  0.1212433E+04  0.7818609E-02  0.9102043E-01
       -2   -1    0    0    0  501  0.00000000000E+00  0.00000000000E+00  0.53285503075E+03  0.53285503076E+03  0.25500000920E-02 0. -1.
        2   -1    0    0  501    0  0.00000000000E+00  0.00000000000E+00 -0.68967754154E+03  0.68967754155E+03  0.25500000920E-02 0.  1.
    10030    2    1    2    0    0  0.00000000000E+00  0.00000000000E+00 -0.15682251079E+03  0.12225325723E+04  0.12124325097E+04 0.  0.
        5    1    3    3  502    0  0.50696765263E+03 -0.19068864716E+03 -0.35288778888E+03  0.64647524509E+03  0.46999998093E+01 0.  1.
       -5    1    3    3    0  502 -0.50696765263E+03  0.19068864716E+03  0.19606527809E+03  0.57605732722E+03  0.46999998093E+01 0. -1.
</event>
<event>
 5   0  0.2875848E-03  0.1194431E+04  0.7818609E-02  0.9117745E-01
       -1   -1    0    0    0  501  0.00000000000E+00  0.00000000000E+00  0.64110738354E+03  0.64110738356E+03  0.50400001928E-02 0. -1.
        1   -1    0    0  501    0  0.00000000000E+00  0.00000000000E+00 -0.55632814998E+03  0.55632815000E+03  0.50400001928E-02 0.  1.
    10030    2    1    2    0    0  0.00000000000E+00  0.00000000000E+00  0.84779233557E+02  0.11974355336E+04  0.11944305499E+04 0.  0.
        1    1    3    3  502    0  0.33425486075E+03  0.40274772408E+03  0.33074851916E+03  0.61913376918E+03  0.50400001928E-02 0. -1.
       -1    1    3    3    0  502 -0.33425486075E+03 -0.40274772408E+03 -0.24596928560E+03  0.57830176437E+03  0.50400001928E-02 0.  1.
</event>
<event>
 5   0  0.2926844E-03  0.1187805E+04  0.7818609E-02  0.9123598E-01
       -1   -1    0    0    0  501  0.00000000000E+00  0.00000000000E+00  0.51044783867E+03  0.51044783869E+03  0.50400001928E-02 0.  1.
        1   -1    0    0  501    0  0.00000000000E+00  0.00000000000E+00 -0.69100145488E+03  0.69100145489E+03  0.50400001928E-02 0. -1.
    10030    2    1    2    0    0  0.00000000000E+00  0.00000000000E+00 -0.18055361621E+03  0.12014492936E+04  0.11878050331E+04 0.  0.
        5    1    3    3  502    0  0.47744438137E+03  0.15583852969E+03 -0.41087082430E+03  0.64890346655E+03  0.46999998093E+01 0. -1.
       -5    1    3    3    0  502 -0.47744438137E+03 -0.15583852969E+03  0.23031720809E+03  0.55254582704E+03  0.46999998093E+01 0.  1.
</event>
<event>
 5   0  0.5108045E-03  0.1213052E+04  0.7818609E-02  0.9101508E-01
       -2   -1    0    0    0  501  0.00000000000E+00  0.00000000000E+00  0.87766214806E+03  0.87766214806E+03  0.25500000920E-02 0. -1.
        2   -1    0    0  501    0  0.00000000000E+00  0.00000000000E+00 -0.41915204927E+03  0.41915204928E+03  0.25500000920E-02 0.  1.
    10030    2    1    2    0    0  0.00000000000E+00  0.00000000000E+00  0.45851009879E+03  0.12968141973E+04  0.12130521636E+04 0.  0.
        3    1    3    3  502    0  0.30451722405E+03  0.21348608484E+03  0.74147070449E+03  0.82950941163E+03  0.10100000352E+00 0. -1.
       -3    1    3    3    0  502 -0.30451722405E+03 -0.21348608484E+03 -0.28296060570E+03  0.46730478571E+03  0.10100000352E+00 0.  1.
</event>
<event>
 5   0  0.5031575E-03  0.1210100E+04  0.7818609E-02  0.9104062E-01
        2   -1    0    0  501    0  0.00000000000E+00  0.00000000000E+00  0.57391407320E+03  0.57391407320E+03  0.25500000920E-02 0.  1.
       -2   -1    0    0    0  501  0.00000000000E+00  0.00000000000E+00 -0.63787477307E+03  0.63787477308E+03  0.25500000920E-02 0. -1.
    10030    2    1    2    0    0  0.00000000000E+00  0.00000000000E+00 -0.63960699874E+02  0.12117888463E+04  0.12100996805E+04 0.  0.
        5    1    3    3  502    0 -0.31654856836E+03  0.11630781368E+03  0.47104814283E+03  0.57934354792E+03  0.46999998093E+01 0.  1.
       -5    1    3    3    0  502  0.31654856836E+03 -0.11630781368E+03 -0.53500884270E+03  0.63244529836E+03  0.46999998093E+01 0. -1.
</event>
<event>
 5   0  0.1922125E-03  0.1449007E+04  0.7818609E-02  0.8919089E-01
        3   -1    0    0  501    0  0.00000000000E+00  0.00000000000E+00  0.60806248769E+03  0.60806249607E+03  0.10100000352E+00 0.  1.
       -3   -1    0    0    0  501  0.00000000000E+00  0.00000000000E+00 -0.86324190690E+03  0.86324191281E+03  0.10100000352E+00 0. -1.
    10030    2    1    2    0    0  0.00000000000E+00  0.00000000000E+00 -0.25517941921E+03  0.14713044089E+04  0.14490066003E+04 0.  0.
        1    1    3    3  502    0 -0.51870067297E+03 -0.83035427036E+02  0.37904711423E+03  0.64778235937E+03  0.50400001928E-02 0.  1.
       -1    1    3    3    0  502  0.51870067297E+03  0.83035427036E+02 -0.63422653344E+03  0.82352204951E+03  0.50400001928E-02 0. -1.
</event>
<event>
 5   0  0.5189537E-03  0.1140128E+04  0.7818609E-02  0.9166940E-01
       -2   -1    0    0    0  501  0.00000000000E+00  0.00000000000E+00  0.21681467114E+03  0.21681467116E+03  0.25500000920E-02 0. -1.
        2   -1    0    0  501    0  0.00000000000E+00  0.00000000000E+00 -0.14988504315E+04  0.14988504315E+04  0.25500000920E-02 0.  1.
    10030    2    1    2    0    0  0.00000000000E+00  0.00000000000E+00 -0.12820357604E+04  0.17156651027E+04  0.11401276480E+04 0.  0.
        4    1    3    3  502    0  0.20803517615E+03  0.33099242903E+03 -0.16685931273E+02  0.39129867850E+03  0.12699999809E+01 0. -1.
       -4    1    3    3    0  502 -0.20803517615E+03 -0.33099242903E+03 -0.12653498291E+04  0.13243664242E+04  0.12699999809E+01 0.  1.
</event>
<event>
 5   0  0.2930868E-03  0.1212001E+04  0.7818609E-02  0.9102417E-01
       -1   -1    0    0    0  501  0.00000000000E+00  0.00000000000E+00  0.22107020761E+03  0.22107020766E+03  0.50400001928E-02 0. -1.
        1   -1    0    0  501    0  0.00000000000E+00  0.00000000000E+00 -0.16611760717E+04  0.16611760717E+04  0.50400001928E-02 0.  1.
    10030    2    1    2    0    0  0.00000000000E+00  0.00000000000E+00 -0.14401058641E+04  0.18822462794E+04  0.12120008896E+04 0.  0.
        3    1    3    3  502    0  0.27145433511E+03 -0.49450749743E+02  0.11785705854E+03  0.30003854611E+03  0.10100000352E+00 0. -1.
       -3    1    3    3    0  502 -0.27145433511E+03  0.49450749743E+02 -0.15579629227E+04  0.15822077333E+04  0.10100000352E+00 0.  1.
</event>
<event>
 5   0  0.2938349E-03  0.1237646E+04  0.7818609E-02  0.9080528E-01
        1   -1    0    0  501    0  0.00000000000E+00  0.00000000000E+00  0.49901160837E+03  0.49901160840E+03  0.50400001928E-02 0. -1.
       -1   -1    0    0    0  501  0.00000000000E+00  0.00000000000E+00 -0.76740097371E+03  0.76740097372E+03  0.50400001928E-02 0.  1.
    10030    2    1    2    0    0  0.00000000000E+00  0.00000000000E+00 -0.26838936534E+03  0.12664125821E+04  0.12376461436E+04 0.  0.
        4    1    3    3  502    0  0.15632046679E+02 -0.59006948107E+03 -0.32429224451E+03  0.67349344921E+03  0.12699999809E+01 0.  1.
       -4    1    3    3    0  502 -0.15632046679E+02  0.59006948107E+03  0.55902879170E+02  0.59291913291E+03  0.12699999809E+01 0. -1.
</event>
<event>
 5   0  0.2938349E-03  0.1184633E+04  0.7818609E-02  0.9126414E-01
       -1   -1    0    0    0  501  0.00000000000E+00  0.00000000000E+00  0.37102801674E+03  0.37102801678E+03  0.50400001928E-02 0. -1.
        1   -1    0    0  501    0  0.00000000000E+00  0.00000000000E+00 -0.94558628743E+03  0.94558628744E+03  0.50400001928E-02 0.  1.
    10030    2    1    2    0    0  0.00000000000E+00  0.00000000000E+00 -0.57455827068E+03  0.13166143042E+04  0.11846332849E+04 0.  0.
        4    1    3    3  502    0 -0.15881477924E+03 -0.36092005080E+03 -0.77850761892E+03  0.87267470617E+03  0.12699999809E+01 0.  1.
       -4    1    3    3    0  502  0.15881477924E+03  0.36092005080E+03  0.20394934823E+03  0.44393959805E+03  0.12699999809E+01 0. -1.
</event>
<event>
 5   0  0.2938349E-03  0.1205115E+04  0.7818609E-02  0.9108391E-01
       -1   -1    0    0    0  501  0.00000000000E+00  0.00000000000E+00  0.16444966499E+03  0.16444966507E+03  0.50400001928E-02 0. -1.
        1   -1    0    0  501    0  0.00000000000E+00  0.00000000000E+00 -0.22078212720E+04  0.22078212720E+04  0.50400001928E-02 0.  1.
    10030    2    1    2    0    0  0.00000000000E+00  0.00000000000E+00 -0.20433716070E+04  0.23722709371E+04  0.12051148802E+04 0.  0.
        4    1    3    3  502    0  0.17319575181E+03  0.57636838801E+03 -0.10799670449E+04  0.12363364097E+04  0.12699999809E+01 0.  1.
       -4    1    3    3    0  502 -0.17319575181E+03 -0.57636838801E+03 -0.96340456212E+03  0.11359345273E+04  0.12699999809E+01 0. -1.
</event>
<event>
 5   0  0.2875848E-03  0.1192198E+04  0.7818609E-02  0.9119713E-01
       -1   -1    0    0    0  501  0.00000000000E+00  0.00000000000E+00  0.44032212830E+03  0.44032212833E+03  0.50400001928E-02 0. -1.
        1   -1    0    0  501    0  0.00000000000E+00  0.00000000000E+00 -0.80698632238E+03  0.80698632239E+03  0.50400001928E-02 0.  1.
    10030    2    1    2    0    0  0.00000000000E+00  0.00000000000E+00 -0.36666419408E+03  0.12473084507E+04  0.11921978611E+04 0.  0.
        1    1    3    3  502    0  0.56881877555E+03 -0.17810097372E+03 -0.17528371952E+03  0.62128828945E+03  0.50400001928E-02 0.  1.
       -1    1    3    3    0  502 -0.56881877555E+03  0.17810097372E+03 -0.19138047456E+03  0.62602016127E+03  0.50400001928E-02 0. -1.
</event>
<event>
 5   0  0.2926844E-03  0.1122340E+04  0.7818609E-02  0.9183687E-01
       -1   -1    0    0    0  501  0.00000000000E+00  0.00000000000E+00  0.48297468136E+03  0.48297468139E+03  0.50400001928E-02 0.  1.
        1   -1    0    0  501    0  0.00000000000E+00  0.00000000000E+00 -0.65202589418E+03  0.65202589420E+03  0.50400001928E-02 0. -1.
    10030    2    1    2    0    0  0.00000000000E+00  0.00000000000E+00 -0.16905121282E+03  0.11350005756E+04  0.11223404092E+04 0.  0.
        5    1    3    3  502    0 -0.22536555319E+03 -0.50988107261E+03 -0.19601990001E+02  0.55783032257E+03  0.46999998093E+01 0.  1.
       -5    1    3    3    0  502  0.22536555319E+03  0.50988107261E+03 -0.14944922282E+03  0.57717025302E+03  0.46999998093E+01 0. -1.
</event>
<event>
 5   0  0.5189537E-03  0.1202273E+04  0.7818609E-02  0.9110870E-01
       -2   -1    0    0    0  501  0.00000000000E+00  0.00000000000E+00  0.37055959787E+03  0.37055959788E+03  0.25500000920E-02 0.  1.
        2   -1    0    0  501    0  0.00000000000E+00  0.00000000000E+00 -0.97518676205E+03  0.97518676205E+03  0.25500000920E-02 0. -1.
    10030    2    1    2    0    0  0.00000000000E+00  0.00000000000E+00 -0.60462716418E+03  0.13457463599E+04  0.12022725388E+04 0.  0.
        4    1    3    3  502    0 -0.17145516049E+03  0.45278892347E+03  0.96503826971E+02  0.49368945988E+03  0.12699999809E+01 0.  1.
       -4    1    3    3    0  502  0.17145516049E+03 -0.45278892347E+03 -0.70113099115E+03  0.85205690005E+03  0.12699999809E+01 0. -1.
</event>
<event>
 5   0  0.2926844E-03  0.1187750E+04  0.7818609E-02  0.9123647E-01
       -1   -1    0    0    0  501  0.00000000000E+00  0.00000000000E+00  0.51527734983E+03  0.51527734985E+03  0.50400001928E-02 0.  1.
        1   -1    0    0  501    0  0.00000000000E+00  0.00000000000E+00 -0.68446197749E+03  0.68446197751E+03  0.50400001928E-02 0. -1.
    10030    2    1    2    0    0  0.00000000000E+00  0.00000000000E+00 -0.16918462767E+03  0.11997393274E+04  0.11877504011E+04 0.  0.
        5    1    3    3  502    0  0.10026643504E+03 -0.41819444106E+03  0.32908483912E+03  0.54153381230E+03  0.46999998093E+01 0.  1.
       -5    1    3    3    0  502 -0.10026643504E+03  0.41819444106E+03 -0.49826946678E+03  0.65820551506E+03  0.46999998093E+01 0. -1.
</event>
<event>
 5   0  0.5189537E-03  0.1205150E+04  0.7818609E-02  0.9108360E-01
       -2   -1    0    0    0  501  0.00000000000E+00  0.00000000000E+00  0.93281444097E+03  0.93281444098E+03  0.25500000920E-02 0. -1.
        2   -1    0    0  501    0  0.00000000000E+00  0.00000000000E+00 -0.38924873637E+03  0.38924873638E+03  0.25500000920E-02 0.  1.
    10030    2    1    2    0    0  0.00000000000E+00  0.00000000000E+00  0.54356570461E+03  0.13220631774E+04  0.12051503515E+04 0.  0.
        4    1    3    3  502    0  0.26713454862E+03  0.10300485455E+03  0.85343082565E+03  0.90017590181E+03  0.12699999809E+01 0. -1.
       -4    1    3    3    0  502 -0.26713454862E+03 -0.10300485455E+03 -0.30986512104E+03  0.42188727555E+03  0.12699999809E+01 0.  1.
</event>
<event>
 5   0  0.2875848E-03  0.1202366E+04  0.7818609E-02  0.9110788E-01
        1   -1    0    0  501    0  0.00000000000E+00  0.00000000000E+00  0.75888862992E+03  0.75888862994E+03  0.50400001928E-02 0.  1.
       -1   -1    0    0    0  501  0.00000000000E+00  0.00000000000E+00 -0.47625042841E+03  0.47625042843E+03  0.50400001928E-02 0. -1.
    10030    2    1    2    0    0  0.00000000000E+00  0.00000000000E+00  0.28263820151E+03  0.12351390584E+04  0.12023660593E+04 0.  0.
        1    1    3    3  502    0  0.48810625510E+03 -0.14805608590E+02 -0.21888667917E+03  0.53514325247E+03  0.50400001928E-02 0. -1.
       -1    1    3    3    0  502 -0.48810625510E+03  0.14805608590E+02  0.50152488068E+03  0.69999580591E+03  0.50400001928E-02 0.  1.
</event>
<event>
 5   0  0.5108045E-03  0.1209465E+04  0.7818609E-02  0.9104612E-01
       -2   -1    0    0    0  501  0.00000000000E+00  0.00000000000E+00  0.31282982776E+03  0.31282982777E+03  0.25500000920E-02 0. -1.
        2   -1    0    0  501    0  0.00000000000E+00  0.00000000000E+00 -0.11690111646E+04  0.11690111646E+04  0.25500000920E-02 0.  1.
    10030    2    1    2    0    0  0.00000000000E+00  0.00000000000E+00 -0.85618133686E+03  0.14818409924E+04  0.12094652724E+04 0.  0.
        3    1    3    3  502    0 -0.14713811227E+03  0.57482486174E+03 -0.28506001292E+03  0.65827993052E+03  0.10100000352E+00 0. -1.
       -3    1    3    3    0  502  0.14713811227E+03 -0.57482486174E+03 -0.57112132394E+03  0.82356106187E+03  0.10100000352E+00 0.  1.
</event>
<event>
 5   0  0.2930868E-03  0.1196439E+04  0.7818609E-02  0.9115979E-01
       -1   -1    0    0    0  501  0.00000000000E+00  0.00000000000E+00  0.22958057473E+03  0.22958057479E+03  0.50400001928E-02 0. -1.
        1   -1    0    0  501    0  0.00000000000E+00  0.00000000000E+00 -0.15587849556E+04  0.15587849556E+04  0.50400001928E-02 0.  1.
    10030    2    1    2    0    0  0.00000000000E+00  0.00000000000E+00 -0.13292043808E+04  0.17883655304E+04  0.11964392940E+04 0.  0.
        3    1    3    3  502    0  0.58690845636E+03  0.11511095041E+03 -0.64601272189E+03  0.88036612503E+03  0.10100000352E+00 0. -1.
       -3    1    3    3    0  502 -0.58690845636E+03 -0.11511095041E+03 -0.68319165895E+03  0.90799940534E+03  0.10100000352E+00 0.  1.
</event>
<event>
 5   0  0.5003526E-03  0.1205437E+04  0.7818609E-02  0.9108110E-01
        2   -1    0    0  501    0  0.00000000000E+00  0.00000000000E+00  0.89292486485E+03  0.89292486485E+03  0.25500000920E-02 0. -1.
       -2   -1    0    0    0  501  0.00000000000E+00  0.00000000000E+00 -0.40683133296E+03  0.40683133296E+03  0.25500000920E-02 0.  1.
    10030    2    1    2    0    0  0.00000000000E+00  0.00000000000E+00  0.48609353190E+03  0.12997561978E+04  0.12054373696E+04 0.  0.
        2    1    3    3  502    0 -0.87837552906E+02 -0.27658707778E+03 -0.32654190882E+03  0.43685863333E+03  0.25500000920E-02 0.  1.
       -2    1    3    3    0  502  0.87837552906E+02  0.27658707778E+03  0.81263544071E+03  0.86289756449E+03  0.25500000920E-02 0. -1.
</event>
<event>
 5   0  0.2875848E-03  0.1626458E+04  0.7818609E-02  0.8804457E-01
        1   -1    0    0  501    0  0.00000000000E+00  0.00000000000E+00  0.34625386452E+03  0.34625386456E+03  0.50400001928E-02 0. -1.
       -1   -1    0    0    0  501  0.00000000000E+00  0.00000000000E+00 -0.19099889383E+04  0.19099889383E+04  0.50400001928E-02 0.  1.
    10030    2    1    2    0    0  0.00000000000E+00  0.00000000000E+00 -0.15637350738E+04  0.22562428029E+04  0.16264575631E+04 0.  0.
        1    1    3    3  502    0  0.17173773671E+03 -0.49023498164E+03 -0.16498647566E+04  0.17297045709E+04  0.50400001928E-02 0.  1.
       -1    1    3    3    0  502 -0.17173773671E+03  0.49023498164E+03  0.86129682833E+02  0.52653823197E+03  0.50400001928E-02 0. -1.
</event>
<event>
 5   0  0.2930868E-03  0.1219621E+04  0.7818609E-02  0.9095854E-01
       -1   -1    0    0    0  501  0.00000000000E+00  0.00000000000E+00  0.23988551351E+03  0.23988551356E+03  0.50400001928E-02 0.  1.
        1   -1    0    0  501    0  0.00000000000E+00  0.00000000000E+00 -0.15501924994E+04  0.15501924995E+04  0.50400001928E-02 0. -1.
    10030    2    1    2    0    0  0.00000000000E+00  0.00000000000E+00 -0.13103069859E+04  0.17900780130E+04  0.12196207998E+04 0.  0.
        3    1    3    3  502    0  0.44784102027E+03  0.10483534367E+03 -0.67479464792E+02  0.46487150600E+03  0.10100000352E+00 0.  1.
       -3    1    3    3    0  502 -0.44784102027E+03 -0.10483534367E+03 -0.12428275211E+04  0.13252065070E+04  0.10100000352E+00 0. -1.
</event>
<event>
 5   0  0.2875848E-03  0.1274724E+04  0.7818609E-02  0.9049853E-01
        1   -1    0    0  501    0  0.00000000000E+00  0.00000000000E+00  0.10021541106E+04  0.10021541106E+04  0.50400001928E-02 0. -1.
       -1   -1    0    0    0  501  0.00000000000E+00  0.00000000000E+00 -0.40535699720E+03  0.40535699723E+03  0.50400001928E-02 0.  1.
    10030    2    1    2    0    0  0.00000000000E+00  0.00000000000E+00  0.59679711342E+03  0.14075111079E+04  0.12747237835E+04 0.  0.
        1    1    3    3  502    0 -0.16319260820E+03 -0.34388072984E+03  0.86287047227E+03  0.94309662053E+03  0.50400001928E-02 0. -1.
       -1    1    3    3    0  502  0.16319260820E+03  0.34388072984E+03 -0.26607335885E+03  0.46441448733E+03  0.50400001928E-02 0.  1.
</event>
<event>
 5   0  0.5031575E-03  0.1222626E+04  0.7818609E-02  0.9093279E-01
        2   -1    0    0  501    0  0.00000000000E+00  0.00000000000E+00  0.10946051392E+04  0.10946051392E+04  0.25500000920E-02 0. -1.
       -2   -1    0    0    0  501  0.00000000000E+00  0.00000000000E+00 -0.34140515536E+03  0.34140515537E+03  0.25500000920E-02 0.  1.
    10030    2    1    2    0    0  0.00000000000E+00  0.00000000000E+00  0.75319998380E+03  0.14360102945E+04  0.12226264149E+04 0.  0.
        5    1    3    3  502    0  0.55449474755E+03 -0.25719751130E+03  0.36700309516E+03  0.71297149083E+03  0.46999998093E+01 0.  1.
       -5    1    3    3    0  502 -0.55449474755E+03  0.25719751130E+03  0.38619688863E+03  0.72303880371E+03  0.46999998093E+01 0. -1.
</event>
<event>
 5   0  0.5108045E-03  0.1191291E+04  0.7818609E-02  0.9120513E-01
        2   -1    0    0  501    0  0.00000000000E+00  0.00000000000E+00  0.82531621116E+03  0.82531621117E+03  0.25500000920E-02 0.  1.
       -2   -1    0    0    0  501  0.00000000000E+00  0.00000000000E+00 -0.42988837359E+03  0.42988837360E+03  0.25500000920E-02 0. -1.
    10030    2    1    2    0    0  0.00000000000E+00  0.00000000000E+00  0.39542783757E+03  0.12552045848E+04  0.11912914735E+04 0.  0.
        3    1    3    3  502    0  0.40065933841E+03 -0.43924106230E+03  0.23618611215E+03  0.63972221006E+03  0.10100000352E+00 0. -1.
       -3    1    3    3    0  502 -0.40065933841E+03  0.43924106230E+03  0.15924172542E+03  0.61548237471E+03  0.10100000352E+00 0.  1.
</event>
<event>
 5   0  0.5467554E-03  0.1198137E+04  0.7818609E-02  0.9114489E-01
        2   -1    0    0  501    0  0.00000000000E+00  0.00000000000E+00  0.49195207468E+03  0.49195207469E+03  0.25500000920E-02 0. -1.
       -2   -1    0    0    0  501  0.00000000000E+00  0.00000000000E+00 -0.72950815713E+03  0.72950815713E+03  0.25500000920E-02 0.  1.
    10030    2    1    2    0    0  0.00000000000E+00  0.00000000000E+00 -0.23755608245E+03  0.12214602318E+04  0.11981369728E+04 0.  0.
        1    1    3    3  502    0 -0.17550594398E+03 -0.85426451164E+01 -0.70264635438E+03  0.72428393086E+03  0.50400001928E-02 0.  1.
       -1    1    3    3    0  502  0.17550594398E+03  0.85426451164E+01  0.46509027193E+03  0.49717630095E+03  0.50400001928E-02 0. -1.
</event>
<event>
 5   0  0.2792518E-03  0.9573873E+03  0.7818609E-02  0.9356557E-01
       -1   -1    0    0    0  501  0.00000000000E+00  0.00000000000E+00  0.22491986028E+03  0.22491986034E+03  0.50400001928E-02 0.  1.
        1   -1    0    0  501    0  0.00000000000E+00  0.00000000000E+00 -0.10187967045E+04  0.10187967045E+04  0.50400001928E-02 0. -1.
    10030    2    1    2    0    0  0.00000000000E+00  0.00000000000E+00 -0.79387684423E+03  0.12437165649E+04  0.95738730402E+03 0.  0.
        2    1    3    3  502    0 -0.49099692191E+01 -0.18397306797E+03  0.17712485161E+03  0.25542789707E+03  0.25500000920E-02 0.  1.
       -2    1    3    3    0  502  0.49099692191E+01  0.18397306797E+03 -0.97100169584E+03  0.98828866778E+03  0.25500000920E-02 0. -1.
</event>
<event>
 5   0  0.2875848E-03  0.1292616E+04  0.7818609E-02  0.9035441E-01
        1   -1    0    0  501    0  0.00000000000E+00  0.00000000000E+00  0.12526197271E+04  0.12526197271E+04  0.50400001928E-02 0.  1.
       -1   -1    0    0    0  501  0.00000000000E+00  0.00000000000E+00 -0.33347230915E+03  0.33347230919E+03  0.50400001928E-02 0. -1.
    10030    2    1    2    0    0  0.00000000000E+00  0.00000000000E+00  0.91914741792E+03  0.15860920363E+04  0.12926159413E+04 0.  0.
        1    1    3    3  502    0 -0.41544966095E+03 -0.27863525449E+03  0.96172862324E+03  0.10840470334E+04  0.50400001928E-02 0.  1.
       -1    1    3    3    0  502  0.41544966095E+03  0.27863525449E+03 -0.42581205319E+02  0.50204500287E+03  0.50400001928E-02 0. -1.
</event>
<event>
 5   0  0.5031575E-03  0.1204880E+04  0.7818609E-02  0.9108596E-01
        2   -1    0    0  501    0  0.00000000000E+00  0.00000000000E+00  0.77753532276E+03  0.77753532276E+03  0.25500000920E-02 0. -1.
       -2   -1    0    0    0  501  0.00000000000E+00  0.00000000000E+00 -0.46677474486E+03  0.46677474486E+03  0.25500000920E-02 0.  1.
    10030    2    1    2    0    0  0.00000000000E+00  0.00000000000E+00  0.31076057790E+03  0.12443100676E+04  0.12048798312E+04 0.  0.
        5    1    3    3  502    0 -0.11213995155E+03  0.31986312476E+03 -0.35893769658E+03  0.49370653969E+03  0.46999998093E+01 0.  1.
       -5    1    3    3    0  502  0.11213995155E+03 -0.31986312476E+03  0.66969827447E+03  0.75060352793E+03  0.46999998093E+01 0. -1.
</event>
<event>
 5   0  0.2926844E-03  0.1195827E+04  0.7818609E-02  0.9116517E-01
        1   -1    0    0  501    0  0.00000000000E+00  0.00000000000E+00  0.16341978198E+04  0.16341978198E+04  0.50400001928E-02 0. -1.
       -1   -1    0    0    0  501  0.00000000000E+00  0.00000000000E+00 -0.21876204086E+03  0.21876204092E+03  0.50400001928E-02 0.  1.
    10030    2    1    2    0    0  0.00000000000E+00  0.00000000000E+00  0.14154357789E+04  0.18529598607E+04  0.11958268274E+04 0.  0.
        5    1    3    3  502    0 -0.24478054601E+03  0.81966108739E+01  0.15528733015E+04  0.15720757872E+04  0.46999998093E+01 0. -1.
       -5    1    3    3    0  502  0.24478054601E+03 -0.81966108739E+01 -0.13743752260E+03  0.28088407351E+03  0.46999998093E+01 0.  1.
</event>
<event>
 5   0  0.2938349E-03  0.1357564E+04  0.7818609E-02  0.8985122E-01
        1   -1    0    0  501    0  0.00000000000E+00  0.00000000000E+00  0.85724219553E+03  0.85724219554E+03  0.50400001928E-02 0.  1.
       -1   -1    0    0    0  501  0.00000000000E+00  0.00000000000E+00 -0.53747369227E+03  0.53747369230E+03  0.50400001928E-02 0. -1.
    10030    2    1    2    0    0  0.00000000000E+00  0.00000000000E+00  0.31976850325E+03  0.13947158878E+04  0.13575641834E+04 0.  0.
        4    1    3    3  502    0 -0.55504734801E+03 -0.22545869757E+03  0.48773221246E+03  0.77252411406E+03  0.12699999809E+01 0.  1.
       -4    1    3    3    0  502  0.55504734801E+03  0.22545869757E+03 -0.16796370921E+03  0.62219177377E+03  0.12699999809E+01 0. -1.
</event>
<event>
 5   0  0.5031575E-03  0.1288169E+04  0.7818609E-02  0.9039000E-01
        2   -1    0    0  501    0  0.00000000000E+00  0.00000000000E+00  0.91710927520E+03  0.91710927520E+03  0.25500000920E-02 0. -1.
       -2   -1    0    0    0  501  0.00000000000E+00  0.00000000000E+00 -0.45233982201E+03  0.45233982202E+03  0.25500000920E-02 0.  1.
    10030    2    1    2    0    0  0.00000000000E+00  0.00000000000E+00  0.46476945319E+03  0.13694490972E+04  0.12881693154E+04 0.  0.
        5    1    3    3  502    0  0.30737183750E+02  0.84478919237E+02 -0.44561916074E+03  0.45462070859E+03  0.46999998093E+01 0.  1.
       -5    1    3    3    0  502 -0.30737183750E+02 -0.84478919237E+02  0.91038861393E+03  0.91482838863E+03  0.46999998093E+01 0. -1.
</event>
<event>
 5   0  0.1922125E-03  0.1196257E+04  0.7818609E-02  0.9116139E-01
        3   -1    0    0  501    0  0.00000000000E+00  0.00000000000E+00  0.72697401518E+03  0.72697402220E+03  0.10100000352E+00 0. -1.
       -3   -1    0    0    0  501  0.00000000000E+00  0.00000000000E+00 -0.49211927430E+03  0.49211928466E+03  0.10100000352E+00 0.  1.
    10030    2    1    2    0    0  0.00000000000E+00  0.00000000000E+00  0.23485474089E+03  0.12190933069E+04  0.11962573893E+04 0.  0.
        4    1    3    3  502    0 -0.39536458716E+03 -0.44673377053E+03  0.73333594055E+02  0.60105211706E+03  0.12699999809E+01 0. -1.
       -4    1    3    3    0  502  0.39536458716E+03  0.44673377053E+03  0.16152114683E+03  0.61804118980E+03  0.12699999809E+01 0.  1.
</event>
<event>
 5   0  0.5031575E-03  0.1135448E+04  0.7818609E-02  0.9171314E-01
        2   -1    0    0  501    0  0.00000000000E+00  0.00000000000E+00  0.16254321913E+04  0.16254321913E+04  0.25500000920E-02 0. -1.
       -2   -1    0    0    0  501  0.00000000000E+00  0.00000000000E+00 -0.19829222990E+03  0.19829222991E+03  0.25500000920E-02 0.  1.
    10030    2    1    2    0    0  0.00000000000E+00  0.00000000000E+00  0.14271399614E+04  0.18237244212E+04  0.11354480592E+04 0.  0.
        5    1    3    3  502    0 -0.38151109402E+03 -0.30125858148E+02  0.40068308390E+02  0.38481923227E+03  0.46999998093E+01 0.  1.
       -5    1    3    3    0  502  0.38151109402E+03  0.30125858148E+02  0.13870716530E+04  0.14389051890E+04  0.46999998093E+01 0. -1.
</event>
<event>
 5   0  0.5189537E-03  0.1159322E+04  0.7818609E-02  0.9149227E-01
       -2   -1    0    0    0  501  0.00000000000E+00  0.00000000000E+00  0.38053294911E+03  0.38053294912E+03  0.25500000920E-02 0.  1.
        2   -1    0    0  501    0  0.00000000000E+00  0.00000000000E+00 -0.88298951663E+03  0.88298951663E+03  0.25500000920E-02 0. -1.
    10030    2    1    2    0    0  0.00000000000E+00  0.00000000000E+00 -0.50245656752E+03  0.12635224658E+04  0.11593215340E+04 0.  0.
        4    1    3    3  502    0 -0.25173224127E+03  0.48927762959E+03 -0.44994341850E+03  0.71078295764E+03  0.12699999809E+01 0. -1.
       -4    1    3    3    0  502  0.25173224127E+03 -0.48927762959E+03 -0.52513149013E+02  0.55273950812E+03  0.12699999809E+01 0.  1.
</event>
<event>
 5   0  0.5467554E-03  0.1222742E+04  0.7818609E-02  0.9093180E-01
       -2   -1    0    0    0  501  0.00000000000E+00  0.00000000000E+00  0.10813105305E+04  0.10813105305E+04  0.25500000920E-02 0.  1.
        2   -1    0    0  501    0  0.00000000000E+00  0.00000000000E+00 -0.34566828875E+03  0.34566828876E+03  0.25500000920E-02 0. -1.
    10030    2    1    2    0    0  0.00000000000E+00  0.00000000000E+00  0.73564224171E+03  0.14269788192E+04  0.12227424270E+04 0.  0.
        1    1    3    3  502    0  0.36460713905E+03 -0.30319717629E+03  0.81816199519E+03  0.94565106882E+03  0.50400001928E-02 0.  1.
       -1    1    3    3    0  502 -0.36460713905E+03  0.30319717629E+03 -0.82519753485E+02  0.48132775039E+03  0.50400001928E-02 0. -1.
</event>
<event>
 5   0  0.5467554E-03  0.1213459E+04  0.7818609E-02  0.9101157E-01
       -2   -1    0    0    0  501  0.00000000000E+00  0.00000000000E+00  0.25585464069E+03  0.25585464070E+03  0.25500000920E-02 0. -1.
        2   -1    0    0  501    0  0.00000000000E+00  0.00000000000E+00 -0.14387882875E+04  0.14387882875E+04  0.25500000920E-02 0.  1.
    10030    2    1    2    0    0  0.00000000000E+00  0.00000000000E+00 -0.11829336468E+04  0.16946429282E+04  0.12134589574E+04 0.  0.
        1    1    3    3  502    0  0.44811801993E+03  0.12176127822E+03 -0.46127513374E+02  0.46665117184E+03  0.50400001928E-02 0. -1.
       -1    1    3    3    0  502 -0.44811801993E+03 -0.12176127822E+03 -0.11368061334E+04  0.12279917563E+04  0.50400001928E-02 0.  1.
</event>
<event>
 5   0  0.2792518E-03  0.9516066E+03  0.7818609E-02  0.9363275E-01
        1   -1    0    0  501    0  0.00000000000E+00  0.00000000000E+00  0.47752347395E+03  0.47752347397E+03  0.50400001928E-02 0.  1.
       -1   -1    0    0    0  501  0.00000000000E+00  0.00000000000E+00 -0.47408931367E+03  0.47408931369E+03  0.50400001928E-02 0. -1.
    10030    2    1    2    0    0  0.00000000000E+00  0.00000000000E+00  0.34341602809E+01  0.95161278766E+03  0.95160659108E+03 0.  0.
        2    1    3    3  502    0 -0.10655315309E+02 -0.39245095623E+03  0.27052635880E+03  0.47677646712E+03  0.25500000920E-02 0.  1.
       -2    1    3    3    0  502  0.10655315309E+02  0.39245095623E+03 -0.26709219852E+03  0.47483632054E+03  0.25500000920E-02 0. -1.
</event>
<event>
 5   0  0.5467554E-03  0.1169245E+04  0.7818609E-02  0.9140211E-01
       -2   -1    0    0    0  501  0.00000000000E+00  0.00000000000E+00  0.21431841982E+03  0.21431841984E+03  0.25500000920E-02 0. -1.
        2   -1    0    0  501    0  0.00000000000E+00  0.00000000000E+00 -0.15947457757E+04  0.15947457757E+04  0.25500000920E-02 0.  1.
    10030    2    1    2    0    0  0.00000000000E+00  0.00000000000E+00 -0.13804273559E+04  0.18090641956E+04  0.11692448754E+04 0.  0.
        1    1    3    3  502    0  0.15284225151E+03 -0.24297565668E+03 -0.14782048033E+04  0.15058178389E+04  0.50400001928E-02 0.  1.
       -1    1    3    3    0  502 -0.15284225151E+03  0.24297565668E+03  0.97777447357E+02  0.30324635665E+03  0.50400001928E-02 0. -1.
</event>
<event>
 5   0  0.2926844E-03  0.1086626E+04  0.7818609E-02  0.9218326E-01
       -1   -1    0    0    0  501  0.00000000000E+00  0.00000000000E+00  0.34579281755E+03  0.34579281759E+03  0.50400001928E-02 0. -1.
        1   -1    0    0  501    0  0.00000000000E+00  0.00000000000E+00 -0.85365787790E+03  0.85365787792E+03  0.50400001928E-02 0.  1.
    10030    2    1    2    0    0  0.00000000000E+00  0.00000000000E+00 -0.50786506035E+03  0.11994506955E+04  0.10866255341E+04 0.  0.
        5    1    3    3  502    0  0.23060101117E+03 -0.17671242223E+03 -0.76068892001E+03  0.81429345419E+03  0.46999998093E+01 0.  1.
       -5    1    3    3    0  502 -0.23060101117E+03  0.17671242223E+03  0.25282385966E+03  0.38515724131E+03  0.46999998093E+01 0. -1.
</event>
<event>
 5   0  0.2930868E-03  0.1057341E+04  0.7818609E-02  0.9247798E-01
       -1   -1    0    0    0  501  0.00000000000E+00  0.00000000000E+00  0.37817507207E+03  0.37817507210E+03  0.50400001928E-02 0. -1.
        1   -1    0    0  501    0  0.00000000000E+00  0.00000000000E+00 -0.73905549382E+03  0.73905549384E+03  0.50400001928E-02 0.  1.
    10030    2    1    2    0    0  0.00000000000E+00  0.00000000000E+00 -0.36088042175E+03  0.11172305659E+04  0.10573407486E+04 0.  0.
        3    1    3    3  502    0 -0.24790637868E+03  0.67979981560E+02  0.30769348430E+03  0.40094156802E+03  0.10100000352E+00 0. -1.
       -3    1    3    3    0  502  0.24790637868E+03 -0.67979981560E+02 -0.66857390605E+03  0.71628899792E+03  0.10100000352E+00 0.  1.
</event>
<event>
 5   0  0.5189537E-03  0.1200195E+04  0.7818609E-02  0.9112686E-01
        2   -1    0    0  501    0  0.00000000000E+00  0.00000000000E+00  0.16811076240E+04  0.16811076240E+04  0.25500000920E-02 0. -1.
       -2   -1    0    0    0  501  0.00000000000E+00  0.00000000000E+00 -0.21421419259E+03  0.21421419261E+03  0.25500000920E-02 0.  1.
    10030    2    1    2    0    0  0.00000000000E+00  0.00000000000E+00  0.14668934314E+04  0.18953218166E+04  0.12001951714E+04 0.  0.
        4    1    3    3  502    0 -0.59161724372E+03  0.98320747940E+02  0.76648011875E+03  0.97322726939E+03  0.12699999809E+01 0. -1.
       -4    1    3    3    0  502  0.59161724372E+03 -0.98320747940E+02  0.70041331262E+03  0.92209454718E+03  0.12699999809E+01 0.  1.
</event>
<event>
 5   0  0.2875848E-03  0.1199373E+04  0.7818609E-02  0.9113405E-01
       -1   -1    0    0    0  501  0.00000000000E+00  0.00000000000E+00  0.18138714428E+03  0.18138714435E+03  0.50400001928E-02 0.  1.
        1   -1    0    0  501    0  0.00000000000E+00  0.00000000000E+00 -0.19826325897E+04  0.19826325897E+04  0.50400001928E-02 0. -1.
    10030    2    1    2    0    0  0.00000000000E+00  0.00000000000E+00 -0.18012454454E+04  0.21640197340E+04  0.11993732758E+04 0.  0.
        1    1    3    3  502    0 -0.25680999251E+03 -0.54190679531E+03 -0.89499847758E+03  0.10773284652E+04  0.50400001928E-02 0.  1.
       -1    1    3    3    0  502  0.25680999251E+03  0.54190679531E+03 -0.90624696780E+03  0.10866912688E+04  0.50400001928E-02 0. -1.
</event>
<event>
 5   0  0.5108045E-03  0.1186571E+04  0.7818609E-02  0.9124693E-01
        2   -1    0    0  501    0  0.00000000000E+00  0.00000000000E+00  0.10124786593E+04  0.10124786594E+04  0.25500000920E-02 0. -1.
       -2   -1    0    0    0  501  0.00000000000E+00  0.00000000000E+00 -0.34764924522E+03  0.34764924523E+03  0.25500000920E-02 0.  1.
    10030    2    1    2    0    0  0.00000000000E+00  0.00000000000E+00  0.66482941412E+03  0.13601279046E+04  0.11865705908E+04 0.  0.
        3    1    3    3  502    0  0.10023741310E+02 -0.18997118442E+03 -0.31174090239E+03  0.36520121402E+03  0.10100000352E+00 0.  1.
       -3    1    3    3    0  502 -0.10023741310E+02  0.18997118442E+03  0.97657031651E+03  0.99492669056E+03  0.10100000352E+00 0. -1.
</event>
<event>
 5   0  0.5108045E-03  0.1249727E+04  0.7818609E-02  0.9070411E-01
        2   -1    0    0  501    0  0.00000000000E+00  0.00000000000E+00  0.11212783194E+04  0.11212783194E+04  0.25500000920E-02 0. -1.
       -2   -1    0    0    0  501  0.00000000000E+00  0.00000000000E+00 -0.34822236590E+03  0.34822236591E+03  0.25500000920E-02 0.  1.
    10030    2    1    2    0    0  0.00000000000E+00  0.00000000000E+00  0.77305595349E+03  0.14695006853E+04  0.12497266729E+04 0.  0.
        3    1    3    3  502    0  0.23160203074E+03 -0.49053781923E+03  0.75120943295E+03  0.92659725615E+03  0.10100000352E+00 0. -1.
       -3    1    3    3    0  502 -0.23160203074E+03  0.49053781923E+03  0.21846520544E+02  0.54290342917E+03  0.10100000352E+00 0.  1.
</event>
<event>
 5   0  0.5108045E-03  0.1185207E+04  0.7818609E-02  0.9125904E-01
        2   -1    0    0  501    0  0.00000000000E+00  0.00000000000E+00  0.13367227700E+04  0.13367227700E+04  0.25500000920E-02 0.  1.
       -2   -1    0    0    0  501  0.00000000000E+00  0.00000000000E+00 -0.26271632545E+03  0.26271632547E+03  0.25500000920E-02 0. -1.
    10030    2    1    2    0    0  0.00000000000E+00  0.00000000000E+00  0.10740064445E+04  0.15994390954E+04  0.11852069765E+04 0.  0.
        3    1    3    3  502    0 -0.75900154512E+02  0.35843115327E+03 -0.91559310250E+02  0.37764645183E+03  0.10100000352E+00 0. -1.
       -3    1    3    3    0  502  0.75900154512E+02 -0.35843115327E+03  0.11655657548E+04  0.12217926436E+04  0.10100000352E+00 0.  1.
</event>
<event>
 5   0  0.2792518E-03  0.1210379E+04  0.7818609E-02  0.9103820E-01
       -1   -1    0    0    0  501  0.00000000000E+00  0.00000000000E+00  0.46064296592E+03  0.46064296594E+03  0.50400001928E-02 0. -1.
        1   -1    0    0  501    0  0.00000000000E+00  0.00000000000E+00 -0.79509348934E+03  0.79509348935E+03  0.50400001928E-02 0.  1.
    10030    2    1    2    0    0  0.00000000000E+00  0.00000000000E+00 -0.33445052342E+03  0.12557364553E+04  0.12103788219E+04 0.  0.
        2    1    3    3  502    0  0.16597080234E+03 -0.62928521549E+02  0.43303021042E+03  0.46799729614E+03  0.25500000920E-02 0. -1.
       -2    1    3    3    0  502 -0.16597080234E+03  0.62928521549E+02 -0.76748073384E+03  0.78773915916E+03  0.25500000920E-02 0.  1.
</event>
<event>
 5   0  0.5031575E-03  0.1188264E+04  0.7818609E-02  0.9123192E-01
       -2   -1    0    0    0  501  0.00000000000E+00  0.00000000000E+00  0.28596097272E+03  0.28596097274E+03  0.25500000920E-02 0. -1.
        2   -1    0    0  501    0  0.00000000000E+00  0.00000000000E+00 -0.12344084467E+04  0.12344084467E+04  0.25500000920E-02 0.  1.
    10030    2    1    2    0    0  0.00000000000E+00  0.00000000000E+00 -0.94844747397E+03  0.15203694194E+04  0.11882636747E+04 0.  0.
        5    1    3    3  502    0  0.75928217066E+02  0.48269640931E+02  0.27716983407E+03  0.29144512228E+03  0.46999998093E+01 0. -1.
       -5    1    3    3    0  502 -0.75928217066E+02 -0.48269640931E+02 -0.12256173080E+04  0.12289242972E+04  0.46999998093E+01 0.  1.
</event>
<event>
 5   0  0.5031575E-03  0.1261881E+04  0.7818609E-02  0.9060352E-01
        2   -1    0    0  501    0  0.00000000000E+00  0.00000000000E+00  0.14953520803E+04  0.14953520803E+04  0.25500000920E-02 0.  1.
       -2   -1    0    0    0  501  0.00000000000E+00  0.00000000000E+00 -0.26621555433E+03  0.26621555434E+03  0.25500000920E-02 0. -1.
    10030    2    1    2    0    0  0.00000000000E+00  0.00000000000E+00  0.12291365259E+04  0.17615676346E+04  0.12618811085E+04 0.  0.
        5    1    3    3  502    0 -0.55691016292E+03 -0.17978693085E+03  0.28542455288E+03  0.65112328745E+03  0.46999998093E+01 0. -1.
       -5    1    3    3    0  502  0.55691016292E+03  0.17978693085E+03  0.94371197306E+03  0.11104443472E+04  0.46999998093E+01 0.  1.
</event>
<event>
 5   0  0.5189537E-03  0.1186548E+04  0.7818609E-02  0.9124713E-01
       -2   -1    0    0    0  501  0.00000000000E+00  0.00000000000E+00  0.45337772657E+03  0.45337772658E+03  0.25500000920E-02 0.  1.
        2   -1    0    0  501    0  0.00000000000E+00  0.00000000000E+00 -0.77633737409E+03  0.77633737409E+03  0.25500000920E-02 0. -1.
    10030    2    1    2    0    0  0.00000000000E+00  0.00000000000E+00 -0.32295964751E+03  0.12297151007E+04  0.11865480584E+04 0.  0.
        4    1    3    3  502    0  0.14982559378E+03 -0.12368452860E+03  0.41947297253E+03  0.46228212030E+03  0.12699999809E+01 0.  1.
       -4    1    3    3    0  502 -0.14982559378E+03  0.12368452860E+03 -0.74243262004E+03  0.76743298037E+03  0.12699999809E+01 0. -1.
</event>
<event>
 5   0  0.5189537E-03  0.1205018E+04  0.7818609E-02  0.9108476E-01
       -2   -1    0    0    0  501  0.00000000000E+00  0.00000000000E+00  0.38976604273E+03  0.38976604274E+03  0.25500000920E-02 0.  1.
        2   -1    0    0  501    0  0.00000000000E+00  0.00000000000E+00 -0.93137186527E+03  0.93137186528E+03  0.25500000920E-02 0. -1.
    10030    2    1    2    0    0  0.00000000000E+00  0.00000000000E+00 -0.54160582254E+03  0.13211379080E+04  0.12050180517E+04 0.  0.
        4    1    3    3  502    0  0.19244283780E+03  0.36442587284E+03  0.21106734356E+03  0.46302429637E+03  0.12699999809E+01 0.  1.
       -4    1    3    3    0  502 -0.19244283780E+03 -0.36442587284E+03 -0.75267316610E+03  0.85811361164E+03  0.12699999809E+01 0. -1.
</event>
<event>
 5   0  0.2792518E-03  0.1195994E+04  0.7818609E-02  0.9116370E-01
       -1   -1    0    0    0  501  0.00000000000E+00  0.00000000000E+00  0.63473868056E+03  0.63473868058E+03  0.50400001928E-02 0.  1.
        1   -1    0    0  501    0  0.00000000000E+00  0.00000000000E+00 -0.56338180532E+03  0.56338180534E+03  0.50400001928E-02 0. -1.
    10030    2    1    2    0    0  0.00000000000E+00  0.00000000000E+00  0.71356875240E+02  0.11981204859E+04  0.11959936852E+04 0.  0.
        2    1    3    3  502    0  0.33262247049E+03 -0.60928326759E+01  0.53347797014E+03  0.62870786150E+03  0.25500000920E-02 0.  1.
       -2    1    3    3    0  502 -0.33262247049E+03  0.60928326759E+01 -0.46212109490E+03  0.56941262442E+03  0.25500000920E-02 0. -1.
</event>
<event>
 5   0  0.5108045E-03  0.1176720E+04  0.7818609E-02  0.9133481E-01
       -2   -1    0    0    0  501  0.00000000000E+00  0.00000000000E+00  0.17202836399E+03  0.17202836401E+03  0.25500000920E-02 0.  1.
        2   -1    0    0  501    0  0.00000000000E+00  0.00000000000E+00 -0.20122693131E+04  0.20122693131E+04  0.25500000920E-02 0. -1.
    10030    2    1    2    0    0  0.00000000000E+00  0.00000000000E+00 -0.18402409491E+04  0.21842976771E+04  0.11767198441E+04 0.  0.
        3    1    3    3  502    0  0.13939765587E+03  0.39530599087E+03 -0.15371028824E+03  0.44645872798E+03  0.10100000352E+00 0.  1.
       -3    1    3    3    0  502 -0.13939765587E+03 -0.39530599087E+03 -0.16865306609E+04  0.17378389491E+04  0.10100000352E+00 0. -1.
</event>
<event>
 5   0  0.2938349E-03  0.9558287E+03  0.7818609E-02  0.9358363E-01
       -1   -1    0    0    0  501  0.00000000000E+00  0.00000000000E+00  0.13133359868E+03  0.13133359878E+03  0.50400001928E-02 0.  1.
        1   -1    0    0  501    0  0.00000000000E+00  0.00000000000E+00 -0.17390991113E+04  0.17390991113E+04  0.50400001928E-02 0. -1.
    10030    2    1    2    0    0  0.00000000000E+00  0.00000000000E+00 -0.16077655126E+04  0.18704327100E+04  0.95582873955E+03 0.  0.
        4    1    3    3  502    0 -0.11821382433E+03  0.28548444570E+03 -0.90430731227E+02  0.32195528735E+03  0.12699999809E+01 0.  1.
       -4    1    3    3    0  502  0.11821382433E+03 -0.28548444570E+03 -0.15173347813E+04  0.15484774227E+04  0.12699999809E+01 0. -1.
</event>
<event>
 5   0  0.5467554E-03  0.1176488E+04  0.7818609E-02  0.9133689E-01
       -2   -1    0    0    0  501  0.00000000000E+00  0.00000000000E+00  0.22458920637E+03  0.22458920639E+03  0.25500000920E-02 0. -1.
        2   -1    0    0  501    0  0.00000000000E+00  0.00000000000E+00 -0.15407290223E+04  0.15407290223E+04  0.25500000920E-02 0.  1.
    10030    2    1    2    0    0  0.00000000000E+00  0.00000000000E+00 -0.13161398160E+04  0.17653182287E+04  0.11764881782E+04 0.  0.
        1    1    3    3  502    0 -0.39139580406E+03 -0.17767668205E+03 -0.55490680868E+02  0.43340384686E+03  0.50400001928E-02 0. -1.
       -1    1    3    3    0  502  0.39139580406E+03  0.17767668205E+03 -0.12606491351E+04  0.13319143819E+04  0.50400001928E-02 0.  1.
</event>
<event>
 5   0  0.5003526E-03  0.1165065E+04  0.7818609E-02  0.9143997E-01
        2   -1    0    0  501    0  0.00000000000E+00  0.00000000000E+00  0.67225079422E+03  0.67225079422E+03  0.25500000920E-02 0. -1.
       -2   -1    0    0    0  501  0.00000000000E+00  0.00000000000E+00 -0.50478787565E+03  0.50478787565E+03  0.25500000920E-02 0.  1.
    10030    2    1    2    0    0  0.00000000000E+00  0.00000000000E+00  0.16746291857E+03  0.11770386699E+04  0.11650648914E+04 0.  0.
        2    1    3    3  502    0  0.46666396036E+03  0.21523609332E+03  0.36085372667E+03  0.62794684474E+03  0.25500000920E-02 0. -1.
       -2    1    3    3    0  502 -0.46666396036E+03 -0.21523609332E+03 -0.19339080810E+03  0.54909182513E+03  0.25500000920E-02 0.  1.
</event>
<event>
 5   0  0.2938349E-03  0.1092705E+04  0.7818609E-02  0.9212331E-01
        1   -1    0    0  501    0  0.00000000000E+00  0.00000000000E+00  0.64505481691E+03  0.64505481693E+03  0.50400001928E-02 0.  1.
       -1   -1    0    0    0  501  0.00000000000E+00  0.00000000000E+00 -0.46275329270E+03  0.46275329273E+03  0.50400001928E-02 0. -1.
    10030    2    1    2    0    0  0.00000000000E+00  0.00000000000E+00  0.18230152421E+03  0.11078081097E+04  0.10927053409E+04 0.  0.
        4    1    3    3  502    0  0.70124093728E+02  0.29459666559E+03  0.55218325734E+03  0.62977182097E+03  0.12699999809E+01 0.  1.
       -4    1    3    3    0  502 -0.70124093728E+02 -0.29459666559E+03 -0.36988173313E+03  0.47803628869E+03  0.12699999809E+01 0. -1.
</event>
<event>
 5   0  0.2792518E-03  0.1194397E+04  0.7818609E-02  0.9117775E-01
       -1   -1    0    0    0  501  0.00000000000E+00  0.00000000000E+00  0.74270397731E+03  0.74270397733E+03  0.50400001928E-02 0.  1.
        1   -1    0    0  501    0  0.00000000000E+00  0.00000000000E+00 -0.48019948459E+03  0.48019948462E+03  0.50400001928E-02 0. -1.
    10030    2    1    2    0    0  0.00000000000E+00  0.00000000000E+00  0.26250449272E+03  0.12229034619E+04  0.11943970314E+04 0.  0.
        2    1    3    3  502    0 -0.90639792319E+02 -0.14428684562E+03 -0.45478231330E+03  0.48565545221E+03  0.25500000920E-02 0. -1.
       -2    1    3    3    0  502  0.90639792319E+02  0.14428684562E+03  0.71728680601E+03  0.73724800974E+03  0.25500000920E-02 0.  1.
</event>
<event>
 5   0  0.5189537E-03  0.1187260E+04  0.7818609E-02  0.9124082E-01
       -2   -1    0    0    0  501  0.00000000000E+00  0.00000000000E+00  0.47429749120E+03  0.47429749121E+03  0.25500000920E-02 0. -1.
        2   -1    0    0  501    0  0.00000000000E+00  0.00000000000E+00 -0.74298619548E+03  0.74298619549E+03  0.25500000920E-02 0.  1.
    10030    2    1    2    0    0  0.00000000000E+00  0.00000000000E+00 -0.26868870428E+03  0.12172836867E+04  0.11872598511E+04 0.  0.
        4    1    3    3  502    0  0.20111186713E+02  0.26185053596E+03  0.41149504373E+03  0.48815975554E+03  0.12699999809E+01 0. -1.
       -4    1    3    3    0  502 -0.20111186713E+02 -0.26185053596E+03 -0.68018374802E+03  0.72912393115E+03  0.12699999809E+01 0.  1.
</event>
<event>
 5   0  0.5189537E-03  0.1193398E+04  0.7818609E-02  0.9118655E-01
        2   -1    0    0  501    0  0.00000000000E+00  0.00000000000E+00  0.89937016377E+03  0.89937016378E+03  0.25500000920E-02 0.  1.
       -2   -1    0    0    0  501  0.00000000000E+00  0.00000000000E+00 -0.39588810263E+03  0.39588810263E+03  0.25500000920E-02 0. -1.
    10030    2    1    2    0    0  0.00000000000E+00  0.00000000000E+00  0.50348206115E+03  0.12952582664E+04  0.11933984208E+04 0.  0.
        4    1    3    3  502    0  0.39453216893E+02 -0.36412334421E+03  0.76301702927E+03  0.84636810312E+03  0.12699999809E+01 0.  1.
       -4    1    3    3    0  502 -0.39453216893E+02  0.36412334421E+03 -0.25953496812E+03  0.44889016329E+03  0.12699999809E+01 0. -1.
</event>
<event>
 5   0  0.2938349E-03  0.1223586E+04  0.7818609E-02  0.9092459E-01
       -1   -1    0    0    0  501  0.00000000000E+00  0.00000000000E+00  0.11791112593E+04  0.11791112593E+04  0.50400001928E-02 0.  1.
        1   -1    0    0  501    0  0.00000000000E+00  0.00000000000E+00 -0.31743434328E+03  0.31743434332E+03  0.50400001928E-02 0. -1.
    10030    2    1    2    0    0  0.00000000000E+00  0.00000000000E+00  0.86167691598E+03  0.14965456026E+04  0.12235855643E+04 0.  0.
        4    1    3    3  502    0 -0.52967244978E+03  0.75799197548E+02  0.79364339634E+03  0.95716763205E+03  0.12699999809E+01 0.  1.
       -4    1    3    3    0  502  0.52967244978E+03 -0.75799197548E+02  0.68033519646E+02  0.53937797053E+03  0.12699999809E+01 0. -1.
</event>
<event>
 5   0  0.2792518E-03  0.1193063E+04  0.7818609E-02  0.9118950E-01
       -1   -1    0    0    0  501  0.00000000000E+00  0.00000000000E+00  0.52047989771E+03  0.52047989774E+03  0.50400001928E-02 0. -1.
        1   -1    0    0  501    0  0.00000000000E+00  0.00000000000E+00 -0.68369567862E+03  0.68369567864E+03  0.50400001928E-02 0.  1.
    10030    2    1    2    0    0  0.00000000000E+00  0.00000000000E+00 -0.16321578091E+03  0.12041755764E+04  0.11930630443E+04 0.  0.
        2    1    3    3  502    0 -0.32253596944E+03  0.31731527686E+03 -0.47398512591E+03  0.65527119279E+03  0.25500000920E-02 0. -1.
       -2    1    3    3    0  502  0.32253596944E+03 -0.31731527686E+03  0.31076934501E+03  0.54890438358E+03  0.25500000920E-02 0.  1.
</event>
<event>
 5   0  0.5031575E-03  0.1212097E+04  0.7818609E-02  0.9102333E-01
       -2   -1    0    0    0  501  0.00000000000E+00  0.00000000000E+00  0.25848487843E+03  0.25848487844E+03  0.25500000920E-02 0.  1.
        2   -1    0    0  501    0  0.00000000000E+00  0.00000000000E+00 -0.14209526488E+04  0.14209526488E+04  0.25500000920E-02 0. -1.
    10030    2    1    2    0    0  0.00000000000E+00  0.00000000000E+00 -0.11624677703E+04  0.16794375272E+04  0.12120969807E+04 0.  0.
        5    1    3    3  502    0  0.59134261994E+03  0.70836501315E+02 -0.73657020869E+03  0.94723897006E+03  0.46999998093E+01 0. -1.
       -5    1    3    3    0  502 -0.59134261994E+03 -0.70836501315E+02 -0.42589756164E+03  0.73219855714E+03  0.46999998093E+01 0.  1.
</event>
<event>
 5   0  0.1922125E-03  0.1197150E+04  0.7818609E-02  0.9115355E-01
       -4   -1    0    0    0  501  0.00000000000E+00  0.00000000000E+00  0.42544530694E+03  0.42544720248E+03  0.12699999809E+01 0.  1.
        4   -1    0    0  501    0  0.00000000000E+00  0.00000000000E+00 -0.84215380057E+03  0.84215475817E+03  0.12699999809E+01 0. -1.
    10030    2    1    2    0    0  0.00000000000E+00  0.00000000000E+00 -0.41670849363E+03  0.12676019607E+04  0.11971502671E+04 0.  0.
        1    1    3    3  502    0 -0.40383044629E+03 -0.41910883167E+03 -0.60263068563E+02  0.58511783394E+03  0.50400001928E-02 0. -1.
       -1    1    3    3    0  502  0.40383044629E+03  0.41910883167E+03 -0.35644542507E+03  0.68248412671E+03  0.50400001928E-02 0.  1.
</event>
<event>
 5   0  0.2926844E-03  0.1017555E+04  0.7818609E-02  0.9289497E-01
       -1   -1    0    0    0  501  0.00000000000E+00  0.00000000000E+00  0.27410992878E+03  0.27410992883E+03  0.50400001928E-02 0.  1.
        1   -1    0    0  501    0  0.00000000000E+00  0.00000000000E+00 -0.94434610589E+03  0.94434610590E+03  0.50400001928E-02 0. -1.
    10030    2    1    2    0    0  0.00000000000E+00  0.00000000000E+00 -0.67023617710E+03  0.12184560347E+04  0.10175551953E+04 0.  0.
        5    1    3    3  502    0 -0.33095294769E+02  0.12632474848E+02  0.27260536534E+03  0.27493754412E+03  0.46999998093E+01 0.  1.
       -5    1    3    3    0  502  0.33095294769E+02 -0.12632474848E+02 -0.94284154244E+03  0.94351849061E+03  0.46999998093E+01 0. -1.
</event>
<event>
 5   0  0.5003526E-03  0.1342940E+04  0.7818609E-02  0.8996190E-01
        2   -1    0    0  501    0  0.00000000000E+00  0.00000000000E+00  0.70415987129E+03  0.70415987129E+03  0.25500000920E-02 0.  1.
       -2   -1    0    0    0  501  0.00000000000E+00  0.00000000000E+00 -0.64029778710E+03  0.64029778711E+03  0.25500000920E-02 0. -1.
    10030    2    1    2    0    0  0.00000000000E+00  0.00000000000E+00  0.63862084185E+02  0.13444576584E+04  0.13429400692E+04 0.  0.
        2    1    3    3  502    0 -0.15924442206E+03 -0.64980340564E+03  0.89168680944E+02  0.67494763175E+03  0.25500000920E-02 0. -1.
       -2    1    3    3    0  502  0.15924442206E+03  0.64980340564E+03 -0.25306596759E+02  0.66951002665E+03  0.25500000920E-02 0.  1.
</event>
<event>
 5   0  0.2938349E-03  0.1194022E+04  0.7818609E-02  0.9118105E-01
        1   -1    0    0  501    0  0.00000000000E+00  0.00000000000E+00  0.16767662401E+04  0.16767662401E+04  0.50400001928E-02 0.  1.
       -1   -1    0    0    0  501  0.00000000000E+00  0.00000000000E+00 -0.21256524253E+03  0.21256524259E+03  0.50400001928E-02 0. -1.
    10030    2    1    2    0    0  0.00000000000E+00  0.00000000000E+00  0.14642009976E+04  0.18893314827E+04  0.11940221481E+04 0.  0.
        4    1    3    3  502    0  0.38671486313E+03  0.45128886218E+03  0.64244271260E+03  0.87518242348E+03  0.12699999809E+01 0. -1.
       -4    1    3    3    0  502 -0.38671486313E+03 -0.45128886218E+03  0.82175828497E+03  0.10141490592E+04  0.12699999809E+01 0.  1.
</event>
<event>
 5   0  0.5108045E-03  0.1192954E+04  0.7818609E-02  0.9119046E-01
        2   -1    0    0  501    0  0.00000000000E+00  0.00000000000E+00  0.48100248556E+03  0.48100248557E+03  0.25500000920E-02 0.  1.
       -2   -1    0    0    0  501  0.00000000000E+00  0.00000000000E+00 -0.73967415845E+03  0.73967415845E+03  0.25500000920E-02 0. -1.
    10030    2    1    2    0    0  0.00000000000E+00  0.00000000000E+00 -0.25867167288E+03  0.12206766440E+04  0.11929544983E+04 0.  0.
        3    1    3    3  502    0 -0.31784265662E+03  0.48100658857E+03  0.27168796062E+02  0.57717367083E+03  0.10100000352E+00 0.  1.
       -3    1    3    3    0  502  0.31784265662E+03 -0.48100658857E+03 -0.28584046895E+03  0.64350297319E+03  0.10100000352E+00 0. -1.
</event>
<event>
 5   0  0.1922125E-03  0.1213849E+04  0.7818609E-02  0.9100820E-01
       -4   -1    0    0    0  501  0.00000000000E+00  0.00000000000E+00  0.11717812283E+04  0.11717819166E+04  0.12699999809E+01 0.  1.
        4   -1    0    0  501    0  0.00000000000E+00  0.00000000000E+00 -0.31435456096E+03  0.31435712636E+03  0.12699999809E+01 0. -1.
    10030    2    1    2    0    0  0.00000000000E+00  0.00000000000E+00  0.85742666739E+03  0.14861390429E+04  0.12138487406E+04 0.  0.
        3    1    3    3  502    0 -0.47778905248E+03 -0.98761099321E+02 -0.13266193599E+02  0.48806980597E+03  0.10100000352E+00 0. -1.
       -3    1    3    3    0  502  0.47778905248E+03  0.98761099321E+02  0.87069286099E+03  0.99806923697E+03  0.10100000352E+00 0.  1.
</event>
<event>
 5   0  0.5003526E-03  0.1267003E+04  0.7818609E-02  0.9056149E-01
       -2   -1    0    0    0  501  0.00000000000E+00  0.00000000000E+00  0.30319400161E+03  0.30319400162E+03  0.25500000920E-02 0. -1.
        2   -1    0    0  501    0  0.00000000000E+00  0.00000000000E+00 -0.13236540239E+04  0.13236540239E+04  0.25500000920E-02 0.  1.
    10030    2    1    2    0    0  0.00000000000E+00  0.00000000000E+00 -0.10204600223E+04  0.16268480255E+04  0.12670026997E+04 0.  0.
        2    1    3    3  502    0  0.38035912965E+03 -0.50101850063E+03 -0.60658537350E+03  0.87386407458E+03  0.25500000920E-02 0. -1.
       -2    1    3    3    0  502 -0.38035912965E+03  0.50101850063E+03 -0.41387464880E+03  0.75298395096E+03  0.25500000920E-02 0.  1.
</event>
<event>
 5   0  0.2930868E-03  0.1199374E+04  0.7818609E-02  0.9113405E-01
        1   -1    0    0  501    0  0.00000000000E+00  0.00000000000E+00  0.12139356278E+04  0.12139356278E+04  0.50400001928E-02 0. -1.
       -1   -1    0    0    0  501  0.00000000000E+00  0.00000000000E+00 -0.29624664172E+03  0.29624664176E+03  0.50400001928E-02 0.  1.
    10030    2    1    2    0    0  0.00000000000E+00  0.00000000000E+00  0.91768898604E+03  0.15101822695E+04  0.11993737583E+04 0.  0.
        3    1    3    3  502    0 -0.39481598097E+02 -0.86443289923E+02  0.12043940376E+04  0.12081375116E+04  0.10100000352E+00 0. -1.
       -3    1    3    3    0  502  0.39481598097E+02  0.86443289923E+02 -0.28670505159E+03  0.30204475789E+03  0.10100000352E+00 0.  1.
</event>
<event>
 5   0  0.5003526E-03  0.1212370E+04  0.7818609E-02  0.9102098E-01
        2   -1    0    0  501    0  0.00000000000E+00  0.00000000000E+00  0.10325727807E+04  0.10325727807E+04  0.25500000920E-02 0. -1.
       -2   -1    0    0    0  501  0.00000000000E+00  0.00000000000E+00 -0.35586836514E+03  0.35586836515E+03  0.25500000920E-02 0.  1.
    10030    2    1    2    0    0  0.00000000000E+00  0.00000000000E+00  0.67670441559E+03  0.13884411459E+04  0.12123695598E+04 0.  0.
        2    1    3    3  502    0 -0.51503935410E+03 -0.30765443407E+03  0.23888721134E+03  0.64574289529E+03  0.25500000920E-02 0.  1.
       -2    1    3    3    0  502  0.51503935410E+03  0.30765443407E+03  0.43781720426E+03  0.74269825059E+03  0.25500000920E-02 0. -1.
</event>
<event>
 5   0  0.2926844E-03  0.1244799E+04  0.7818609E-02  0.9074523E-01
       -1   -1    0    0    0  501  0.00000000000E+00  0.00000000000E+00  0.17264466939E+03  0.17264466947E+03  0.50400001928E-02 0. -1.
        1   -1    0    0  501    0  0.00000000000E+00  0.00000000000E+00 -0.22438049444E+04  0.22438049444E+04  0.50400001928E-02 0.  1.
    10030    2    1    2    0    0  0.00000000000E+00  0.00000000000E+00 -0.20711602750E+04  0.24164496138E+04  0.12447987193E+04 0.  0.
        5    1    3    3  502    0 -0.51199090451E+03  0.16121271086E+02 -0.34934717316E+03  0.62004848123E+03  0.46999998093E+01 0. -1.
       -5    1    3    3    0  502  0.51199090451E+03 -0.16121271086E+02 -0.17218131018E+04  0.17964011326E+04  0.46999998093E+01 0.  1.
</event>
<event>
 5   0  0.2938349E-03  0.1085033E+04  0.7818609E-02  0.9219904E-01
       -1   -1    0    0    0  501  0.00000000000E+00  0.00000000000E+00  0.68490975931E+03  0.68490975933E+03  0.50400001928E-02 0. -1.
        1   -1    0    0  501    0  0.00000000000E+00  0.00000000000E+00 -0.42972703184E+03  0.42972703187E+03  0.50400001928E-02 0.  1.
    10030    2    1    2    0    0  0.00000000000E+00  0.00000000000E+00  0.25518272747E+03  0.11146367912E+04  0.10850331571E+04 0.  0.
        4    1    3    3  502    0  0.18151255342E+03 -0.50997849747E+03  0.16459853650E+03  0.56579074404E+03  0.12699999809E+01 0.  1.
       -4    1    3    3    0  502 -0.18151255342E+03  0.50997849747E+03  0.90584190970E+02  0.54884604716E+03  0.12699999809E+01 0. -1.
</event>
<event>
 5   0  0.5108045E-03  0.1187399E+04  0.7818609E-02  0.9123958E-01
       -2   -1    0    0    0  501  0.00000000000E+00  0.00000000000E+00  0.33478483210E+03  0.33478483211E+03  0.25500000920E-02 0. -1.
        2   -1    0    0  501    0  0.00000000000E+00  0.00000000000E+00 -0.10528522033E+04  0.10528522033E+04  0.25500000920E-02 0.  1.
    10030    2    1    2    0    0  0.00000000000E+00  0.00000000000E+00 -0.71806737120E+03  0.13876370354E+04  0.11873987504E+04 0.  0.
        3    1    3    3  502    0 -0.17513174970E+03  0.29182139089E+03 -0.92753410731E+03  0.98800323095E+03  0.10100000352E+00 0.  1.
       -3    1    3    3    0  502  0.17513174970E+03 -0.29182139089E+03  0.20946673612E+03  0.39963380447E+03  0.10100000352E+00 0. -1.
</event>
<event>
 5   0  0.2930868E-03  0.1217897E+04  0.7818609E-02  0.9097334E-01
        1   -1    0    0  501    0  0.00000000000E+00  0.00000000000E+00  0.46085550759E+03  0.46085550762E+03  0.50400001928E-02 0.  1.
       -1   -1    0    0    0  501  0.00000000000E+00  0.00000000000E+00 -0.80463065458E+03  0.80463065459E+03  0.50400001928E-02 0. -1.
    10030    2    1    2    0    0  0.00000000000E+00  0.00000000000E+00 -0.34377514699E+03  0.12654861622E+04  0.12178973171E+04 0.  0.
        3    1    3    3  502    0 -0.55334255884E+03  0.55068777939E+02 -0.42977471183E+03  0.70279931051E+03  0.10100000352E+00 0. -1.
       -3    1    3    3    0  502  0.55334255884E+03 -0.55068777939E+02  0.85999564844E+02  0.56268685170E+03  0.10100000352E+00 0.  1.
</event>
<event>
 5   0  0.2792518E-03  0.1182706E+04  0.7818609E-02  0.9128130E-01
       -1   -1    0    0    0  501  0.00000000000E+00  0.00000000000E+00  0.92893368492E+03  0.92893368493E+03  0.50400001928E-02 0.  1.
        1   -1    0    0  501    0  0.00000000000E+00  0.00000000000E+00 -0.37645135966E+03  0.37645135970E+03  0.50400001928E-02 0. -1.
    10030    2    1    2    0    0  0.00000000000E+00  0.00000000000E+00  0.55248232525E+03  0.13053850446E+04  0.11827059630E+04 0.  0.
        2    1    3    3  502    0 -0.56418985822E+03 -0.16819083724E+03  0.21478826914E+03  0.62668361588E+03  0.25500000920E-02 0. -1.
       -2    1    3    3    0  502  0.56418985822E+03  0.16819083724E+03  0.33769405611E+03  0.67870142875E+03  0.25500000920E-02 0.  1.
</event>
<event>
 5   0  0.2792518E-03  0.1224070E+04  0.7818609E-02  0.9092045E-01
       -1   -1    0    0    0  501  0.00000000000E+00  0.00000000000E+00  0.10272949257E+04  0.10272949257E+04  0.50400001928E-02 0.  1.
        1   -1    0    0  501    0  0.00000000000E+00  0.00000000000E+00 -0.36463444567E+03  0.36463444571E+03  0.50400001928E-02 0. -1.
    10030    2    1    2    0    0  0.00000000000E+00  0.00000000000E+00  0.66266048003E+03  0.13919293714E+04  0.12240704486E+04 0.  0.
        2    1    3    3  502    0 -0.25729977918E+03 -0.54128433999E+03  0.47242259804E+03  0.76313499738E+03  0.25500000920E-02 0.  1.
       -2    1    3    3    0  502  0.25729977918E+03  0.54128433999E+03  0.19023788200E+03  0.62879437404E+03  0.25500000920E-02 0. -1.
</event>
<event>
 5   0  0.5189537E-03  0.9829716E+03  0.7818609E-02  0.9327421E-01
        2   -1    0    0  501    0  0.00000000000E+00  0.00000000000E+00  0.80214886655E+03  0.80214886656E+03  0.25500000920E-02 0. -1.
       -2   -1    0    0    0  501  0.00000000000E+00  0.00000000000E+00 -0.30113899028E+03  0.30113899029E+03  0.25500000920E-02 0.  1.
    10030    2    1    2    0    0  0.00000000000E+00  0.00000000000E+00  0.50100987627E+03  0.11032878569E+04  0.98297161655E+03 0.  0.
        4    1    3    3  502    0 -0.35941349210E+03 -0.14827315732E+03  0.58796077207E+03  0.70488472099E+03  0.12699999809E+01 0. -1.
       -4    1    3    3    0  502  0.35941349210E+03  0.14827315732E+03 -0.86950895800E+02  0.39840313586E+03  0.12699999809E+01 0.  1.
</event>
<event>
 5   0  0.2875848E-03  0.1222928E+04  0.7818609E-02  0.9093021E-01
        1   -1    0    0  501    0  0.00000000000E+00  0.00000000000E+00  0.11902723240E+04  0.11902723240E+04  0.50400001928E-02 0.  1.
       -1   -1    0    0    0  501  0.00000000000E+00  0.00000000000E+00 -0.31411977257E+03  0.31411977261E+03  0.50400001928E-02 0. -1.
    10030    2    1    2    0    0  0.00000000000E+00  0.00000000000E+00  0.87615255144E+03  0.15043920966E+04  0.12229277522E+04 0.  0.
        1    1    3    3  502    0 -0.19366262531E+03  0.49045744373E+03  0.81889724585E+03  0.97398481294E+03  0.50400001928E-02 0.  1.
       -1    1    3    3    0  502  0.19366262531E+03 -0.49045744373E+03  0.57255305593E+02  0.53040728370E+03  0.50400001928E-02 0. -1.
</event>
<event>
 5   0  0.2875848E-03  0.1195864E+04  0.7818609E-02  0.9116484E-01
        1   -1    0    0  501    0  0.00000000000E+00  0.00000000000E+00  0.80541677117E+03  0.80541677118E+03  0.50400001928E-02 0.  1.
       -1   -1    0    0    0  501  0.00000000000E+00  0.00000000000E+00 -0.44389777189E+03  0.44389777192E+03  0.50400001928E-02 0. -1.
    10030    2    1    2    0    0  0.00000000000E+00  0.00000000000E+00  0.36151899927E+03  0.12493145431E+04  0.11958640561E+04 0.  0.
        1    1    3    3  502    0 -0.39075852945E+02 -0.10430786217E+03  0.79448238017E+03  0.80225264401E+03  0.50400001928E-02 0.  1.
       -1    1    3    3    0  502  0.39075852945E+02  0.10430786217E+03 -0.43296338090E+03  0.44706189909E+03  0.50400001928E-02 0. -1.
</event>
<event>
 5   0  0.5031575E-03  0.1210717E+04  0.7818609E-02  0.9103527E-01
       -2   -1    0    0    0  501  0.00000000000E+00  0.00000000000E+00  0.32382577201E+03  0.32382577202E+03  0.25500000920E-02 0.  1.
        2   -1    0    0  501    0  0.00000000000E+00  0.00000000000E+00 -0.11316553236E+04  0.11316553236E+04  0.25500000920E-02 0. -1.
    10030    2    1    2    0    0  0.00000000000E+00  0.00000000000E+00 -0.80782955162E+03  0.14554810956E+04  0.12107174052E+04 0.  0.
        5    1    3    3  502    0 -0.31291651262E+03  0.23486626189E+01 -0.10268571938E+04  0.10734896584E+04  0.46999998093E+01 0. -1.
       -5    1    3    3    0  502  0.31291651262E+03 -0.23486626189E+01  0.21902764223E+03  0.38199143727E+03  0.46999998093E+01 0.  1.
</event>
<event>
 5   0  0.5467554E-03  0.1205602E+04  0.7818609E-02  0.9107967E-01
        2   -1    0    0  501    0  0.00000000000E+00  0.00000000000E+00  0.64465551566E+03  0.64465551567E+03  0.25500000920E-02 0.  1.
       -2   -1    0    0    0  501  0.00000000000E+00  0.00000000000E+00 -0.56366392241E+03  0.56366392241E+03  0.25500000920E-02 0. -1.
    10030    2    1    2    0    0  0.00000000000E+00  0.00000000000E+00  0.80991593253E+02  0.12083194381E+04  0.12056020182E+04 0.  0.
        1    1    3    3  502    0 -0.41198966328E+03 -0.32077031025E+03  0.34240554759E+03  0.62439621527E+03  0.50400001928E-02 0. -1.
       -1    1    3    3    0  502  0.41198966328E+03  0.32077031025E+03 -0.26141395434E+03  0.58392322281E+03  0.50400001928E-02 0.  1.
</event>
<event>
 5   0  0.5467554E-03  0.1202517E+04  0.7818609E-02  0.9110656E-01
        2   -1    0    0  501    0  0.00000000000E+00  0.00000000000E+00  0.57535727937E+03  0.57535727937E+03  0.25500000920E-02 0.  1.
       -2   -1    0    0    0  501  0.00000000000E+00  0.00000000000E+00 -0.62832592741E+03  0.62832592742E+03  0.25500000920E-02 0. -1.
    10030    2    1    2    0    0  0.00000000000E+00  0.00000000000E+00 -0.52968648043E+02  0.12036832068E+04  0.12025171868E+04 0.  0.
        1    1    3    3  502    0 -0.24422607927E+03  0.42075552504E+03 -0.38014024027E+03  0.61740439903E+03  0.50400001928E-02 0. -1.
       -1    1    3    3    0  502  0.24422607927E+03 -0.42075552504E+03  0.32717159222E+03  0.58627880776E+03  0.50400001928E-02 0.  1.
</event>
<event>
 5   0  0.2930868E-03  0.1195046E+04  0.7818609E-02  0.9117204E-01
        1   -1    0    0  501    0  0.00000000000E+00  0.00000000000E+00  0.80811199527E+03  0.80811199528E+03  0.50400001928E-02 0. -1.
       -1   -1    0    0    0  501  0.00000000000E+00  0.00000000000E+00 -0.44181226043E+03  0.44181226046E+03  0.50400001928E-02 0.  1.
    10030    2    1    2    0    0  0.00000000000E+00  0.00000000000E+00  0.36629973484E+03  0.12499242557E+04  0.11950460867E+04 0.  0.
        3    1    3    3  502    0  0.45262633618E+03 -0.36706016793E+03  0.32123529870E+03  0.66542910547E+03  0.10100000352E+00 0.  1.
       -3    1    3    3    0  502 -0.45262633618E+03  0.36706016793E+03  0.45064436139E+02  0.58449515027E+03  0.10100000352E+00 0. -1.
</event>
<event>
 5   0  0.5031575E-03  0.1207609E+04  0.7818609E-02  0.9106223E-01
        2   -1    0    0  501    0  0.00000000000E+00  0.00000000000E+00  0.18973656956E+04  0.18973656956E+04  0.25500000920E-02 0.  1.
       -2   -1    0    0    0  501  0.00000000000E+00  0.00000000000E+00 -0.19215044866E+03  0.19215044867E+03  0.25500000920E-02 0. -1.
    10030    2    1    2    0    0  0.00000000000E+00  0.00000000000E+00  0.17052152470E+04  0.20895161443E+04  0.12076086613E+04 0.  0.
        5    1    3    3  502    0 -0.44267063443E+02 -0.42337044894E+03  0.11169593391E+03  0.44011382800E+03  0.46999998093E+01 0. -1.
       -5    1    3    3    0  502  0.44267063443E+02  0.42337044894E+03  0.15935193131E+04  0.16494023163E+04  0.46999998093E+01 0.  1.
</event>
<event>
 5   0  0.5003526E-03  0.7819516E+03  0.7818609E-02  0.9586515E-01
        2   -1    0    0  501    0  0.00000000000E+00  0.00000000000E+00  0.53788918212E+03  0.53788918212E+03  0.25500000920E-02 0. -1.
       -2   -1    0    0    0  501  0.00000000000E+00  0.00000000000E+00 -0.28418881833E+03  0.28418881834E+03  0.25500000920E-02 0.  1.
    10030    2    1    2    0    0  0.00000000000E+00  0.00000000000E+00  0.25370036379E+03  0.82207800046E+03  0.78195163806E+03 0.  0.
        2    1    3    3  502    0  0.35589593781E+03 -0.53316838105E+00 -0.43319760508E+02  0.35852308779E+03  0.25500000920E-02 0. -1.
       -2    1    3    3    0  502 -0.35589593781E+03  0.53316838105E+00  0.29702012430E+03  0.46355491268E+03  0.25500000920E-02 0.  1.
</event>
<event>
 5   0  0.2926844E-03  0.1193971E+04  0.7818609E-02  0.9118150E-01
       -1   -1    0    0    0  501  0.00000000000E+00  0.00000000000E+00  0.27706391402E+03  0.27706391407E+03  0.50400001928E-02 0.  1.
        1   -1    0    0  501    0  0.00000000000E+00  0.00000000000E+00 -0.12863159907E+04  0.12863159907E+04  0.50400001928E-02 0. -1.
    10030    2    1    2    0    0  0.00000000000E+00  0.00000000000E+00 -0.10092520767E+04  0.15633799048E+04  0.11939710936E+04 0.  0.
        5    1    3    3  502    0  0.39880965711E+03 -0.39442884144E+03 -0.23709127291E+03  0.60898080040E+03  0.46999998093E+01 0.  1.
       -5    1    3    3    0  502 -0.39880965711E+03  0.39442884144E+03 -0.77216080379E+03  0.95439910440E+03  0.46999998093E+01 0. -1.
</event>
<event>
 5   0  0.5467554E-03  0.1208066E+04  0.7818609E-02  0.9105825E-01
        2   -1    0    0  501    0  0.00000000000E+00  0.00000000000E+00  0.16618047581E+04  0.16618047581E+04  0.25500000920E-02 0.  1.
       -2   -1    0    0    0  501  0.00000000000E+00  0.00000000000E+00 -0.21955415823E+03  0.21955415825E+03  0.25500000920E-02 0. -1.
    10030    2    1    2    0    0  0.00000000000E+00  0.00000000000E+00  0.14422505998E+04  0.18813589163E+04  0.12080664631E+04 0.  0.
        1    1    3    3  502    0  0.16126281367E+03 -0.57570471673E+03  0.85522339478E+03  0.10434791186E+04  0.50400001928E-02 0. -1.
       -1    1    3    3    0  502 -0.16126281367E+03  0.57570471673E+03  0.58702720507E+03  0.83787979773E+03  0.50400001928E-02 0.  1.
</event>
<event>
 5   0  0.5189537E-03  0.1166541E+04  0.7818609E-02  0.9142658E-01
       -2   -1    0    0    0  501  0.00000000000E+00  0.00000000000E+00  0.40615587131E+03  0.40615587132E+03  0.25500000920E-02 0. -1.
        2   -1    0    0  501    0  0.00000000000E+00  0.00000000000E+00 -0.83762114827E+03  0.83762114827E+03  0.25500000920E-02 0.  1.
    10030    2    1    2    0    0  0.00000000000E+00  0.00000000000E+00 -0.43146527696E+03  0.12437770196E+04  0.11665414649E+04 0.  0.
        4    1    3    3  502    0  0.96754633509E+02  0.46785420039E+03  0.14101605645E+03  0.49813266607E+03  0.12699999809E+01 0. -1.
       -4    1    3    3    0  502 -0.96754633509E+02 -0.46785420039E+03 -0.57248133341E+03  0.74564435352E+03  0.12699999809E+01 0.  1.
</event>
<event>
 5   0  0.5467554E-03  0.1197216E+04  0.7818609E-02  0.9115297E-01
       -2   -1    0    0    0  501  0.00000000000E+00  0.00000000000E+00  0.16422809232E+04  0.16422809232E+04  0.25500000920E-02 0. -1.
        2   -1    0    0  501    0  0.00000000000E+00  0.00000000000E+00 -0.21819143534E+03  0.21819143536E+03  0.25500000920E-02 0.  1.
    10030    2    1    2    0    0  0.00000000000E+00  0.00000000000E+00  0.14240894878E+04  0.18604723585E+04  0.11972161574E+04 0.  0.
        1    1    3    3  502    0 -0.34808078968E+03  0.12825215907E+03  0.14421310973E+04  0.14890772157E+04  0.50400001928E-02 0. -1.
       -1    1    3    3    0  502  0.34808078968E+03 -0.12825215907E+03 -0.18041609448E+02  0.37139514287E+03  0.50400001928E-02 0.  1.
</event>
<event>
 5   0  0.5003526E-03  0.1202395E+04  0.7818609E-02  0.9110763E-01
        2   -1    0    0  501    0  0.00000000000E+00  0.00000000000E+00  0.70065546922E+03  0.70065546922E+03  0.25500000920E-02 0.  1.
       -2   -1    0    0    0  501  0.00000000000E+00  0.00000000000E+00 -0.51585720255E+03  0.51585720256E+03  0.25500000920E-02 0. -1.
    10030    2    1    2    0    0  0.00000000000E+00  0.00000000000E+00  0.18479826667E+03  0.12165126718E+04  0.12023945614E+04 0.  0.
        2    1    3    3  502    0  0.55745252553E+02  0.30816374489E+02 -0.51243369692E+03  0.51637726118E+03  0.25500000920E-02 0. -1.
       -2    1    3    3    0  502 -0.55745252553E+02 -0.30816374489E+02  0.69723196359E+03  0.70013541060E+03  0.25500000920E-02 0.  1.
</event>
<event>
 5   0  0.2792518E-03  0.1197073E+04  0.7818609E-02  0.9115423E-01
        1   -1    0    0  501    0  0.00000000000E+00  0.00000000000E+00  0.10473827321E+04  0.10473827321E+04  0.50400001928E-02 0. -1.
       -1   -1    0    0    0  501  0.00000000000E+00  0.00000000000E+00 -0.34203909164E+03  0.34203909168E+03  0.50400001928E-02 0.  1.
    10030    2    1    2    0    0  0.00000000000E+00  0.00000000000E+00  0.70534364047E+03  0.13894218238E+04  0.11970728271E+04 0.  0.
        2    1    3    3  502    0 -0.12187012747E+03 -0.56347686318E+03  0.53942036038E+03  0.78951429911E+03  0.25500000920E-02 0.  1.
       -2    1    3    3    0  502  0.12187012747E+03  0.56347686318E+03  0.16592328010E+03  0.59990752470E+03  0.25500000920E-02 0. -1.
</event>
<event>
 5   0  0.2792518E-03  0.1228594E+04  0.7818609E-02  0.9088190E-01
        1   -1    0    0  501    0  0.00000000000E+00  0.00000000000E+00  0.14975081362E+04  0.14975081362E+04  0.50400001928E-02 0.  1.
       -1   -1    0    0    0  501  0.00000000000E+00  0.00000000000E+00 -0.25199248313E+03  0.25199248318E+03  0.50400001928E-02 0. -1.
    10030    2    1    2    0    0  0.00000000000E+00  0.00000000000E+00  0.12455156531E+04  0.17495006194E+04  0.12285939831E+04 0.  0.
        2    1    3    3  502    0  0.64759831715E+02 -0.37304288613E+03  0.13115991283E+04  0.13651546081E+04  0.25500000920E-02 0.  1.
       -2    1    3    3    0  502 -0.64759831715E+02  0.37304288613E+03 -0.66083475218E+02  0.38434601129E+03  0.25500000920E-02 0. -1.
</event>
<event>
 5   0  0.5467554E-03  0.1206989E+04  0.7818609E-02  0.9106761E-01
       -2   -1    0    0    0  501  0.00000000000E+00  0.00000000000E+00  0.76673215023E+03  0.76673215023E+03  0.25500000920E-02 0.  1.
        2   -1    0    0  501    0  0.00000000000E+00  0.00000000000E+00 -0.47500991362E+03  0.47500991363E+03  0.25500000920E-02 0. -1.
    10030    2    1    2    0    0  0.00000000000E+00  0.00000000000E+00  0.29172223660E+03  0.12417420639E+04  0.12069886039E+04 0.  0.
        1    1    3    3  502    0 -0.54395845785E+03  0.40407405271E+02  0.41152463289E+03  0.68328331296E+03  0.50400001928E-02 0.  1.
       -1    1    3    3    0  502  0.54395845785E+03 -0.40407405271E+02 -0.11980239629E+03  0.55845875090E+03  0.50400001928E-02 0. -1.
</event>
<event>
 5   0  0.2875848E-03  0.1186759E+04  0.7818609E-02  0.9124526E-01
        1   -1    0    0  501    0  0.00000000000E+00  0.00000000000E+00  0.12608484407E+04  0.12608484407E+04  0.50400001928E-02 0. -1.
       -1   -1    0    0    0  501  0.00000000000E+00  0.00000000000E+00 -0.27925585741E+03  0.27925585746E+03  0.50400001928E-02 0.  1.
    10030    2    1    2    0    0  0.00000000000E+00  0.00000000000E+00  0.98159258330E+03  0.15401042982E+04  0.11867591372E+04 0.  0.
        1    1    3    3  502    0 -0.24962336872E+03 -0.51561291789E+03  0.69155121441E+03  0.89800422576E+03  0.50400001928E-02 0.  1.
       -1    1    3    3    0  502  0.24962336872E+03  0.51561291789E+03  0.29004136888E+03  0.64210007241E+03  0.50400001928E-02 0. -1.
</event>
<event>
 5   0  0.2926844E-03  0.1323328E+04  0.7818609E-02  0.9011267E-01
        1   -1    0    0  501    0  0.00000000000E+00  0.00000000000E+00  0.12235688649E+04  0.12235688649E+04  0.50400001928E-02 0.  1.
       -1   -1    0    0    0  501  0.00000000000E+00  0.00000000000E+00 -0.35780540894E+03  0.35780540897E+03  0.50400001928E-02 0. -1.
    10030    2    1    2    0    0  0.00000000000E+00  0.00000000000E+00  0.86576345595E+03  0.15813742739E+04  0.13233284673E+04 0.  0.
        5    1    3    3  502    0 -0.46208129455E+03 -0.30030553578E+03  0.87044494281E+03  0.10302422172E+04  0.46999998093E+01 0.  1.
       -5    1    3    3    0  502  0.46208129455E+03  0.30030553578E+03 -0.46814868641E+01  0.55113205669E+03  0.46999998093E+01 0. -1.
</event>
<event>
 5   0  0.5108045E-03  0.1171196E+04  0.7818609E-02  0.9138449E-01
        2   -1    0    0  501    0  0.00000000000E+00  0.00000000000E+00  0.77362680617E+03  0.77362680618E+03  0.25500000920E-02 0.  1.
       -2   -1    0    0    0  501  0.00000000000E+00  0.00000000000E+00 -0.44326920880E+03  0.44326920881E+03  0.25500000920E-02 0. -1.
    10030    2    1    2    0    0  0.00000000000E+00  0.00000000000E+00  0.33035759737E+03  0.12168960150E+04  0.11711958714E+04 0.  0.
        3    1    3    3  502    0  0.14754072267E+03  0.53378168326E+03 -0.32600470941E+02  0.55475575810E+03  0.10100000352E+00 0. -1.
       -3    1    3    3    0  502 -0.14754072267E+03 -0.53378168326E+03  0.36295806831E+03  0.66214025689E+03  0.10100000352E+00 0.  1.
</event>
<event>
 5   0  0.2938349E-03  0.1101874E+04  0.7818609E-02  0.9203368E-01
        1   -1    0    0  501    0  0.00000000000E+00  0.00000000000E+00  0.46051811533E+03  0.46051811536E+03  0.50400001928E-02 0. -1.
       -1   -1    0    0    0  501  0.00000000000E+00  0.00000000000E+00 -0.65910855258E+03  0.65910855260E+03  0.50400001928E-02 0.  1.
    10030    2    1    2    0    0  0.00000000000E+00  0.00000000000E+00 -0.19859043725E+03  0.11196266680E+04  0.11018737286E+04 0.  0.
        4    1    3    3  502    0 -0.49286523208E+03  0.50983292235E+02  0.14544719719E+03  0.51640287872E+03  0.12699999809E+01 0.  1.
       -4    1    3    3    0  502  0.49286523208E+03 -0.50983292235E+02 -0.34403763445E+03  0.60322378923E+03  0.12699999809E+01 0. -1.
</event>
<event>
 5   0  0.5003526E-03  0.1190722E+04  0.7818609E-02  0.9121016E-01
        2   -1    0    0  501    0  0.00000000000E+00  0.00000000000E+00  0.51317450033E+03  0.51317450034E+03  0.25500000920E-02 0.  1.
       -2   -1    0    0    0  501  0.00000000000E+00  0.00000000000E+00 -0.69071032007E+03  0.69071032008E+03  0.25500000920E-02 0. -1.
    10030    2    1    2    0    0  0.00000000000E+00  0.00000000000E+00 -0.17753581974E+03  0.12038848204E+04  0.11907223411E+04 0.  0.
        2    1    3    3  502    0 -0.63184261612E+02  0.18697487598E+03  0.47913779299E+03  0.51819386318E+03  0.25500000920E-02 0.  1.
       -2    1    3    3    0  502  0.63184261612E+02 -0.18697487598E+03 -0.65667361273E+03  0.68569095723E+03  0.25500000920E-02 0. -1.
</event>
<event>
 5   0  0.2938349E-03  0.1303462E+04  0.7818609E-02  0.9026824E-01
        1   -1    0    0  501    0  0.00000000000E+00  0.00000000000E+00  0.46095961947E+03  0.46095961950E+03  0.50400001928E-02 0. -1.
       -1   -1    0    0    0  501  0.00000000000E+00  0.00000000000E+00 -0.92145467866E+03  0.92145467867E+03  0.50400001928E-02 0.  1.
    10030    2    1    2    0    0  0.00000000000E+00  0.00000000000E+00 -0.46049505919E+03  0.13824142982E+04  0.13034621560E+04 0.  0.
        4    1    3    3  502    0  0.23467285692E+03  0.22522783787E+03  0.36871966718E+03  0.49168560543E+03  0.12699999809E+01 0. -1.
       -4    1    3    3    0  502 -0.23467285692E+03 -0.22522783787E+03 -0.82921472637E+03  0.89072869273E+03  0.12699999809E+01 0.  1.
</event>
<event>
 5   0  0.2875848E-03  0.1115811E+04  0.7818609E-02  0.9189917E-01
        1   -1    0    0  501    0  0.00000000000E+00  0.00000000000E+00  0.89369171582E+03  0.89369171583E+03  0.50400001928E-02 0.  1.
       -1   -1    0    0    0  501  0.00000000000E+00  0.00000000000E+00 -0.34828419264E+03  0.34828419268E+03  0.50400001928E-02 0. -1.
    10030    2    1    2    0    0  0.00000000000E+00  0.00000000000E+00  0.54540752318E+03  0.12419759085E+04  0.11158112703E+04 0.  0.
        1    1    3    3  502    0  0.20196436035E+03 -0.46114179721E+03  0.50634831672E+01  0.50345506142E+03  0.50400001928E-02 0. -1.
       -1    1    3    3    0  502 -0.20196436035E+03  0.46114179721E+03  0.54034404001E+03  0.73852084709E+03  0.50400001928E-02 0.  1.
</event>
<event>
 5   0  0.5031575E-03  0.1208910E+04  0.7818609E-02  0.9105093E-01
       -2   -1    0    0    0  501  0.00000000000E+00  0.00000000000E+00  0.17447407974E+03  0.17447407976E+03  0.25500000920E-02 0.  1.
        2   -1    0    0  501    0  0.00000000000E+00  0.00000000000E+00 -0.20940976588E+04  0.20940976588E+04  0.25500000920E-02 0. -1.
    10030    2    1    2    0    0  0.00000000000E+00  0.00000000000E+00 -0.19196235790E+04  0.22685717385E+04  0.12089098592E+04 0.  0.
        5    1    3    3  502    0 -0.46186527683E+03 -0.36094628490E+03 -0.12365107443E+04  0.13684234233E+04  0.46999998093E+01 0. -1.
       -5    1    3    3    0  502  0.46186527683E+03  0.36094628490E+03 -0.68311283470E+03  0.90014831526E+03  0.46999998093E+01 0.  1.
</event>
<event>
 5   0  0.2930868E-03  0.1196654E+04  0.7818609E-02  0.9115791E-01
        1   -1    0    0  501    0  0.00000000000E+00  0.00000000000E+00  0.14167161175E+04  0.14167161175E+04  0.50400001928E-02 0. -1.
       -1   -1    0    0    0  501  0.00000000000E+00  0.00000000000E+00 -0.25269354327E+03  0.25269354332E+03  0.50400001928E-02 0.  1.
    10030    2    1    2    0    0  0.00000000000E+00  0.00000000000E+00  0.11640225742E+04  0.16694096608E+04  0.11966536936E+04 0.  0.
        3    1    3    3  502    0 -0.77711655278E+02  0.16675697893E+03  0.13762775562E+04  0.13885196842E+04  0.10100000352E+00 0. -1.
       -3    1    3    3    0  502  0.77711655278E+02 -0.16675697893E+03 -0.21225498201E+03  0.28088997664E+03  0.10100000352E+00 0.  1.
</event>
<event>
 5   0  0.2926844E-03  0.1292853E+04  0.7818609E-02  0.9035252E-01
       -1   -1    0    0    0  501  0.00000000000E+00  0.00000000000E+00  0.84465988237E+03  0.84465988239E+03  0.50400001928E-02 0.  1.
        1   -1    0    0  501    0  0.00000000000E+00  0.00000000000E+00 -0.49471655607E+03  0.49471655610E+03  0.50400001928E-02 0. -1.
    10030    2    1    2    0    0  0.00000000000E+00  0.00000000000E+00  0.34994332630E+03  0.13393764385E+04  0.12928530127E+04 0.  0.
        5    1    3    3  502    0  0.44599483275E+03  0.41745720100E+03 -0.43970083989E+02  0.61248458249E+03  0.46999998093E+01 0. -1.
       -5    1    3    3    0  502 -0.44599483275E+03 -0.41745720100E+03  0.39391341029E+03  0.72689185599E+03  0.46999998093E+01 0.  1.
</event>
<event>
 5   0  0.5003526E-03  0.1161921E+04  0.7818609E-02  0.9146856E-01
        2   -1    0    0  501    0  0.00000000000E+00  0.00000000000E+00  0.97460047590E+03  0.97460047591E+03  0.25500000920E-02 0.  1.
       -2   -1    0    0    0  501  0.00000000000E+00  0.00000000000E+00 -0.34631113853E+03  0.34631113854E+03  0.25500000920E-02 0. -1.
    10030    2    1    2    0    0  0.00000000000E+00  0.00000000000E+00  0.62828933737E+03  0.13209116144E+04  0.11619208242E+04 0.  0.
        2    1    3    3  502    0  0.11137306408E+03  0.56684283632E+03  0.38422606275E+03  0.69378990177E+03  0.25500000920E-02 0.  1.
       -2    1    3    3    0  502 -0.11137306408E+03 -0.56684283632E+03  0.24406327462E+03  0.62712171268E+03  0.25500000920E-02 0. -1.
</event>
<event>
 5   0  0.5189537E-03  0.1195048E+04  0.7818609E-02  0.9117202E-01
       -2   -1    0    0    0  501  0.00000000000E+00  0.00000000000E+00  0.97560461488E+03  0.97560461489E+03  0.25500000920E-02 0.  1.
        2   -1    0    0  501    0  0.00000000000E+00  0.00000000000E+00 -0.36596291453E+03  0.36596291454E+03  0.25500000920E-02 0. -1.
    10030    2    1    2    0    0  0.00000000000E+00  0.00000000000E+00  0.60964170035E+03  0.13415675294E+04  0.11950482974E+04 0.  0.
        4    1    3    3  502    0  0.80831511486E+02 -0.58960865652E+03  0.36487125445E+03  0.69807216412E+03  0.12699999809E+01 0. -1.
       -4    1    3    3    0  502 -0.80831511486E+02  0.58960865652E+03  0.24477044590E+03  0.64349536531E+03  0.12699999809E+01 0.  1.
</event>
<event>
 5   0  0.2930868E-03  0.1194458E+04  0.7818609E-02  0.9117721E-01
        1   -1    0    0  501    0  0.00000000000E+00  0.00000000000E+00  0.39821110579E+03  0.39821110582E+03  0.50400001928E-02 0. -1.
       -1   -1    0    0    0  501  0.00000000000E+00  0.00000000000E+00 -0.89571214911E+03  0.89571214913E+03  0.50400001928E-02 0.  1.
    10030    2    1    2    0    0  0.00000000000E+00  0.00000000000E+00 -0.49750104333E+03  0.12939232549E+04  0.11944580786E+04 0.  0.
        3    1    3    3  502    0 -0.23244286349E+03 -0.29987798111E+03 -0.74837984643E+03  0.83906429616E+03  0.10100000352E+00 0.  1.
       -3    1    3    3    0  502  0.23244286349E+03  0.29987798111E+03  0.25087880310E+03  0.45485895879E+03  0.10100000352E+00 0. -1.
</event>
<event>
 5   0  0.5003526E-03  0.1239186E+04  0.7818609E-02  0.9079232E-01
        2   -1    0    0  501    0  0.00000000000E+00  0.00000000000E+00  0.38668104490E+03  0.38668104491E+03  0.25500000920E-02 0. -1.
       -2   -1    0    0    0  501  0.00000000000E+00  0.00000000000E+00 -0.99279545795E+03  0.99279545795E+03  0.25500000920E-02 0.  1.
    10030    2    1    2    0    0  0.00000000000E+00  0.00000000000E+00 -0.60611441305E+03  0.13794765029E+04  0.12391855149E+04 0.  0.
        2    1    3    3  502    0  0.22137330510E+03  0.39956155203E+03 -0.76906600813E+03  0.89449320787E+03  0.25500000920E-02 0.  1.
       -2    1    3    3    0  502 -0.22137330510E+03 -0.39956155203E+03  0.16295159507E+03  0.48498329498E+03  0.25500000920E-02 0. -1.
</event>
<event>
 5   0  0.5189537E-03  0.1194377E+04  0.7818609E-02  0.9117793E-01
       -2   -1    0    0    0  501  0.00000000000E+00  0.00000000000E+00  0.46703401190E+03  0.46703401191E+03  0.25500000920E-02 0.  1.
        2   -1    0    0  501    0  0.00000000000E+00  0.00000000000E+00 -0.76361443722E+03  0.76361443722E+03  0.25500000920E-02 0. -1.
    10030    2    1    2    0    0  0.00000000000E+00  0.00000000000E+00 -0.29658042531E+03  0.12306484491E+04  0.11943766812E+04 0.  0.
        4    1    3    3  502    0  0.41657582495E+03 -0.42784860884E+03 -0.14157688359E+03  0.61370634418E+03  0.12699999809E+01 0.  1.
       -4    1    3    3    0  502 -0.41657582495E+03  0.42784860884E+03 -0.15500354172E+03  0.61694210495E+03  0.12699999809E+01 0. -1.
</event>
<event>
 5   0  0.5108045E-03  0.1091433E+04  0.7818609E-02  0.9213582E-01
       -2   -1    0    0    0  501  0.00000000000E+00  0.00000000000E+00  0.37960366226E+03  0.37960366227E+03  0.25500000920E-02 0. -1.
        2   -1    0    0  501    0  0.00000000000E+00  0.00000000000E+00 -0.78451935989E+03  0.78451935990E+03  0.25500000920E-02 0.  1.
    10030    2    1    2    0    0  0.00000000000E+00  0.00000000000E+00 -0.40491569763E+03  0.11641230222E+04  0.10914328603E+04 0.  0.
        3    1    3    3  502    0  0.51232286906E+03  0.16920069112E+03 -0.28978122098E+03  0.61243510862E+03  0.10100000352E+00 0.  1.
       -3    1    3    3    0  502 -0.51232286906E+03 -0.16920069112E+03 -0.11513447665E+03  0.55168791355E+03  0.10100000352E+00 0. -1.
</event>
<event>
 5   0  0.2926844E-03  0.1249540E+04  0.7818609E-02  0.9070566E-01
       -1   -1    0    0    0  501  0.00000000000E+00  0.00000000000E+00  0.71416072195E+03  0.71416072196E+03  0.50400001928E-02 0.  1.
        1   -1    0    0  501    0  0.00000000000E+00  0.00000000000E+00 -0.54656838010E+03  0.54656838012E+03  0.50400001928E-02 0. -1.
    10030    2    1    2    0    0  0.00000000000E+00  0.00000000000E+00  0.16759234185E+03  0.12607291021E+04  0.12495401857E+04 0.  0.
        5    1    3    3  502    0 -0.11798234299E+03  0.61144608726E+03  0.13453993944E+03  0.63711006599E+03  0.46999998093E+01 0.  1.
       -5    1    3    3    0  502  0.11798234299E+03 -0.61144608726E+03  0.33052402403E+02  0.62361903610E+03  0.46999998093E+01 0. -1.
</event>
<event>
 5   0  0.5003526E-03  0.1177369E+04  0.7818609E-02  0.9132899E-01
       -2   -1    0    0    0  501  0.00000000000E+00  0.00000000000E+00  0.96889951853E+03  0.96889951853E+03  0.25500000920E-02 0.  1.
        2   -1    0    0  501    0  0.00000000000E+00  0.00000000000E+00 -0.35767336794E+03  0.35767336795E+03  0.25500000920E-02 0. -1.
    10030    2    1    2    0    0  0.00000000000E+00  0.00000000000E+00  0.61122615058E+03  0.13265728865E+04  0.11773691927E+04 0.  0.
        2    1    3    3  502    0  0.56314486716E+03  0.16977697298E+03  0.27817105376E+03  0.65064237268E+03  0.25500000920E-02 0. -1.
       -2    1    3    3    0  502 -0.56314486716E+03 -0.16977697298E+03  0.33305509682E+03  0.67593051380E+03  0.25500000920E-02 0.  1.
</event>
<event>
 5   0  0.1922125E-03  0.9767174E+03  0.7818609E-02  0.9334456E-01
       -3   -1    0    0    0  501  0.00000000000E+00  0.00000000000E+00  0.60184149956E+03  0.60184150804E+03  0.10100000352E+00 0.  1.
        3   -1    0    0  501    0  0.00000000000E+00  0.00000000000E+00 -0.39627413677E+03  0.39627414965E+03  0.10100000352E+00 0. -1.
    10030    2    1    2    0    0  0.00000000000E+00  0.00000000000E+00  0.20556736279E+03  0.99811565768E+03  0.97671742355E+03 0.  0.
        4    1    3    3  502    0 -0.42603343643E+03  0.17656759982E+03  0.26696466920E+03  0.53287179862E+03  0.12699999809E+01 0.  1.
       -4    1    3    3    0  502  0.42603343643E+03 -0.17656759982E+03 -0.61397306416E+02  0.46524385906E+03  0.12699999809E+01 0. -1.
</event>
<event>
 5   0  0.2938349E-03  0.1151606E+04  0.7818609E-02  0.9156303E-01
        1   -1    0    0  501    0  0.00000000000E+00  0.00000000000E+00  0.41007719373E+03  0.41007719377E+03  0.50400001928E-02 0. -1.
       -1   -1    0    0    0  501  0.00000000000E+00  0.00000000000E+00 -0.80850449430E+03  0.80850449431E+03  0.50400001928E-02 0.  1.
    10030    2    1    2    0    0  0.00000000000E+00  0.00000000000E+00 -0.39842730056E+03  0.12185816881E+04  0.11516062768E+04 0.  0.
        4    1    3    3  502    0  0.43643081692E+03  0.36029652182E+03 -0.31150911992E+03  0.64600695529E+03  0.12699999809E+01 0.  1.
       -4    1    3    3    0  502 -0.43643081692E+03 -0.36029652182E+03 -0.86918180647E+02  0.57257473278E+03  0.12699999809E+01 0. -1.
</event>
<event>
 5   0  0.5003526E-03  0.1190928E+04  0.7818609E-02  0.9120834E-01
        2   -1    0    0  501    0  0.00000000000E+00  0.00000000000E+00  0.11927811998E+04  0.11927811998E+04  0.25500000920E-02 0.  1.
       -2   -1    0    0    0  501  0.00000000000E+00  0.00000000000E+00 -0.29726956559E+03  0.29726956560E+03  0.25500000920E-02 0. -1.
    10030    2    1    2    0    0  0.00000000000E+00  0.00000000000E+00  0.89551163424E+03  0.14900507654E+04  0.11909282919E+04 0.  0.
        2    1    3    3  502    0  0.25833800324E+03 -0.24518225133E+03  0.10448193013E+04  0.11038569802E+04  0.25500000920E-02 0.  1.
       -2    1    3    3    0  502 -0.25833800324E+03  0.24518225133E+03 -0.14930766711E+03  0.38619378522E+03  0.25500000920E-02 0. -1.
</event>
<event>
 5   0  0.2926844E-03  0.1274646E+04  0.7818609E-02  0.9049916E-01
       -1   -1    0    0    0  501  0.00000000000E+00  0.00000000000E+00  0.23459826954E+03  0.23459826959E+03  0.50400001928E-02 0.  1.
        1   -1    0    0  501    0  0.00000000000E+00  0.00000000000E+00 -0.17313884569E+04  0.17313884569E+04  0.50400001928E-02 0. -1.
    10030    2    1    2    0    0  0.00000000000E+00  0.00000000000E+00 -0.14967901874E+04  0.19659867265E+04  0.12746462034E+04 0.  0.
        5    1    3    3  502    0  0.42760294868E+03 -0.42874072723E+03 -0.10549202510E+04  0.12163641391E+04  0.46999998093E+01 0. -1.
       -5    1    3    3    0  502 -0.42760294868E+03  0.42874072723E+03 -0.44186993637E+03  0.74962258742E+03  0.46999998093E+01 0.  1.
</event>
<event>
 5   0  0.2926844E-03  0.1190350E+04  0.7818609E-02  0.9121345E-01
        1   -1    0    0  501    0  0.00000000000E+00  0.00000000000E+00  0.59553243436E+03  0.59553243438E+03  0.50400001928E-02 0. -1.
       -1   -1    0    0    0  501  0.00000000000E+00  0.00000000000E+00 -0.59481814022E+03  0.59481814024E+03  0.50400001928E-02 0.  1.
    10030    2    1    2    0    0  0.00000000000E+00  0.00000000000E+00  0.71429414211E+00  0.11903505746E+04  0.11903503603E+04 0.  0.
        5    1    3    3  502    0  0.41612489291E+03 -0.21739362948E+03 -0.36541810716E+03  0.59495579641E+03  0.46999998093E+01 0.  1.
       -5    1    3    3    0  502 -0.41612489291E+03  0.21739362948E+03  0.36613240130E+03  0.59539477821E+03  0.46999998093E+01 0. -1.
</event>
<event>
 5   0  0.2930868E-03  0.1210893E+04  0.7818609E-02  0.9103375E-01
       -1   -1    0    0    0  501  0.00000000000E+00  0.00000000000E+00  0.23361524022E+03  0.23361524027E+03  0.50400001928E-02 0.  1.
        1   -1    0    0  501    0  0.00000000000E+00  0.00000000000E+00 -0.15690989458E+04  0.15690989458E+04  0.50400001928E-02 0. -1.
    10030    2    1    2    0    0  0.00000000000E+00  0.00000000000E+00 -0.13354837056E+04  0.18027141861E+04  0.12108929386E+04 0.  0.
        3    1    3    3  502    0 -0.53186367569E+02 -0.24032773772E+03 -0.14912484567E+04  0.15114258768E+04  0.10100000352E+00 0. -1.
       -3    1    3    3    0  502  0.53186367569E+02  0.24032773772E+03  0.15576475114E+03  0.29128830926E+03  0.10100000352E+00 0.  1.
</event>
<event>
 5   0  0.2792518E-03  0.1229063E+04  0.7818609E-02  0.9087791E-01
        1   -1    0    0  501    0  0.00000000000E+00  0.00000000000E+00  0.22752525791E+04  0.22752525791E+04  0.50400001928E-02 0. -1.
       -1   -1    0    0    0  501  0.00000000000E+00  0.00000000000E+00 -0.16598122613E+03  0.16598122621E+03  0.50400001928E-02 0.  1.
    10030    2    1    2    0    0  0.00000000000E+00  0.00000000000E+00  0.21092713530E+04  0.24412338053E+04  0.12290634043E+04 0.  0.
        2    1    3    3  502    0 -0.35793264581E+03  0.41113608608E+03  0.49108299731E+03  0.73369692004E+03  0.25500000920E-02 0.  1.
       -2    1    3    3    0  502  0.35793264581E+03 -0.41113608608E+03  0.16181883557E+04  0.17075368853E+04  0.25500000920E-02 0. -1.
</event>
<event>
 5   0  0.5031575E-03  0.1109933E+04  0.7818609E-02  0.9195564E-01
       -2   -1    0    0    0  501  0.00000000000E+00  0.00000000000E+00  0.41744447526E+03  0.41744447527E+03  0.25500000920E-02 0.  1.
        2   -1    0    0  501    0  0.00000000000E+00  0.00000000000E+00 -0.73779391691E+03  0.73779391691E+03  0.25500000920E-02 0. -1.
    10030    2    1    2    0    0  0.00000000000E+00  0.00000000000E+00 -0.32034944165E+03  0.11552383922E+04  0.11099333214E+04 0.  0.
        5    1    3    3  502    0 -0.11998328980E+02  0.54199324379E+03 -0.28361268038E+03  0.61184873840E+03  0.46999998093E+01 0. -1.
       -5    1    3    3    0  502  0.11998328980E+02 -0.54199324379E+03 -0.36736761266E+02  0.54338965378E+03  0.46999998093E+01 0.  1.
</event>
<event>
 5   0  0.2938349E-03  0.1225183E+04  0.7818609E-02  0.9091095E-01
        1   -1    0    0  501    0  0.00000000000E+00  0.00000000000E+00  0.10116607952E+04  0.10116607952E+04  0.50400001928E-02 0.  1.
       -1   -1    0    0    0  501  0.00000000000E+00  0.00000000000E+00 -0.37094263544E+03  0.37094263547E+03  0.50400001928E-02 0. -1.
    10030    2    1    2    0    0  0.00000000000E+00  0.00000000000E+00  0.64071815979E+03  0.13826034307E+04  0.12251826339E+04 0.  0.
        4    1    3    3  502    0  0.83276684367E+02 -0.12066870699E+03 -0.35084972643E+03  0.38025397624E+03  0.12699999809E+01 0. -1.
       -4    1    3    3    0  502 -0.83276684367E+02  0.12066870699E+03  0.99156788622E+03  0.10023494545E+04  0.12699999809E+01 0.  1.
</event>
<event>
 5   0  0.2926844E-03  0.1218403E+04  0.7818609E-02  0.9096899E-01
        1   -1    0    0  501    0  0.00000000000E+00  0.00000000000E+00  0.74374634724E+03  0.74374634726E+03  0.50400001928E-02 0. -1.
       -1   -1    0    0    0  501  0.00000000000E+00  0.00000000000E+00 -0.49899635261E+03  0.49899635264E+03  0.50400001928E-02 0.  1.
    10030    2    1    2    0    0  0.00000000000E+00  0.00000000000E+00  0.24474999463E+03  0.12427426999E+04  0.12184034054E+04 0.  0.
        5    1    3    3  502    0  0.46165939303E+03  0.27176773487E+03  0.41819897094E+03  0.67963193435E+03  0.46999998093E+01 0. -1.
       -5    1    3    3    0  502 -0.46165939303E+03 -0.27176773487E+03 -0.17344897631E+03  0.56311076554E+03  0.46999998093E+01 0.  1.
</event>
<event>
 5   0  0.5003526E-03  0.1179765E+04  0.7818609E-02  0.9130755E-01
        2   -1    0    0  501    0  0.00000000000E+00  0.00000000000E+00  0.59928403277E+03  0.59928403277E+03  0.25500000920E-02 0. -1.
       -2   -1    0    0    0  501  0.00000000000E+00  0.00000000000E+00 -0.58062882675E+03  0.58062882675E+03  0.25500000920E-02 0.  1.
    10030    2    1    2    0    0  0.00000000000E+00  0.00000000000E+00  0.18655206020E+02  0.11799128595E+04  0.11797653747E+04 0.  0.
        2    1    3    3  502    0  0.44563210412E+03 -0.20772926144E+03  0.33528576950E+03  0.59511004488E+03  0.25500000920E-02 0. -1.
       -2    1    3    3    0  502 -0.44563210412E+03  0.20772926144E+03 -0.31663056348E+03  0.58480281465E+03  0.25500000920E-02 0.  1.
</event>
<event>
 5   0  0.2792518E-03  0.1197723E+04  0.7818609E-02  0.9114852E-01
        1   -1    0    0  501    0  0.00000000000E+00  0.00000000000E+00  0.75718808232E+03  0.75718808234E+03  0.50400001928E-02 0. -1.
       -1   -1    0    0    0  501  0.00000000000E+00  0.00000000000E+00 -0.47364084540E+03  0.47364084543E+03  0.50400001928E-02 0.  1.
    10030    2    1    2    0    0  0.00000000000E+00  0.00000000000E+00  0.28354723692E+03  0.12308289278E+04  0.11977231791E+04 0.  0.
        2    1    3    3  502    0 -0.22696921143E+02 -0.33626489707E+03 -0.36693023170E+03  0.49822387154E+03  0.25500000920E-02 0.  1.
       -2    1    3    3    0  502  0.22696921143E+02  0.33626489707E+03  0.65047746861E+03  0.73260505623E+03  0.25500000920E-02 0. -1.
</event>
<event>
 5   0  0.5031575E-03  0.1173837E+04  0.7818609E-02  0.9136070E-01
        2   -1    0    0  501    0  0.00000000000E+00  0.00000000000E+00  0.26051271567E+03  0.26051271568E+03  0.25500000920E-02 0.  1.
       -2   -1    0    0    0  501  0.00000000000E+00  0.00000000000E+00 -0.13222893624E+04  0.13222893624E+04  0.25500000920E-02 0. -1.
    10030    2    1    2    0    0  0.00000000000E+00  0.00000000000E+00 -0.10617766467E+04  0.15828020781E+04  0.11738367735E+04 0.  0.
        5    1    3    3  502    0 -0.12908080157E+03  0.56398417277E+03 -0.66376634828E+03  0.88053838961E+03  0.46999998093E+01 0. -1.
       -5    1    3    3    0  502  0.12908080157E+03 -0.56398417277E+03 -0.39801029844E+03  0.70226368846E+03  0.46999998093E+01 0.  1.
</event>
<event>
 5   0  0.2875848E-03  0.1104988E+04  0.7818609E-02  0.9200343E-01
       -1   -1    0    0    0  501  0.00000000000E+00  0.00000000000E+00  0.32079257499E+03  0.32079257503E+03  0.50400001928E-02 0.  1.
        1   -1    0    0  501    0  0.00000000000E+00  0.00000000000E+00 -0.95154885573E+03  0.95154885574E+03  0.50400001928E-02 0. -1.
    10030    2    1    2    0    0  0.00000000000E+00  0.00000000000E+00 -0.63075628074E+03  0.12723414308E+04  0.11049883396E+04 0.  0.
        1    1    3    3  502    0  0.37232108795E+03  0.10435789412E+03 -0.76978075710E+03  0.86143831853E+03  0.50400001928E-02 0. -1.
       -1    1    3    3    0  502 -0.37232108795E+03 -0.10435789412E+03  0.13902447636E+03  0.41090311224E+03  0.50400001928E-02 0.  1.
</event>
<event>
 5   0  0.5108045E-03  0.1174220E+04  0.7818609E-02  0.9135726E-01
       -2   -1    0    0    0  501  0.00000000000E+00  0.00000000000E+00  0.30820080304E+03  0.30820080305E+03  0.25500000920E-02 0. -1.
        2   -1    0    0  501    0  0.00000000000E+00  0.00000000000E+00 -0.11184207670E+04  0.11184207670E+04  0.25500000920E-02 0.  1.
    10030    2    1    2    0    0  0.00000000000E+00  0.00000000000E+00 -0.81021996394E+03  0.14266215700E+04  0.11742200450E+04 0.  0.
        3    1    3    3  502    0  0.11388436791E+03  0.17575100174E+03 -0.10714979723E+04  0.10917719445E+04  0.10100000352E+00 0.  1.
       -3    1    3    3    0  502 -0.11388436791E+03 -0.17575100174E+03  0.26127800838E+03  0.33484962555E+03  0.10100000352E+00 0. -1.
</event>
<event>
 5   0  0.1922125E-03  0.7776319E+03  0.7818609E-02  0.9592971E-01
       -4   -1    0    0    0  501  0.00000000000E+00  0.00000000000E+00  0.13902295162E+03  0.13902875234E+03  0.12699999809E+01 0. -1.
        4   -1    0    0  501    0  0.00000000000E+00  0.00000000000E+00 -0.10874018560E+04  0.10874025976E+04  0.12699999809E+01 0.  1.
    10030    2    1    2    0    0  0.00000000000E+00  0.00000000000E+00 -0.94837890436E+03  0.12264313499E+04  0.77763186013E+03 0.  0.
        2    1    3    3  502    0  0.34061987796E+02 -0.38596691342E+03 -0.52522510655E+03  0.65268069515E+03  0.25500000920E-02 0. -1.
       -2    1    3    3    0  502 -0.34061987796E+02  0.38596691342E+03 -0.42315379782E+03  0.57375065480E+03  0.25500000920E-02 0.  1.
</event>
<event>
 5   0  0.2875848E-03  0.1214756E+04  0.7818609E-02  0.9100038E-01
        1   -1    0    0  501    0  0.00000000000E+00  0.00000000000E+00  0.15375073559E+04  0.15375073559E+04  0.50400001928E-02 0. -1.
       -1   -1    0    0    0  501  0.00000000000E+00  0.00000000000E+00 -0.23993910215E+03  0.23993910221E+03  0.50400001928E-02 0.  1.
    10030    2    1    2    0    0  0.00000000000E+00  0.00000000000E+00  0.12975682537E+04  0.17774464581E+04  0.12147561641E+04 0.  0.
        1    1    3    3  502    0  0.31523654027E+03  0.26406027755E+03  0.13028355975E+04  0.13661927026E+04  0.50400001928E-02 0. -1.
       -1    1    3    3    0  502 -0.31523654027E+03 -0.26406027755E+03 -0.52673437393E+01  0.41125375553E+03  0.50400001928E-02 0.  1.
</event>
<event>
 5   0  0.5003526E-03  0.1177876E+04  0.7818609E-02  0.9132445E-01
       -2   -1    0    0    0  501  0.00000000000E+00  0.00000000000E+00  0.35468751332E+03  0.35468751333E+03  0.25500000920E-02 0.  1.
        2   -1    0    0  501    0  0.00000000000E+00  0.00000000000E+00 -0.97789777879E+03  0.97789777880E+03  0.25500000920E-02 0. -1.
    10030    2    1    2    0    0  0.00000000000E+00  0.00000000000E+00 -0.62321026547E+03  0.13325852921E+04  0.11778762778E+04 0.  0.
        2    1    3    3  502    0  0.53503458924E+02 -0.52527167114E+03 -0.60678704952E+03  0.80434039566E+03  0.25500000920E-02 0. -1.
       -2    1    3    3    0  502 -0.53503458924E+02  0.52527167114E+03 -0.16423215945E+02  0.52824489647E+03  0.25500000920E-02 0.  1.
</event>
<event>
 5   0  0.5031575E-03  0.1188179E+04  0.7818609E-02  0.9123266E-01
        2   -1    0    0  501    0  0.00000000000E+00  0.00000000000E+00  0.15565229025E+04  0.15565229025E+04  0.25500000920E-02 0.  1.
       -2   -1    0    0    0  501  0.00000000000E+00  0.00000000000E+00 -0.22675065316E+03  0.22675065318E+03  0.25500000920E-02 0. -1.
    10030    2    1    2    0    0  0.00000000000E+00  0.00000000000E+00  0.13297722493E+04  0.17832735557E+04  0.11881794222E+04 0.  0.
        5    1    3    3  502    0 -0.40168970545E+03 -0.28948577175E+03  0.17219751852E+03  0.52424298459E+03  0.46999998093E+01 0. -1.
       -5    1    3    3    0  502  0.40168970545E+03  0.28948577175E+03  0.11575747308E+04  0.12590305711E+04  0.46999998093E+01 0.  1.
</event>
<event>
 5   0  0.2792518E-03  0.1182615E+04  0.7818609E-02  0.9128211E-01
        1   -1    0    0  501    0  0.00000000000E+00  0.00000000000E+00  0.13319914034E+04  0.13319914034E+04  0.50400001928E-02 0. -1.
       -1   -1    0    0    0  501  0.00000000000E+00  0.00000000000E+00 -0.26249762179E+03  0.26249762184E+03  0.50400001928E-02 0.  1.
    10030    2    1    2    0    0  0.00000000000E+00  0.00000000000E+00  0.10694937816E+04  0.15944890252E+04  0.11826150273E+04 0.  0.
        2    1    3    3  502    0 -0.52413453753E+03  0.27326053554E+03  0.51316431597E+03  0.78276813228E+03  0.25500000920E-02 0. -1.
       -2    1    3    3    0  502  0.52413453753E+03 -0.27326053554E+03  0.55632946559E+03  0.81172089293E+03  0.25500000920E-02 0.  1.
</event>
<event>
 5   0  0.5031575E-03  0.1181215E+04  0.7818609E-02  0.9129460E-01
       -2   -1    0    0    0  501  0.00000000000E+00  0.00000000000E+00  0.22015888552E+03  0.22015888553E+03  0.25500000920E-02 0. -1.
        2   -1    0    0  501    0  0.00000000000E+00  0.00000000000E+00 -0.15843881505E+04  0.15843881505E+04  0.25500000920E-02 0.  1.
    10030    2    1    2    0    0  0.00000000000E+00  0.00000000000E+00 -0.13642292650E+04  0.18045470361E+04  0.11812148483E+04 0.  0.
        5    1    3    3  502    0 -0.55991786312E+03 -0.17701511931E+03 -0.77816184901E+03  0.97488477225E+03  0.46999998093E+01 0. -1.
       -5    1    3    3    0  502  0.55991786312E+03  0.17701511931E+03 -0.58606741601E+03  0.82966226383E+03  0.46999998093E+01 0.  1.
</event>
<event>
 5   0  0.2938349E-03  0.1232619E+04  0.7818609E-02  0.9084775E-01
       -1   -1    0    0    0  501  0.00000000000E+00  0.00000000000E+00  0.29054689351E+03  0.29054689356E+03  0.50400001928E-02 0. -1.
        1   -1    0    0  501    0  0.00000000000E+00  0.00000000000E+00 -0.13073186514E+04  0.13073186514E+04  0.50400001928E-02 0.  1.
    10030    2    1    2    0    0  0.00000000000E+00  0.00000000000E+00 -0.10167717579E+04  0.15978655449E+04  0.12326189566E+04 0.  0.
        4    1    3    3  502    0 -0.27300547217E+03  0.53789754889E+03 -0.67220471526E+03  0.90317581514E+03  0.12699999809E+01 0. -1.
       -4    1    3    3    0  502  0.27300547217E+03 -0.53789754889E+03 -0.34456704259E+03  0.69468972979E+03  0.12699999809E+01 0.  1.
</event>
<event>
 5   0  0.2926844E-03  0.1186285E+04  0.7818609E-02  0.9124946E-01
        1   -1    0    0  501    0  0.00000000000E+00  0.00000000000E+00  0.72879480596E+03  0.72879480598E+03  0.50400001928E-02 0. -1.
       -1   -1    0    0    0  501  0.00000000000E+00  0.00000000000E+00 -0.48273975997E+03  0.48273976000E+03  0.50400001928E-02 0.  1.
    10030    2    1    2    0    0  0.00000000000E+00  0.00000000000E+00  0.24605504599E+03  0.12115345660E+04  0.11862853446E+04 0.  0.
        5    1    3    3  502    0  0.46168474636E+03  0.37230998348E+03  0.11756475836E+03  0.60465782987E+03  0.46999998093E+01 0.  1.
       -5    1    3    3    0  502 -0.46168474636E+03 -0.37230998348E+03  0.12849028763E+03  0.60687673611E+03  0.46999998093E+01 0. -1.
</event>
<event>
 5   0  0.2926844E-03  0.1230674E+04  0.7818609E-02  0.9086423E-01
       -1   -1    0    0    0  501  0.00000000000E+00  0.00000000000E+00  0.41848606066E+03  0.41848606069E+03  0.50400001928E-02 0. -1.
        1   -1    0    0  501    0  0.00000000000E+00  0.00000000000E+00 -0.90478456156E+03  0.90478456158E+03  0.50400001928E-02 0.  1.
    10030    2    1    2    0    0  0.00000000000E+00  0.00000000000E+00 -0.48629850091E+03  0.13232706223E+04  0.12306741680E+04 0.  0.
        5    1    3    3  502    0 -0.53056587234E+03  0.15065933178E+03 -0.53647369254E+03  0.76943127823E+03  0.46999998093E+01 0.  1.
       -5    1    3    3    0  502  0.53056587234E+03 -0.15065933178E+03  0.50175191631E+02  0.55383934403E+03  0.46999998093E+01 0. -1.
</event>
<event>
 5   0  0.1922125E-03  0.1172025E+04  0.7818609E-02  0.9137701E-01
        3   -1    0    0  501    0  0.00000000000E+00  0.00000000000E+00  0.36124890080E+03  0.36124891492E+03  0.10100000352E+00 0. -1.
       -3   -1    0    0    0  501  0.00000000000E+00  0.00000000000E+00 -0.95062130411E+03  0.95062130948E+03  0.10100000352E+00 0.  1.
    10030    2    1    2    0    0  0.00000000000E+00  0.00000000000E+00 -0.58937240331E+03  0.13118702244E+04  0.11720254502E+04 0.  0.
        1    1    3    3  502    0 -0.13974888529E+03  0.19680787923E+02 -0.93131581047E+03  0.94194810006E+03  0.50400001928E-02 0.  1.
       -1    1    3    3    0  502  0.13974888529E+03 -0.19680787923E+02  0.34194340716E+03  0.36992212434E+03  0.50400001928E-02 0. -1.
</event>
<event>
 5   0  0.5031575E-03  0.1192652E+04  0.7818609E-02  0.9119312E-01
        2   -1    0    0  501    0  0.00000000000E+00  0.00000000000E+00  0.41431008914E+03  0.41431008915E+03  0.25500000920E-02 0. -1.
       -2   -1    0    0    0  501  0.00000000000E+00  0.00000000000E+00 -0.85830593121E+03  0.85830593121E+03  0.25500000920E-02 0.  1.
    10030    2    1    2    0    0  0.00000000000E+00  0.00000000000E+00 -0.44399584206E+03  0.12726160204E+04  0.11926521821E+04 0.  0.
        5    1    3    3  502    0 -0.25357370155E+02 -0.10098275103E+03  0.40451611669E+03  0.41772705309E+03  0.46999998093E+01 0. -1.
       -5    1    3    3    0  502  0.25357370155E+02  0.10098275103E+03 -0.84851195875E+03  0.85488896727E+03  0.46999998093E+01 0.  1.
</event>
<event>
 5   0  0.2926844E-03  0.1173612E+04  0.7818609E-02  0.9136272E-01
       -1   -1    0    0    0  501  0.00000000000E+00  0.00000000000E+00  0.38792834439E+03  0.38792834442E+03  0.50400001928E-02 0.  1.
        1   -1    0    0  501    0  0.00000000000E+00  0.00000000000E+00 -0.88764188253E+03  0.88764188254E+03  0.50400001928E-02 0. -1.
    10030    2    1    2    0    0  0.00000000000E+00  0.00000000000E+00 -0.49971353814E+03  0.12755702270E+04  0.11736122800E+04 0.  0.
        5    1    3    3  502    0  0.50380490865E+02  0.19097863614E+03  0.35069306371E+03  0.40251552548E+03  0.46999998093E+01 0.  1.
       -5    1    3    3    0  502 -0.50380490865E+02 -0.19097863614E+03 -0.85040660185E+03  0.87305470148E+03  0.46999998093E+01 0. -1.
</event>
<event>
 5   0  0.2926844E-03  0.1218161E+04  0.7818609E-02  0.9097107E-01
       -1   -1    0    0    0  501  0.00000000000E+00  0.00000000000E+00  0.29058384713E+03  0.29058384717E+03  0.50400001928E-02 0.  1.
        1   -1    0    0  501    0  0.00000000000E+00  0.00000000000E+00 -0.12766677201E+04  0.12766677201E+04  0.50400001928E-02 0. -1.
    10030    2    1    2    0    0  0.00000000000E+00  0.00000000000E+00 -0.98608387300E+03  0.15672515673E+04  0.12181609379E+04 0.  0.
        5    1    3    3  502    0 -0.34590112009E+03 -0.23199424756E+03 -0.10647896186E+04  0.11433581843E+04  0.46999998093E+01 0. -1.
       -5    1    3    3    0  502  0.34590112009E+03  0.23199424756E+03  0.78705745569E+02  0.42389338302E+03  0.46999998093E+01 0.  1.
</event>
<event>
 5   0  0.5108045E-03  0.1219140E+04  0.7818609E-02  0.9096267E-01
        2   -1    0    0  501    0  0.00000000000E+00  0.00000000000E+00  0.12538896083E+04  0.12538896083E+04  0.25500000920E-02 0.  1.
       -2   -1    0    0    0  501  0.00000000000E+00  0.00000000000E+00 -0.29633813172E+03  0.29633813174E+03  0.25500000920E-02 0. -1.
    10030    2    1    2    0    0  0.00000000000E+00  0.00000000000E+00  0.95755147656E+03  0.15502277400E+04  0.12191395391E+04 0.  0.
        3    1    3    3  502    0  0.14819119667E+03 -0.56535229658E+03  0.69898763287E+03  0.91113531988E+03  0.10100000352E+00 0.  1.
       -3    1    3    3    0  502 -0.14819119667E+03  0.56535229658E+03  0.25856384370E+03  0.63909242015E+03  0.10100000352E+00 0. -1.
</event>
<event>
 5   0  0.5467554E-03  0.1194700E+04  0.7818609E-02  0.9117509E-01
       -2   -1    0    0    0  501  0.00000000000E+00  0.00000000000E+00  0.26202702498E+03  0.26202702500E+03  0.25500000920E-02 0. -1.
        2   -1    0    0  501    0  0.00000000000E+00  0.00000000000E+00 -0.13617941774E+04  0.13617941774E+04  0.25500000920E-02 0.  1.
    10030    2    1    2    0    0  0.00000000000E+00  0.00000000000E+00 -0.10997671525E+04  0.16238212024E+04  0.11946997564E+04 0.  0.
        1    1    3    3  502    0  0.58587920152E+03  0.10589408805E+03 -0.61589701897E+03  0.85661959740E+03  0.50400001928E-02 0.  1.
       -1    1    3    3    0  502 -0.58587920152E+03 -0.10589408805E+03 -0.48387013349E+03  0.76720160504E+03  0.50400001928E-02 0. -1.
</event>
<event>
 5   0  0.5189537E-03  0.1224453E+04  0.7818609E-02  0.9091718E-01
        2   -1    0    0  501    0  0.00000000000E+00  0.00000000000E+00  0.16216632344E+04  0.16216632344E+04  0.25500000920E-02 0.  1.
       -2   -1    0    0    0  501  0.00000000000E+00  0.00000000000E+00 -0.23113404918E+03  0.23113404920E+03  0.25500000920E-02 0. -1.
    10030    2    1    2    0    0  0.00000000000E+00  0.00000000000E+00  0.13905291852E+04  0.18527972836E+04  0.12244534941E+04 0.  0.
        4    1    3    3  502    0 -0.12708484137E+03 -0.21522047783E+03  0.15409446004E+04  0.15610836894E+04  0.12699999809E+01 0.  1.
       -4    1    3    3    0  502  0.12708484137E+03  0.21522047783E+03 -0.15041541520E+03  0.29171359416E+03  0.12699999809E+01 0. -1.
</event>
<event>
 5   0  0.2792518E-03  0.1175309E+04  0.7818609E-02  0.9134747E-01
       -1   -1    0    0    0  501  0.00000000000E+00  0.00000000000E+00  0.59816655253E+03  0.59816655255E+03  0.50400001928E-02 0.  1.
        1   -1    0    0  501    0  0.00000000000E+00  0.00000000000E+00 -0.57732713808E+03  0.57732713810E+03  0.50400001928E-02 0. -1.
    10030    2    1    2    0    0  0.00000000000E+00  0.00000000000E+00  0.20839414445E+02  0.11754936907E+04  0.11753089532E+04 0.  0.
        2    1    3    3  502    0 -0.55040665207E+03 -0.94216506069E+02 -0.17267613520E+03  0.58450088138E+03  0.25500000920E-02 0.  1.
       -2    1    3    3    0  502  0.55040665207E+03  0.94216506069E+02  0.19351554964E+03  0.59099280928E+03  0.25500000920E-02 0. -1.
</event>
<event>
 5   0  0.1922125E-03  0.8732597E+03  0.7818609E-02  0.9459640E-01
       -4   -1    0    0    0  501  0.00000000000E+00  0.00000000000E+00  0.19374018081E+03  0.19374434330E+03  0.12699999809E+01 0. -1.
        4   -1    0    0  501    0  0.00000000000E+00  0.00000000000E+00 -0.98401215112E+03  0.98401297067E+03  0.12699999809E+01 0.  1.
    10030    2    1    2    0    0  0.00000000000E+00  0.00000000000E+00 -0.79027197030E+03  0.11777573140E+04  0.87325969995E+03 0.  0.
        4    1    3    3  502    0 -0.29788195223E+03 -0.20140222036E+03 -0.61086481883E+02  0.36473234433E+03  0.12699999809E+01 0. -1.
       -4    1    3    3    0  502  0.29788195223E+03  0.20140222036E+03 -0.72918548842E+03  0.81302496964E+03  0.12699999809E+01 0.  1.
</event>
<event>
 5   0  0.2938349E-03  0.1189130E+04  0.7818609E-02  0.9122425E-01
       -1   -1    0    0    0  501  0.00000000000E+00  0.00000000000E+00  0.25701182216E+03  0.25701182221E+03  0.50400001928E-02 0.  1.
        1   -1    0    0  501    0  0.00000000000E+00  0.00000000000E+00 -0.13754519209E+04  0.13754519209E+04  0.50400001928E-02 0. -1.
    10030    2    1    2    0    0  0.00000000000E+00  0.00000000000E+00 -0.11184400987E+04  0.16324637431E+04  0.11891297734E+04 0.  0.
        4    1    3    3  502    0 -0.25015691840E+03  0.49649525187E+03 -0.26988406007E+03  0.61800083959E+03  0.12699999809E+01 0.  1.
       -4    1    3    3    0  502  0.25015691840E+03 -0.49649525187E+03 -0.84855603864E+03  0.10144629035E+04  0.12699999809E+01 0. -1.
</event>
<event>
 5   0  0.5467554E-03  0.1225533E+04  0.7818609E-02  0.9090796E-01
       -2   -1    0    0    0  501  0.00000000000E+00  0.00000000000E+00  0.56509878651E+03  0.56509878652E+03  0.25500000920E-02 0. -1.
        2   -1    0    0  501    0  0.00000000000E+00  0.00000000000E+00 -0.66445554742E+03  0.66445554743E+03  0.25500000920E-02 0.  1.
    10030    2    1    2    0    0  0.00000000000E+00  0.00000000000E+00 -0.99356760906E+02  0.12295543339E+04  0.12255333917E+04 0.  0.
        1    1    3    3  502    0 -0.24853460697E+03 -0.44235945411E+03 -0.39436298151E+03  0.64263014146E+03  0.50400001928E-02 0.  1.
       -1    1    3    3    0  502  0.24853460697E+03  0.44235945411E+03  0.29500622060E+03  0.58692419248E+03  0.50400001928E-02 0. -1.
</event>
<event>
 5   0  0.1922125E-03  0.1215070E+04  0.7818609E-02  0.9099767E-01
        4   -1    0    0  501    0  0.00000000000E+00  0.00000000000E+00  0.93148886046E+03  0.93148972623E+03  0.12699999809E+01 0. -1.
       -4   -1    0    0    0  501  0.00000000000E+00  0.00000000000E+00 -0.39624369417E+03  0.39624572941E+03  0.12699999809E+01 0.  1.
    10030    2    1    2    0    0  0.00000000000E+00  0.00000000000E+00  0.53524516629E+03  0.13277354556E+04  0.12150695668E+04 0.  0.
        4    1    3    3  502    0 -0.28336365036E+02  0.46049023331E+03  0.69954950149E+03  0.83798885583E+03  0.12699999809E+01 0. -1.
       -4    1    3    3    0  502  0.28336365036E+02 -0.46049023331E+03 -0.16430433520E+03  0.48974659981E+03  0.12699999809E+01 0.  1.
</event>
<event>
 5   0  0.5003526E-03  0.1176192E+04  0.7818609E-02  0.9133955E-01
        2   -1    0    0  501    0  0.00000000000E+00  0.00000000000E+00  0.12615529851E+04  0.12615529851E+04  0.25500000920E-02 0. -1.
       -2   -1    0    0    0  501  0.00000000000E+00  0.00000000000E+00 -0.27415154705E+03  0.27415154706E+03  0.25500000920E-02 0.  1.
    10030    2    1    2    0    0  0.00000000000E+00  0.00000000000E+00  0.98740143803E+03  0.15357045321E+04  0.11761916554E+04 0.  0.
        2    1    3    3  502    0 -0.65537931446E+02  0.45656152122E+03  0.17335653629E+02  0.46156707856E+03  0.25500000920E-02 0.  1.
       -2    1    3    3    0  502  0.65537931446E+02 -0.45656152122E+03  0.97006578440E+03  0.10741374536E+04  0.25500000920E-02 0. -1.
</event>
<event>
 5   0  0.2875848E-03  0.1190320E+04  0.7818609E-02  0.9121372E-01
       -1   -1    0    0    0  501  0.00000000000E+00  0.00000000000E+00  0.14542608945E+04  0.14542608945E+04  0.50400001928E-02 0. -1.
        1   -1    0    0  501    0  0.00000000000E+00  0.00000000000E+00 -0.24357059711E+03  0.24357059716E+03  0.50400001928E-02 0.  1.
    10030    2    1    2    0    0  0.00000000000E+00  0.00000000000E+00  0.12106902974E+04  0.16978314917E+04  0.11903196117E+04 0.  0.
        1    1    3    3  502    0  0.28752868479E+03 -0.18096149880E+03  0.13023630964E+04  0.13459455574E+04  0.50400001928E-02 0. -1.
       -1    1    3    3    0  502 -0.28752868479E+03  0.18096149880E+03 -0.91672799001E+02  0.35188593426E+03  0.50400001928E-02 0.  1.
</event>
<event>
 5   0  0.2938349E-03  0.1204922E+04  0.7818609E-02  0.9108559E-01
        1   -1    0    0  501    0  0.00000000000E+00  0.00000000000E+00  0.29137525306E+03  0.29137525310E+03  0.50400001928E-02 0. -1.
       -1   -1    0    0    0  501  0.00000000000E+00  0.00000000000E+00 -0.12456756261E+04  0.12456756261E+04  0.50400001928E-02 0.  1.
    10030    2    1    2    0    0  0.00000000000E+00  0.00000000000E+00 -0.95430037307E+03  0.15370508792E+04  0.12049216586E+04 0.  0.
        4    1    3    3  502    0  0.24179007741E+03  0.48514957178E+03 -0.81253752064E+03  0.97675553947E+03  0.12699999809E+01 0.  1.
       -4    1    3    3    0  502 -0.24179007741E+03 -0.48514957178E+03 -0.14176285243E+03  0.56029533977E+03  0.12699999809E+01 0. -1.
</event>
<event>
 5   0  0.5003526E-03  0.1193384E+04  0.7818609E-02  0.9118668E-01
        2   -1    0    0  501    0  0.00000000000E+00  0.00000000000E+00  0.55723263781E+03  0.55723263781E+03  0.25500000920E-02 0.  1.
       -2   -1    0    0    0  501  0.00000000000E+00  0.00000000000E+00 -0.63894522917E+03  0.63894522917E+03  0.25500000920E-02 0. -1.
    10030    2    1    2    0    0  0.00000000000E+00  0.00000000000E+00 -0.81712591358E+02  0.11961778670E+04  0.11933836524E+04 0.  0.
        2    1    3    3  502    0 -0.19756141776E+02  0.51182905859E+03  0.26593525593E+03  0.57713157140E+03  0.25500000920E-02 0.  1.
       -2    1    3    3    0  502  0.19756141776E+02 -0.51182905859E+03 -0.34764784728E+03  0.61904629559E+03  0.25500000920E-02 0. -1.
</event>
<event>
 5   0  0.5031575E-03  0.9749493E+03  0.7818609E-02  0.9336455E-01
       -2   -1    0    0    0  501  0.00000000000E+00  0.00000000000E+00  0.41107878982E+03  0.41107878983E+03  0.25500000920E-02 0.  1.
        2   -1    0    0  501    0  0.00000000000E+00  0.00000000000E+00 -0.57806804723E+03  0.57806804724E+03  0.25500000920E-02 0. -1.
    10030    2    1    2    0    0  0.00000000000E+00  0.00000000000E+00 -0.16698925741E+03  0.98914683707E+03  0.97494925673E+03 0.  0.
        5    1    3    3  502    0 -0.30638001376E+02  0.83418378041E+02  0.40276778327E+03  0.41248186646E+03  0.46999998093E+01 0.  1.
       -5    1    3    3    0  502  0.30638001376E+02 -0.83418378041E+02 -0.56975704068E+03  0.57666497061E+03  0.46999998093E+01 0. -1.
</event>
<event>
 5   0  0.2938349E-03  0.1195056E+04  0.7818609E-02  0.9117195E-01
        1   -1    0    0  501    0  0.00000000000E+00  0.00000000000E+00  0.74315949151E+03  0.74315949153E+03  0.50400001928E-02 0. -1.
       -1   -1    0    0    0  501  0.00000000000E+00  0.00000000000E+00 -0.48043479302E+03  0.48043479305E+03  0.50400001928E-02 0.  1.
    10030    2    1    2    0    0  0.00000000000E+00  0.00000000000E+00  0.26272469849E+03  0.12235942846E+04  0.11950559426E+04 0.  0.
        4    1    3    3  502    0 -0.36207625205E+02 -0.14474850641E+03 -0.46105214448E+03  0.48459654875E+03  0.12699999809E+01 0.  1.
       -4    1    3    3    0  502  0.36207625205E+02  0.14474850641E+03  0.72377684297E+03  0.73899773582E+03  0.12699999809E+01 0. -1.
</event>
<event>
 5   0  0.2792518E-03  0.1071145E+04  0.7818609E-02  0.9233781E-01
        1   -1    0    0  501    0  0.00000000000E+00  0.00000000000E+00  0.25947915319E+03  0.25947915324E+03  0.50400001928E-02 0.  1.
       -1   -1    0    0    0  501  0.00000000000E+00  0.00000000000E+00 -0.11054378102E+04  0.11054378102E+04  0.50400001928E-02 0. -1.
    10030    2    1    2    0    0  0.00000000000E+00  0.00000000000E+00 -0.84595865699E+03  0.13649169634E+04  0.10711453065E+04 0.  0.
        2    1    3    3  502    0 -0.42033798412E+03 -0.14176986413E+03 -0.80537468094E+03  0.91946239291E+03  0.25500000920E-02 0. -1.
       -2    1    3    3    0  502  0.42033798412E+03  0.14176986413E+03 -0.40583976049E+02  0.44545457051E+03  0.25500000920E-02 0.  1.
</event>
<event>
 5   0  0.5189537E-03  0.1184687E+04  0.7818609E-02  0.9126367E-01
       -2   -1    0    0    0  501  0.00000000000E+00  0.00000000000E+00  0.34376225048E+03  0.34376225049E+03  0.25500000920E-02 0. -1.
        2   -1    0    0  501    0  0.00000000000E+00  0.00000000000E+00 -0.10206784000E+04  0.10206784000E+04  0.25500000920E-02 0.  1.
    10030    2    1    2    0    0  0.00000000000E+00  0.00000000000E+00 -0.67691614948E+03  0.13644406504E+04  0.11846868004E+04 0.  0.
        4    1    3    3  502    0 -0.11217263954E+03 -0.49116786861E+03  0.20321446265E+02  0.50422529716E+03  0.12699999809E+01 0. -1.
       -4    1    3    3    0  502  0.11217263954E+03  0.49116786861E+03 -0.69723759574E+03  0.86021535328E+03  0.12699999809E+01 0.  1.
</event>
<event>
 5   0  0.1922125E-03  0.1183528E+04  0.7818609E-02  0.9127398E-01
       -3   -1    0    0    0  501  0.00000000000E+00  0.00000000000E+00  0.48155542523E+03  0.48155543582E+03  0.10100000352E+00 0. -1.
        3   -1    0    0  501    0  0.00000000000E+00  0.00000000000E+00 -0.72719472345E+03  0.72719473047E+03  0.10100000352E+00 0.  1.
    10030    2    1    2    0    0  0.00000000000E+00  0.00000000000E+00 -0.24563929822E+03  0.12087501663E+04  0.11835279041E+04 0.  0.
        4    1    3    3  502    0  0.57923434124E+03  0.75342683446E+02 -0.21967753144E+03  0.62405830877E+03  0.12699999809E+01 0.  1.
       -4    1    3    3    0  502 -0.57923434124E+03 -0.75342683446E+02 -0.25961766779E+02  0.58469185752E+03  0.12699999809E+01 0. -1.
</event>
<event>
 5   0  0.5189537E-03  0.1193027E+04  0.7818609E-02  0.9118982E-01
       -2   -1    0    0    0  501  0.00000000000E+00  0.00000000000E+00  0.17886852707E+03  0.17886852709E+03  0.25500000920E-02 0.  1.
        2   -1    0    0  501    0  0.00000000000E+00  0.00000000000E+00 -0.19893293959E+04  0.19893293959E+04  0.25500000920E-02 0. -1.
    10030    2    1    2    0    0  0.00000000000E+00  0.00000000000E+00 -0.18104608688E+04  0.21681979230E+04  0.11930271060E+04 0.  0.
        4    1    3    3  502    0 -0.85927141055E+02  0.25501298349E+03  0.62284124091E+02  0.27621734256E+03  0.12699999809E+01 0.  1.
       -4    1    3    3    0  502  0.85927141055E+02 -0.25501298349E+03 -0.18727449929E+04  0.18919805804E+04  0.12699999809E+01 0. -1.
</event>
<event>
 5   0  0.5189537E-03  0.1187840E+04  0.7818609E-02  0.9123567E-01
        2   -1    0    0  501    0  0.00000000000E+00  0.00000000000E+00  0.11881302086E+04  0.11881302086E+04  0.25500000920E-02 0.  1.
       -2   -1    0    0    0  501  0.00000000000E+00  0.00000000000E+00 -0.29688759919E+03  0.29688759921E+03  0.25500000920E-02 0. -1.
    10030    2    1    2    0    0  0.00000000000E+00  0.00000000000E+00  0.89124260937E+03  0.14850178078E+04  0.11878402673E+04 0.  0.
        4    1    3    3  502    0 -0.55472652284E+03  0.14323095396E+02  0.18096948689E+03  0.58367648084E+03  0.12699999809E+01 0. -1.
       -4    1    3    3    0  502  0.55472652284E+03 -0.14323095396E+02  0.71027312248E+03  0.90134132693E+03  0.12699999809E+01 0.  1.
</event>
<event>
 5   0  0.5031575E-03  0.1196003E+04  0.7818609E-02  0.9116362E-01
        2   -1    0    0  501    0  0.00000000000E+00  0.00000000000E+00  0.34256265072E+03  0.34256265073E+03  0.25500000920E-02 0. -1.
       -2   -1    0    0    0  501  0.00000000000E+00  0.00000000000E+00 -0.10439140267E+04  0.10439140267E+04  0.25500000920E-02 0.  1.
    10030    2    1    2    0    0  0.00000000000E+00  0.00000000000E+00 -0.70135137600E+03  0.13864766775E+04  0.11960032711E+04 0.  0.
        5    1    3    3  502    0  0.53233209377E+02  0.58792171108E+03 -0.24010071973E+03  0.63730381966E+03  0.46999998093E+01 0. -1.
       -5    1    3    3    0  502 -0.53233209377E+02 -0.58792171108E+03 -0.46125065627E+03  0.74917285779E+03  0.46999998093E+01 0.  1.
</event>
<event>
 5   0  0.2792518E-03  0.1201934E+04  0.7818609E-02  0.9111165E-01
       -1   -1    0    0    0  501  0.00000000000E+00  0.00000000000E+00  0.10402201924E+04  0.10402201925E+04  0.50400001928E-02 0. -1.
        1   -1    0    0  501    0  0.00000000000E+00  0.00000000000E+00 -0.34719697523E+03  0.34719697526E+03  0.50400001928E-02 0.  1.
    10030    2    1    2    0    0  0.00000000000E+00  0.00000000000E+00  0.69302321722E+03  0.13874171677E+04  0.12019339490E+04 0.  0.
        2    1    3    3  502    0  0.10791192237E+03  0.36518387022E+03 -0.19016315879E+03  0.42563631075E+03  0.25500000920E-02 0.  1.
       -2    1    3    3    0  502 -0.10791192237E+03 -0.36518387022E+03  0.88318637601E+03  0.96178085697E+03  0.25500000920E-02 0. -1.
</event>
<event>
 5   0  0.2875848E-03  0.1140310E+04  0.7818609E-02  0.9166769E-01
       -1   -1    0    0    0  501  0.00000000000E+00  0.00000000000E+00  0.21096668259E+03  0.21096668265E+03  0.50400001928E-02 0.  1.
        1   -1    0    0  501    0  0.00000000000E+00  0.00000000000E+00 -0.15408923311E+04  0.15408923311E+04  0.50400001928E-02 0. -1.
    10030    2    1    2    0    0  0.00000000000E+00  0.00000000000E+00 -0.13299256485E+04  0.17518590138E+04  0.11403103847E+04 0.  0.
        1    1    3    3  502    0  0.43738027858E+03  0.26095954523E+03 -0.27125147396E+03  0.57704311320E+03  0.50400001928E-02 0.  1.
       -1    1    3    3    0  502 -0.43738027858E+03 -0.26095954523E+03 -0.10586741746E+04  0.11748159006E+04  0.50400001928E-02 0. -1.
</event>
<event>
 5   0  0.2926844E-03  0.1156538E+04  0.7818609E-02  0.9151773E-01
       -1   -1    0    0    0  501  0.00000000000E+00  0.00000000000E+00  0.16240981930E+03  0.16240981938E+03  0.50400001928E-02 0. -1.
        1   -1    0    0  501    0  0.00000000000E+00  0.00000000000E+00 -0.20589575739E+04  0.20589575739E+04  0.50400001928E-02 0.  1.
    10030    2    1    2    0    0  0.00000000000E+00  0.00000000000E+00 -0.18965477546E+04  0.22213673932E+04  0.11565378119E+04 0.  0.
        5    1    3    3  502    0  0.24829559834E+03  0.41009230501E+03 -0.32724017348E+03  0.58046069972E+03  0.46999998093E+01 0. -1.
       -5    1    3    3    0  502 -0.24829559834E+03 -0.41009230501E+03 -0.15693075811E+04  0.16409066935E+04  0.46999998093E+01 0.  1.
</event>
<event>
 5   0  0.5467554E-03  0.1207849E+04  0.7818609E-02  0.9106014E-01
       -2   -1    0    0    0  501  0.00000000000E+00  0.00000000000E+00  0.32873351357E+03  0.32873351358E+03  0.25500000920E-02 0.  1.
        2   -1    0    0  501    0  0.00000000000E+00  0.00000000000E+00 -0.11094846003E+04  0.11094846003E+04  0.25500000920E-02 0. -1.
    10030    2    1    2    0    0  0.00000000000E+00  0.00000000000E+00 -0.78075108672E+03  0.14382181139E+04  0.12078489490E+04 0.  0.
        1    1    3    3  502    0 -0.46299684271E+03  0.21025418705E+03 -0.24253649933E+01  0.50850642272E+03  0.50400001928E-02 0. -1.
       -1    1    3    3    0  502  0.46299684271E+03 -0.21025418705E+03 -0.77832572172E+03  0.92971169114E+03  0.50400001928E-02 0.  1.
</event>
<event>
 5   0  0.1922125E-03  0.1204856E+04  0.7818609E-02  0.9108616E-01
       -4   -1    0    0    0  501  0.00000000000E+00  0.00000000000E+00  0.10849246219E+04  0.10849253652E+04  0.12699999809E+01 0.  1.
        4   -1    0    0  501    0  0.00000000000E+00  0.00000000000E+00 -0.33450941002E+03  0.33451182085E+03  0.12699999809E+01 0. -1.
    10030    2    1    2    0    0  0.00000000000E+00  0.00000000000E+00  0.75041521187E+03  0.14194371861E+04  0.12048563960E+04 0.  0.
        4    1    3    3  502    0 -0.49514265342E+02  0.41220014198E+03 -0.13906562140E+03  0.43783727511E+03  0.12699999809E+01 0. -1.
       -4    1    3    3    0  502  0.49514265342E+02 -0.41220014198E+03  0.88948083328E+03  0.98159991095E+03  0.12699999809E+01 0.  1.
</event>
<event>
 5   0  0.5189537E-03  0.1114129E+04  0.7818609E-02  0.9191529E-01
       -2   -1    0    0    0  501  0.00000000000E+00  0.00000000000E+00  0.19329559426E+03  0.19329559428E+03  0.25500000920E-02 0. -1.
        2   -1    0    0  501    0  0.00000000000E+00  0.00000000000E+00 -0.16054208408E+04  0.16054208408E+04  0.25500000920E-02 0.  1.
    10030    2    1    2    0    0  0.00000000000E+00  0.00000000000E+00 -0.14121252465E+04  0.17987164351E+04  0.11141288534E+04 0.  0.
        4    1    3    3  502    0 -0.23828383350E+03  0.42461917197E+03 -0.26914746866E+03  0.55634755261E+03  0.12699999809E+01 0. -1.
       -4    1    3    3    0  502  0.23828383350E+03 -0.42461917197E+03 -0.11429777779E+04  0.12423688825E+04  0.12699999809E+01 0.  1.
</event>
<event>
 5   0  0.2926844E-03  0.1132169E+04  0.7818609E-02  0.9174392E-01
       -1   -1    0    0    0  501  0.00000000000E+00  0.00000000000E+00  0.13680607113E+03  0.13680607122E+03  0.50400001928E-02 0. -1.
        1   -1    0    0  501    0  0.00000000000E+00  0.00000000000E+00 -0.23423808839E+04  0.23423808839E+04  0.50400001928E-02 0.  1.
    10030    2    1    2    0    0  0.00000000000E+00  0.00000000000E+00 -0.22055748128E+04  0.24791869551E+04  0.11321694678E+04 0.  0.
        5    1    3    3  502    0  0.34824907239E+03  0.13337057663E+03 -0.20353419252E+04  0.20692278680E+04  0.46999998093E+01 0.  1.
       -5    1    3    3    0  502 -0.34824907239E+03 -0.13337057663E+03 -0.17023288756E+03  0.40995908715E+03  0.46999998093E+01 0. -1.
</event>
<event>
 5   0  0.2875848E-03  0.1228703E+04  0.7818609E-02  0.9088098E-01
       -1   -1    0    0    0  501  0.00000000000E+00  0.00000000000E+00  0.38679021916E+03  0.38679021919E+03  0.50400001928E-02 0. -1.
        1   -1    0    0  501    0  0.00000000000E+00  0.00000000000E+00 -0.97579407789E+03  0.97579407790E+03  0.50400001928E-02 0.  1.
    10030    2    1    2    0    0  0.00000000000E+00  0.00000000000E+00 -0.58900385873E+03  0.13625842971E+04  0.12287027391E+04 0.  0.
        1    1    3    3  502    0  0.52203167903E+03 -0.13827107885E+03  0.30315285668E+02  0.54088351955E+03  0.50400001928E-02 0. -1.
       -1    1    3    3    0  502 -0.52203167903E+03  0.13827107885E+03 -0.61931914440E+03  0.82170077753E+03  0.50400001928E-02 0.  1.
</event>
<event>
 5   0  0.2792518E-03  0.1190971E+04  0.7818609E-02  0.9120797E-01
       -1   -1    0    0    0  501  0.00000000000E+00  0.00000000000E+00  0.21477194581E+04  0.21477194581E+04  0.50400001928E-02 0. -1.
        1   -1    0    0  501    0  0.00000000000E+00  0.00000000000E+00 -0.16510666512E+03  0.16510666520E+03  0.50400001928E-02 0.  1.
    10030    2    1    2    0    0  0.00000000000E+00  0.00000000000E+00  0.19826127930E+04  0.23128261233E+04  0.11909706923E+04 0.  0.
        2    1    3    3  502    0  0.35297997226E+03 -0.13316784064E+03  0.18860334732E+04  0.19233956422E+04  0.25500000920E-02 0.  1.
       -2    1    3    3    0  502 -0.35297997226E+03  0.13316784064E+03  0.96579319845E+02  0.38943048112E+03  0.25500000920E-02 0. -1.
</event>
<event>
 5   0  0.2792518E-03  0.1170834E+04  0.7818609E-02  0.9138776E-01
       -1   -1    0    0    0  501  0.00000000000E+00  0.00000000000E+00  0.78334953805E+03  0.78334953806E+03  0.50400001928E-02 0. -1.
        1   -1    0    0  501    0  0.00000000000E+00  0.00000000000E+00 -0.43749698282E+03  0.43749698285E+03  0.50400001928E-02 0.  1.
    10030    2    1    2    0    0  0.00000000000E+00  0.00000000000E+00  0.34585255522E+03  0.12208465209E+04  0.11708339924E+04 0.  0.
        2    1    3    3  502    0  0.51570118185E+03  0.16982688452E+03 -0.55340701533E+02  0.54575770532E+03  0.25500000920E-02 0.  1.
       -2    1    3    3    0  502 -0.51570118185E+03 -0.16982688452E+03  0.40119325676E+03  0.67508881559E+03  0.25500000920E-02 0. -1.
</event>
<event>
 5   0  0.2926844E-03  0.1210170E+04  0.7818609E-02  0.9104001E-01
       -1   -1    0    0    0  501  0.00000000000E+00  0.00000000000E+00  0.61798265000E+03  0.61798265002E+03  0.50400001928E-02 0.  1.
        1   -1    0    0  501    0  0.00000000000E+00  0.00000000000E+00 -0.59245689681E+03  0.59245689683E+03  0.50400001928E-02 0. -1.
    10030    2    1    2    0    0  0.00000000000E+00  0.00000000000E+00  0.25525753193E+02  0.12104395469E+04  0.12101703733E+04 0.  0.
        5    1    3    3  502    0  0.14850875186E+03 -0.40887142706E+03 -0.40789612071E+03  0.59634891509E+03  0.46999998093E+01 0. -1.
       -5    1    3    3    0  502 -0.14850875186E+03  0.40887142706E+03  0.43342187390E+03  0.61409063176E+03  0.46999998093E+01 0.  1.
</event>
<event>
 5   0  0.5467554E-03  0.1202032E+04  0.7818609E-02  0.9111080E-01
        2   -1    0    0  501    0  0.00000000000E+00  0.00000000000E+00  0.91812895139E+03  0.91812895140E+03  0.25500000920E-02 0.  1.
       -2   -1    0    0    0  501  0.00000000000E+00  0.00000000000E+00 -0.39343052936E+03  0.39343052937E+03  0.25500000920E-02 0. -1.
    10030    2    1    2    0    0  0.00000000000E+00  0.00000000000E+00  0.52469842203E+03  0.13115594808E+04  0.12020315460E+04 0.  0.
        1    1    3    3  502    0 -0.47554653964E+03  0.24880204230E+03 -0.32804013152E+02  0.53770165605E+03  0.50400001928E-02 0. -1.
       -1    1    3    3    0  502  0.47554653964E+03 -0.24880204230E+03  0.55750243518E+03  0.77385782472E+03  0.50400001928E-02 0.  1.
</event>
<event>
 5   0  0.2938349E-03  0.1198356E+04  0.7818609E-02  0.9114297E-01
       -1   -1    0    0    0  501  0.00000000000E+00  0.00000000000E+00  0.68007097408E+03  0.68007097410E+03  0.50400001928E-02 0. -1.
        1   -1    0    0  501    0  0.00000000000E+00  0.00000000000E+00 -0.52790690815E+03  0.52790690818E+03  0.50400001928E-02 0.  1.
    10030    2    1    2    0    0  0.00000000000E+00  0.00000000000E+00  0.15216406593E+03  0.12079778823E+04  0.11983558157E+04 0.  0.
        4    1    3    3  502    0  0.32891778549E+03 -0.49983363156E+03  0.44333371121E+02  0.59998969120E+03  0.12699999809E+01 0. -1.
       -4    1    3    3    0  502 -0.32891778549E+03  0.49983363156E+03  0.10783069481E+03  0.60798819108E+03  0.12699999809E+01 0.  1.
</event>
<event>
 5   0  0.2875848E-03  0.1204640E+04  0.7818609E-02  0.9108805E-01
        1   -1    0    0  501    0  0.00000000000E+00  0.00000000000E+00  0.68375718002E+03  0.68375718004E+03  0.50400001928E-02 0.  1.
       -1   -1    0    0    0  501  0.00000000000E+00  0.00000000000E+00 -0.53058211823E+03  0.53058211826E+03  0.50400001928E-02 0. -1.
    10030    2    1    2    0    0  0.00000000000E+00  0.00000000000E+00  0.15317506179E+03  0.12143392983E+04  0.12046399179E+04 0.  0.
        1    1    3    3  502    0 -0.81320899425E+02 -0.44470876131E+03 -0.32462509603E+03  0.55656124917E+03  0.50400001928E-02 0. -1.
       -1    1    3    3    0  502  0.81320899425E+02  0.44470876131E+03  0.47780015782E+03  0.65777804913E+03  0.50400001928E-02 0.  1.
</event>
<event>
 5   0  0.5189537E-03  0.1206242E+04  0.7818609E-02  0.9107410E-01
        2   -1    0    0  501    0  0.00000000000E+00  0.00000000000E+00  0.10416613818E+04  0.10416613818E+04  0.25500000920E-02 0.  1.
       -2   -1    0    0    0  501  0.00000000000E+00  0.00000000000E+00 -0.34920657754E+03  0.34920657755E+03  0.25500000920E-02 0. -1.
    10030    2    1    2    0    0  0.00000000000E+00  0.00000000000E+00  0.69245480426E+03  0.13908679594E+04  0.12062421085E+04 0.  0.
        4    1    3    3  502    0 -0.55022401449E+03 -0.17231524548E+03  0.55027117665E+03  0.79701881452E+03  0.12699999809E+01 0.  1.
       -4    1    3    3    0  502  0.55022401449E+03  0.17231524548E+03  0.14218362762E+03  0.59384914483E+03  0.12699999809E+01 0. -1.
</event>
<event>
 5   0  0.2926844E-03  0.1189805E+04  0.7818609E-02  0.9121828E-01
        1   -1    0    0  501    0  0.00000000000E+00  0.00000000000E+00  0.51285584176E+03  0.51285584178E+03  0.50400001928E-02 0. -1.
       -1   -1    0    0    0  501  0.00000000000E+00  0.00000000000E+00 -0.69007458117E+03  0.69007458119E+03  0.50400001928E-02 0.  1.
    10030    2    1    2    0    0  0.00000000000E+00  0.00000000000E+00 -0.17721873941E+03  0.12029304230E+04  0.11898046566E+04 0.  0.
        5    1    3    3  502    0 -0.53022845781E+03 -0.26740859704E+03 -0.12417003512E+03  0.60670409827E+03  0.46999998093E+01 0.  1.
       -5    1    3    3    0  502  0.53022845781E+03  0.26740859704E+03 -0.53048704298E+02  0.59622632470E+03  0.46999998093E+01 0. -1.
</event>
<event>
 5   0  0.2926844E-03  0.1252118E+04  0.7818609E-02  0.9068423E-01
       -1   -1    0    0    0  501  0.00000000000E+00  0.00000000000E+00  0.44648628183E+03  0.44648628186E+03  0.50400001928E-02 0. -1.
        1   -1    0    0  501    0  0.00000000000E+00  0.00000000000E+00 -0.87785368415E+03  0.87785368417E+03  0.50400001928E-02 0.  1.
    10030    2    1    2    0    0  0.00000000000E+00  0.00000000000E+00 -0.43136740232E+03  0.13243399660E+04  0.12521176102E+04 0.  0.
        5    1    3    3  502    0 -0.31023137212E+03  0.41239608514E+03 -0.59054665572E+03  0.78427130373E+03  0.46999998093E+01 0.  1.
       -5    1    3    3    0  502  0.31023137212E+03 -0.41239608514E+03  0.15917925340E+03  0.54006866230E+03  0.46999998093E+01 0. -1.
</event>
<event>
 5   0  0.2792518E-03  0.1183783E+04  0.7818609E-02  0.9127171E-01
        1   -1    0    0  501    0  0.00000000000E+00  0.00000000000E+00  0.32273286418E+04  0.32273286418E+04  0.50400001928E-02 0.  1.
       -1   -1    0    0    0  501  0.00000000000E+00  0.00000000000E+00 -0.10855283839E+03  0.10855283850E+03  0.50400001928E-02 0. -1.
    10030    2    1    2    0    0  0.00000000000E+00  0.00000000000E+00  0.31187758034E+04  0.33358814803E+04  0.11837832313E+04 0.  0.
        2    1    3    3  502    0 -0.29360746147E+03  0.15456782392E+03  0.17817602935E+03  0.37662083196E+03  0.25500000920E-02 0. -1.
       -2    1    3    3    0  502  0.29360746147E+03 -0.15456782392E+03  0.29405997741E+04  0.29592606484E+04  0.25500000920E-02 0.  1.
</event>
<event>
 5   0  0.5467554E-03  0.1182745E+04  0.7818609E-02  0.9128096E-01
        2   -1    0    0  501    0  0.00000000000E+00  0.00000000000E+00  0.24262808251E+04  0.24262808251E+04  0.25500000920E-02 0.  1.
       -2   -1    0    0    0  501  0.00000000000E+00  0.00000000000E+00 -0.14413877717E+03  0.14413877719E+03  0.25500000920E-02 0. -1.
    10030    2    1    2    0    0  0.00000000000E+00  0.00000000000E+00  0.22821420479E+04  0.25704196023E+04  0.11827445222E+04 0.  0.
        1    1    3    3  502    0  0.30489735711E+03  0.18261068253E+03  0.21682980009E+04  0.21972312761E+04  0.50400001928E-02 0.  1.
       -1    1    3    3    0  502 -0.30489735711E+03 -0.18261068253E+03  0.11384404698E+03  0.37318832619E+03  0.50400001928E-02 0. -1.
</event>
<event>
 5   0  0.2938349E-03  0.1155125E+04  0.7818609E-02  0.9153069E-01
        1   -1    0    0  501    0  0.00000000000E+00  0.00000000000E+00  0.12498623615E+04  0.12498623615E+04  0.50400001928E-02 0.  1.
       -1   -1    0    0    0  501  0.00000000000E+00  0.00000000000E+00 -0.26689209949E+03  0.26689209954E+03  0.50400001928E-02 0. -1.
    10030    2    1    2    0    0  0.00000000000E+00  0.00000000000E+00  0.98297026204E+03  0.15167544611E+04  0.11551249106E+04 0.  0.
        4    1    3    3  502    0  0.75059505407E+01 -0.24961625225E+03 -0.19233347519E+03  0.31521166105E+03  0.12699999809E+01 0. -1.
       -4    1    3    3    0  502 -0.75059505407E+01  0.24961625225E+03  0.11753037372E+04  0.12015428000E+04  0.12699999809E+01 0.  1.
</event>
<event>
 5   0  0.5467554E-03  0.1179005E+04  0.7818609E-02  0.9131434E-01
        2   -1    0    0  501    0  0.00000000000E+00  0.00000000000E+00  0.74322116380E+03  0.74322116381E+03  0.25500000920E-02 0. -1.
       -2   -1    0    0    0  501  0.00000000000E+00  0.00000000000E+00 -0.46757734753E+03  0.46757734754E+03  0.25500000920E-02 0.  1.
    10030    2    1    2    0    0  0.00000000000E+00  0.00000000000E+00  0.27564381627E+03  0.12107985113E+04  0.11790053103E+04 0.  0.
        1    1    3    3  502    0  0.50353145738E+03 -0.40374932163E+02 -0.17424624111E+03  0.53435551488E+03  0.50400001928E-02 0.  1.
       -1    1    3    3    0  502 -0.50353145738E+03  0.40374932163E+02  0.44989005738E+03  0.67644299647E+03  0.50400001928E-02 0. -1.
</event>
<event>
 5   0  0.5108045E-03  0.1212180E+04  0.7818609E-02  0.9102262E-01
       -2   -1    0    0    0  501  0.00000000000E+00  0.00000000000E+00  0.48245654031E+03  0.48245654031E+03  0.25500000920E-02 0. -1.
        2   -1    0    0  501    0  0.00000000000E+00  0.00000000000E+00 -0.76140531386E+03  0.76140531386E+03  0.25500000920E-02 0.  1.
    10030    2    1    2    0    0  0.00000000000E+00  0.00000000000E+00 -0.27894877355E+03  0.12438618542E+04  0.12121798109E+04 0.  0.
        3    1    3    3  502    0  0.41612905483E+03  0.54173761041E+02 -0.58822201373E+03  0.72256718324E+03  0.10100000352E+00 0.  1.
       -3    1    3    3    0  502 -0.41612905483E+03 -0.54173761041E+02  0.30927324018E+03  0.52129467094E+03  0.10100000352E+00 0. -1.
</event>
<event>
 5   0  0.5108045E-03  0.1142449E+04  0.7818609E-02  0.9164778E-01
       -2   -1    0    0    0  501  0.00000000000E+00  0.00000000000E+00  0.32344409239E+03  0.32344409240E+03  0.25500000920E-02 0.  1.
        2   -1    0    0  501    0  0.00000000000E+00  0.00000000000E+00 -0.10088211569E+04  0.10088211569E+04  0.25500000920E-02 0. -1.
    10030    2    1    2    0    0  0.00000000000E+00  0.00000000000E+00 -0.68537706455E+03  0.13322652493E+04  0.11424486745E+04 0.  0.
        3    1    3    3  502    0  0.29542116836E+03 -0.13956053318E+03 -0.88909670405E+03  0.94722952260E+03  0.10100000352E+00 0. -1.
       -3    1    3    3    0  502 -0.29542116836E+03  0.13956053318E+03  0.20371963950E+03  0.38503572673E+03  0.10100000352E+00 0.  1.
</event>
<event>
 5   0  0.2875848E-03  0.1173031E+04  0.7818609E-02  0.9136795E-01
       -1   -1    0    0    0  501  0.00000000000E+00  0.00000000000E+00  0.76200435087E+03  0.76200435089E+03  0.50400001928E-02 0.  1.
        1   -1    0    0  501    0  0.00000000000E+00  0.00000000000E+00 -0.45144173616E+03  0.45144173619E+03  0.50400001928E-02 0. -1.
    10030    2    1    2    0    0  0.00000000000E+00  0.00000000000E+00  0.31056261471E+03  0.12134460871E+04  0.11730312309E+04 0.  0.
        1    1    3    3  502    0  0.14520342630E+03  0.23568471084E+03 -0.37961135323E+03  0.46982560324E+03  0.50400001928E-02 0. -1.
       -1    1    3    3    0  502 -0.14520342630E+03 -0.23568471084E+03  0.69017396795E+03  0.74362048384E+03  0.50400001928E-02 0.  1.
</event>
<event>
 5   0  0.2926844E-03  0.1190924E+04  0.7818609E-02  0.9120838E-01
       -1   -1    0    0    0  501  0.00000000000E+00  0.00000000000E+00  0.52823120941E+03  0.52823120943E+03  0.50400001928E-02 0. -1.
        1   -1    0    0  501    0  0.00000000000E+00  0.00000000000E+00 -0.67124953819E+03  0.67124953820E+03  0.50400001928E-02 0.  1.
    10030    2    1    2    0    0  0.00000000000E+00  0.00000000000E+00 -0.14301832878E+03  0.11994807476E+04  0.11909239361E+04 0.  0.
        5    1    3    3  502    0 -0.27198843879E+03  0.52629226071E+03 -0.11148515946E+02  0.59254336038E+03  0.46999998093E+01 0.  1.
       -5    1    3    3    0  502  0.27198843879E+03 -0.52629226071E+03 -0.13186981283E+03  0.60693738726E+03  0.46999998093E+01 0. -1.
</event>
<event>
 5   0  0.5108045E-03  0.1202151E+04  0.7818609E-02  0.9110976E-01
       -2   -1    0    0    0  501  0.00000000000E+00  0.00000000000E+00  0.30459604857E+03  0.30459604858E+03  0.25500000920E-02 0. -1.
        2   -1    0    0  501    0  0.00000000000E+00  0.00000000000E+00 -0.11861341469E+04  0.11861341469E+04  0.25500000920E-02 0.  1.
    10030    2    1    2    0    0  0.00000000000E+00  0.00000000000E+00 -0.88153809835E+03  0.14907301955E+04  0.12021510292E+04 0.  0.
        3    1    3    3  502    0 -0.34725589049E+03  0.14514131273E+02  0.16735551385E+03  0.38575275981E+03  0.10100000352E+00 0. -1.
       -3    1    3    3    0  502  0.34725589049E+03 -0.14514131273E+02 -0.10488936122E+04  0.11049774357E+04  0.10100000352E+00 0.  1.
</event>
<event>
 5   0  0.2926844E-03  0.1092978E+04  0.7818609E-02  0.9212063E-01
       -1   -1    0    0    0  501  0.00000000000E+00  0.00000000000E+00  0.33749657332E+03  0.33749657336E+03  0.50400001928E-02 0. -1.
        1   -1    0    0  501    0  0.00000000000E+00  0.00000000000E+00 -0.88489835838E+03  0.88489835840E+03  0.50400001928E-02 0.  1.
    10030    2    1    2    0    0  0.00000000000E+00  0.00000000000E+00 -0.54740178506E+03  0.12223949318E+04  0.10929778840E+04 0.  0.
        5    1    3    3  502    0 -0.32838095541E+03 -0.35329900012E+03 -0.56096809324E+03  0.73983885204E+03  0.46999998093E+01 0.  1.
       -5    1    3    3    0  502  0.32838095541E+03  0.35329900012E+03  0.13566308175E+02  0.48255607972E+03  0.46999998093E+01 0. -1.
</event>
<event>
 5   0  0.5003526E-03  0.1213267E+04  0.7818609E-02  0.9101322E-01
       -2   -1    0    0    0  501  0.00000000000E+00  0.00000000000E+00  0.29729759332E+03  0.29729759333E+03  0.25500000920E-02 0.  1.
        2   -1    0    0  501    0  0.00000000000E+00  0.00000000000E+00 -0.12378313020E+04  0.12378313020E+04  0.25500000920E-02 0. -1.
    10030    2    1    2    0    0  0.00000000000E+00  0.00000000000E+00 -0.94053370866E+03  0.15351288953E+04  0.12132671050E+04 0.  0.
        2    1    3    3  502    0  0.10437386164E+03 -0.41371401776E+03  0.75349991788E+02  0.43327913953E+03  0.25500000920E-02 0.  1.
       -2    1    3    3    0  502 -0.10437386164E+03  0.41371401776E+03 -0.10158837004E+04  0.11018497558E+04  0.25500000920E-02 0. -1.
</event>
<event>
 5   0  0.2930868E-03  0.1187263E+04  0.7818609E-02  0.9124079E-01
       -1   -1    0    0    0  501  0.00000000000E+00  0.00000000000E+00  0.20849776497E+03  0.20849776503E+03  0.50400001928E-02 0. -1.
        1   -1    0    0  501    0  0.00000000000E+00  0.00000000000E+00 -0.16901788023E+04  0.16901788023E+04  0.50400001928E-02 0.  1.
    10030    2    1    2    0    0  0.00000000000E+00  0.00000000000E+00 -0.14816810374E+04  0.18986765674E+04  0.11872632442E+04 0.  0.
        3    1    3    3  502    0 -0.47490803895E+03  0.22162999595E+03 -0.11867318268E+04  0.12973010212E+04  0.10100000352E+00 0.  1.
       -3    1    3    3    0  502  0.47490803895E+03 -0.22162999595E+03 -0.29494921055E+03  0.60137554620E+03  0.10100000352E+00 0. -1.
</event>
<event>
 5   0  0.2875848E-03  0.1204646E+04  0.7818609E-02  0.9108800E-01
       -1   -1    0    0    0  501  0.00000000000E+00  0.00000000000E+00  0.15650683985E+03  0.15650683994E+03  0.50400001928E-02 0. -1.
        1   -1    0    0  501    0  0.00000000000E+00  0.00000000000E+00 -0.23180643526E+04  0.23180643526E+04  0.50400001928E-02 0.  1.
    10030    2    1    2    0    0  0.00000000000E+00  0.00000000000E+00 -0.21615575128E+04  0.24745711926E+04  0.12046458841E+04 0.  0.
        1    1    3    3  502    0 -0.55217569310E+03  0.20526423732E+03 -0.82288570181E+03  0.10120139729E+04  0.50400001928E-02 0. -1.
       -1    1    3    3    0  502  0.55217569310E+03 -0.20526423732E+03 -0.13386718110E+04  0.14625572196E+04  0.50400001928E-02 0.  1.
</event>
<event>
 5   0  0.2938349E-03  0.1277778E+04  0.7818609E-02  0.9047376E-01
        1   -1    0    0  501    0  0.00000000000E+00  0.00000000000E+00  0.11473090370E+04  0.11473090370E+04  0.50400001928E-02 0. -1.
       -1   -1    0    0    0  501  0.00000000000E+00  0.00000000000E+00 -0.35577079578E+03  0.35577079582E+03  0.50400001928E-02 0.  1.
    10030    2    1    2    0    0  0.00000000000E+00  0.00000000000E+00  0.79153824120E+03  0.15030798328E+04  0.12777778354E+04 0.  0.
        4    1    3    3  502    0  0.98731066449E+02  0.22288137138E+03 -0.29891278844E+03  0.38571284291E+03  0.12699999809E+01 0.  1.
       -4    1    3    3    0  502 -0.98731066449E+02 -0.22288137138E+03  0.10904510296E+04  0.11173669899E+04  0.12699999809E+01 0. -1.
</event>
<event>
 5   0  0.5189537E-03  0.1199878E+04  0.7818609E-02  0.9112964E-01
        2   -1    0    0  501    0  0.00000000000E+00  0.00000000000E+00  0.11988656612E+04  0.11988656612E+04  0.25500000920E-02 0.  1.
       -2   -1    0    0    0  501  0.00000000000E+00  0.00000000000E+00 -0.30022256359E+03  0.30022256360E+03  0.25500000920E-02 0. -1.
    10030    2    1    2    0    0  0.00000000000E+00  0.00000000000E+00  0.89864309762E+03  0.14990882248E+04  0.11998775308E+04 0.  0.
        4    1    3    3  502    0 -0.11644714738E+03 -0.27960517770E+03 -0.19768437261E+03  0.36169008503E+03  0.12699999809E+01 0. -1.
       -4    1    3    3    0  502  0.11644714738E+03  0.27960517770E+03  0.10963274702E+04  0.11373981398E+04  0.12699999809E+01 0.  1.
</event>
<event>
 5   0  0.2930868E-03  0.1197667E+04  0.7818609E-02  0.9114901E-01
       -1   -1    0    0    0  501  0.00000000000E+00  0.00000000000E+00  0.48224658957E+03  0.48224658960E+03  0.50400001928E-02 0.  1.
        1   -1    0    0  501    0  0.00000000000E+00  0.00000000000E+00 -0.74360627674E+03  0.74360627676E+03  0.50400001928E-02 0. -1.
    10030    2    1    2    0    0  0.00000000000E+00  0.00000000000E+00 -0.26135968717E+03  0.12258528664E+04  0.11976670505E+04 0.  0.
        3    1    3    3  502    0 -0.55388179628E+03  0.19129860523E+03 -0.44013880621E+01  0.58600305719E+03  0.10100000352E+00 0.  1.
       -3    1    3    3    0  502  0.55388179628E+03 -0.19129860523E+03 -0.25695829911E+03  0.63984980917E+03  0.10100000352E+00 0. -1.
</event>
<event>
 5   0  0.2926844E-03  0.1201090E+04  0.7818609E-02  0.9111903E-01
        1   -1    0    0  501    0  0.00000000000E+00  0.00000000000E+00  0.56680353853E+03  0.56680353855E+03  0.50400001928E-02 0. -1.
       -1   -1    0    0    0  501  0.00000000000E+00  0.00000000000E+00 -0.63629540539E+03  0.63629540541E+03  0.50400001928E-02 0.  1.
    10030    2    1    2    0    0  0.00000000000E+00  0.00000000000E+00 -0.69491866869E+02  0.12030989440E+04  0.12010903169E+04 0.  0.
        5    1    3    3  502    0  0.14586724387E+03 -0.35157776197E+03  0.43051789752E+03  0.57467549594E+03  0.46999998093E+01 0. -1.
       -5    1    3    3    0  502 -0.14586724387E+03  0.35157776197E+03 -0.50000976439E+03  0.62842344803E+03  0.46999998093E+01 0.  1.
</event>
<event>
 5   0  0.2938349E-03  0.1171609E+04  0.7818609E-02  0.9138077E-01
        1   -1    0    0  501    0  0.00000000000E+00  0.00000000000E+00  0.54148128708E+03  0.54148128710E+03  0.50400001928E-02 0.  1.
       -1   -1    0    0    0  501  0.00000000000E+00  0.00000000000E+00 -0.63375557766E+03  0.63375557768E+03  0.50400001928E-02 0. -1.
    10030    2    1    2    0    0  0.00000000000E+00  0.00000000000E+00 -0.92274290583E+02  0.11752368648E+04  0.11716087844E+04 0.  0.
        4    1    3    3  502    0  0.36612920556E+02 -0.37032758598E+02 -0.63142771085E+03  0.63357280409E+03  0.12699999809E+01 0. -1.
       -4    1    3    3    0  502 -0.36612920556E+02  0.37032758598E+02  0.53915342027E+03  0.54166406069E+03  0.12699999809E+01 0.  1.
</event>
<event>
 5   0  0.5003526E-03  0.1201221E+04  0.7818609E-02  0.9111788E-01
       -2   -1    0    0    0  501  0.00000000000E+00  0.00000000000E+00  0.21124302785E+03  0.21124302787E+03  0.25500000920E-02 0. -1.
        2   -1    0    0  501    0  0.00000000000E+00  0.00000000000E+00 -0.17076694386E+04  0.17076694386E+04  0.25500000920E-02 0.  1.
    10030    2    1    2    0    0  0.00000000000E+00  0.00000000000E+00 -0.14964264108E+04  0.19189124665E+04  0.12012214830E+04 0.  0.
        2    1    3    3  502    0  0.24889533104E+03  0.52332656243E+03 -0.10003586157E+04  0.11560869071E+04  0.25500000920E-02 0.  1.
       -2    1    3    3    0  502 -0.24889533104E+03 -0.52332656243E+03 -0.49606779506E+03  0.76282555939E+03  0.25500000920E-02 0. -1.
</event>
<event>
 5   0  0.5189537E-03  0.1208616E+04  0.7818609E-02  0.9105348E-01
        2   -1    0    0  501    0  0.00000000000E+00  0.00000000000E+00  0.16974286561E+04  0.16974286561E+04  0.25500000920E-02 0. -1.
       -2   -1    0    0    0  501  0.00000000000E+00  0.00000000000E+00 -0.21514190468E+03  0.21514190470E+03  0.25500000920E-02 0.  1.
    10030    2    1    2    0    0  0.00000000000E+00  0.00000000000E+00  0.14822867514E+04  0.19125705608E+04  0.12086157936E+04 0.  0.
        4    1    3    3  502    0 -0.15540372580E+03 -0.48159679368E+03  0.12638317419E+04  0.13613809439E+04  0.12699999809E+01 0. -1.
       -4    1    3    3    0  502  0.15540372580E+03  0.48159679368E+03  0.21845500947E+03  0.55118961686E+03  0.12699999809E+01 0.  1.
</event>
<event>
 5   0  0.5189537E-03  0.1247291E+04  0.7818609E-02  0.9072441E-01
        2   -1    0    0  501    0  0.00000000000E+00  0.00000000000E+00  0.77526136563E+03  0.77526136563E+03  0.25500000920E-02 0. -1.
       -2   -1    0    0    0  501  0.00000000000E+00  0.00000000000E+00 -0.50168053758E+03  0.50168053759E+03  0.25500000920E-02 0.  1.
    10030    2    1    2    0    0  0.00000000000E+00  0.00000000000E+00  0.27358082804E+03  0.12769419032E+04  0.12472907258E+04 0.  0.
        4    1    3    3  502    0 -0.22622054810E+03 -0.27888289945E+03  0.65879443421E+03  0.75030868810E+03  0.12699999809E+01 0. -1.
       -4    1    3    3    0  502  0.22622054810E+03  0.27888289945E+03 -0.38521360617E+03  0.52663321512E+03  0.12699999809E+01 0.  1.
</event>
<event>
 5   0  0.2938349E-03  0.1075328E+04  0.7818609E-02  0.9229578E-01
        1   -1    0    0  501    0  0.00000000000E+00  0.00000000000E+00  0.34665206241E+03  0.34665206244E+03  0.50400001928E-02 0. -1.
       -1   -1    0    0    0  501  0.00000000000E+00  0.00000000000E+00 -0.83392680828E+03  0.83392680830E+03  0.50400001928E-02 0.  1.
    10030    2    1    2    0    0  0.00000000000E+00  0.00000000000E+00 -0.48727474588E+03  0.11805788707E+04  0.10753277603E+04 0.  0.
        4    1    3    3  502    0  0.21411921587E+03  0.96661528788E+02 -0.77459552884E+03  0.80943828421E+03  0.12699999809E+01 0.  1.
       -4    1    3    3    0  502 -0.21411921587E+03 -0.96661528788E+02  0.28732078296E+03  0.37114058653E+03  0.12699999809E+01 0. -1.
</event>
<event>
 5   0  0.5003526E-03  0.1208339E+04  0.7818609E-02  0.9105588E-01
       -2   -1    0    0    0  501  0.00000000000E+00  0.00000000000E+00  0.56106216696E+03  0.56106216697E+03  0.25500000920E-02 0. -1.
        2   -1    0    0  501    0  0.00000000000E+00  0.00000000000E+00 -0.65058916759E+03  0.65058916760E+03  0.25500000920E-02 0.  1.
    10030    2    1    2    0    0  0.00000000000E+00  0.00000000000E+00 -0.89527000631E+02  0.12116513346E+04  0.12083393036E+04 0.  0.
        2    1    3    3  502    0  0.32064305097E+03 -0.13354647165E+03  0.45093381368E+03  0.56919937680E+03  0.25500000920E-02 0.  1.
       -2    1    3    3    0  502 -0.32064305097E+03  0.13354647165E+03 -0.54046081431E+03  0.64245195777E+03  0.25500000920E-02 0. -1.
</event>
<event>
 5   0  0.5189537E-03  0.1136964E+04  0.7818609E-02  0.9169895E-01
       -2   -1    0    0    0  501  0.00000000000E+00  0.00000000000E+00  0.36435328616E+03  0.36435328617E+03  0.25500000920E-02 0.  1.
        2   -1    0    0  501    0  0.00000000000E+00  0.00000000000E+00 -0.88697404719E+03  0.88697404719E+03  0.25500000920E-02 0. -1.
    10030    2    1    2    0    0  0.00000000000E+00  0.00000000000E+00 -0.52262076102E+03  0.12513273334E+04  0.11369642190E+04 0.  0.
        4    1    3    3  502    0 -0.33500818119E+03  0.25829782525E+03 -0.67927542577E+03  0.80022807058E+03  0.12699999809E+01 0. -1.
       -4    1    3    3    0  502  0.33500818119E+03 -0.25829782525E+03  0.15665466475E+03  0.45109926278E+03  0.12699999809E+01 0.  1.
</event>
<event>
 5   0  0.5031575E-03  0.1215824E+04  0.7818609E-02  0.9099118E-01
        2   -1    0    0  501    0  0.00000000000E+00  0.00000000000E+00  0.29091019034E+03  0.29091019035E+03  0.25500000920E-02 0. -1.
       -2   -1    0    0    0  501  0.00000000000E+00  0.00000000000E+00 -0.12703472030E+04  0.12703472030E+04  0.25500000920E-02 0.  1.
    10030    2    1    2    0    0  0.00000000000E+00  0.00000000000E+00 -0.97943701268E+03  0.15612573934E+04  0.12158239126E+04 0.  0.
        5    1    3    3  502    0  0.54010904385E+02 -0.11517060720E+03  0.27360470842E+03  0.30176658699E+03  0.46999998093E+01 0. -1.
       -5    1    3    3    0  502 -0.54010904385E+02  0.11517060720E+03 -0.12530417211E+04  0.12594908064E+04  0.46999998093E+01 0.  1.
</event>
<event>
 5   0  0.2792518E-03  0.1226175E+04  0.7818609E-02  0.9090249E-01
       -1   -1    0    0    0  501  0.00000000000E+00  0.00000000000E+00  0.97885075309E+03  0.97885075310E+03  0.50400001928E-02 0. -1.
        1   -1    0    0  501    0  0.00000000000E+00  0.00000000000E+00 -0.38399751234E+03  0.38399751237E+03  0.50400001928E-02 0.  1.
    10030    2    1    2    0    0  0.00000000000E+00  0.00000000000E+00  0.59485324075E+03  0.13628482655E+04  0.12261749535E+04 0.  0.
        2    1    3    3  502    0 -0.10517618118E+03  0.51656223559E+02 -0.37143584792E+03  0.38948040213E+03  0.25500000920E-02 0.  1.
       -2    1    3    3    0  502  0.10517618118E+03 -0.51656223559E+02  0.96628908866E+03  0.97336786335E+03  0.25500000920E-02 0. -1.
</event>
<event>
 5   0  0.5031575E-03  0.1194390E+04  0.7818609E-02  0.9117781E-01
        2   -1    0    0  501    0  0.00000000000E+00  0.00000000000E+00  0.69226598009E+03  0.69226598009E+03  0.25500000920E-02 0.  1.
       -2   -1    0    0    0  501  0.00000000000E+00  0.00000000000E+00 -0.51518057279E+03  0.51518057280E+03  0.25500000920E-02 0. -1.
    10030    2    1    2    0    0  0.00000000000E+00  0.00000000000E+00  0.17708540729E+03  0.12074465529E+04  0.11943901945E+04 0.  0.
        5    1    3    3  502    0 -0.39262688741E+03 -0.33780270404E+02 -0.36505233058E+03  0.53719854192E+03  0.46999998093E+01 0. -1.
       -5    1    3    3    0  502  0.39262688741E+03  0.33780270404E+02  0.54213773787E+03  0.67024801097E+03  0.46999998093E+01 0.  1.
</event>
<event>
 5   0  0.1922125E-03  0.1206709E+04  0.7818609E-02  0.9107004E-01
       -3   -1    0    0    0  501  0.00000000000E+00  0.00000000000E+00  0.89834481026E+03  0.89834481594E+03  0.10100000352E+00 0.  1.
        3   -1    0    0  501    0  0.00000000000E+00  0.00000000000E+00 -0.40523053944E+03  0.40523055203E+03  0.10100000352E+00 0. -1.
    10030    2    1    2    0    0  0.00000000000E+00  0.00000000000E+00  0.49311427082E+03  0.13035753680E+04  0.12067091845E+04 0.  0.
        2    1    3    3  502    0 -0.25776500322E+03 -0.47004045181E+02 -0.34056363200E+03  0.42969263968E+03  0.25500000920E-02 0. -1.
       -2    1    3    3    0  502  0.25776500322E+03  0.47004045181E+02  0.83367790282E+03  0.87388272829E+03  0.25500000920E-02 0.  1.
</event>
<event>
 5   0  0.2792518E-03  0.1230383E+04  0.7818609E-02  0.9086670E-01
        1   -1    0    0  501    0  0.00000000000E+00  0.00000000000E+00  0.59107792133E+03  0.59107792135E+03  0.50400001928E-02 0.  1.
       -1   -1    0    0    0  501  0.00000000000E+00  0.00000000000E+00 -0.64028904354E+03  0.64028904356E+03  0.50400001928E-02 0. -1.
    10030    2    1    2    0    0  0.00000000000E+00  0.00000000000E+00 -0.49211122214E+02  0.12313669649E+04  0.12303832199E+04 0.  0.
        2    1    3    3  502    0 -0.11787035914E+03 -0.58148181633E+03 -0.18735843917E+03  0.62218784062E+03  0.25500000920E-02 0. -1.
       -2    1    3    3    0  502  0.11787035914E+03  0.58148181633E+03  0.13814731696E+03  0.60917912429E+03  0.25500000920E-02 0.  1.
</event>
<event>
 5   0  0.5467554E-03  0.1189464E+04  0.7818609E-02  0.9122129E-01
       -2   -1    0    0    0  501  0.00000000000E+00  0.00000000000E+00  0.14898023311E+03  0.14898023313E+03  0.25500000920E-02 0.  1.
        2   -1    0    0  501    0  0.00000000000E+00  0.00000000000E+00 -0.23741813042E+04  0.23741813042E+04  0.25500000920E-02 0. -1.
    10030    2    1    2    0    0  0.00000000000E+00  0.00000000000E+00 -0.22252010710E+04  0.25231615373E+04  0.11894638862E+04 0.  0.
        1    1    3    3  502    0 -0.77795275559E+01  0.58843387535E+03 -0.93023220041E+03  0.11007483334E+04  0.50400001928E-02 0.  1.
       -1    1    3    3    0  502  0.77795275559E+01 -0.58843387535E+03 -0.12949688706E+04  0.14224132039E+04  0.50400001928E-02 0. -1.
</event>
<event>
 5   0  0.2938349E-03  0.1200877E+04  0.7818609E-02  0.9112089E-01
        1   -1    0    0  501    0  0.00000000000E+00  0.00000000000E+00  0.20895217291E+04  0.20895217291E+04  0.50400001928E-02 0. -1.
       -1   -1    0    0    0  501  0.00000000000E+00  0.00000000000E+00 -0.17254028060E+03  0.17254028067E+03  0.50400001928E-02 0.  1.
    10030    2    1    2    0    0  0.00000000000E+00  0.00000000000E+00  0.19169814485E+04  0.22620620098E+04  0.12008774551E+04 0.  0.
        4    1    3    3  502    0  0.49785309566E+03  0.23575909801E+03  0.50843447135E+03  0.74963143058E+03  0.12699999809E+01 0. -1.
       -4    1    3    3    0  502 -0.49785309566E+03 -0.23575909801E+03  0.14085469771E+04  0.15124305792E+04  0.12699999809E+01 0.  1.
</event>
<event>
 5   0  0.5031575E-03  0.1200984E+04  0.7818609E-02  0.9111996E-01
        2   -1    0    0  501    0  0.00000000000E+00  0.00000000000E+00  0.20213608086E+04  0.20213608086E+04  0.25500000920E-02 0.  1.
       -2   -1    0    0    0  501  0.00000000000E+00  0.00000000000E+00 -0.17838999842E+03  0.17838999844E+03  0.25500000920E-02 0. -1.
    10030    2    1    2    0    0  0.00000000000E+00  0.00000000000E+00  0.18429708102E+04  0.21997508070E+04  0.12009838491E+04 0.  0.
        5    1    3    3  502    0 -0.45739795077E+03  0.38233767699E+03  0.78974239745E+03  0.98949993883E+03  0.46999998093E+01 0. -1.
       -5    1    3    3    0  502  0.45739795077E+03 -0.38233767699E+03  0.10532284127E+04  0.12102508682E+04  0.46999998093E+01 0.  1.
</event>
<event>
 5   0  0.2926844E-03  0.1191967E+04  0.7818609E-02  0.9119917E-01
       -1   -1    0    0    0  501  0.00000000000E+00  0.00000000000E+00  0.61954888172E+03  0.61954888174E+03  0.50400001928E-02 0.  1.
        1   -1    0    0  501    0  0.00000000000E+00  0.00000000000E+00 -0.57331418998E+03  0.57331419000E+03  0.50400001928E-02 0. -1.
    10030    2    1    2    0    0  0.00000000000E+00  0.00000000000E+00  0.46234691740E+02  0.11928630717E+04  0.11919667198E+04 0.  0.
        5    1    3    3  502    0  0.11364351515E+03  0.57691843740E+03  0.12026940597E+03  0.60019709426E+03  0.46999998093E+01 0.  1.
       -5    1    3    3    0  502 -0.11364351515E+03 -0.57691843740E+03 -0.74034714228E+02  0.59266597748E+03  0.46999998093E+01 0. -1.
</event>
<event>
 5   0  0.2930868E-03  0.1190050E+04  0.7818609E-02  0.9121610E-01
       -1   -1    0    0    0  501  0.00000000000E+00  0.00000000000E+00  0.31779082729E+03  0.31779082733E+03  0.50400001928E-02 0. -1.
        1   -1    0    0  501    0  0.00000000000E+00  0.00000000000E+00 -0.11141132384E+04  0.11141132384E+04  0.50400001928E-02 0.  1.
    10030    2    1    2    0    0  0.00000000000E+00  0.00000000000E+00 -0.79632241113E+03  0.14319040658E+04  0.11900503649E+04 0.  0.
        3    1    3    3  502    0 -0.32903222023E+03 -0.28904736457E+03  0.86494586137E+02  0.44642121875E+03  0.10100000352E+00 0. -1.
       -3    1    3    3    0  502  0.32903222023E+03  0.28904736457E+03 -0.88281699727E+03  0.98548284703E+03  0.10100000352E+00 0.  1.
</event>
<event>
 5   0  0.1922125E-03  0.1187619E+04  0.7818609E-02  0.9123763E-01
        3   -1    0    0  501    0  0.00000000000E+00  0.00000000000E+00  0.42188379112E+03  0.42188380321E+03  0.10100000352E+00 0. -1.
       -3   -1    0    0    0  501  0.00000000000E+00  0.00000000000E+00 -0.83579797626E+03  0.83579798236E+03  0.10100000352E+00 0.  1.
    10030    2    1    2    0    0  0.00000000000E+00  0.00000000000E+00 -0.41391418514E+03  0.12576817856E+04  0.11876188450E+04 0.  0.
        1    1    3    3  502    0  0.19179206778E+03  0.13159010269E+03  0.37163534553E+03  0.43842101051E+03  0.50400001928E-02 0. -1.
       -1    1    3    3    0  502 -0.19179206778E+03 -0.13159010269E+03 -0.78554953067E+03  0.81926077506E+03  0.50400001928E-02 0.  1.
</event>
<event>
 5   0  0.5003526E-03  0.1208014E+04  0.7818609E-02  0.9105870E-01
       -2   -1    0    0    0  501  0.00000000000E+00  0.00000000000E+00  0.41572510049E+03  0.41572510050E+03  0.25500000920E-02 0.  1.
        2   -1    0    0  501    0  0.00000000000E+00  0.00000000000E+00 -0.87756238904E+03  0.87756238904E+03  0.25500000920E-02 0. -1.
    10030    2    1    2    0    0  0.00000000000E+00  0.00000000000E+00 -0.46183728854E+03  0.12932874895E+04  0.12080144244E+04 0.  0.
        2    1    3    3  502    0 -0.36705692088E+03  0.15493690334E+03  0.25509651999E+03  0.47308610390E+03  0.25500000920E-02 0.  1.
       -2    1    3    3    0  502  0.36705692088E+03 -0.15493690334E+03 -0.71693380853E+03  0.82020138564E+03  0.25500000920E-02 0. -1.
</event>
<event>
 5   0  0.5031575E-03  0.1194919E+04  0.7818609E-02  0.9117316E-01
       -2   -1    0    0    0  501  0.00000000000E+00  0.00000000000E+00  0.17380228049E+03  0.17380228051E+03  0.25500000920E-02 0. -1.
        2   -1    0    0  501    0  0.00000000000E+00  0.00000000000E+00 -0.20538157026E+04  0.20538157026E+04  0.25500000920E-02 0.  1.
    10030    2    1    2    0    0  0.00000000000E+00  0.00000000000E+00 -0.18800134221E+04  0.22276179831E+04  0.11949189978E+04 0.  0.
        5    1    3    3  502    0  0.48710961143E+03 -0.30815052317E+03 -0.64699886734E+03  0.86652301921E+03  0.46999998093E+01 0.  1.
       -5    1    3    3    0  502 -0.48710961143E+03  0.30815052317E+03 -0.12330145547E+04  0.13610949639E+04  0.46999998093E+01 0. -1.
</event>
<event>
 5   0  0.2938349E-03  0.1000009E+04  0.7818609E-02  0.9308535E-01
        1   -1    0    0  501    0  0.00000000000E+00  0.00000000000E+00  0.48480471344E+03  0.48480471346E+03  0.50400001928E-02 0. -1.
       -1   -1    0    0    0  501  0.00000000000E+00  0.00000000000E+00 -0.51568110948E+03  0.51568110950E+03  0.50400001928E-02 0.  1.
    10030    2    1    2    0    0  0.00000000000E+00  0.00000000000E+00 -0.30876396040E+02  0.10004858230E+04  0.10000092650E+04 0.  0.
        4    1    3    3  502    0  0.10430694961E+03  0.34930508770E+03 -0.35781325501E+03  0.51080908605E+03  0.12699999809E+01 0.  1.
       -4    1    3    3    0  502 -0.10430694961E+03 -0.34930508770E+03  0.32693685897E+03  0.48967673692E+03  0.12699999809E+01 0. -1.
</event>
<event>
 5   0  0.5189537E-03  0.1222627E+04  0.7818609E-02  0.9093278E-01
        2   -1    0    0  501    0  0.00000000000E+00  0.00000000000E+00  0.13688776601E+04  0.13688776601E+04  0.25500000920E-02 0.  1.
       -2   -1    0    0    0  501  0.00000000000E+00  0.00000000000E+00 -0.27300048422E+03  0.27300048424E+03  0.25500000920E-02 0. -1.
    10030    2    1    2    0    0  0.00000000000E+00  0.00000000000E+00  0.10958771758E+04  0.16418781443E+04  0.12226271125E+04 0.  0.
        4    1    3    3  502    0 -0.15231842621E+02 -0.52911619357E+03  0.95858521026E+03  0.10950265629E+04  0.12699999809E+01 0.  1.
       -4    1    3    3    0  502  0.15231842621E+02  0.52911619357E+03  0.13729196558E+03  0.54685158136E+03  0.12699999809E+01 0. -1.
</event>
<event>
 5   0  0.2926844E-03  0.1151155E+04  0.7818609E-02  0.9156718E-01
       -1   -1    0    0    0  501  0.00000000000E+00  0.00000000000E+00  0.25176608303E+03  0.25176608308E+03  0.50400001928E-02 0. -1.
        1   -1    0    0  501    0  0.00000000000E+00  0.00000000000E+00 -0.13158625601E+04  0.13158625601E+04  0.50400001928E-02 0.  1.
    10030    2    1    2    0    0  0.00000000000E+00  0.00000000000E+00 -0.10640964771E+04  0.15676286432E+04  0.11511551809E+04 0.  0.
        5    1    3    3  502    0 -0.30561371833E+03 -0.47592200935E+03 -0.38686631459E+03  0.68526574347E+03  0.46999998093E+01 0. -1.
       -5    1    3    3    0  502  0.30561371833E+03  0.47592200935E+03 -0.67723016246E+03  0.88236289970E+03  0.46999998093E+01 0.  1.
</event>
<event>
 5   0  0.5003526E-03  0.1129996E+04  0.7818609E-02  0.9176439E-01
        2   -1    0    0  501    0  0.00000000000E+00  0.00000000000E+00  0.52135770381E+03  0.52135770381E+03  0.25500000920E-02 0.  1.
       -2   -1    0    0    0  501  0.00000000000E+00  0.00000000000E+00 -0.61229129633E+03  0.61229129634E+03  0.25500000920E-02 0. -1.
    10030    2    1    2    0    0  0.00000000000E+00  0.00000000000E+00 -0.90933592522E+02  0.11336490001E+04  0.11299960784E+04 0.  0.
        2    1    3    3  502    0  0.95329798130E+02  0.34827465273E+02  0.51213753074E+03  0.52209728323E+03  0.25500000920E-02 0.  1.
       -2    1    3    3    0  502 -0.95329798130E+02 -0.34827465273E+02 -0.60307112327E+03  0.61155171692E+03  0.25500000920E-02 0. -1.
</event>
<event>
 5   0  0.5108045E-03  0.9747153E+03  0.7818609E-02  0.9336720E-01
       -2   -1    0    0    0  501  0.00000000000E+00  0.00000000000E+00  0.19372551056E+03  0.19372551057E+03  0.25500000920E-02 0.  1.
        2   -1    0    0  501    0  0.00000000000E+00  0.00000000000E+00 -0.12260515887E+04  0.12260515887E+04  0.25500000920E-02 0. -1.
    10030    2    1    2    0    0  0.00000000000E+00  0.00000000000E+00 -0.10323260782E+04  0.14197770993E+04  0.97471528152E+03 0.  0.
        3    1    3    3  502    0 -0.15662932730E+03 -0.22776508443E+03  0.68493280615E+02  0.28478240736E+03  0.10100000352E+00 0.  1.
       -3    1    3    3    0  502  0.15662932730E+03  0.22776508443E+03 -0.11008193588E+04  0.11349946919E+04  0.10100000352E+00 0. -1.
</event>
<event>
 5   0  0.2792518E-03  0.1215536E+04  0.7818609E-02  0.9099366E-01
        1   -1    0    0  501    0  0.00000000000E+00  0.00000000000E+00  0.10880442377E+04  0.10880442377E+04  0.50400001928E-02 0. -1.
       -1   -1    0    0    0  501  0.00000000000E+00  0.00000000000E+00 -0.33949154421E+03  0.33949154424E+03  0.50400001928E-02 0.  1.
    10030    2    1    2    0    0  0.00000000000E+00  0.00000000000E+00  0.74855269345E+03  0.14275357819E+04  0.12155357970E+04 0.  0.
        2    1    3    3  502    0 -0.10187098001E+03  0.13890880089E+03  0.10587747437E+04  0.10726962802E+04  0.25500000920E-02 0. -1.
       -2    1    3    3    0  502  0.10187098001E+03 -0.13890880089E+03 -0.31022205026E+03  0.35483950176E+03  0.25500000920E-02 0.  1.
</event>
<event>
 5   0  0.2926844E-03  0.1202935E+04  0.7818609E-02  0.9110291E-01
       -1   -1    0    0    0  501  0.00000000000E+00  0.00000000000E+00  0.80340311032E+03  0.80340311033E+03  0.50400001928E-02 0.  1.
        1   -1    0    0  501    0  0.00000000000E+00  0.00000000000E+00 -0.45028851978E+03  0.45028851981E+03  0.50400001928E-02 0. -1.
    10030    2    1    2    0    0  0.00000000000E+00  0.00000000000E+00  0.35311459053E+03  0.12536916301E+04  0.12029350728E+04 0.  0.
        5    1    3    3  502    0 -0.42839466502E+02 -0.54300472653E+03 -0.89256824238E+02  0.55197665131E+03  0.46999998093E+01 0. -1.
       -5    1    3    3    0  502  0.42839466502E+02  0.54300472653E+03  0.44237141477E+03  0.70171497884E+03  0.46999998093E+01 0.  1.
</event>
<event>
 5   0  0.5108045E-03  0.1199932E+04  0.7818609E-02  0.9112916E-01
       -2   -1    0    0    0  501  0.00000000000E+00  0.00000000000E+00  0.33440357298E+03  0.33440357299E+03  0.25500000920E-02 0. -1.
        2   -1    0    0  501    0  0.00000000000E+00  0.00000000000E+00 -0.10764219761E+04  0.10764219761E+04  0.25500000920E-02 0.  1.
    10030    2    1    2    0    0  0.00000000000E+00  0.00000000000E+00 -0.74201840310E+03  0.14108255491E+04  0.11999322562E+04 0.  0.
        3    1    3    3  502    0 -0.28801437043E+03 -0.12168045248E+02  0.24764207764E+03  0.38003545587E+03  0.10100000352E+00 0. -1.
       -3    1    3    3    0  502  0.28801437043E+03  0.12168045248E+02 -0.98966048075E+03  0.10307900932E+04  0.10100000352E+00 0.  1.
</event>
<event>
 5   0  0.5108045E-03  0.1226940E+04  0.7818609E-02  0.9089598E-01
        2   -1    0    0  501    0  0.00000000000E+00  0.00000000000E+00  0.53441314562E+03  0.53441314563E+03  0.25500000920E-02 0.  1.
       -2   -1    0    0    0  501  0.00000000000E+00  0.00000000000E+00 -0.70422176837E+03  0.70422176837E+03  0.25500000920E-02 0. -1.
    10030    2    1    2    0    0  0.00000000000E+00  0.00000000000E+00 -0.16980862275E+03  0.12386349140E+04  0.12269398852E+04 0.  0.
        3    1    3    3  502    0 -0.18321697107E+03  0.48293018887E+03 -0.41905071970E+03  0.66512671100E+03  0.10100000352E+00 0. -1.
       -3    1    3    3    0  502  0.18321697107E+03 -0.48293018887E+03  0.24924209695E+03  0.57350820299E+03  0.10100000352E+00 0.  1.
</event>
<event>
 5   0  0.5003526E-03  0.1230519E+04  0.7818609E-02  0.9086555E-01
       -2   -1    0    0    0  501  0.00000000000E+00  0.00000000000E+00  0.50470937371E+03  0.50470937372E+03  0.25500000920E-02 0. -1.
        2   -1    0    0  501    0  0.00000000000E+00  0.00000000000E+00 -0.75002404599E+03  0.75002404599E+03  0.25500000920E-02 0.  1.
    10030    2    1    2    0    0  0.00000000000E+00  0.00000000000E+00 -0.24531467227E+03  0.12547334197E+04  0.12305188605E+04 0.  0.
        2    1    3    3  502    0  0.36536194830E+03 -0.34619763133E+03  0.23814458988E+03  0.55682582456E+03  0.25500000920E-02 0. -1.
       -2    1    3    3    0  502 -0.36536194830E+03  0.34619763133E+03 -0.48345926215E+03  0.69790759515E+03  0.25500000920E-02 0.  1.
</event>
<event>
 5   0  0.2875848E-03  0.1210236E+04  0.7818609E-02  0.9103944E-01
        1   -1    0    0  501    0  0.00000000000E+00  0.00000000000E+00  0.27912232192E+03  0.27912232196E+03  0.50400001928E-02 0.  1.
       -1   -1    0    0    0  501  0.00000000000E+00  0.00000000000E+00 -0.13118541535E+04  0.13118541535E+04  0.50400001928E-02 0. -1.
    10030    2    1    2    0    0  0.00000000000E+00  0.00000000000E+00 -0.10327318315E+04  0.15909764754E+04  0.12102359727E+04 0.  0.
        1    1    3    3  502    0  0.53352278142E+03 -0.25191456113E+03 -0.69303308706E+03  0.91016611900E+03  0.50400001928E-02 0.  1.
       -1    1    3    3    0  502 -0.53352278142E+03  0.25191456113E+03 -0.33969874449E+03  0.68081035644E+03  0.50400001928E-02 0. -1.
</event>
<event>
 5   0  0.5189537E-03  0.1239105E+04  0.7818609E-02  0.9079300E-01
        2   -1    0    0  501    0  0.00000000000E+00  0.00000000000E+00  0.52207178444E+03  0.52207178444E+03  0.25500000920E-02 0. -1.
       -2   -1    0    0    0  501  0.00000000000E+00  0.00000000000E+00 -0.73523446456E+03  0.73523446456E+03  0.25500000920E-02 0.  1.
    10030    2    1    2    0    0  0.00000000000E+00  0.00000000000E+00 -0.21316268012E+03  0.12573062490E+04  0.12391047880E+04 0.  0.
        4    1    3    3  502    0  0.49980436321E+03  0.23109054507E+03 -0.39471790472E+03  0.67750356362E+03  0.12699999809E+01 0.  1.
       -4    1    3    3    0  502 -0.49980436321E+03 -0.23109054507E+03  0.18155522460E+03  0.57980268539E+03  0.12699999809E+01 0. -1.
</event>
<event>
 5   0  0.5108045E-03  0.1189702E+04  0.7818609E-02  0.9121918E-01
       -2   -1    0    0    0  501  0.00000000000E+00  0.00000000000E+00  0.48214797921E+03  0.48214797922E+03  0.25500000920E-02 0.  1.
        2   -1    0    0  501    0  0.00000000000E+00  0.00000000000E+00 -0.73389856102E+03  0.73389856102E+03  0.25500000920E-02 0. -1.
    10030    2    1    2    0    0  0.00000000000E+00  0.00000000000E+00 -0.25175058180E+03  0.12160465402E+04  0.11897019932E+04 0.  0.
        3    1    3    3  502    0 -0.20081262429E+03 -0.14093661103E+03 -0.67977809175E+03  0.72269433555E+03  0.10100000352E+00 0. -1.
       -3    1    3    3    0  502  0.20081262429E+03  0.14093661103E+03  0.42802750995E+03  0.49335220470E+03  0.10100000352E+00 0.  1.
</event>
<event>
 5   0  0.2792518E-03  0.1213299E+04  0.7818609E-02  0.9101295E-01
       -1   -1    0    0    0  501  0.00000000000E+00  0.00000000000E+00  0.49940985176E+03  0.49940985179E+03  0.50400001928E-02 0.  1.
        1   -1    0    0  501    0  0.00000000000E+00  0.00000000000E+00 -0.73691694849E+03  0.73691694851E+03  0.50400001928E-02 0. -1.
    10030    2    1    2    0    0  0.00000000000E+00  0.00000000000E+00 -0.23750709673E+03  0.12363268003E+04  0.12132989476E+04 0.  0.
        2    1    3    3  502    0  0.36634179534E+03 -0.44592546810E+03  0.71792219171E+02  0.58155821450E+03  0.25500000920E-02 0. -1.
       -2    1    3    3    0  502 -0.36634179534E+03  0.44592546810E+03 -0.30929931590E+03  0.65476858579E+03  0.25500000920E-02 0.  1.
</event>
<event>
 5   0  0.2875848E-03  0.1275732E+04  0.7818609E-02  0.9049034E-01
        1   -1    0    0  501    0  0.00000000000E+00  0.00000000000E+00  0.64878303445E+03  0.64878303447E+03  0.50400001928E-02 0.  1.
       -1   -1    0    0    0  501  0.00000000000E+00  0.00000000000E+00 -0.62713275837E+03  0.62713275839E+03  0.50400001928E-02 0. -1.
    10030    2    1    2    0    0  0.00000000000E+00  0.00000000000E+00  0.21650276074E+02  0.12759157929E+04  0.12757320941E+04 0.  0.
        1    1    3    3  502    0 -0.49331997355E+03  0.55748241271E+01  0.41520676742E+03  0.64481961408E+03  0.50400001928E-02 0.  1.
       -1    1    3    3    0  502  0.49331997355E+03 -0.55748241271E+01 -0.39355649134E+03  0.63109617878E+03  0.50400001928E-02 0. -1.
</event>
<event>
 5   0  0.5467554E-03  0.1219520E+04  0.7818609E-02  0.9095940E-01
        2   -1    0    0  501    0  0.00000000000E+00  0.00000000000E+00  0.10959926441E+04  0.10959926441E+04  0.25500000920E-02 0.  1.
       -2   -1    0    0    0  501  0.00000000000E+00  0.00000000000E+00 -0.33924253408E+03  0.33924253409E+03  0.25500000920E-02 0. -1.
    10030    2    1    2    0    0  0.00000000000E+00  0.00000000000E+00  0.75675010998E+03  0.14352351781E+04  0.12195201055E+04 0.  0.
        1    1    3    3  502    0  0.52737856156E+03  0.25842102919E+03  0.18535961420E+03  0.61584719056E+03  0.50400001928E-02 0. -1.
       -1    1    3    3    0  502 -0.52737856156E+03 -0.25842102919E+03  0.57139049577E+03  0.81938798759E+03  0.50400001928E-02 0.  1.
</event>
<event>
 5   0  0.2926844E-03  0.1296961E+04  0.7818609E-02  0.9031979E-01
       -1   -1    0    0    0  501  0.00000000000E+00  0.00000000000E+00  0.60182029645E+03  0.60182029647E+03  0.50400001928E-02 0.  1.
        1   -1    0    0  501    0  0.00000000000E+00  0.00000000000E+00 -0.69875783551E+03  0.69875783553E+03  0.50400001928E-02 0. -1.
    10030    2    1    2    0    0  0.00000000000E+00  0.00000000000E+00 -0.96937539062E+02  0.13005781320E+04  0.12969605202E+04 0.  0.
        5    1    3    3  502    0 -0.39531678614E+03  0.30502905230E+03 -0.46336970502E+03  0.68121337163E+03  0.46999998093E+01 0. -1.
       -5    1    3    3    0  502  0.39531678614E+03 -0.30502905230E+03  0.36643216596E+03  0.61936476038E+03  0.46999998093E+01 0.  1.
</event>
<event>
 5   0  0.2875848E-03  0.1201443E+04  0.7818609E-02  0.9111594E-01
        1   -1    0    0  501    0  0.00000000000E+00  0.00000000000E+00  0.11548625045E+04  0.11548625045E+04  0.50400001928E-02 0.  1.
       -1   -1    0    0    0  501  0.00000000000E+00  0.00000000000E+00 -0.31247572942E+03  0.31247572946E+03  0.50400001928E-02 0. -1.
    10030    2    1    2    0    0  0.00000000000E+00  0.00000000000E+00  0.84238677504E+03  0.14673382339E+04  0.12014433045E+04 0.  0.
        1    1    3    3  502    0 -0.71215757870E+02  0.12717384288E+02 -0.30713633335E+03  0.31554103270E+03  0.50400001928E-02 0. -1.
       -1    1    3    3    0  502  0.71215757870E+02 -0.12717384288E+02  0.11495231084E+04  0.11517972012E+04  0.50400001928E-02 0.  1.
</event>
<event>
 5   0  0.5108045E-03  0.1194635E+04  0.7818609E-02  0.9117566E-01
       -2   -1    0    0    0  501  0.00000000000E+00  0.00000000000E+00  0.54099778549E+03  0.54099778550E+03  0.25500000920E-02 0. -1.
        2   -1    0    0  501    0  0.00000000000E+00  0.00000000000E+00 -0.65949993681E+03  0.65949993682E+03  0.25500000920E-02 0.  1.
    10030    2    1    2    0    0  0.00000000000E+00  0.00000000000E+00 -0.11850215132E+03  0.12004977223E+04  0.11946346812E+04 0.  0.
        3    1    3    3  502    0 -0.14975496369E+03 -0.36988997390E+03 -0.50589032305E+03  0.64433700118E+03  0.10100000352E+00 0.  1.
       -3    1    3    3    0  502  0.14975496369E+03  0.36988997390E+03  0.38738817172E+03  0.55616072113E+03  0.10100000352E+00 0. -1.
</event>
<event>
 5   0  0.2875848E-03  0.1164891E+04  0.7818609E-02  0.9144155E-01
        1   -1    0    0  501    0  0.00000000000E+00  0.00000000000E+00  0.22682606177E+03  0.22682606182E+03  0.50400001928E-02 0.  1.
       -1   -1    0    0    0  501  0.00000000000E+00  0.00000000000E+00 -0.14956079967E+04  0.14956079967E+04  0.50400001928E-02 0. -1.
    10030    2    1    2    0    0  0.00000000000E+00  0.00000000000E+00 -0.12687819349E+04  0.17224340585E+04  0.11648911913E+04 0.  0.
        1    1    3    3  502    0  0.57057473627E+03  0.11682589055E+03 -0.62515064259E+03  0.85441040743E+03  0.50400001928E-02 0.  1.
       -1    1    3    3    0  502 -0.57057473627E+03 -0.11682589055E+03 -0.64363129234E+03  0.86802365110E+03  0.50400001928E-02 0. -1.
</event>
<event>
 5   0  0.2875848E-03  0.1209733E+04  0.7818609E-02  0.9104379E-01
       -1   -1    0    0    0  501  0.00000000000E+00  0.00000000000E+00  0.79104626025E+03  0.79104626027E+03  0.50400001928E-02 0. -1.
        1   -1    0    0  501    0  0.00000000000E+00  0.00000000000E+00 -0.46250609279E+03  0.46250609282E+03  0.50400001928E-02 0.  1.
    10030    2    1    2    0    0  0.00000000000E+00  0.00000000000E+00  0.32854016746E+03  0.12535523531E+04  0.12097333840E+04 0.  0.
        1    1    3    3  502    0 -0.29094192082E+02  0.44849577323E+03 -0.25519993638E+03  0.51683840624E+03  0.50400001928E-02 0.  1.
       -1    1    3    3    0  502  0.29094192082E+02 -0.44849577323E+03  0.58374010384E+03  0.73671394684E+03  0.50400001928E-02 0. -1.
</event>
<event>
 5   0  0.2792518E-03  0.1173419E+04  0.7818609E-02  0.9136446E-01
        1   -1    0    0  501    0  0.00000000000E+00  0.00000000000E+00  0.77257864430E+03  0.77257864431E+03  0.50400001928E-02 0.  1.
       -1   -1    0    0    0  501  0.00000000000E+00  0.00000000000E+00 -0.44555735274E+03  0.44555735276E+03  0.50400001928E-02 0. -1.
    10030    2    1    2    0    0  0.00000000000E+00  0.00000000000E+00  0.32702129156E+03  0.12181359971E+04  0.11734190991E+04 0.  0.
        2    1    3    3  502    0  0.38698008618E+03 -0.32994124347E+03  0.46725848936E+03  0.69061226975E+03  0.25500000920E-02 0.  1.
       -2    1    3    3    0  502 -0.38698008618E+03  0.32994124347E+03 -0.14023719780E+03  0.52752372733E+03  0.25500000920E-02 0. -1.
</event>
<event>
 5   0  0.5467554E-03  0.1199466E+04  0.7818609E-02  0.9113324E-01
       -2   -1    0    0    0  501  0.00000000000E+00  0.00000000000E+00  0.32631508087E+03  0.32631508088E+03  0.25500000920E-02 0. -1.
        2   -1    0    0  501    0  0.00000000000E+00  0.00000000000E+00 -0.11022472036E+04  0.11022472036E+04  0.25500000920E-02 0.  1.
    10030    2    1    2    0    0  0.00000000000E+00  0.00000000000E+00 -0.77593212271E+03  0.14285622845E+04  0.11994663570E+04 0.  0.
        1    1    3    3  502    0 -0.62602941016E+02  0.41881230074E+03  0.11783254336E+03  0.43955361422E+03  0.50400001928E-02 0. -1.
       -1    1    3    3    0  502  0.62602941016E+02 -0.41881230074E+03 -0.89376466607E+03  0.98900867025E+03  0.50400001928E-02 0.  1.
</event>
<event>
 5   0  0.1922125E-03  0.1191577E+04  0.7818609E-02  0.9120261E-01
        3   -1    0    0  501    0  0.00000000000E+00  0.00000000000E+00  0.52190562703E+03  0.52190563680E+03  0.10100000352E+00 0. -1.
       -3   -1    0    0    0  501  0.00000000000E+00  0.00000000000E+00 -0.68013073696E+03  0.68013074446E+03  0.10100000352E+00 0.  1.
    10030    2    1    2    0    0  0.00000000000E+00  0.00000000000E+00 -0.15822510993E+03  0.12020363813E+04  0.11915772222E+04 0.  0.
        1    1    3    3  502    0  0.47251018858E+03  0.33935498028E+03  0.50610076022E+02  0.58394268620E+03  0.50400001928E-02 0.  1.
       -1    1    3    3    0  502 -0.47251018858E+03 -0.33935498028E+03 -0.20883518595E+03  0.61809369505E+03  0.50400001928E-02 0. -1.
</event>
<event>
 5   0  0.5108045E-03  0.1165776E+04  0.7818609E-02  0.9143351E-01
        2   -1    0    0  501    0  0.00000000000E+00  0.00000000000E+00  0.56501259227E+03  0.56501259227E+03  0.25500000920E-02 0. -1.
       -2   -1    0    0    0  501  0.00000000000E+00  0.00000000000E+00 -0.60132927926E+03  0.60132927926E+03  0.25500000920E-02 0.  1.
    10030    2    1    2    0    0  0.00000000000E+00  0.00000000000E+00 -0.36316686989E+02  0.11663418715E+04  0.11657763334E+04 0.  0.
        3    1    3    3  502    0 -0.13486075277E+03 -0.56604824109E+03  0.15925334575E+02  0.58210966351E+03  0.10100000352E+00 0. -1.
       -3    1    3    3    0  502  0.13486075277E+03  0.56604824109E+03 -0.52242021564E+02  0.58423220802E+03  0.10100000352E+00 0.  1.
</event>
<event>
 5   0  0.5003526E-03  0.1187152E+04  0.7818609E-02  0.9124177E-01
       -2   -1    0    0    0  501  0.00000000000E+00  0.00000000000E+00  0.34475064448E+03  0.34475064449E+03  0.25500000920E-02 0.  1.
        2   -1    0    0  501    0  0.00000000000E+00  0.00000000000E+00 -0.10219919763E+04  0.10219919763E+04  0.25500000920E-02 0. -1.
    10030    2    1    2    0    0  0.00000000000E+00  0.00000000000E+00 -0.67724133179E+03  0.13667426208E+04  0.11871518732E+04 0.  0.
        2    1    3    3  502    0  0.33689941228E+03 -0.33459073485E+03  0.71467668071E+02  0.48016643097E+03  0.25500000920E-02 0.  1.
       -2    1    3    3    0  502 -0.33689941228E+03  0.33459073485E+03 -0.74870899986E+03  0.88657618980E+03  0.25500000920E-02 0. -1.
</event>
<event>
 5   0  0.5467554E-03  0.1157148E+04  0.7818609E-02  0.9151215E-01
       -2   -1    0    0    0  501  0.00000000000E+00  0.00000000000E+00  0.25334863231E+03  0.25334863232E+03  0.25500000920E-02 0.  1.
        2   -1    0    0  501    0  0.00000000000E+00  0.00000000000E+00 -0.13212930097E+04  0.13212930097E+04  0.25500000920E-02 0. -1.
    10030    2    1    2    0    0  0.00000000000E+00  0.00000000000E+00 -0.10679443774E+04  0.15746416421E+04  0.11571478331E+04 0.  0.
        1    1    3    3  502    0  0.77644722737E+02 -0.38775257562E+03 -0.11086840453E+04  0.11770985835E+04  0.50400001928E-02 0. -1.
       -1    1    3    3    0  502 -0.77644722737E+02  0.38775257562E+03  0.40739667876E+02  0.39754305859E+03  0.50400001928E-02 0.  1.
</event>
<event>
 5   0  0.5108045E-03  0.1181766E+04  0.7818609E-02  0.9128968E-01
       -2   -1    0    0    0  501  0.00000000000E+00  0.00000000000E+00  0.25774388171E+03  0.25774388172E+03  0.25500000920E-02 0.  1.
        2   -1    0    0  501    0  0.00000000000E+00  0.00000000000E+00 -0.13546109042E+04  0.13546109042E+04  0.25500000920E-02 0. -1.
    10030    2    1    2    0    0  0.00000000000E+00  0.00000000000E+00 -0.10968670225E+04  0.16123547860E+04  0.11817659204E+04 0.  0.
        3    1    3    3  502    0  0.27857884429E+03  0.31344700699E+03 -0.11163869353E+04  0.11925497885E+04  0.10100000352E+00 0. -1.
       -3    1    3    3    0  502 -0.27857884429E+03 -0.31344700699E+03  0.19519912729E+02  0.41980499744E+03  0.10100000352E+00 0.  1.
</event>
<event>
 5   0  0.2875848E-03  0.1179748E+04  0.7818609E-02  0.9130770E-01
        1   -1    0    0  501    0  0.00000000000E+00  0.00000000000E+00  0.83271281812E+03  0.83271281813E+03  0.50400001928E-02 0.  1.
       -1   -1    0    0    0  501  0.00000000000E+00  0.00000000000E+00 -0.41785274198E+03  0.41785274201E+03  0.50400001928E-02 0. -1.
    10030    2    1    2    0    0  0.00000000000E+00  0.00000000000E+00  0.41486007614E+03  0.12505655601E+04  0.11797479974E+04 0.  0.
        1    1    3    3  502    0  0.36745128988E+03 -0.22735137039E+03  0.63308394556E+03  0.76648834186E+03  0.50400001928E-02 0.  1.
       -1    1    3    3    0  502 -0.36745128988E+03  0.22735137039E+03 -0.21822386942E+03  0.48407721829E+03  0.50400001928E-02 0. -1.
</event>
<event>
 5   0  0.1922125E-03  0.1204653E+04  0.7818609E-02  0.9108793E-01
       -3   -1    0    0    0  501  0.00000000000E+00  0.00000000000E+00  0.21187284248E+04  0.21187284272E+04  0.10100000352E+00 0.  1.
        3   -1    0    0  501    0  0.00000000000E+00  0.00000000000E+00 -0.17123349242E+03  0.17123352220E+03  0.10100000352E+00 0. -1.
    10030    2    1    2    0    0  0.00000000000E+00  0.00000000000E+00  0.19474949324E+04  0.22899619494E+04  0.12046531526E+04 0.  0.
        1    1    3    3  502    0 -0.53612102749E+02  0.35752954671E+03  0.57949312068E+02  0.36614171727E+03  0.50400001928E-02 0. -1.
       -1    1    3    3    0  502  0.53612102749E+02 -0.35752954671E+03  0.18895456203E+04  0.19238202322E+04  0.50400001928E-02 0.  1.
</event>
<event>
 5   0  0.1922125E-03  0.1195902E+04  0.7818609E-02  0.9116451E-01
        3   -1    0    0  501    0  0.00000000000E+00  0.00000000000E+00  0.83481122944E+03  0.83481123555E+03  0.10100000352E+00 0.  1.
       -3   -1    0    0    0  501  0.00000000000E+00  0.00000000000E+00 -0.42829460312E+03  0.42829461503E+03  0.10100000352E+00 0. -1.
    10030    2    1    2    0    0  0.00000000000E+00  0.00000000000E+00  0.40651662632E+03  0.12631058506E+04  0.11959015939E+04 0.  0.
        5    1    3    3  502    0 -0.59981474088E+02  0.45688980974E+03  0.60569095167E+03  0.76107141216E+03  0.46999998093E+01 0. -1.
       -5    1    3    3    0  502  0.59981474088E+02 -0.45688980974E+03 -0.19917432536E+03  0.50203443841E+03  0.46999998093E+01 0.  1.
</event>
<event>
 5   0  0.5189537E-03  0.1208723E+04  0.7818609E-02  0.9105255E-01
       -2   -1    0    0    0  501  0.00000000000E+00  0.00000000000E+00  0.11364408261E+04  0.11364408261E+04  0.25500000920E-02 0.  1.
        2   -1    0    0  501    0  0.00000000000E+00  0.00000000000E+00 -0.32140087602E+03  0.32140087603E+03  0.25500000920E-02 0. -1.
    10030    2    1    2    0    0  0.00000000000E+00  0.00000000000E+00  0.81503995004E+03  0.14578417021E+04  0.12087234209E+04 0.  0.
        4    1    3    3  502    0  0.36513326741E+03  0.11568678915E+03  0.97135830062E+03  0.10441476415E+04  0.12699999809E+01 0.  1.
       -4    1    3    3    0  502 -0.36513326741E+03 -0.11568678915E+03 -0.15631835058E+03  0.41369406061E+03  0.12699999809E+01 0. -1.
</event>
<event>
 5   0  0.5003526E-03  0.1108755E+04  0.7818609E-02  0.9196701E-01
       -2   -1    0    0    0  501  0.00000000000E+00  0.00000000000E+00  0.91546614375E+02  0.91546614411E+02  0.25500000920E-02 0.  1.
        2   -1    0    0  501    0  0.00000000000E+00  0.00000000000E+00 -0.33571329097E+04  0.33571329097E+04  0.25500000920E-02 0. -1.
    10030    2    1    2    0    0  0.00000000000E+00  0.00000000000E+00 -0.32655862953E+04  0.34486795241E+04  0.11087545300E+04 0.  0.
        2    1    3    3  502    0  0.75037773687E+02  0.87664901200E+02  0.53777931795E+02  0.12731012661E+03  0.25500000920E-02 0.  1.
       -2    1    3    3    0  502 -0.75037773687E+02 -0.87664901200E+02 -0.33193642271E+04  0.33213693975E+04  0.25500000920E-02 0. -1.
</event>
<event>
 5   0  0.2792518E-03  0.1236792E+04  0.7818609E-02  0.9081248E-01
       -1   -1    0    0    0  501  0.00000000000E+00  0.00000000000E+00  0.26738074978E+03  0.26738074983E+03  0.50400001928E-02 0.  1.
        1   -1    0    0  501    0  0.00000000000E+00  0.00000000000E+00 -0.14302217855E+04  0.14302217855E+04  0.50400001928E-02 0. -1.
    10030    2    1    2    0    0  0.00000000000E+00  0.00000000000E+00 -0.11628410357E+04  0.16976025353E+04  0.12367922597E+04 0.  0.
        2    1    3    3  502    0 -0.13738808643E+02  0.26587573490E+02  0.26638617547E+03  0.26806202345E+03  0.25500000920E-02 0.  1.
       -2    1    3    3    0  502  0.13738808643E+02 -0.26587573490E+02 -0.14292272112E+04  0.14295405119E+04  0.25500000920E-02 0. -1.
</event>
<event>
 5   0  0.2792518E-03  0.1239985E+04  0.7818609E-02  0.9078560E-01
        1   -1    0    0  501    0  0.00000000000E+00  0.00000000000E+00  0.28117016238E+03  0.28117016242E+03  0.50400001928E-02 0. -1.
       -1   -1    0    0    0  501  0.00000000000E+00  0.00000000000E+00 -0.13671113878E+04  0.13671113878E+04  0.50400001928E-02 0.  1.
    10030    2    1    2    0    0  0.00000000000E+00  0.00000000000E+00 -0.10859412254E+04  0.16482815502E+04  0.12399853724E+04 0.  0.
        2    1    3    3  502    0 -0.83423834100E+02 -0.42537514759E+03 -0.11321969691E+04  0.12123421667E+04  0.25500000920E-02 0.  1.
       -2    1    3    3    0  502  0.83423834100E+02  0.42537514759E+03  0.46255743683E+02  0.43593938353E+03  0.25500000920E-02 0. -1.
</event>
<event>
 5   0  0.5467554E-03  0.1209262E+04  0.7818609E-02  0.9104788E-01
        2   -1    0    0  501    0  0.00000000000E+00  0.00000000000E+00  0.16785560205E+04  0.16785560205E+04  0.25500000920E-02 0. -1.
       -2   -1    0    0    0  501  0.00000000000E+00  0.00000000000E+00 -0.21779366972E+03  0.21779366974E+03  0.25500000920E-02 0.  1.
    10030    2    1    2    0    0  0.00000000000E+00  0.00000000000E+00  0.14607623507E+04  0.18963496902E+04  0.12092623794E+04 0.  0.
        1    1    3    3  502    0  0.36668086522E+03 -0.48070252800E+03  0.71939287391E+03  0.93971053224E+03  0.50400001928E-02 0.  1.
       -1    1    3    3    0  502 -0.36668086522E+03  0.48070252800E+03  0.74136947682E+03  0.95663915796E+03  0.50400001928E-02 0. -1.
</event>
<event>
 5   0  0.2875848E-03  0.1177784E+04  0.7818609E-02  0.9132528E-01
        1   -1    0    0  501    0  0.00000000000E+00  0.00000000000E+00  0.81032457424E+03  0.81032457426E+03  0.50400001928E-02 0.  1.
       -1   -1    0    0    0  501  0.00000000000E+00  0.00000000000E+00 -0.42796872215E+03  0.42796872218E+03  0.50400001928E-02 0. -1.
    10030    2    1    2    0    0  0.00000000000E+00  0.00000000000E+00  0.38235585209E+03  0.12382932964E+04  0.11777836348E+04 0.  0.
        1    1    3    3  502    0  0.44617637355E+03  0.22095935357E+03 -0.13945793906E+03  0.51705406781E+03  0.50400001928E-02 0. -1.
       -1    1    3    3    0  502 -0.44617637355E+03 -0.22095935357E+03  0.52181379115E+03  0.72123922863E+03  0.50400001928E-02 0.  1.
</event>
<event>
 5   0  0.2926844E-03  0.1176237E+04  0.7818609E-02  0.9133915E-01
        1   -1    0    0  501    0  0.00000000000E+00  0.00000000000E+00  0.67524333531E+03  0.67524333533E+03  0.50400001928E-02 0. -1.
       -1   -1    0    0    0  501  0.00000000000E+00  0.00000000000E+00 -0.51223473814E+03  0.51223473817E+03  0.50400001928E-02 0.  1.
    10030    2    1    2    0    0  0.00000000000E+00  0.00000000000E+00  0.16300859717E+03  0.11874780735E+04  0.11762365291E+04 0.  0.
        5    1    3    3  502    0 -0.21422263175E+03  0.49199160220E+02 -0.46918959927E+03  0.51814367060E+03  0.46999998093E+01 0.  1.
       -5    1    3    3    0  502  0.21422263175E+03 -0.49199160220E+02  0.63219819644E+03  0.66933440290E+03  0.46999998093E+01 0. -1.
</event>
<event>
 5   0  0.2875848E-03  0.9335988E+03  0.7818609E-02  0.9384529E-01
        1   -1    0    0  501    0  0.00000000000E+00  0.00000000000E+00  0.84458916746E+03  0.84458916747E+03  0.50400001928E-02 0. -1.
       -1   -1    0    0    0  501  0.00000000000E+00  0.00000000000E+00 -0.25799725350E+03  0.25799725355E+03  0.50400001928E-02 0.  1.
    10030    2    1    2    0    0  0.00000000000E+00  0.00000000000E+00  0.58659191396E+03  0.11025864210E+04  0.93359881229E+03 0.  0.
        1    1    3    3  502    0  0.85912041208E+02  0.39365441002E+03  0.57166554708E+03  0.69938985630E+03  0.50400001928E-02 0. -1.
       -1    1    3    3    0  502 -0.85912041208E+02 -0.39365441002E+03  0.14926366883E+02  0.40319656473E+03  0.50400001928E-02 0.  1.
</event>
<event>
 5   0  0.2930868E-03  0.1205325E+04  0.7818609E-02  0.9108208E-01
        1   -1    0    0  501    0  0.00000000000E+00  0.00000000000E+00  0.15497909847E+04  0.15497909847E+04  0.50400001928E-02 0.  1.
       -1   -1    0    0    0  501  0.00000000000E+00  0.00000000000E+00 -0.23435564417E+03  0.23435564422E+03  0.50400001928E-02 0. -1.
    10030    2    1    2    0    0  0.00000000000E+00  0.00000000000E+00  0.13154353405E+04  0.17841466289E+04  0.12053252915E+04 0.  0.
        3    1    3    3  502    0 -0.27757372612E+03  0.52253512769E+03  0.48822038244E+03  0.76710448123E+03  0.10100000352E+00 0.  1.
       -3    1    3    3    0  502  0.27757372612E+03 -0.52253512769E+03  0.82721495811E+03  0.10170421477E+04  0.10100000352E+00 0. -1.
</event>
<event>
 5   0  0.5108045E-03  0.1210961E+04  0.7818609E-02  0.9103316E-01
        2   -1    0    0  501    0  0.00000000000E+00  0.00000000000E+00  0.90529307338E+03  0.90529307338E+03  0.25500000920E-02 0. -1.
       -2   -1    0    0    0  501  0.00000000000E+00  0.00000000000E+00 -0.40495917363E+03  0.40495917364E+03  0.25500000920E-02 0.  1.
    10030    2    1    2    0    0  0.00000000000E+00  0.00000000000E+00  0.50033389975E+03  0.13102522470E+04  0.12109611635E+04 0.  0.
        3    1    3    3  502    0  0.29175986899E+03 -0.18216230182E+03  0.78932101276E+03  0.86100789587E+03  0.10100000352E+00 0. -1.
       -3    1    3    3    0  502 -0.29175986899E+03  0.18216230182E+03 -0.28898711302E+03  0.44924435116E+03  0.10100000352E+00 0.  1.
</event>
<event>
 5   0  0.5467554E-03  0.1205791E+04  0.7818609E-02  0.9107803E-01
        2   -1    0    0  501    0  0.00000000000E+00  0.00000000000E+00  0.49151710817E+03  0.49151710817E+03  0.25500000920E-02 0. -1.
       -2   -1    0    0    0  501  0.00000000000E+00  0.00000000000E+00 -0.73951207951E+03  0.73951207951E+03  0.25500000920E-02 0.  1.
    10030    2    1    2    0    0  0.00000000000E+00  0.00000000000E+00 -0.24799497134E+03  0.12310291877E+04  0.12057907593E+04 0.  0.
        1    1    3    3  502    0 -0.56882230646E+02  0.55574914210E+03  0.10744138757E+03  0.56889045421E+03  0.50400001928E-02 0. -1.
       -1    1    3    3    0  502  0.56882230646E+02 -0.55574914210E+03 -0.35543635891E+03  0.66213873347E+03  0.50400001928E-02 0.  1.
</event>
<event>
 5   0  0.1922125E-03  0.1185140E+04  0.7818609E-02  0.9125964E-01
        3   -1    0    0  501    0  0.00000000000E+00  0.00000000000E+00  0.90941722446E+03  0.90941723007E+03  0.10100000352E+00 0. -1.
       -3   -1    0    0    0  501  0.00000000000E+00  0.00000000000E+00 -0.38611437642E+03  0.38611438963E+03  0.10100000352E+00 0.  1.
    10030    2    1    2    0    0  0.00000000000E+00  0.00000000000E+00  0.52330284804E+03  0.12955316197E+04  0.11851397837E+04 0.  0.
        1    1    3    3  502    0  0.45902308464E+03 -0.10267018953E+03  0.65563294747E+03  0.80690638980E+03  0.50400001928E-02 0. -1.
       -1    1    3    3    0  502 -0.45902308464E+03  0.10267018953E+03 -0.13233009943E+03  0.48862522990E+03  0.50400001928E-02 0.  1.
</event>
<event>
 5   0  0.5189537E-03  0.1191276E+04  0.7818609E-02  0.9120527E-01
        2   -1    0    0  501    0  0.00000000000E+00  0.00000000000E+00  0.51359168715E+03  0.51359168716E+03  0.25500000920E-02 0. -1.
       -2   -1    0    0    0  501  0.00000000000E+00  0.00000000000E+00 -0.69079159950E+03  0.69079159950E+03  0.25500000920E-02 0.  1.
    10030    2    1    2    0    0  0.00000000000E+00  0.00000000000E+00 -0.17719991235E+03  0.12043832867E+04  0.11912763291E+04 0.  0.
        4    1    3    3  502    0  0.21073992343E+03 -0.31980130090E+03 -0.54979775748E+03  0.67004729267E+03  0.12699999809E+01 0.  1.
       -4    1    3    3    0  502 -0.21073992343E+03  0.31980130090E+03  0.37259784513E+03  0.53433599400E+03  0.12699999809E+01 0. -1.
</event>
<event>
 5   0  0.2792518E-03  0.1242411E+04  0.7818609E-02  0.9076524E-01
        1   -1    0    0  501    0  0.00000000000E+00  0.00000000000E+00  0.11578190540E+04  0.11578190540E+04  0.50400001928E-02 0. -1.
       -1   -1    0    0    0  501  0.00000000000E+00  0.00000000000E+00 -0.33329559086E+03  0.33329559090E+03  0.50400001928E-02 0.  1.
    10030    2    1    2    0    0  0.00000000000E+00  0.00000000000E+00  0.82452346309E+03  0.14911146449E+04  0.12424105372E+04 0.  0.
        2    1    3    3  502    0  0.18339792841E+03 -0.23697625201E+03 -0.24082015272E+03  0.38443060508E+03  0.25500000920E-02 0.  1.
       -2    1    3    3    0  502 -0.18339792841E+03  0.23697625201E+03  0.10653436158E+04  0.11066840398E+04  0.25500000920E-02 0. -1.
</event>
<event>
 5   0  0.5031575E-03  0.1222107E+04  0.7818609E-02  0.9093724E-01
       -2   -1    0    0    0  501  0.00000000000E+00  0.00000000000E+00  0.23010906806E+03  0.23010906807E+03  0.25500000920E-02 0.  1.
        2   -1    0    0  501    0  0.00000000000E+00  0.00000000000E+00 -0.16226489798E+04  0.16226489798E+04  0.25500000920E-02 0. -1.
    10030    2    1    2    0    0  0.00000000000E+00  0.00000000000E+00 -0.13925399117E+04  0.18527580478E+04  0.12221067785E+04 0.  0.
        5    1    3    3  502    0 -0.58116639030E+03 -0.18674546560E+03 -0.73739653771E+03  0.95728991740E+03  0.46999998093E+01 0. -1.
       -5    1    3    3    0  502  0.58116639030E+03  0.18674546560E+03 -0.65514337398E+03  0.89546813043E+03  0.46999998093E+01 0.  1.
</event>
<event>
 5   0  0.5031575E-03  0.1219369E+04  0.7818609E-02  0.9096070E-01
       -2   -1    0    0    0  501  0.00000000000E+00  0.00000000000E+00  0.39531775407E+03  0.39531775407E+03  0.25500000920E-02 0.  1.
        2   -1    0    0  501    0  0.00000000000E+00  0.00000000000E+00 -0.94029509986E+03  0.94029509986E+03  0.25500000920E-02 0. -1.
    10030    2    1    2    0    0  0.00000000000E+00  0.00000000000E+00 -0.54497734579E+03  0.13356128539E+04  0.12193692583E+04 0.  0.
        5    1    3    3  502    0 -0.28549945984E+03  0.47823454987E+03 -0.91058531478E+00  0.55699294916E+03  0.46999998093E+01 0.  1.
       -5    1    3    3    0  502  0.28549945984E+03 -0.47823454987E+03 -0.54406676048E+03  0.77861990477E+03  0.46999998093E+01 0. -1.
</event>
<event>
 5   0  0.5108045E-03  0.1208685E+04  0.7818609E-02  0.9105288E-01
       -2   -1    0    0    0  501  0.00000000000E+00  0.00000000000E+00  0.32730241810E+03  0.32730241811E+03  0.25500000920E-02 0.  1.
        2   -1    0    0  501    0  0.00000000000E+00  0.00000000000E+00 -0.11158786140E+04  0.11158786140E+04  0.25500000920E-02 0. -1.
    10030    2    1    2    0    0  0.00000000000E+00  0.00000000000E+00 -0.78857619594E+03  0.14431810321E+04  0.12086848534E+04 0.  0.
        3    1    3    3  502    0  0.18743312055E+03 -0.56820099737E+03 -0.49592775769E+03  0.77712798118E+03  0.10100000352E+00 0. -1.
       -3    1    3    3    0  502 -0.18743312055E+03  0.56820099737E+03 -0.29264843825E+03  0.66605305097E+03  0.10100000352E+00 0.  1.
</event>
<event>
 5   0  0.5031575E-03  0.9481060E+03  0.7818609E-02  0.9367367E-01
       -2   -1    0    0    0  501  0.00000000000E+00  0.00000000000E+00  0.15727389289E+03  0.15727389291E+03  0.25500000920E-02 0.  1.
        2   -1    0    0  501    0  0.00000000000E+00  0.00000000000E+00 -0.14288846074E+04  0.14288846074E+04  0.25500000920E-02 0. -1.
    10030    2    1    2    0    0  0.00000000000E+00  0.00000000000E+00 -0.12716107145E+04  0.15861585003E+04  0.94810599557E+03 0.  0.
        5    1    3    3  502    0 -0.16243982161E+02 -0.17320021153E+03  0.10190299627E+03  0.20166430244E+03  0.46999998093E+01 0.  1.
       -5    1    3    3    0  502  0.16243982161E+02  0.17320021153E+03 -0.13735137108E+04  0.13844941978E+04  0.46999998093E+01 0. -1.
</event>
<event>
 5   0  0.5003526E-03  0.1178735E+04  0.7818609E-02  0.9131676E-01
       -2   -1    0    0    0  501  0.00000000000E+00  0.00000000000E+00  0.34874160419E+03  0.34874160419E+03  0.25500000920E-02 0.  1.
        2   -1    0    0  501    0  0.00000000000E+00  0.00000000000E+00 -0.99602176504E+03  0.99602176505E+03  0.25500000920E-02 0. -1.
    10030    2    1    2    0    0  0.00000000000E+00  0.00000000000E+00 -0.64728016086E+03  0.13447633692E+04  0.11787353022E+04 0.  0.
        2    1    3    3  502    0  0.33106221144E+03 -0.43433174328E+03 -0.70823471144E+02  0.55069248690E+03  0.25500000920E-02 0.  1.
       -2    1    3    3    0  502 -0.33106221144E+03  0.43433174328E+03 -0.57645668971E+03  0.79407088234E+03  0.25500000920E-02 0. -1.
</event>
<event>
 5   0  0.5031575E-03  0.9950835E+03  0.7818609E-02  0.9313954E-01
       -2   -1    0    0    0  501  0.00000000000E+00  0.00000000000E+00  0.26596241359E+03  0.26596241361E+03  0.25500000920E-02 0. -1.
        2   -1    0    0  501    0  0.00000000000E+00  0.00000000000E+00 -0.93076233595E+03  0.93076233595E+03  0.25500000920E-02 0.  1.
    10030    2    1    2    0    0  0.00000000000E+00  0.00000000000E+00 -0.66479992236E+03  0.11967247496E+04  0.99508350878E+03 0.  0.
        5    1    3    3  502    0  0.35290197199E+03  0.18588002727E+03 -0.69003960841E+03  0.79703697376E+03  0.46999998093E+01 0.  1.
       -5    1    3    3    0  502 -0.35290197199E+03 -0.18588002727E+03  0.25239686053E+02  0.39968777580E+03  0.46999998093E+01 0. -1.
</event>
<event>
 5   0  0.5003526E-03  0.1164743E+04  0.7818609E-02  0.9144289E-01
       -2   -1    0    0    0  501  0.00000000000E+00  0.00000000000E+00  0.24413136527E+03  0.24413136528E+03  0.25500000920E-02 0.  1.
        2   -1    0    0  501    0  0.00000000000E+00  0.00000000000E+00 -0.13892382114E+04  0.13892382114E+04  0.25500000920E-02 0. -1.
    10030    2    1    2    0    0  0.00000000000E+00  0.00000000000E+00 -0.11451068461E+04  0.16333695767E+04  0.11647430983E+04 0.  0.
        2    1    3    3  502    0 -0.10291310147E+03  0.54392658138E+03 -0.82617753033E+03  0.99449310908E+03  0.25500000920E-02 0. -1.
       -2    1    3    3    0  502  0.10291310147E+03 -0.54392658138E+03 -0.31892931581E+03  0.63887646761E+03  0.25500000920E-02 0.  1.
</event>
<event>
 5   0  0.5189537E-03  0.1217007E+04  0.7818609E-02  0.9098099E-01
        2   -1    0    0  501    0  0.00000000000E+00  0.00000000000E+00  0.35670178034E+03  0.35670178035E+03  0.25500000920E-02 0. -1.
       -2   -1    0    0    0  501  0.00000000000E+00  0.00000000000E+00 -0.10380567153E+04  0.10380567153E+04  0.25500000920E-02 0.  1.
    10030    2    1    2    0    0  0.00000000000E+00  0.00000000000E+00 -0.68135493495E+03  0.13947584956E+04  0.12170072776E+04 0.  0.
        4    1    3    3  502    0 -0.12519713842E+03  0.76159918180E+01 -0.10230792266E+04  0.10307400466E+04  0.12699999809E+01 0.  1.
       -4    1    3    3    0  502  0.12519713842E+03 -0.76159918180E+01  0.34172429169E+03  0.36401844903E+03  0.12699999809E+01 0. -1.
</event>
<event>
 5   0  0.5467554E-03  0.1227752E+04  0.7818609E-02  0.9088906E-01
        2   -1    0    0  501    0  0.00000000000E+00  0.00000000000E+00  0.10863372389E+04  0.10863372389E+04  0.25500000920E-02 0.  1.
       -2   -1    0    0    0  501  0.00000000000E+00  0.00000000000E+00 -0.34689403046E+03  0.34689403047E+03  0.25500000920E-02 0. -1.
    10030    2    1    2    0    0  0.00000000000E+00  0.00000000000E+00  0.73944320847E+03  0.14332312694E+04  0.12277522605E+04 0.  0.
        1    1    3    3  502    0 -0.53906490533E+03 -0.12358289165E+03  0.68073145269E+03  0.87707412114E+03  0.50400001928E-02 0.  1.
       -1    1    3    3    0  502  0.53906490533E+03  0.12358289165E+03  0.58711755776E+02  0.55615714826E+03  0.50400001928E-02 0. -1.
</event>
<event>
 5   0  0.2875848E-03  0.1270232E+04  0.7818609E-02  0.9053510E-01
        1   -1    0    0  501    0  0.00000000000E+00  0.00000000000E+00  0.49873160845E+03  0.49873160848E+03  0.50400001928E-02 0.  1.
       -1   -1    0    0    0  501  0.00000000000E+00  0.00000000000E+00 -0.80879623954E+03  0.80879623955E+03  0.50400001928E-02 0. -1.
    10030    2    1    2    0    0  0.00000000000E+00  0.00000000000E+00 -0.31006463108E+03  0.13075278480E+04  0.12702318678E+04 0.  0.
        1    1    3    3  502    0  0.46216974887E+03  0.20788617822E+03 -0.54909728767E+03  0.74721173118E+03  0.50400001928E-02 0. -1.
       -1    1    3    3    0  502 -0.46216974887E+03 -0.20788617822E+03  0.23903265659E+03  0.56031611685E+03  0.50400001928E-02 0.  1.
</event>
<event>
 5   0  0.2926844E-03  0.1181915E+04  0.7818609E-02  0.9128835E-01
       -1   -1    0    0    0  501  0.00000000000E+00  0.00000000000E+00  0.85856472811E+03  0.85856472813E+03  0.50400001928E-02 0. -1.
        1   -1    0    0  501    0  0.00000000000E+00  0.00000000000E+00 -0.40676121571E+03  0.40676121574E+03  0.50400001928E-02 0.  1.
    10030    2    1    2    0    0  0.00000000000E+00  0.00000000000E+00  0.45180351240E+03  0.12653259439E+04  0.11819151113E+04 0.  0.
        5    1    3    3  502    0 -0.28646019943E+03 -0.20793977879E+03  0.73248778380E+03  0.81354707355E+03  0.46999998093E+01 0. -1.
       -5    1    3    3    0  502  0.28646019943E+03  0.20793977879E+03 -0.28068427140E+03  0.45177887032E+03  0.46999998093E+01 0.  1.
</event>
<event>
 5   0  0.2792518E-03  0.1197916E+04  0.7818609E-02  0.9114683E-01
       -1   -1    0    0    0  501  0.00000000000E+00  0.00000000000E+00  0.28052201116E+03  0.28052201121E+03  0.50400001928E-02 0.  1.
        1   -1    0    0  501    0  0.00000000000E+00  0.00000000000E+00 -0.12788679426E+04  0.12788679426E+04  0.50400001928E-02 0. -1.
    10030    2    1    2    0    0  0.00000000000E+00  0.00000000000E+00 -0.99834593143E+03  0.15593899538E+04  0.11979158690E+04 0.  0.
        2    1    3    3  502    0  0.49674384956E+03  0.18854943667E+03 -0.85909108398E+03  0.10101202071E+04  0.25500000920E-02 0. -1.
       -2    1    3    3    0  502 -0.49674384956E+03 -0.18854943667E+03 -0.13925484745E+03  0.54926974674E+03  0.25500000920E-02 0.  1.
</event>
<event>
 5   0  0.2926844E-03  0.1296020E+04  0.7818609E-02  0.9032727E-01
       -1   -1    0    0    0  501  0.00000000000E+00  0.00000000000E+00  0.61375577348E+03  0.61375577350E+03  0.50400001928E-02 0. -1.
        1   -1    0    0  501    0  0.00000000000E+00  0.00000000000E+00 -0.68417629457E+03  0.68417629459E+03  0.50400001928E-02 0.  1.
    10030    2    1    2    0    0  0.00000000000E+00  0.00000000000E+00 -0.70420521094E+02  0.12979320681E+04  0.12960202944E+04 0.  0.
        5    1    3    3  502    0 -0.15817400234E+03  0.58299089807E+03  0.19965147242E+03  0.63622339055E+03  0.46999998093E+01 0. -1.
       -5    1    3    3    0  502  0.15817400234E+03 -0.58299089807E+03 -0.27007199352E+03  0.66170867754E+03  0.46999998093E+01 0.  1.
</event>
<event>
 5   0  0.5108045E-03  0.1053694E+04  0.7818609E-02  0.9251539E-01
        2   -1    0    0  501    0  0.00000000000E+00  0.00000000000E+00  0.84086184519E+03  0.84086184519E+03  0.25500000920E-02 0.  1.
       -2   -1    0    0    0  501  0.00000000000E+00  0.00000000000E+00 -0.33009904184E+03  0.33009904185E+03  0.25500000920E-02 0. -1.
    10030    2    1    2    0    0  0.00000000000E+00  0.00000000000E+00  0.51076280335E+03  0.11709608870E+04  0.10536938634E+04 0.  0.
        3    1    3    3  502    0  0.46963889535E+03 -0.91744027385E+02  0.10417844540E+02  0.47862950209E+03  0.10100000352E+00 0. -1.
       -3    1    3    3    0  502 -0.46963889535E+03  0.91744027385E+02  0.50034495881E+03  0.69233138495E+03  0.10100000352E+00 0.  1.
</event>
<event>
 5   0  0.5189537E-03  0.1219907E+04  0.7818609E-02  0.9095608E-01
       -2   -1    0    0    0  501  0.00000000000E+00  0.00000000000E+00  0.68951201834E+03  0.68951201835E+03  0.25500000920E-02 0.  1.
        2   -1    0    0  501    0  0.00000000000E+00  0.00000000000E+00 -0.53957468062E+03  0.53957468062E+03  0.25500000920E-02 0. -1.
    10030    2    1    2    0    0  0.00000000000E+00  0.00000000000E+00  0.14993733773E+03  0.12290866990E+04  0.12199069261E+04 0.  0.
        4    1    3    3  502    0 -0.54044506570E+03  0.17070904574E+02 -0.20941287163E+03  0.57985140211E+03  0.12699999809E+01 0. -1.
       -4    1    3    3    0  502  0.54044506570E+03 -0.17070904574E+02  0.35935020936E+03  0.64923529686E+03  0.12699999809E+01 0.  1.
</event>
<event>
 5   0  0.2938349E-03  0.1188293E+04  0.7818609E-02  0.9123166E-01
       -1   -1    0    0    0  501  0.00000000000E+00  0.00000000000E+00  0.67228396260E+03  0.67228396262E+03  0.50400001928E-02 0.  1.
        1   -1    0    0  501    0  0.00000000000E+00  0.00000000000E+00 -0.52509029763E+03  0.52509029765E+03  0.50400001928E-02 0. -1.
    10030    2    1    2    0    0  0.00000000000E+00  0.00000000000E+00  0.14719366497E+03  0.11973742603E+04  0.11882925331E+04 0.  0.
        4    1    3    3  502    0  0.20911457820E+03 -0.34641812922E+03  0.51197784830E+03  0.65257747212E+03  0.12699999809E+01 0.  1.
       -4    1    3    3    0  502 -0.20911457820E+03  0.34641812922E+03 -0.36478418333E+03  0.54479678815E+03  0.12699999809E+01 0. -1.
</event>
<event>
 5   0  0.2792518E-03  0.1198156E+04  0.7818609E-02  0.9114472E-01
       -1   -1    0    0    0  501  0.00000000000E+00  0.00000000000E+00  0.60838269137E+03  0.60838269139E+03  0.50400001928E-02 0.  1.
        1   -1    0    0  501    0  0.00000000000E+00  0.00000000000E+00 -0.58991523000E+03  0.58991523002E+03  0.50400001928E-02 0. -1.
    10030    2    1    2    0    0  0.00000000000E+00  0.00000000000E+00  0.18467461369E+02  0.11982979214E+04  0.11981556082E+04 0.  0.
        2    1    3    3  502    0  0.23522271744E+03  0.41170437993E+03  0.37542472100E+03  0.60479248044E+03  0.25500000920E-02 0.  1.
       -2    1    3    3    0  502 -0.23522271744E+03 -0.41170437993E+03 -0.35695725963E+03  0.59350544097E+03  0.25500000920E-02 0. -1.
</event>
<event>
 5   0  0.2792518E-03  0.1211962E+04  0.7818609E-02  0.9102450E-01
       -1   -1    0    0    0  501  0.00000000000E+00  0.00000000000E+00  0.74571126465E+03  0.74571126467E+03  0.50400001928E-02 0. -1.
        1   -1    0    0  501    0  0.00000000000E+00  0.00000000000E+00 -0.49243311770E+03  0.49243311772E+03  0.50400001928E-02 0.  1.
    10030    2    1    2    0    0  0.00000000000E+00  0.00000000000E+00  0.25327814695E+03  0.12381443824E+04  0.12119619185E+04 0.  0.
        2    1    3    3  502    0  0.34300947160E+03 -0.43701114257E+03  0.37389808734E+03  0.66965216050E+03  0.25500000920E-02 0. -1.
       -2    1    3    3    0  502 -0.34300947160E+03  0.43701114257E+03 -0.12061994039E+03  0.56849222190E+03  0.25500000920E-02 0.  1.
</event>
<event>
 5   0  0.5003526E-03  0.1206669E+04  0.7818609E-02  0.9107039E-01
       -2   -1    0    0    0  501  0.00000000000E+00  0.00000000000E+00  0.94628038152E+03  0.94628038153E+03  0.25500000920E-02 0. -1.
        2   -1    0    0  501    0  0.00000000000E+00  0.00000000000E+00 -0.38467721215E+03  0.38467721216E+03  0.25500000920E-02 0.  1.
    10030    2    1    2    0    0  0.00000000000E+00  0.00000000000E+00  0.56160316938E+03  0.13309575937E+04  0.12066689672E+04 0.  0.
        2    1    3    3  502    0 -0.10528442591E+02 -0.35916704956E+03  0.81538836257E+03  0.89104994215E+03  0.25500000920E-02 0. -1.
       -2    1    3    3    0  502  0.10528442591E+02  0.35916704956E+03 -0.25378519319E+03  0.43990765154E+03  0.25500000920E-02 0.  1.
</event>
<event>
 5   0  0.2875848E-03  0.1205665E+04  0.7818609E-02  0.9107913E-01
        1   -1    0    0  501    0  0.00000000000E+00  0.00000000000E+00  0.67359681418E+03  0.67359681420E+03  0.50400001928E-02 0.  1.
       -1   -1    0    0    0  501  0.00000000000E+00  0.00000000000E+00 -0.53950215896E+03  0.53950215898E+03  0.50400001928E-02 0. -1.
    10030    2    1    2    0    0  0.00000000000E+00  0.00000000000E+00  0.13409465522E+03  0.12130989732E+04  0.12056648548E+04 0.  0.
        1    1    3    3  502    0  0.51058775503E+03  0.31896097351E+03  0.35694683488E+02  0.60308379904E+03  0.50400001928E-02 0.  1.
       -1    1    3    3    0  502 -0.51058775503E+03 -0.31896097351E+03  0.98399971729E+02  0.61001517414E+03  0.50400001928E-02 0. -1.
</event>
<event>
 5   0  0.2938349E-03  0.1204676E+04  0.7818609E-02  0.9108773E-01
        1   -1    0    0  501    0  0.00000000000E+00  0.00000000000E+00  0.48574533091E+03  0.48574533094E+03  0.50400001928E-02 0.  1.
       -1   -1    0    0    0  501  0.00000000000E+00  0.00000000000E+00 -0.74691637148E+03  0.74691637149E+03  0.50400001928E-02 0. -1.
    10030    2    1    2    0    0  0.00000000000E+00  0.00000000000E+00 -0.26117104057E+03  0.12326617024E+04  0.12046761225E+04 0.  0.
        4    1    3    3  502    0 -0.39114476556E+03 -0.24607835019E+03  0.26473231021E+03  0.53257261573E+03  0.12699999809E+01 0.  1.
       -4    1    3    3    0  502  0.39114476556E+03  0.24607835019E+03 -0.52590335077E+03  0.70008908670E+03  0.12699999809E+01 0. -1.
</event>
<event>
 5   0  0.2930868E-03  0.1162439E+04  0.7818609E-02  0.9146384E-01
        1   -1    0    0  501    0  0.00000000000E+00  0.00000000000E+00  0.13980819354E+04  0.13980819354E+04  0.50400001928E-02 0. -1.
       -1   -1    0    0    0  501  0.00000000000E+00  0.00000000000E+00 -0.24162841329E+03  0.24162841334E+03  0.50400001928E-02 0.  1.
    10030    2    1    2    0    0  0.00000000000E+00  0.00000000000E+00  0.11564535221E+04  0.16397103488E+04  0.11624393657E+04 0.  0.
        3    1    3    3  502    0 -0.36667762041E+03  0.43829629685E+03  0.72790878875E+03  0.92542278774E+03  0.10100000352E+00 0. -1.
       -3    1    3    3    0  502  0.36667762041E+03 -0.43829629685E+03  0.42854473340E+03  0.71428756105E+03  0.10100000352E+00 0.  1.
</event>
<event>
 5   0  0.2938349E-03  0.1315193E+04  0.7818609E-02  0.9017603E-01
        1   -1    0    0  501    0  0.00000000000E+00  0.00000000000E+00  0.70595112911E+03  0.70595112913E+03  0.50400001928E-02 0. -1.
       -1   -1    0    0    0  501  0.00000000000E+00  0.00000000000E+00 -0.61255401291E+03  0.61255401293E+03  0.50400001928E-02 0.  1.
    10030    2    1    2    0    0  0.00000000000E+00  0.00000000000E+00  0.93397116203E+02  0.13185051421E+04  0.13151930612E+04 0.  0.
        4    1    3    3  502    0  0.30360598669E+03  0.11815674656E+03 -0.52596143595E+03  0.61868785095E+03  0.12699999809E+01 0.  1.
       -4    1    3    3    0  502 -0.30360598669E+03 -0.11815674656E+03  0.61935855215E+03  0.69981729110E+03  0.12699999809E+01 0. -1.
</event>
<event>
 5   0  0.5189537E-03  0.1085177E+04  0.7818609E-02  0.9219761E-01
        2   -1    0    0  501    0  0.00000000000E+00  0.00000000000E+00  0.23303370297E+04  0.23303370297E+04  0.25500000920E-02 0.  1.
       -2   -1    0    0    0  501  0.00000000000E+00  0.00000000000E+00 -0.12633462684E+03  0.12633462687E+03  0.25500000920E-02 0. -1.
    10030    2    1    2    0    0  0.00000000000E+00  0.00000000000E+00  0.22040024028E+04  0.24566716566E+04  0.10851769609E+04 0.  0.
        4    1    3    3  502    0 -0.33668589955E+03 -0.86875163172E+02  0.15904563141E+03  0.38236345890E+03  0.12699999809E+01 0. -1.
       -4    1    3    3    0  502  0.33668589955E+03  0.86875163172E+02  0.20449567714E+04  0.20743081977E+04  0.12699999809E+01 0.  1.
</event>
<event>
 5   0  0.5003526E-03  0.1165101E+04  0.7818609E-02  0.9143964E-01
       -2   -1    0    0    0  501  0.00000000000E+00  0.00000000000E+00  0.72004862675E+03  0.72004862675E+03  0.25500000920E-02 0.  1.
        2   -1    0    0  501    0  0.00000000000E+00  0.00000000000E+00 -0.47130844055E+03  0.47130844056E+03  0.25500000920E-02 0. -1.
    10030    2    1    2    0    0  0.00000000000E+00  0.00000000000E+00  0.24874018619E+03  0.11913570673E+04  0.11651008461E+04 0.  0.
        2    1    3    3  502    0  0.53475186408E+03 -0.23099537910E+03  0.13134840868E+03  0.59713551709E+03  0.25500000920E-02 0.  1.
       -2    1    3    3    0  502 -0.53475186408E+03  0.23099537910E+03  0.11739177751E+03  0.59422155021E+03  0.25500000920E-02 0. -1.
</event>
<event>
 5   0  0.5031575E-03  0.1182267E+04  0.7818609E-02  0.9128521E-01
       -2   -1    0    0    0  501  0.00000000000E+00  0.00000000000E+00  0.24186467230E+03  0.24186467232E+03  0.25500000920E-02 0.  1.
        2   -1    0    0  501    0  0.00000000000E+00  0.00000000000E+00 -0.14447705011E+04  0.14447705011E+04  0.25500000920E-02 0. -1.
    10030    2    1    2    0    0  0.00000000000E+00  0.00000000000E+00 -0.12029058288E+04  0.16866351735E+04  0.11822672182E+04 0.  0.
        5    1    3    3  502    0 -0.11702871819E+03  0.58761369021E+01  0.22510351897E+03  0.25381870325E+03  0.46999998093E+01 0.  1.
       -5    1    3    3    0  502  0.11702871819E+03 -0.58761369021E+01 -0.14280093478E+04  0.14328164702E+04  0.46999998093E+01 0. -1.
</event>
<event>
 5   0  0.5108045E-03  0.1368508E+04  0.7818609E-02  0.8976935E-01
        2   -1    0    0  501    0  0.00000000000E+00  0.00000000000E+00  0.83691858653E+03  0.83691858653E+03  0.25500000920E-02 0.  1.
       -2   -1    0    0    0  501  0.00000000000E+00  0.00000000000E+00 -0.55943774734E+03  0.55943774734E+03  0.25500000920E-02 0. -1.
    10030    2    1    2    0    0  0.00000000000E+00  0.00000000000E+00  0.27748083919E+03  0.13963563339E+04  0.13685084563E+04 0.  0.
        3    1    3    3  502    0  0.17498252973E+03  0.31578676987E+03  0.73182894374E+03  0.81603540538E+03  0.10100000352E+00 0.  1.
       -3    1    3    3    0  502 -0.17498252973E+03 -0.31578676987E+03 -0.45434810455E+03  0.58032092849E+03  0.10100000352E+00 0. -1.
</event>
<event>
 5   0  0.5467554E-03  0.1209284E+04  0.7818609E-02  0.9104769E-01
       -2   -1    0    0    0  501  0.00000000000E+00  0.00000000000E+00  0.32855988777E+03  0.32855988778E+03  0.25500000920E-02 0. -1.
        2   -1    0    0  501    0  0.00000000000E+00  0.00000000000E+00 -0.11127106421E+04  0.11127106421E+04  0.25500000920E-02 0.  1.
    10030    2    1    2    0    0  0.00000000000E+00  0.00000000000E+00 -0.78415075435E+03  0.14412705299E+04  0.12092842242E+04 0.  0.
        1    1    3    3  502    0 -0.21955703851E+02  0.57974350065E+02 -0.11089130021E+04  0.11106444635E+04  0.50400001928E-02 0.  1.
       -1    1    3    3    0  502  0.21955703851E+02 -0.57974350065E+02  0.32476224771E+03  0.33062606637E+03  0.50400001928E-02 0. -1.
</event>
<event>
 5   0  0.2930868E-03  0.1176714E+04  0.7818609E-02  0.9133487E-01
       -1   -1    0    0    0  501  0.00000000000E+00  0.00000000000E+00  0.65492154465E+03  0.65492154467E+03  0.50400001928E-02 0.  1.
        1   -1    0    0  501    0  0.00000000000E+00  0.00000000000E+00 -0.52855777958E+03  0.52855777961E+03  0.50400001928E-02 0. -1.
    10030    2    1    2    0    0  0.00000000000E+00  0.00000000000E+00  0.12636376507E+03  0.11834793243E+04  0.11767138607E+04 0.  0.
        3    1    3    3  502    0  0.56042124678E+03 -0.15108489785E+03 -0.33627691308E+02  0.58140300311E+03  0.10100000352E+00 0. -1.
       -3    1    3    3    0  502 -0.56042124678E+03  0.15108489785E+03  0.15999145638E+03  0.60207632117E+03  0.10100000352E+00 0.  1.
</event>
<event>
 5   0  0.2930868E-03  0.1179332E+04  0.7818609E-02  0.9131142E-01
       -1   -1    0    0    0  501  0.00000000000E+00  0.00000000000E+00  0.33769101889E+03  0.33769101892E+03  0.50400001928E-02 0.  1.
        1   -1    0    0  501    0  0.00000000000E+00  0.00000000000E+00 -0.10296568337E+04  0.10296568337E+04  0.50400001928E-02 0. -1.
    10030    2    1    2    0    0  0.00000000000E+00  0.00000000000E+00 -0.69196581485E+03  0.13673478527E+04  0.11793317859E+04 0.  0.
        3    1    3    3  502    0 -0.22545686291E+02 -0.37053814936E+03 -0.87717086616E+03  0.95248914259E+03  0.10100000352E+00 0. -1.
       -3    1    3    3    0  502  0.22545686291E+02  0.37053814936E+03  0.18520505131E+03  0.41485871008E+03  0.10100000352E+00 0.  1.
</event>
<event>
 5   0  0.5031575E-03  0.1199130E+04  0.7818609E-02  0.9113619E-01
        2   -1    0    0  501    0  0.00000000000E+00  0.00000000000E+00  0.13534192120E+04  0.13534192120E+04  0.25500000920E-02 0.  1.
       -2   -1    0    0    0  501  0.00000000000E+00  0.00000000000E+00 -0.26560732478E+03  0.26560732479E+03  0.25500000920E-02 0. -1.
    10030    2    1    2    0    0  0.00000000000E+00  0.00000000000E+00  0.10878118872E+04  0.16190265367E+04  0.11991297781E+04 0.  0.
        5    1    3    3  502    0 -0.34720952315E+03  0.48868039044E+03  0.55692573814E+03  0.81826117149E+03  0.46999998093E+01 0.  1.
       -5    1    3    3    0  502  0.34720952315E+03 -0.48868039044E+03  0.53088614903E+03  0.80076536526E+03  0.46999998093E+01 0. -1.
</event>
<event>
 5   0  0.2938349E-03  0.1006802E+04  0.7818609E-02  0.9301116E-01
        1   -1    0    0  501    0  0.00000000000E+00  0.00000000000E+00  0.59103679868E+03  0.59103679870E+03  0.50400001928E-02 0.  1.
       -1   -1    0    0    0  501  0.00000000000E+00  0.00000000000E+00 -0.42875959716E+03  0.42875959719E+03  0.50400001928E-02 0. -1.
    10030    2    1    2    0    0  0.00000000000E+00  0.00000000000E+00  0.16227720152E+03  0.10197963959E+04  0.10068022641E+04 0.  0.
        4    1    3    3  502    0  0.38918978039E+03 -0.22256405336E+03  0.31302037073E+03  0.54679686210E+03  0.12699999809E+01 0.  1.
       -4    1    3    3    0  502 -0.38918978039E+03  0.22256405336E+03 -0.15074316921E+03  0.47299953380E+03  0.12699999809E+01 0. -1.
</event>
<event>
 5   0  0.5467554E-03  0.1182489E+04  0.7818609E-02  0.9128323E-01
        2   -1    0    0  501    0  0.00000000000E+00  0.00000000000E+00  0.63659389154E+03  0.63659389155E+03  0.25500000920E-02 0.  1.
       -2   -1    0    0    0  501  0.00000000000E+00  0.00000000000E+00 -0.54912600515E+03  0.54912600515E+03  0.25500000920E-02 0. -1.
    10030    2    1    2    0    0  0.00000000000E+00  0.00000000000E+00  0.87467886395E+02  0.11857198967E+04  0.11824893413E+04 0.  0.
        1    1    3    3  502    0 -0.24022339274E+03 -0.44087776651E+03  0.35682049354E+03  0.61595563806E+03  0.50400001928E-02 0.  1.
       -1    1    3    3    0  502  0.24022339274E+03  0.44087776651E+03 -0.26935260714E+03  0.56976425864E+03  0.50400001928E-02 0. -1.
</event>
<event>
 5   0  0.5108045E-03  0.1222577E+04  0.7818609E-02  0.9093321E-01
        2   -1    0    0  501    0  0.00000000000E+00  0.00000000000E+00  0.61893794254E+03  0.61893794254E+03  0.25500000920E-02 0.  1.
       -2   -1    0    0    0  501  0.00000000000E+00  0.00000000000E+00 -0.60373361652E+03  0.60373361653E+03  0.25500000920E-02 0. -1.
    10030    2    1    2    0    0  0.00000000000E+00  0.00000000000E+00  0.15204326015E+02  0.12226715591E+04  0.12225770200E+04 0.  0.
        3    1    3    3  502    0 -0.32490849248E+03  0.34774432267E+03  0.39127487926E+03  0.61610687691E+03  0.10100000352E+00 0.  1.
       -3    1    3    3    0  502  0.32490849248E+03 -0.34774432267E+03 -0.37607055325E+03  0.60656468217E+03  0.10100000352E+00 0. -1.
</event>
<event>
 5   0  0.2930868E-03  0.1195937E+04  0.7818609E-02  0.9116420E-01
       -1   -1    0    0    0  501  0.00000000000E+00  0.00000000000E+00  0.39693578420E+03  0.39693578423E+03  0.50400001928E-02 0. -1.
        1   -1    0    0  501    0  0.00000000000E+00  0.00000000000E+00 -0.90081627879E+03  0.90081627880E+03  0.50400001928E-02 0.  1.
    10030    2    1    2    0    0  0.00000000000E+00  0.00000000000E+00 -0.50388049459E+03  0.12977520630E+04  0.11959368145E+04 0.  0.
        3    1    3    3  502    0 -0.36777806916E+03  0.15621468969E+03  0.23079509809E+03  0.46144352302E+03  0.10100000352E+00 0. -1.
       -3    1    3    3    0  502  0.36777806916E+03 -0.15621468969E+03 -0.73467559267E+03  0.83630854002E+03  0.10100000352E+00 0.  1.
</event>
<event>
 5   0  0.5108045E-03  0.1191448E+04  0.7818609E-02  0.9120375E-01
       -2   -1    0    0    0  501  0.00000000000E+00  0.00000000000E+00  0.98307714556E+03  0.98307714556E+03  0.25500000920E-02 0.  1.
        2   -1    0    0  501    0  0.00000000000E+00  0.00000000000E+00 -0.36099642771E+03  0.36099642772E+03  0.25500000920E-02 0. -1.
    10030    2    1    2    0    0  0.00000000000E+00  0.00000000000E+00  0.62208071785E+03  0.13440735733E+04  0.11914484256E+04 0.  0.
        3    1    3    3  502    0  0.35621956304E+03 -0.42938970182E+03  0.54664715280E+03  0.78108323051E+03  0.10100000352E+00 0.  1.
       -3    1    3    3    0  502 -0.35621956304E+03  0.42938970182E+03  0.75433565051E+02  0.56299034278E+03  0.10100000352E+00 0. -1.
</event>
<event>
 5   0  0.5467554E-03  0.1227843E+04  0.7818609E-02  0.9088829E-01
        2   -1    0    0  501    0  0.00000000000E+00  0.00000000000E+00  0.11892568759E+04  0.11892568759E+04  0.25500000920E-02 0. -1.
       -2   -1    0    0    0  501  0.00000000000E+00  0.00000000000E+00 -0.31692017838E+03  0.31692017839E+03  0.25500000920E-02 0.  1.
    10030    2    1    2    0    0  0.00000000000E+00  0.00000000000E+00  0.87233669756E+03  0.15061770543E+04  0.12278428259E+04 0.  0.
        1    1    3    3  502    0  0.12323547645E+03 -0.26881673564E+03 -0.22379541088E+03  0.37085550551E+03  0.50400001928E-02 0.  1.
       -1    1    3    3    0  502 -0.12323547645E+03  0.26881673564E+03  0.10961321084E+04  0.11353215488E+04  0.50400001928E-02 0. -1.
</event>
<event>
 5   0  0.2792518E-03  0.1035531E+04  0.7818609E-02  0.9270411E-01
        1   -1    0    0  501    0  0.00000000000E+00  0.00000000000E+00  0.74061977051E+03  0.74061977052E+03  0.50400001928E-02 0.  1.
       -1   -1    0    0    0  501  0.00000000000E+00  0.00000000000E+00 -0.36196851174E+03  0.36196851177E+03  0.50400001928E-02 0. -1.
    10030    2    1    2    0    0  0.00000000000E+00  0.00000000000E+00  0.37865125877E+03  0.11025882823E+04  0.10355308515E+04 0.  0.
        2    1    3    3  502    0 -0.34982460817E+03 -0.37917189170E+03  0.23613202055E+03  0.56736840859E+03  0.25500000920E-02 0. -1.
       -2    1    3    3    0  502  0.34982460817E+03  0.37917189170E+03  0.14251923822E+03  0.53521987370E+03  0.25500000920E-02 0.  1.
</event>
<event>
 5   0  0.5189537E-03  0.1214369E+04  0.7818609E-02  0.9100372E-01
        2   -1    0    0  501    0  0.00000000000E+00  0.00000000000E+00  0.80813743677E+03  0.80813743678E+03  0.25500000920E-02 0. -1.
       -2   -1    0    0    0  501  0.00000000000E+00  0.00000000000E+00 -0.45620084076E+03  0.45620084077E+03  0.25500000920E-02 0.  1.
    10030    2    1    2    0    0  0.00000000000E+00  0.00000000000E+00  0.35193659601E+03  0.12643382775E+04  0.12143689359E+04 0.  0.
        4    1    3    3  502    0  0.39764033822E+03  0.42764699841E+03  0.34916098421E+03  0.68037842384E+03  0.12699999809E+01 0. -1.
       -4    1    3    3    0  502 -0.39764033822E+03 -0.42764699841E+03  0.27756118039E+01  0.58395985371E+03  0.12699999809E+01 0.  1.
</event>
<event>
 5   0  0.5003526E-03  0.1152695E+04  0.7818609E-02  0.9155301E-01
        2   -1    0    0  501    0  0.00000000000E+00  0.00000000000E+00  0.64068959923E+03  0.64068959923E+03  0.25500000920E-02 0. -1.
       -2   -1    0    0    0  501  0.00000000000E+00  0.00000000000E+00 -0.51846699101E+03  0.51846699102E+03  0.25500000920E-02 0.  1.
    10030    2    1    2    0    0  0.00000000000E+00  0.00000000000E+00  0.12222260822E+03  0.11591565903E+04  0.11526949444E+04 0.  0.
        2    1    3    3  502    0 -0.14355962807E+03 -0.44730607734E+03  0.39687567152E+03  0.61498161947E+03  0.25500000920E-02 0. -1.
       -2    1    3    3    0  502  0.14355962807E+03  0.44730607734E+03 -0.27465306330E+03  0.54417497078E+03  0.25500000920E-02 0.  1.
</event>
<event>
 5   0  0.2930868E-03  0.1219424E+04  0.7818609E-02  0.9096022E-01
       -1   -1    0    0    0  501  0.00000000000E+00  0.00000000000E+00  0.47297749122E+03  0.47297749124E+03  0.50400001928E-02 0. -1.
        1   -1    0    0  501    0  0.00000000000E+00  0.00000000000E+00 -0.78597592428E+03  0.78597592429E+03  0.50400001928E-02 0.  1.
    10030    2    1    2    0    0  0.00000000000E+00  0.00000000000E+00 -0.31299843306E+03  0.12589534155E+04  0.12194243246E+04 0.  0.
        3    1    3    3  502    0  0.19931836520E+03 -0.41036233400E+03  0.26111773270E+03  0.52564963274E+03  0.10100000352E+00 0. -1.
       -3    1    3    3    0  502 -0.19931836520E+03  0.41036233400E+03 -0.57411616576E+03  0.73330378279E+03  0.10100000352E+00 0.  1.
</event>
<event>
 5   0  0.2938349E-03  0.1238105E+04  0.7818609E-02  0.9080142E-01
       -1   -1    0    0    0  501  0.00000000000E+00  0.00000000000E+00  0.34019970109E+03  0.34019970112E+03  0.50400001928E-02 0. -1.
        1   -1    0    0  501    0  0.00000000000E+00  0.00000000000E+00 -0.11264742513E+04  0.11264742514E+04  0.50400001928E-02 0.  1.
    10030    2    1    2    0    0  0.00000000000E+00  0.00000000000E+00 -0.78627455025E+03  0.14666739525E+04  0.12381053326E+04 0.  0.
        4    1    3    3  502    0 -0.32907801076E+03 -0.42195709497E+03 -0.76186267436E+03  0.93100831073E+03  0.12699999809E+01 0.  1.
       -4    1    3    3    0  502  0.32907801076E+03  0.42195709497E+03 -0.24411875895E+02  0.53566564175E+03  0.12699999809E+01 0. -1.
</event>
<event>
 5   0  0.2926844E-03  0.1146954E+04  0.7818609E-02  0.9160598E-01
       -1   -1    0    0    0  501  0.00000000000E+00  0.00000000000E+00  0.39451666773E+03  0.39451666776E+03  0.50400001928E-02 0.  1.
        1   -1    0    0  501    0  0.00000000000E+00  0.00000000000E+00 -0.83361685045E+03  0.83361685046E+03  0.50400001928E-02 0. -1.
    10030    2    1    2    0    0  0.00000000000E+00  0.00000000000E+00 -0.43910018272E+03  0.12281335182E+04  0.11469537777E+04 0.  0.
        5    1    3    3  502    0 -0.25241076332E+01  0.45432374207E+03  0.15512635735E+03  0.48010697815E+03  0.46999998093E+01 0.  1.
       -5    1    3    3    0  502  0.25241076332E+01 -0.45432374207E+03 -0.59422654007E+03  0.74802654007E+03  0.46999998093E+01 0. -1.
</event>
<event>
 5   0  0.2938349E-03  0.1246775E+04  0.7818609E-02  0.9072872E-01
       -1   -1    0    0    0  501  0.00000000000E+00  0.00000000000E+00  0.98998034321E+03  0.98998034322E+03  0.50400001928E-02 0.  1.
        1   -1    0    0  501    0  0.00000000000E+00  0.00000000000E+00 -0.39254486794E+03  0.39254486797E+03  0.50400001928E-02 0. -1.
    10030    2    1    2    0    0  0.00000000000E+00  0.00000000000E+00  0.59743547527E+03  0.13825252112E+04  0.12467745636E+04 0.  0.
        4    1    3    3  502    0 -0.46515722751E+03  0.39092897302E+03  0.14421516115E+03  0.62449686457E+03  0.12699999809E+01 0.  1.
       -4    1    3    3    0  502  0.46515722751E+03 -0.39092897302E+03  0.45322031412E+03  0.75802834662E+03  0.12699999809E+01 0. -1.
</event>
<event>
 5   0  0.2875848E-03  0.1206230E+04  0.7818609E-02  0.9107421E-01
       -1   -1    0    0    0  501  0.00000000000E+00  0.00000000000E+00  0.25348516697E+03  0.25348516702E+03  0.50400001928E-02 0.  1.
        1   -1    0    0  501    0  0.00000000000E+00  0.00000000000E+00 -0.14349852164E+04  0.14349852164E+04  0.50400001928E-02 0. -1.
    10030    2    1    2    0    0  0.00000000000E+00  0.00000000000E+00 -0.11815000494E+04  0.16884703834E+04  0.12062296087E+04 0.  0.
        1    1    3    3  502    0  0.56762637762E+03 -0.65492783367E+01 -0.87592603537E+03  0.10437859058E+04  0.50400001928E-02 0. -1.
       -1    1    3    3    0  502 -0.56762637762E+03  0.65492783367E+01 -0.30557401402E+03  0.64468447762E+03  0.50400001928E-02 0.  1.
</event>
<event>
 5   0  0.5031575E-03  0.1255887E+04  0.7818609E-02  0.9065298E-01
        2   -1    0    0  501    0  0.00000000000E+00  0.00000000000E+00  0.30629683640E+04  0.30629683640E+04  0.25500000920E-02 0. -1.
       -2   -1    0    0    0  501  0.00000000000E+00  0.00000000000E+00 -0.12873562278E+03  0.12873562281E+03  0.25500000920E-02 0.  1.
    10030    2    1    2    0    0  0.00000000000E+00  0.00000000000E+00  0.29342327412E+04  0.31917039868E+04  0.12558871604E+04 0.  0.
        5    1    3    3  502    0  0.82379304765E+02  0.39364031545E+03  0.26926691722E+04  0.27225408002E+04  0.46999998093E+01 0. -1.
       -5    1    3    3    0  502 -0.82379304765E+02 -0.39364031545E+03  0.24156356902E+03  0.46916318661E+03  0.46999998093E+01 0.  1.
</event>
<event>
 5   0  0.2938349E-03  0.1204234E+04  0.7818609E-02  0.9109158E-01
       -1   -1    0    0    0  501  0.00000000000E+00  0.00000000000E+00  0.10403402959E+04  0.10403402959E+04  0.50400001928E-02 0.  1.
        1   -1    0    0  501    0  0.00000000000E+00  0.00000000000E+00 -0.34848706312E+03  0.34848706316E+03  0.50400001928E-02 0. -1.
    10030    2    1    2    0    0  0.00000000000E+00  0.00000000000E+00  0.69185323277E+03  0.13888273591E+04  0.12042344197E+04 0.  0.
        4    1    3    3  502    0  0.45100643489E+03  0.91395434004E+02 -0.10190450332E+03  0.47132374263E+03  0.12699999809E+01 0. -1.
       -4    1    3    3    0  502 -0.45100643489E+03 -0.91395434004E+02  0.79375773609E+03  0.91750361644E+03  0.12699999809E+01 0.  1.
</event>
<event>
 5   0  0.1922125E-03  0.1229008E+04  0.7818609E-02  0.9087838E-01
       -4   -1    0    0    0  501  0.00000000000E+00  0.00000000000E+00  0.74667167340E+03  0.74667275345E+03  0.12699999809E+01 0. -1.
        4   -1    0    0  501    0  0.00000000000E+00  0.00000000000E+00 -0.50572857394E+03  0.50573016857E+03  0.12699999809E+01 0.  1.
    10030    2    1    2    0    0  0.00000000000E+00  0.00000000000E+00  0.24094309946E+03  0.12524029220E+04  0.12290075272E+04 0.  0.
        5    1    3    3  502    0 -0.60292547155E+03  0.90711279232E+02  0.19838033499E+03  0.64118991550E+03  0.46999998093E+01 0. -1.
       -5    1    3    3    0  502  0.60292547155E+03 -0.90711279232E+02  0.42562764468E+02  0.61121300652E+03  0.46999998093E+01 0.  1.
</event>
<event>
 5   0  0.5108045E-03  0.1177379E+04  0.7818609E-02  0.9132891E-01
       -2   -1    0    0    0  501  0.00000000000E+00  0.00000000000E+00  0.49152378755E+03  0.49152378756E+03  0.25500000920E-02 0.  1.
        2   -1    0    0  501    0  0.00000000000E+00  0.00000000000E+00 -0.70506276479E+03  0.70506276479E+03  0.25500000920E-02 0. -1.
    10030    2    1    2    0    0  0.00000000000E+00  0.00000000000E+00 -0.21353897724E+03  0.11965865524E+04  0.11773786487E+04 0.  0.
        3    1    3    3  502    0 -0.37855842120E+03  0.86361635245E+02 -0.55647017251E+03  0.67854540998E+03  0.10100000352E+00 0. -1.
       -3    1    3    3    0  502  0.37855842120E+03 -0.86361635245E+02  0.34293119528E+03  0.51804114238E+03  0.10100000352E+00 0.  1.
</event>
<event>
 5   0  0.5108045E-03  0.1215279E+04  0.7818609E-02  0.9099587E-01
        2   -1    0    0  501    0  0.00000000000E+00  0.00000000000E+00  0.15051094411E+04  0.15051094411E+04  0.25500000920E-02 0. -1.
       -2   -1    0    0    0  501  0.00000000000E+00  0.00000000000E+00 -0.24531506047E+03  0.24531506048E+03  0.25500000920E-02 0.  1.
    10030    2    1    2    0    0  0.00000000000E+00  0.00000000000E+00  0.12597943807E+04  0.17504245016E+04  0.12152794141E+04 0.  0.
        3    1    3    3  502    0 -0.23376047430E+03  0.49018935002E+03  0.10224980622E+04  0.11577702085E+04  0.10100000352E+00 0.  1.
       -3    1    3    3    0  502  0.23376047430E+03 -0.49018935002E+03  0.23729631845E+03  0.59265429313E+03  0.10100000352E+00 0. -1.
</event>
<event>
 5   0  0.2926844E-03  0.1195108E+04  0.7818609E-02  0.9117149E-01
       -1   -1    0    0    0  501  0.00000000000E+00  0.00000000000E+00  0.22885752071E+03  0.22885752076E+03  0.50400001928E-02 0.  1.
        1   -1    0    0  501    0  0.00000000000E+00  0.00000000000E+00 -0.15602317192E+04  0.15602317193E+04  0.50400001928E-02 0. -1.
    10030    2    1    2    0    0  0.00000000000E+00  0.00000000000E+00 -0.13313741985E+04  0.17890892400E+04  0.11951079668E+04 0.  0.
        5    1    3    3  502    0  0.20516826284E+02 -0.57862338125E+03 -0.44454101273E+03  0.72997586226E+03  0.46999998093E+01 0.  1.
       -5    1    3    3    0  502 -0.20516826284E+02  0.57862338125E+03 -0.88683318581E+03  0.10591133778E+04  0.46999998093E+01 0. -1.
</event>
<event>
 5   0  0.5031575E-03  0.1194167E+04  0.7818609E-02  0.9117977E-01
       -2   -1    0    0    0  501  0.00000000000E+00  0.00000000000E+00  0.31873960623E+03  0.31873960624E+03  0.25500000920E-02 0.  1.
        2   -1    0    0  501    0  0.00000000000E+00  0.00000000000E+00 -0.11184957447E+04  0.11184957447E+04  0.25500000920E-02 0. -1.
    10030    2    1    2    0    0  0.00000000000E+00  0.00000000000E+00 -0.79975613844E+03  0.14372353509E+04  0.11941673136E+04 0.  0.
        5    1    3    3  502    0  0.26828786023E+03 -0.44423212934E+03 -0.75521215845E+03  0.91634494321E+03  0.46999998093E+01 0. -1.
       -5    1    3    3    0  502 -0.26828786023E+03  0.44423212934E+03 -0.44543979994E+02  0.52089040770E+03  0.46999998093E+01 0.  1.
</event>
<event>
 5   0  0.5108045E-03  0.1201544E+04  0.7818609E-02  0.9111506E-01
       -2   -1    0    0    0  501  0.00000000000E+00  0.00000000000E+00  0.48404217241E+03  0.48404217242E+03  0.25500000920E-02 0. -1.
        2   -1    0    0  501    0  0.00000000000E+00  0.00000000000E+00 -0.74565146548E+03  0.74565146549E+03  0.25500000920E-02 0.  1.
    10030    2    1    2    0    0  0.00000000000E+00  0.00000000000E+00 -0.26160929308E+03  0.12296936379E+04  0.12015435992E+04 0.  0.
        3    1    3    3  502    0 -0.44228552593E+03  0.40620935457E+03 -0.14865514857E+03  0.61864439672E+03  0.10100000352E+00 0.  1.
       -3    1    3    3    0  502  0.44228552593E+03 -0.40620935457E+03 -0.11295414451E+03  0.61104924119E+03  0.10100000352E+00 0. -1.
</event>
<event>
 5   0  0.2930868E-03  0.1163977E+04  0.7818609E-02  0.9144985E-01
        1   -1    0    0  501    0  0.00000000000E+00  0.00000000000E+00  0.12798203160E+04  0.12798203160E+04  0.50400001928E-02 0. -1.
       -1   -1    0    0    0  501  0.00000000000E+00  0.00000000000E+00 -0.26465475926E+03  0.26465475931E+03  0.50400001928E-02 0.  1.
    10030    2    1    2    0    0  0.00000000000E+00  0.00000000000E+00  0.10151655567E+04  0.15444750753E+04  0.11639768686E+04 0.  0.
        3    1    3    3  502    0 -0.53370923292E+03 -0.94741057482E+02  0.78871270028E+03  0.95702097525E+03  0.10100000352E+00 0. -1.
       -3    1    3    3    0  502  0.53370923292E+03  0.94741057482E+02  0.22645285644E+03  0.58745410005E+03  0.10100000352E+00 0.  1.
</event>
<event>
 5   0  0.2930868E-03  0.1153450E+04  0.7818609E-02  0.9154607E-01
       -1   -1    0    0    0  501  0.00000000000E+00  0.00000000000E+00  0.27767308837E+03  0.27767308842E+03  0.50400001928E-02 0.  1.
        1   -1    0    0  501    0  0.00000000000E+00  0.00000000000E+00 -0.11978533007E+04  0.11978533007E+04  0.50400001928E-02 0. -1.
    10030    2    1    2    0    0  0.00000000000E+00  0.00000000000E+00 -0.92018021234E+03  0.14755263891E+04  0.11534498263E+04 0.  0.
        3    1    3    3  502    0  0.37428989223E+03 -0.92505943453E+01  0.10107180014E+03  0.38780667336E+03  0.10100000352E+00 0.  1.
       -3    1    3    3    0  502 -0.37428989223E+03  0.92505943453E+01 -0.10212520125E+04  0.10877197158E+04  0.10100000352E+00 0. -1.
</event>
<event>
 5   0  0.2938349E-03  0.1197628E+04  0.7818609E-02  0.9114936E-01
        1   -1    0    0  501    0  0.00000000000E+00  0.00000000000E+00  0.10924427317E+04  0.10924427317E+04  0.50400001928E-02 0. -1.
       -1   -1    0    0    0  501  0.00000000000E+00  0.00000000000E+00 -0.32823501149E+03  0.32823501153E+03  0.50400001928E-02 0.  1.
    10030    2    1    2    0    0  0.00000000000E+00  0.00000000000E+00  0.76420772016E+03  0.14206777432E+04  0.11976275759E+04 0.  0.
        4    1    3    3  502    0 -0.48214115916E+03  0.29730508413E+03  0.61250984863E+03  0.83427833363E+03  0.12699999809E+01 0.  1.
       -4    1    3    3    0  502  0.48214115916E+03 -0.29730508413E+03  0.15169787153E+03  0.58639940956E+03  0.12699999809E+01 0. -1.
</event>
<event>
 5   0  0.5108045E-03  0.1199145E+04  0.7818609E-02  0.9113606E-01
       -2   -1    0    0    0  501  0.00000000000E+00  0.00000000000E+00  0.82940850786E+03  0.82940850786E+03  0.25500000920E-02 0. -1.
        2   -1    0    0  501    0  0.00000000000E+00  0.00000000000E+00 -0.43342568842E+03  0.43342568843E+03  0.25500000920E-02 0.  1.
    10030    2    1    2    0    0  0.00000000000E+00  0.00000000000E+00  0.39598281944E+03  0.12628341963E+04  0.11991446176E+04 0.  0.
        3    1    3    3  502    0  0.15385077190E+03  0.18584562148E+03  0.77603246975E+03  0.81267155687E+03  0.10100000352E+00 0. -1.
       -3    1    3    3    0  502 -0.15385077190E+03 -0.18584562148E+03 -0.38004965031E+03  0.45016263943E+03  0.10100000352E+00 0.  1.
</event>
<event>
 5   0  0.1922125E-03  0.1206692E+04  0.7818609E-02  0.9107019E-01
        4   -1    0    0  501    0  0.00000000000E+00  0.00000000000E+00  0.26794160594E+03  0.26794461572E+03  0.12699999809E+01 0.  1.
       -4   -1    0    0    0  501  0.00000000000E+00  0.00000000000E+00 -0.13585931543E+04  0.13585937479E+04  0.12699999809E+01 0. -1.
    10030    2    1    2    0    0  0.00000000000E+00  0.00000000000E+00 -0.10906515483E+04  0.16265383636E+04  0.12066922758E+04 0.  0.
        3    1    3    3  502    0 -0.13016711696E+03 -0.45093379030E+03 -0.34280586391E+02  0.47059529362E+03  0.10100000352E+00 0.  1.
       -3    1    3    3    0  502  0.13016711696E+03  0.45093379030E+03 -0.10563709620E+04  0.11559430700E+04  0.10100000352E+00 0. -1.
</event>
<event>
 5   0  0.5003526E-03  0.1082999E+04  0.7818609E-02  0.9221922E-01
        2   -1    0    0  501    0  0.00000000000E+00  0.00000000000E+00  0.53987706249E+03  0.53987706250E+03  0.25500000920E-02 0. -1.
       -2   -1    0    0    0  501  0.00000000000E+00  0.00000000000E+00 -0.54312714569E+03  0.54312714570E+03  0.25500000920E-02 0.  1.
    10030    2    1    2    0    0  0.00000000000E+00  0.00000000000E+00 -0.32500831980E+01  0.10830042082E+04  0.10829993315E+04 0.  0.
        2    1    3    3  502    0  0.12089466778E+02  0.42456826694E+03  0.33425966408E+03  0.54049411795E+03  0.25500000920E-02 0. -1.
       -2    1    3    3    0  502 -0.12089466778E+02 -0.42456826694E+03 -0.33750974728E+03  0.54251009025E+03  0.25500000920E-02 0.  1.
</event>
<event>
 5   0  0.5108045E-03  0.1169308E+04  0.7818609E-02  0.9140154E-01
        2   -1    0    0  501    0  0.00000000000E+00  0.00000000000E+00  0.99394876034E+03  0.99394876034E+03  0.25500000920E-02 0.  1.
       -2   -1    0    0    0  501  0.00000000000E+00  0.00000000000E+00 -0.34390108037E+03  0.34390108038E+03  0.25500000920E-02 0. -1.
    10030    2    1    2    0    0  0.00000000000E+00  0.00000000000E+00  0.65004767997E+03  0.13378498407E+04  0.11693075772E+04 0.  0.
        3    1    3    3  502    0  0.57645954413E+03  0.52573418236E+02  0.41902769792E+03  0.71460044231E+03  0.10100000352E+00 0. -1.
       -3    1    3    3    0  502 -0.57645954413E+03 -0.52573418236E+02  0.23101998205E+03  0.62324939842E+03  0.10100000352E+00 0.  1.
</event>
<event>
 5   0  0.2792518E-03  0.1187589E+04  0.7818609E-02  0.9123790E-01
       -1   -1    0    0    0  501  0.00000000000E+00  0.00000000000E+00  0.16921467969E+03  0.16921467976E+03  0.50400001928E-02 0.  1.
        1   -1    0    0  501    0  0.00000000000E+00  0.00000000000E+00 -0.20836943387E+04  0.20836943387E+04  0.50400001928E-02 0. -1.
    10030    2    1    2    0    0  0.00000000000E+00  0.00000000000E+00 -0.19144796590E+04  0.22529090185E+04  0.11875885991E+04 0.  0.
        2    1    3    3  502    0  0.52401380873E+03  0.21385366789E+03 -0.12980106189E+04  0.14160351089E+04  0.25500000920E-02 0.  1.
       -2    1    3    3    0  502 -0.52401380873E+03 -0.21385366789E+03 -0.61646904015E+03  0.83687390955E+03  0.25500000920E-02 0. -1.
</event>
<event>
 5   0  0.2875848E-03  0.1204630E+04  0.7818609E-02  0.9108814E-01
        1   -1    0    0  501    0  0.00000000000E+00  0.00000000000E+00  0.31395435983E+03  0.31395435988E+03  0.50400001928E-02 0.  1.
       -1   -1    0    0    0  501  0.00000000000E+00  0.00000000000E+00 -0.11555286164E+04  0.11555286164E+04  0.50400001928E-02 0. -1.
    10030    2    1    2    0    0  0.00000000000E+00  0.00000000000E+00 -0.84157425656E+03  0.14694829763E+04  0.12046298138E+04 0.  0.
        1    1    3    3  502    0 -0.30170527725E+03  0.79523745898E+02  0.20768862829E+03  0.37481284240E+03  0.50400001928E-02 0.  1.
       -1    1    3    3    0  502  0.30170527725E+03 -0.79523745898E+02 -0.10492628848E+04  0.10946701339E+04  0.50400001928E-02 0. -1.
</event>
<event>
 5   0  0.5108045E-03  0.1221782E+04  0.7818609E-02  0.9094002E-01
        2   -1    0    0  501    0  0.00000000000E+00  0.00000000000E+00  0.78961573301E+03  0.78961573302E+03  0.25500000920E-02 0. -1.
       -2   -1    0    0    0  501  0.00000000000E+00  0.00000000000E+00 -0.47261959538E+03  0.47261959539E+03  0.25500000920E-02 0.  1.
    10030    2    1    2    0    0  0.00000000000E+00  0.00000000000E+00  0.31699613763E+03  0.12622353284E+04  0.12217820890E+04 0.  0.
        3    1    3    3  502    0 -0.10463613772E+03 -0.45250564797E+03  0.56847197192E+03  0.73407797667E+03  0.10100000352E+00 0. -1.
       -3    1    3    3    0  502  0.10463613772E+03  0.45250564797E+03 -0.25147583430E+03  0.52815735174E+03  0.10100000352E+00 0.  1.
</event>
<event>
 5   0  0.5031575E-03  0.1224657E+04  0.7818609E-02  0.9091544E-01
        2   -1    0    0  501    0  0.00000000000E+00  0.00000000000E+00  0.98603480357E+03  0.98603480357E+03  0.25500000920E-02 0.  1.
       -2   -1    0    0    0  501  0.00000000000E+00  0.00000000000E+00 -0.38025662247E+03  0.38025662248E+03  0.25500000920E-02 0. -1.
    10030    2    1    2    0    0  0.00000000000E+00  0.00000000000E+00  0.60577818110E+03  0.13662914261E+04  0.12246571178E+04 0.  0.
        5    1    3    3  502    0 -0.11283517660E+03  0.36746629196E+03  0.83462457436E+03  0.91890343504E+03  0.46999998093E+01 0.  1.
       -5    1    3    3    0  502  0.11283517660E+03 -0.36746629196E+03 -0.22884639326E+03  0.44738799102E+03  0.46999998093E+01 0. -1.
</event>
<event>
 5   0  0.2930868E-03  0.1126504E+04  0.7818609E-02  0.9179738E-01
       -1   -1    0    0    0  501  0.00000000000E+00  0.00000000000E+00  0.26114219905E+03  0.26114219910E+03  0.50400001928E-02 0.  1.
        1   -1    0    0  501    0  0.00000000000E+00  0.00000000000E+00 -0.12148650807E+04  0.12148650807E+04  0.50400001928E-02 0. -1.
    10030    2    1    2    0    0  0.00000000000E+00  0.00000000000E+00 -0.95372288163E+03  0.14760072798E+04  0.11265035087E+04 0.  0.
        3    1    3    3  502    0  0.39206863109E+03  0.37382486602E+03 -0.27476888735E+03  0.60742142997E+03  0.10100000352E+00 0.  1.
       -3    1    3    3    0  502 -0.39206863109E+03 -0.37382486602E+03 -0.67895399429E+03  0.86858584981E+03  0.10100000352E+00 0. -1.
</event>
<event>
 5   0  0.2938349E-03  0.1201916E+04  0.7818609E-02  0.9111181E-01
       -1   -1    0    0    0  501  0.00000000000E+00  0.00000000000E+00  0.79015882891E+03  0.79015882892E+03  0.50400001928E-02 0.  1.
        1   -1    0    0  501    0  0.00000000000E+00  0.00000000000E+00 -0.45706046575E+03  0.45706046578E+03  0.50400001928E-02 0. -1.
    10030    2    1    2    0    0  0.00000000000E+00  0.00000000000E+00  0.33309836315E+03  0.12472192947E+04  0.12019157415E+04 0.  0.
        4    1    3    3  502    0  0.33699721064E+03 -0.39522914118E+03  0.48022700279E+03  0.70738446486E+03  0.12699999809E+01 0.  1.
       -4    1    3    3    0  502 -0.33699721064E+03  0.39522914118E+03 -0.14712863964E+03  0.53983482985E+03  0.12699999809E+01 0. -1.
</event>
<event>
 5   0  0.2792518E-03  0.1257671E+04  0.7818609E-02  0.9063822E-01
        1   -1    0    0  501    0  0.00000000000E+00  0.00000000000E+00  0.80427542344E+03  0.80427542346E+03  0.50400001928E-02 0. -1.
       -1   -1    0    0    0  501  0.00000000000E+00  0.00000000000E+00 -0.49166530804E+03  0.49166530807E+03  0.50400001928E-02 0.  1.
    10030    2    1    2    0    0  0.00000000000E+00  0.00000000000E+00  0.31261011540E+03  0.12959407315E+04  0.12576713781E+04 0.  0.
        2    1    3    3  502    0 -0.38389520572E+02  0.61743813184E+03  0.40041267144E+02  0.61992491885E+03  0.25500000920E-02 0.  1.
       -2    1    3    3    0  502  0.38389520572E+02 -0.61743813184E+03  0.27256884825E+03  0.67601581267E+03  0.25500000920E-02 0. -1.
</event>
<event>
 5   0  0.5189537E-03  0.1132565E+04  0.7818609E-02  0.9174021E-01
        2   -1    0    0  501    0  0.00000000000E+00  0.00000000000E+00  0.50141859548E+03  0.50141859549E+03  0.25500000920E-02 0. -1.
       -2   -1    0    0    0  501  0.00000000000E+00  0.00000000000E+00 -0.63953676481E+03  0.63953676481E+03  0.25500000920E-02 0.  1.
    10030    2    1    2    0    0  0.00000000000E+00  0.00000000000E+00 -0.13811816933E+03  0.11409553603E+04  0.11325645701E+04 0.  0.
        4    1    3    3  502    0 -0.20684766232E+03 -0.43509227702E+03 -0.36889268954E+03  0.60677398941E+03  0.12699999809E+01 0.  1.
       -4    1    3    3    0  502  0.20684766232E+03  0.43509227702E+03  0.23077452022E+03  0.53418137089E+03  0.12699999809E+01 0. -1.
</event>
<event>
 5   0  0.2926844E-03  0.1195289E+04  0.7818609E-02  0.9116990E-01
       -1   -1    0    0    0  501  0.00000000000E+00  0.00000000000E+00  0.30511354473E+03  0.30511354477E+03  0.50400001928E-02 0. -1.
        1   -1    0    0  501    0  0.00000000000E+00  0.00000000000E+00 -0.11706422502E+04  0.11706422502E+04  0.50400001928E-02 0.  1.
    10030    2    1    2    0    0  0.00000000000E+00  0.00000000000E+00 -0.86552870544E+03  0.14757557950E+04  0.11952887628E+04 0.  0.
        5    1    3    3  502    0  0.17425750024E+03 -0.53074723556E+03 -0.17057063214E+03  0.58410164783E+03  0.46999998093E+01 0. -1.
       -5    1    3    3    0  502 -0.17425750024E+03  0.53074723556E+03 -0.69495807330E+03  0.89165414713E+03  0.46999998093E+01 0.  1.
</event>
<event>
 5   0  0.5031575E-03  0.1188900E+04  0.7818609E-02  0.9122628E-01
        2   -1    0    0  501    0  0.00000000000E+00  0.00000000000E+00  0.13200266093E+04  0.13200266093E+04  0.25500000920E-02 0. -1.
       -2   -1    0    0    0  501  0.00000000000E+00  0.00000000000E+00 -0.26769968758E+03  0.26769968760E+03  0.25500000920E-02 0.  1.
    10030    2    1    2    0    0  0.00000000000E+00  0.00000000000E+00  0.10523269217E+04  0.15877262969E+04  0.11888998459E+04 0.  0.
        5    1    3    3  502    0  0.22191376127E+03 -0.22193823283E+03 -0.14800674290E+03  0.34703080926E+03  0.46999998093E+01 0. -1.
       -5    1    3    3    0  502 -0.22191376127E+03  0.22193823283E+03  0.12003336646E+04  0.12406954876E+04  0.46999998093E+01 0.  1.
</event>
<event>
 5   0  0.2792518E-03  0.1152201E+04  0.7818609E-02  0.9155756E-01
        1   -1    0    0  501    0  0.00000000000E+00  0.00000000000E+00  0.68582053855E+03  0.68582053856E+03  0.50400001928E-02 0. -1.
       -1   -1    0    0    0  501  0.00000000000E+00  0.00000000000E+00 -0.48393353094E+03  0.48393353097E+03  0.50400001928E-02 0.  1.
    10030    2    1    2    0    0  0.00000000000E+00  0.00000000000E+00  0.20188700760E+03  0.11697540695E+04  0.11522005986E+04 0.  0.
        2    1    3    3  502    0 -0.25611059304E+03 -0.59136913966E+02  0.62139539385E+03  0.67470144951E+03  0.25500000920E-02 0. -1.
       -2    1    3    3    0  502  0.25611059304E+03  0.59136913966E+02 -0.41950838625E+03  0.49505262003E+03  0.25500000920E-02 0.  1.
</event>
<event>
 5   0  0.5467554E-03  0.1149406E+04  0.7818609E-02  0.9158332E-01
       -2   -1    0    0    0  501  0.00000000000E+00  0.00000000000E+00  0.24697073187E+03  0.24697073189E+03  0.25500000920E-02 0. -1.
        2   -1    0    0  501    0  0.00000000000E+00  0.00000000000E+00 -0.13373384366E+04  0.13373384366E+04  0.25500000920E-02 0.  1.
    10030    2    1    2    0    0  0.00000000000E+00  0.00000000000E+00 -0.10903677047E+04  0.15843091685E+04  0.11494058508E+04 0.  0.
        1    1    3    3  502    0 -0.20465228507E+03 -0.26919576212E+03  0.95328613035E+02  0.35133525388E+03  0.50400001928E-02 0. -1.
       -1    1    3    3    0  502  0.20465228507E+03  0.26919576212E+03 -0.11856963177E+04  0.12329739146E+04  0.50400001928E-02 0.  1.
</event>
<event>
 5   0  0.2926844E-03  0.9081203E+03  0.7818609E-02  0.9415487E-01
        1   -1    0    0  501    0  0.00000000000E+00  0.00000000000E+00  0.87267337100E+03  0.87267337102E+03  0.50400001928E-02 0.  1.
       -1   -1    0    0    0  501  0.00000000000E+00  0.00000000000E+00 -0.23625173679E+03  0.23625173685E+03  0.50400001928E-02 0. -1.
    10030    2    1    2    0    0  0.00000000000E+00  0.00000000000E+00  0.63642163421E+03  0.11089251079E+04  0.90812025545E+03 0.  0.
        5    1    3    3  502    0  0.44290722087E+02 -0.11360775437E+03  0.85227539177E+03  0.86096679571E+03  0.46999998093E+01 0.  1.
       -5    1    3    3    0  502 -0.44290722087E+02  0.11360775437E+03 -0.21585375756E+03  0.24795831215E+03  0.46999998093E+01 0. -1.
</event>
<event>
 5   0  0.2792518E-03  0.1192207E+04  0.7818609E-02  0.9119705E-01
       -1   -1    0    0    0  501  0.00000000000E+00  0.00000000000E+00  0.48500851597E+03  0.48500851600E+03  0.50400001928E-02 0. -1.
        1   -1    0    0  501    0  0.00000000000E+00  0.00000000000E+00 -0.73264559542E+03  0.73264559544E+03  0.50400001928E-02 0.  1.
    10030    2    1    2    0    0  0.00000000000E+00  0.00000000000E+00 -0.24763707945E+03  0.12176541114E+04  0.11922069501E+04 0.  0.
        2    1    3    3  502    0 -0.41195286630E+03  0.66362491920E+02 -0.55861658744E+03  0.69725292122E+03  0.25500000920E-02 0.  1.
       -2    1    3    3    0  502  0.41195286630E+03 -0.66362491920E+02  0.31097950799E+03  0.52040119022E+03  0.25500000920E-02 0. -1.
</event>
<event>
 5   0  0.5003526E-03  0.1063850E+04  0.7818609E-02  0.9241160E-01
        2   -1    0    0  501    0  0.00000000000E+00  0.00000000000E+00  0.69003125207E+03  0.69003125207E+03  0.25500000920E-02 0.  1.
       -2   -1    0    0    0  501  0.00000000000E+00  0.00000000000E+00 -0.41004577023E+03  0.41004577024E+03  0.25500000920E-02 0. -1.
    10030    2    1    2    0    0  0.00000000000E+00  0.00000000000E+00  0.27998548183E+03  0.11000770223E+04  0.10638503584E+04 0.  0.
        2    1    3    3  502    0 -0.44413712341E+03  0.22350896538E+03  0.33545423326E+03  0.59978628245E+03  0.25500000920E-02 0. -1.
       -2    1    3    3    0  502  0.44413712341E+03 -0.22350896538E+03 -0.55468751432E+02  0.50029073986E+03  0.25500000920E-02 0.  1.
</event>
<event>
 5   0  0.5003526E-03  0.1220027E+04  0.7818609E-02  0.9095505E-01
        2   -1    0    0  501    0  0.00000000000E+00  0.00000000000E+00  0.23843881786E+04  0.23843881786E+04  0.25500000920E-02 0. -1.
       -2   -1    0    0    0  501  0.00000000000E+00  0.00000000000E+00 -0.15606383470E+03  0.15606383472E+03  0.25500000920E-02 0.  1.
    10030    2    1    2    0    0  0.00000000000E+00  0.00000000000E+00  0.22283243439E+04  0.25404520133E+04  0.12200274793E+04 0.  0.
        2    1    3    3  502    0 -0.14645569896E+03 -0.14570540944E+03  0.23093271274E+04  0.23185493567E+04  0.25500000920E-02 0. -1.
       -2    1    3    3    0  502  0.14645569896E+03  0.14570540944E+03 -0.81002783454E+02  0.22190265666E+03  0.25500000920E-02 0.  1.
</event>
<event>
 5   0  0.5189537E-03  0.1201820E+04  0.7818609E-02  0.9111265E-01
        2   -1    0    0  501    0  0.00000000000E+00  0.00000000000E+00  0.14689127380E+04  0.14689127380E+04  0.25500000920E-02 0. -1.
       -2   -1    0    0    0  501  0.00000000000E+00  0.00000000000E+00 -0.24582316788E+03  0.24582316789E+03  0.25500000920E-02 0.  1.
    10030    2    1    2    0    0  0.00000000000E+00  0.00000000000E+00  0.12230895702E+04  0.17147359059E+04  0.12018199243E+04 0.  0.
        4    1    3    3  502    0  0.33856198195E+03 -0.87304265322E+02 -0.85749082872E+02  0.36000106733E+03  0.12699999809E+01 0.  1.
       -4    1    3    3    0  502 -0.33856198195E+03  0.87304265322E+02  0.13088386530E+04  0.13547348386E+04  0.12699999809E+01 0. -1.
</event>
<event>
 5   0  0.5003526E-03  0.1191960E+04  0.7818609E-02  0.9119923E-01
       -2   -1    0    0    0  501  0.00000000000E+00  0.00000000000E+00  0.21074170298E+03  0.21074170299E+03  0.25500000920E-02 0.  1.
        2   -1    0    0  501    0  0.00000000000E+00  0.00000000000E+00 -0.16854390707E+04  0.16854390707E+04  0.25500000920E-02 0. -1.
    10030    2    1    2    0    0  0.00000000000E+00  0.00000000000E+00 -0.14746973677E+04  0.18961807737E+04  0.11919602343E+04 0.  0.
        2    1    3    3  502    0 -0.27897269111E+02 -0.26095146937E+03  0.11387280873E+03  0.28607856187E+03  0.25500000920E-02 0.  1.
       -2    1    3    3    0  502  0.27897269111E+02  0.26095146937E+03 -0.15885701764E+04  0.16101022118E+04  0.25500000920E-02 0. -1.
</event>
<event>
 5   0  0.5003526E-03  0.1197158E+04  0.7818609E-02  0.9115348E-01
        2   -1    0    0  501    0  0.00000000000E+00  0.00000000000E+00  0.20173077058E+04  0.20173077058E+04  0.25500000920E-02 0. -1.
       -2   -1    0    0    0  501  0.00000000000E+00  0.00000000000E+00 -0.17761146924E+03  0.17761146925E+03  0.25500000920E-02 0.  1.
    10030    2    1    2    0    0  0.00000000000E+00  0.00000000000E+00  0.18396962366E+04  0.21949191751E+04  0.11971582778E+04 0.  0.
        2    1    3    3  502    0 -0.38527117629E+03  0.24786810833E+03  0.21349841436E+03  0.50542462480E+03  0.25500000920E-02 0.  1.
       -2    1    3    3    0  502  0.38527117629E+03 -0.24786810833E+03  0.16261978222E+04  0.16894945503E+04  0.25500000920E-02 0. -1.
</event>
<event>
 5   0  0.5108045E-03  0.1208042E+04  0.7818609E-02  0.9105847E-01
        2   -1    0    0  501    0  0.00000000000E+00  0.00000000000E+00  0.15263468184E+04  0.15263468184E+04  0.25500000920E-02 0.  1.
       -2   -1    0    0    0  501  0.00000000000E+00  0.00000000000E+00 -0.23902896724E+03  0.23902896725E+03  0.25500000920E-02 0. -1.
    10030    2    1    2    0    0  0.00000000000E+00  0.00000000000E+00  0.12873178512E+04  0.17653757857E+04  0.12080415617E+04 0.  0.
        3    1    3    3  502    0  0.33006542523E+03  0.20966920781E+03 -0.29098354123E+02  0.39211106341E+03  0.10100000352E+00 0. -1.
       -3    1    3    3    0  502 -0.33006542523E+03 -0.20966920781E+03  0.13164162053E+04  0.13732647223E+04  0.10100000352E+00 0.  1.
</event>
<event>
 5   0  0.2938349E-03  0.1195760E+04  0.7818609E-02  0.9116576E-01
        1   -1    0    0  501    0  0.00000000000E+00  0.00000000000E+00  0.44362345853E+03  0.44362345856E+03  0.50400001928E-02 0.  1.
       -1   -1    0    0    0  501  0.00000000000E+00  0.00000000000E+00 -0.80577446118E+03  0.80577446119E+03  0.50400001928E-02 0. -1.
    10030    2    1    2    0    0  0.00000000000E+00  0.00000000000E+00 -0.36215100265E+03  0.12493979197E+04  0.11957599312E+04 0.  0.
        4    1    3    3  502    0  0.29584645822E+02  0.40907383261E+02  0.44139103276E+03  0.44427055042E+03  0.12699999809E+01 0.  1.
       -4    1    3    3    0  502 -0.29584645822E+02 -0.40907383261E+02 -0.80354203541E+03  0.80512736933E+03  0.12699999809E+01 0. -1.
</event>
<event>
 5   0  0.2875848E-03  0.1249498E+04  0.7818609E-02  0.9070602E-01
       -1   -1    0    0    0  501  0.00000000000E+00  0.00000000000E+00  0.27450667075E+03  0.27450667080E+03  0.50400001928E-02 0.  1.
        1   -1    0    0  501    0  0.00000000000E+00  0.00000000000E+00 -0.14218635332E+04  0.14218635332E+04  0.50400001928E-02 0. -1.
    10030    2    1    2    0    0  0.00000000000E+00  0.00000000000E+00 -0.11473568624E+04  0.16963702040E+04  0.12494975387E+04 0.  0.
        1    1    3    3  502    0 -0.30631901633E+03 -0.16061227366E+03  0.13266519102E+03  0.37044256661E+03  0.50400001928E-02 0.  1.
       -1    1    3    3    0  502  0.30631901633E+03  0.16061227366E+03 -0.12800220534E+04  0.13259276374E+04  0.50400001928E-02 0. -1.
</event>
<event>
 5   0  0.2930868E-03  0.1165342E+04  0.7818609E-02  0.9143745E-01
        1   -1    0    0  501    0  0.00000000000E+00  0.00000000000E+00  0.53801036499E+03  0.53801036501E+03  0.50400001928E-02 0. -1.
       -1   -1    0    0    0  501  0.00000000000E+00  0.00000000000E+00 -0.63103891489E+03  0.63103891491E+03  0.50400001928E-02 0.  1.
    10030    2    1    2    0    0  0.00000000000E+00  0.00000000000E+00 -0.93028549906E+02  0.11690492799E+04  0.11653419703E+04 0.  0.
        3    1    3    3  502    0  0.53672337184E+02 -0.20737091334E+03  0.49707861151E+03  0.54126756018E+03  0.10100000352E+00 0. -1.
       -3    1    3    3    0  502 -0.53672337184E+02  0.20737091334E+03 -0.59010716142E+03  0.62778171974E+03  0.10100000352E+00 0.  1.
</event>
<event>
 5   0  0.2792518E-03  0.1200995E+04  0.7818609E-02  0.9111986E-01
        1   -1    0    0  501    0  0.00000000000E+00  0.00000000000E+00  0.17865733351E+04  0.17865733351E+04  0.50400001928E-02 0. -1.
       -1   -1    0    0    0  501  0.00000000000E+00  0.00000000000E+00 -0.20183736649E+03  0.20183736656E+03  0.50400001928E-02 0.  1.
    10030    2    1    2    0    0  0.00000000000E+00  0.00000000000E+00  0.15847359686E+04  0.19884107017E+04  0.12009950159E+04 0.  0.
        2    1    3    3  502    0 -0.18495400249E+03  0.39717362515E+03  0.11246295268E+03  0.45233039615E+03  0.25500000920E-02 0.  1.
       -2    1    3    3    0  502  0.18495400249E+03 -0.39717362515E+03  0.14722730160E+04  0.15360803055E+04  0.25500000920E-02 0. -1.
</event>
<event>
 5   0  0.2930868E-03  0.1166767E+04  0.7818609E-02  0.9142453E-01
        1   -1    0    0  501    0  0.00000000000E+00  0.00000000000E+00  0.31649028081E+03  0.31649028085E+03  0.50400001928E-02 0. -1.
       -1   -1    0    0    0  501  0.00000000000E+00  0.00000000000E+00 -0.10753447007E+04  0.10753447007E+04  0.50400001928E-02 0.  1.
    10030    2    1    2    0    0  0.00000000000E+00  0.00000000000E+00 -0.75885441991E+03  0.13918349816E+04  0.11667667228E+04 0.  0.
        3    1    3    3  502    0 -0.46225086766E+02  0.47613090164E+03  0.18898828610E+02  0.47874269714E+03  0.10100000352E+00 0. -1.
       -3    1    3    3    0  502  0.46225086766E+02 -0.47613090164E+03 -0.77775324852E+03  0.91309228445E+03  0.10100000352E+00 0.  1.
</event>
<event>
 5   0  0.5189537E-03  0.1036956E+04  0.7818609E-02  0.9268916E-01
        2   -1    0    0  501    0  0.00000000000E+00  0.00000000000E+00  0.91714454531E+03  0.91714454531E+03  0.25500000920E-02 0. -1.
       -2   -1    0    0    0  501  0.00000000000E+00  0.00000000000E+00 -0.29310466346E+03  0.29310466347E+03  0.25500000920E-02 0.  1.
    10030    2    1    2    0    0  0.00000000000E+00  0.00000000000E+00  0.62403988185E+03  0.12102492088E+04  0.10369558203E+04 0.  0.
        4    1    3    3  502    0  0.46528009440E+02  0.18498528947E+02  0.91431436822E+03  0.91568522324E+03  0.12699999809E+01 0. -1.
       -4    1    3    3    0  502 -0.46528009440E+02 -0.18498528947E+02 -0.29027448637E+03  0.29456398553E+03  0.12699999809E+01 0.  1.
</event>
<event>
 5   0  0.5189537E-03  0.1196955E+04  0.7818609E-02  0.9115526E-01
        2   -1    0    0  501    0  0.00000000000E+00  0.00000000000E+00  0.13675407720E+04  0.13675407720E+04  0.25500000920E-02 0. -1.
       -2   -1    0    0    0  501  0.00000000000E+00  0.00000000000E+00 -0.26191201167E+03  0.26191201168E+03  0.25500000920E-02 0.  1.
    10030    2    1    2    0    0  0.00000000000E+00  0.00000000000E+00  0.11056287603E+04  0.16294527837E+04  0.11969550612E+04 0.  0.
        4    1    3    3  502    0  0.59478968388E+03 -0.57020922565E+02  0.50669781524E+03  0.78343502764E+03  0.12699999809E+01 0.  1.
       -4    1    3    3    0  502 -0.59478968388E+03  0.57020922565E+02  0.59893094509E+03  0.84601775605E+03  0.12699999809E+01 0. -1.
</event>
<event>
 5   0  0.5003526E-03  0.1169399E+04  0.7818609E-02  0.9140071E-01
       -2   -1    0    0    0  501  0.00000000000E+00  0.00000000000E+00  0.19039071318E+03  0.19039071320E+03  0.25500000920E-02 0.  1.
        2   -1    0    0  501    0  0.00000000000E+00  0.00000000000E+00 -0.17956424639E+04  0.17956424639E+04  0.25500000920E-02 0. -1.
    10030    2    1    2    0    0  0.00000000000E+00  0.00000000000E+00 -0.16052517507E+04  0.19860331771E+04  0.11693992463E+04 0.  0.
        2    1    3    3  502    0 -0.10117301794E+03 -0.52450881374E+03 -0.12064164417E+04  0.13193885349E+04  0.25500000920E-02 0. -1.
       -2    1    3    3    0  502  0.10117301794E+03  0.52450881374E+03 -0.39883530907E+03  0.66664464223E+03  0.25500000920E-02 0.  1.
</event>
<event>
 5   0  0.1922125E-03  0.1228297E+04  0.7818609E-02  0.9088442E-01
       -3   -1    0    0    0  501  0.00000000000E+00  0.00000000000E+00  0.15409058532E+04  0.15409058566E+04  0.10100000352E+00 0.  1.
        3   -1    0    0  501    0  0.00000000000E+00  0.00000000000E+00 -0.24477719541E+03  0.24477721625E+03  0.10100000352E+00 0. -1.
    10030    2    1    2    0    0  0.00000000000E+00  0.00000000000E+00  0.12961286578E+04  0.17856830728E+04  0.12282974147E+04 0.  0.
        4    1    3    3  502    0  0.38639162897E+03 -0.31033301569E+03  0.12073430352E+03  0.51008181355E+03  0.12699999809E+01 0. -1.
       -4    1    3    3    0  502 -0.38639162897E+03  0.31033301569E+03  0.11753943543E+04  0.12756012593E+04  0.12699999809E+01 0.  1.
</event>
<event>
 5   0  0.2938349E-03  0.1211136E+04  0.7818609E-02  0.9103165E-01
       -1   -1    0    0    0  501  0.00000000000E+00  0.00000000000E+00  0.47939381474E+03  0.47939381477E+03  0.50400001928E-02 0.  1.
        1   -1    0    0  501    0  0.00000000000E+00  0.00000000000E+00 -0.76495016734E+03  0.76495016735E+03  0.50400001928E-02 0. -1.
    10030    2    1    2    0    0  0.00000000000E+00  0.00000000000E+00 -0.28555635260E+03  0.12443439821E+04  0.12111356304E+04 0.  0.
        4    1    3    3  502    0 -0.24999807181E+03 -0.50553432498E+03  0.83829545116E+02  0.57016926888E+03  0.12699999809E+01 0.  1.
       -4    1    3    3    0  502  0.24999807181E+03  0.50553432498E+03 -0.36938589771E+03  0.67417471324E+03  0.12699999809E+01 0. -1.
</event>
<event>
 5   0  0.2930868E-03  0.1173260E+04  0.7818609E-02  0.9136589E-01
        1   -1    0    0  501    0  0.00000000000E+00  0.00000000000E+00  0.12650079926E+04  0.12650079926E+04  0.50400001928E-02 0.  1.
       -1   -1    0    0    0  501  0.00000000000E+00  0.00000000000E+00 -0.27204177551E+03  0.27204177556E+03  0.50400001928E-02 0. -1.
    10030    2    1    2    0    0  0.00000000000E+00  0.00000000000E+00  0.99296621707E+03  0.15370497682E+04  0.11732604491E+04 0.  0.
        3    1    3    3  502    0  0.35790947569E+03 -0.44734653800E+03  0.33120222023E+03  0.66174998204E+03  0.10100000352E+00 0.  1.
       -3    1    3    3    0  502 -0.35790947569E+03  0.44734653800E+03  0.66176399685E+03  0.87529978611E+03  0.10100000352E+00 0. -1.
</event>
<event>
 5   0  0.2938349E-03  0.1114400E+04  0.7818609E-02  0.9191269E-01
       -1   -1    0    0    0  501  0.00000000000E+00  0.00000000000E+00  0.18554104374E+03  0.18554104381E+03  0.50400001928E-02 0. -1.
        1   -1    0    0  501    0  0.00000000000E+00  0.00000000000E+00 -0.16733335664E+04  0.16733335664E+04  0.50400001928E-02 0.  1.
    10030    2    1    2    0    0  0.00000000000E+00  0.00000000000E+00 -0.14877925227E+04  0.18588746102E+04  0.11144003886E+04 0.  0.
        4    1    3    3  502    0 -0.55660683738E+03  0.42643044950E+01 -0.78613078808E+03  0.96324066804E+03  0.12699999809E+01 0. -1.
       -4    1    3    3    0  502  0.55660683738E+03 -0.42643044950E+01 -0.70166173458E+03  0.89563394218E+03  0.12699999809E+01 0.  1.
</event>
<event>
 5   0  0.2938349E-03  0.1626323E+04  0.7818609E-02  0.8804538E-01
       -1   -1    0    0    0  501  0.00000000000E+00  0.00000000000E+00  0.74377225522E+03  0.74377225524E+03  0.50400001928E-02 0. -1.
        1   -1    0    0  501    0  0.00000000000E+00  0.00000000000E+00 -0.88902383958E+03  0.88902383959E+03  0.50400001928E-02 0.  1.
    10030    2    1    2    0    0  0.00000000000E+00  0.00000000000E+00 -0.14525158436E+03  0.16327960948E+04  0.16263225586E+04 0.  0.
        4    1    3    3  502    0  0.41671529169E+03 -0.62042864438E+03 -0.39428571302E+03  0.84501252860E+03  0.12699999809E+01 0.  1.
       -4    1    3    3    0  502 -0.41671529169E+03  0.62042864438E+03  0.24903412867E+03  0.78778356624E+03  0.12699999809E+01 0. -1.
</event>
<event>
 5   0  0.5108045E-03  0.1174635E+04  0.7818609E-02  0.9135353E-01
       -2   -1    0    0    0  501  0.00000000000E+00  0.00000000000E+00  0.29206389550E+03  0.29206389552E+03  0.25500000920E-02 0. -1.
        2   -1    0    0  501    0  0.00000000000E+00  0.00000000000E+00 -0.11810483628E+04  0.11810483628E+04  0.25500000920E-02 0.  1.
    10030    2    1    2    0    0  0.00000000000E+00  0.00000000000E+00 -0.88898446729E+03  0.14731122583E+04  0.11746345570E+04 0.  0.
        3    1    3    3  502    0  0.44657891066E+03 -0.20339158726E+03 -0.84920168427E+03  0.98078762838E+03  0.10100000352E+00 0. -1.
       -3    1    3    3    0  502 -0.44657891066E+03  0.20339158726E+03 -0.39782783027E+02  0.49232462994E+03  0.10100000352E+00 0.  1.
</event>
<event>
 5   0  0.5003526E-03  0.1193099E+04  0.7818609E-02  0.9118918E-01
        2   -1    0    0  501    0  0.00000000000E+00  0.00000000000E+00  0.21865717040E+04  0.21865717041E+04  0.25500000920E-02 0. -1.
       -2   -1    0    0    0  501  0.00000000000E+00  0.00000000000E+00 -0.16275313258E+03  0.16275313260E+03  0.25500000920E-02 0.  1.
    10030    2    1    2    0    0  0.00000000000E+00  0.00000000000E+00  0.20238185715E+04  0.23493248367E+04  0.11930991484E+04 0.  0.
        2    1    3    3  502    0 -0.35617457644E+03  0.47802191591E+03  0.96761063668E+03  0.11365014849E+04  0.25500000920E-02 0. -1.
       -2    1    3    3    0  502  0.35617457644E+03 -0.47802191591E+03  0.10562079348E+04  0.12128233517E+04  0.25500000920E-02 0.  1.
</event>
<event>
 5   0  0.5108045E-03  0.1138225E+04  0.7818609E-02  0.9168715E-01
       -2   -1    0    0    0  501  0.00000000000E+00  0.00000000000E+00  0.21619009274E+03  0.21619009276E+03  0.25500000920E-02 0. -1.
        2   -1    0    0  501    0  0.00000000000E+00  0.00000000000E+00 -0.14981686523E+04  0.14981686523E+04  0.25500000920E-02 0.  1.
    10030    2    1    2    0    0  0.00000000000E+00  0.00000000000E+00 -0.12819785596E+04  0.17143587451E+04  0.11382253202E+04 0.  0.
        3    1    3    3  502    0  0.36735281084E+03 -0.42713876003E+03 -0.76236065976E+03  0.94793955171E+03  0.10100000352E+00 0.  1.
       -3    1    3    3    0  502 -0.36735281084E+03  0.42713876003E+03 -0.51961789981E+03  0.76641919336E+03  0.10100000352E+00 0. -1.
</event>
<event>
 5   0  0.5031575E-03  0.1153781E+04  0.7818609E-02  0.9154303E-01
       -2   -1    0    0    0  501  0.00000000000E+00  0.00000000000E+00  0.26957828908E+03  0.26957828909E+03  0.25500000920E-02 0. -1.
        2   -1    0    0  501    0  0.00000000000E+00  0.00000000000E+00 -0.12345297919E+04  0.12345297919E+04  0.25500000920E-02 0.  1.
    10030    2    1    2    0    0  0.00000000000E+00  0.00000000000E+00 -0.96495150280E+03  0.15041080810E+04  0.11537806189E+04 0.  0.
        5    1    3    3  502    0 -0.32427395550E+03  0.10035225906E+03  0.12557734229E+03  0.36196123136E+03  0.46999998093E+01 0. -1.
       -5    1    3    3    0  502  0.32427395550E+03 -0.10035225906E+03 -0.10905288451E+04  0.11421468496E+04  0.46999998093E+01 0.  1.
</event>
<event>
 5   0  0.2926844E-03  0.1186973E+04  0.7818609E-02  0.9124336E-01
        1   -1    0    0  501    0  0.00000000000E+00  0.00000000000E+00  0.10591506404E+04  0.10591506404E+04  0.50400001928E-02 0.  1.
       -1   -1    0    0    0  501  0.00000000000E+00  0.00000000000E+00 -0.33255560935E+03  0.33255560939E+03  0.50400001928E-02 0. -1.
    10030    2    1    2    0    0  0.00000000000E+00  0.00000000000E+00  0.72659503107E+03  0.13917062498E+04  0.11869734397E+04 0.  0.
        5    1    3    3  502    0  0.39479998480E+03 -0.10052184735E+03 -0.14268391393E+03  0.43168560213E+03  0.46999998093E+01 0. -1.
       -5    1    3    3    0  502 -0.39479998480E+03  0.10052184735E+03  0.86927894501E+03  0.96002064771E+03  0.46999998093E+01 0.  1.
</event>
<event>
 5   0  0.2792518E-03  0.1232397E+04  0.7818609E-02  0.9084963E-01
        1   -1    0    0  501    0  0.00000000000E+00  0.00000000000E+00  0.14676199058E+04  0.14676199058E+04  0.50400001928E-02 0.  1.
       -1   -1    0    0    0  501  0.00000000000E+00  0.00000000000E+00 -0.25871868356E+03  0.25871868360E+03  0.50400001928E-02 0. -1.
    10030    2    1    2    0    0  0.00000000000E+00  0.00000000000E+00  0.12089012223E+04  0.17263385895E+04  0.12323971601E+04 0.  0.
        2    1    3    3  502    0  0.37244695326E+03  0.34158487552E+03  0.10983259832E+04  0.12090148575E+04  0.25500000920E-02 0.  1.
       -2    1    3    3    0  502 -0.37244695326E+03 -0.34158487552E+03  0.11057523909E+03  0.51732373199E+03  0.25500000920E-02 0. -1.
</event>
<event>
 5   0  0.2926844E-03  0.1198920E+04  0.7818609E-02  0.9113802E-01
       -1   -1    0    0    0  501  0.00000000000E+00  0.00000000000E+00  0.28937332431E+03  0.28937332435E+03  0.50400001928E-02 0.  1.
        1   -1    0    0  501    0  0.00000000000E+00  0.00000000000E+00 -0.12418296618E+04  0.12418296618E+04  0.50400001928E-02 0. -1.
    10030    2    1    2    0    0  0.00000000000E+00  0.00000000000E+00 -0.95245633749E+03  0.15312029862E+04  0.11989201433E+04 0.  0.
        5    1    3    3  502    0 -0.50693459331E+03 -0.23468751768E+03 -0.75390039284E+03  0.93832233543E+03  0.46999998093E+01 0. -1.
       -5    1    3    3    0  502  0.50693459331E+03  0.23468751768E+03 -0.19855594464E+03  0.59288065072E+03  0.46999998093E+01 0.  1.
</event>
<event>
 5   0  0.5003526E-03  0.1209946E+04  0.7818609E-02  0.9104195E-01
        2   -1    0    0  501    0  0.00000000000E+00  0.00000000000E+00  0.13793493657E+04  0.13793493657E+04  0.25500000920E-02 0.  1.
       -2   -1    0    0    0  501  0.00000000000E+00  0.00000000000E+00 -0.26533682952E+03  0.26533682953E+03  0.25500000920E-02 0. -1.
    10030    2    1    2    0    0  0.00000000000E+00  0.00000000000E+00  0.11140125361E+04  0.16446861952E+04  0.12099457632E+04 0.  0.
        2    1    3    3  502    0 -0.17734233709E+03 -0.41641035233E+03  0.11026694109E+04  0.11919428324E+04  0.25500000920E-02 0.  1.
       -2    1    3    3    0  502  0.17734233709E+03  0.41641035233E+03  0.11343125278E+02  0.45274336279E+03  0.25500000920E-02 0. -1.
</event>
<event>
 5   0  0.5467554E-03  0.1208282E+04  0.7818609E-02  0.9105638E-01
       -2   -1    0    0    0  501  0.00000000000E+00  0.00000000000E+00  0.71853881393E+03  0.71853881394E+03  0.25500000920E-02 0. -1.
        2   -1    0    0  501    0  0.00000000000E+00  0.00000000000E+00 -0.50795600099E+03  0.50795600099E+03  0.25500000920E-02 0.  1.
    10030    2    1    2    0    0  0.00000000000E+00  0.00000000000E+00  0.21058281295E+03  0.12264948149E+04  0.12082815938E+04 0.  0.
        1    1    3    3  502    0  0.12785616364E+03 -0.14987416819E+03 -0.47443620088E+03  0.51371117722E+03  0.50400001928E-02 0.  1.
       -1    1    3    3    0  502 -0.12785616364E+03  0.14987416819E+03  0.68501901382E+03  0.71278363771E+03  0.50400001928E-02 0. -1.
</event>
<event>
 5   0  0.5467554E-03  0.1344580E+04  0.7818609E-02  0.8994941E-01
        2   -1    0    0  501    0  0.00000000000E+00  0.00000000000E+00  0.70992424196E+03  0.70992424197E+03  0.25500000920E-02 0.  1.
       -2   -1    0    0    0  501  0.00000000000E+00  0.00000000000E+00 -0.63665112770E+03  0.63665112770E+03  0.25500000920E-02 0. -1.
    10030    2    1    2    0    0  0.00000000000E+00  0.00000000000E+00  0.73273114262E+02  0.13465753697E+04  0.13445803349E+04 0.  0.
        1    1    3    3  502    0  0.50249539494E+02 -0.65114714903E+03 -0.12315093254E+03  0.66459294167E+03  0.50400001928E-02 0. -1.
       -1    1    3    3    0  502 -0.50249539494E+02  0.65114714903E+03  0.19642404680E+03  0.68198242800E+03  0.50400001928E-02 0.  1.
</event>
<event>
 5   0  0.5108045E-03  0.1113919E+04  0.7818609E-02  0.9191731E-01
        2   -1    0    0  501    0  0.00000000000E+00  0.00000000000E+00  0.36424114505E+03  0.36424114506E+03  0.25500000920E-02 0.  1.
       -2   -1    0    0    0  501  0.00000000000E+00  0.00000000000E+00 -0.85164421801E+03  0.85164421801E+03  0.25500000920E-02 0. -1.
    10030    2    1    2    0    0  0.00000000000E+00  0.00000000000E+00 -0.48740307296E+03  0.12158853631E+04  0.11139189650E+04 0.  0.
        3    1    3    3  502    0  0.45107642017E+03 -0.31712699308E+03 -0.32940216932E+03  0.64229686744E+03  0.10100000352E+00 0. -1.
       -3    1    3    3    0  502 -0.45107642017E+03  0.31712699308E+03 -0.15800090363E+03  0.57358849563E+03  0.10100000352E+00 0.  1.
</event>
<event>
 5   0  0.2938349E-03  0.1200882E+04  0.7818609E-02  0.9112084E-01
        1   -1    0    0  501    0  0.00000000000E+00  0.00000000000E+00  0.33675361658E+03  0.33675361662E+03  0.50400001928E-02 0. -1.
       -1   -1    0    0    0  501  0.00000000000E+00  0.00000000000E+00 -0.10706036498E+04  0.10706036498E+04  0.50400001928E-02 0.  1.
    10030    2    1    2    0    0  0.00000000000E+00  0.00000000000E+00 -0.73385003323E+03  0.14073572664E+04  0.12008824273E+04 0.  0.
        4    1    3    3  502    0 -0.34796370516E+03  0.20379256599E+03 -0.88829544416E+03  0.97554116216E+03  0.12699999809E+01 0.  1.
       -4    1    3    3    0  502  0.34796370516E+03 -0.20379256599E+03  0.15444541093E+03  0.43181610428E+03  0.12699999809E+01 0. -1.
</event>
<event>
 5   0  0.5108045E-03  0.1150048E+04  0.7818609E-02  0.9157739E-01
        2   -1    0    0  501    0  0.00000000000E+00  0.00000000000E+00  0.91789557617E+03  0.91789557617E+03  0.25500000920E-02 0.  1.
       -2   -1    0    0    0  501  0.00000000000E+00  0.00000000000E+00 -0.36022916788E+03  0.36022916789E+03  0.25500000920E-02 0. -1.
    10030    2    1    2    0    0  0.00000000000E+00  0.00000000000E+00  0.55766640829E+03  0.12781247441E+04  0.11500482766E+04 0.  0.
        3    1    3    3  502    0  0.31991701514E+03  0.42716965109E+03  0.51675887424E+03  0.74287317336E+03  0.10100000352E+00 0.  1.
       -3    1    3    3    0  502 -0.31991701514E+03 -0.42716965109E+03  0.40907534052E+02  0.53525157070E+03  0.10100000352E+00 0. -1.
</event>
<event>
 5   0  0.2792518E-03  0.1244367E+04  0.7818609E-02  0.9074885E-01
       -1   -1    0    0    0  501  0.00000000000E+00  0.00000000000E+00  0.51662242326E+03  0.51662242329E+03  0.50400001928E-02 0.  1.
        1   -1    0    0  501    0  0.00000000000E+00  0.00000000000E+00 -0.74931390157E+03  0.74931390158E+03  0.50400001928E-02 0. -1.
    10030    2    1    2    0    0  0.00000000000E+00  0.00000000000E+00 -0.23269147830E+03  0.12659363249E+04  0.12443670900E+04 0.  0.
        2    1    3    3  502    0  0.43706429211E+03 -0.43476458788E+03 -0.20186786209E+03  0.64868796510E+03  0.25500000920E-02 0.  1.
       -2    1    3    3    0  502 -0.43706429211E+03  0.43476458788E+03 -0.30823616218E+02  0.61724835977E+03  0.25500000920E-02 0. -1.
</event>
<event>
 5   0  0.1922125E-03  0.1227659E+04  0.7818609E-02  0.9088985E-01
       -4   -1    0    0    0  501  0.00000000000E+00  0.00000000000E+00  0.32263428515E+03  0.32263678472E+03  0.12699999809E+01 0. -1.
        4   -1    0    0  501    0  0.00000000000E+00  0.00000000000E+00 -0.11678374242E+04  0.11678381148E+04  0.12699999809E+01 0.  1.
    10030    2    1    2    0    0  0.00000000000E+00  0.00000000000E+00 -0.84520313909E+03  0.14904748995E+04  0.12276591871E+04 0.  0.
        1    1    3    3  502    0  0.53518627990E+03 -0.70142162897E+02 -0.67719707286E+02  0.54399470217E+03  0.50400001928E-02 0. -1.
       -1    1    3    3    0  502 -0.53518627990E+03  0.70142162897E+02 -0.77748343180E+03  0.94648019734E+03  0.50400001928E-02 0.  1.
</event>
<event>
 5   0  0.5108045E-03  0.1210905E+04  0.7818609E-02  0.9103365E-01
       -2   -1    0    0    0  501  0.00000000000E+00  0.00000000000E+00  0.27058467464E+03  0.27058467465E+03  0.25500000920E-02 0. -1.
        2   -1    0    0  501    0  0.00000000000E+00  0.00000000000E+00 -0.13547425617E+04  0.13547425617E+04  0.25500000920E-02 0.  1.
    10030    2    1    2    0    0  0.00000000000E+00  0.00000000000E+00 -0.10841578871E+04  0.16253272364E+04  0.12109047449E+04 0.  0.
        3    1    3    3  502    0 -0.90190048916E+01  0.32441954855E+02  0.26932689028E+03  0.27142366683E+03  0.10100000352E+00 0. -1.
       -3    1    3    3    0  502  0.90190048916E+01 -0.32441954855E+02 -0.13534847773E+04  0.13539035695E+04  0.10100000352E+00 0.  1.
</event>
<event>
 5   0  0.2792518E-03  0.1231450E+04  0.7818609E-02  0.9085765E-01
       -1   -1    0    0    0  501  0.00000000000E+00  0.00000000000E+00  0.37597627282E+03  0.37597627286E+03  0.50400001928E-02 0.  1.
        1   -1    0    0  501    0  0.00000000000E+00  0.00000000000E+00 -0.10083548716E+04  0.10083548716E+04  0.50400001928E-02 0. -1.
    10030    2    1    2    0    0  0.00000000000E+00  0.00000000000E+00 -0.63237859881E+03  0.13843311445E+04  0.12314503747E+04 0.  0.
        2    1    3    3  502    0  0.17444772166E+03 -0.54994942533E+03 -0.55792304751E+03  0.80259236537E+03  0.25500000920E-02 0. -1.
       -2    1    3    3    0  502 -0.17444772166E+03  0.54994942533E+03 -0.74455551301E+02  0.58173877912E+03  0.25500000920E-02 0.  1.
</event>
<event>
 5   0  0.2792518E-03  0.1189423E+04  0.7818609E-02  0.9122165E-01
       -1   -1    0    0    0  501  0.00000000000E+00  0.00000000000E+00  0.46922837897E+03  0.46922837899E+03  0.50400001928E-02 0.  1.
        1   -1    0    0  501    0  0.00000000000E+00  0.00000000000E+00 -0.75375222925E+03  0.75375222926E+03  0.50400001928E-02 0. -1.
    10030    2    1    2    0    0  0.00000000000E+00  0.00000000000E+00 -0.28452385028E+03  0.12229806083E+04  0.11894232833E+04 0.  0.
        2    1    3    3  502    0 -0.29140593494E+03  0.33629950239E+03 -0.54794009632E+03  0.70587047210E+03  0.25500000920E-02 0. -1.
       -2    1    3    3    0  502  0.29140593494E+03 -0.33629950239E+03  0.26341624604E+03  0.51711013615E+03  0.25500000920E-02 0.  1.
</event>
<event>
 5   0  0.1922125E-03  0.1086992E+04  0.7818609E-02  0.9217964E-01
       -3   -1    0    0    0  501  0.00000000000E+00  0.00000000000E+00  0.68717238323E+03  0.68717239065E+03  0.10100000352E+00 0. -1.
        3   -1    0    0  501    0  0.00000000000E+00  0.00000000000E+00 -0.42985986236E+03  0.42985987422E+03  0.10100000352E+00 0.  1.
    10030    2    1    2    0    0  0.00000000000E+00  0.00000000000E+00  0.25731252087E+03  0.11170322649E+04  0.10869918801E+04 0.  0.
        2    1    3    3  502    0 -0.19035633208E+03 -0.33040150833E+03  0.52664101845E+03  0.65019339600E+03  0.25500000920E-02 0. -1.
       -2    1    3    3    0  502  0.19035633208E+03  0.33040150833E+03 -0.26932849759E+03  0.46683886888E+03  0.25500000920E-02 0.  1.
</event>
<event>
 5   0  0.5003526E-03  0.1195730E+04  0.7818609E-02  0.9116603E-01
        2   -1    0    0  501    0  0.00000000000E+00  0.00000000000E+00  0.13048617449E+04  0.13048617449E+04  0.25500000920E-02 0. -1.
       -2   -1    0    0    0  501  0.00000000000E+00  0.00000000000E+00 -0.27393119586E+03  0.27393119587E+03  0.25500000920E-02 0.  1.
    10030    2    1    2    0    0  0.00000000000E+00  0.00000000000E+00  0.10309305491E+04  0.15787929408E+04  0.11957296320E+04 0.  0.
        2    1    3    3  502    0 -0.47382804111E+03  0.10547705350E+03  0.54654302590E+02  0.48849310553E+03  0.25500000920E-02 0.  1.
       -2    1    3    3    0  502  0.47382804111E+03 -0.10547705350E+03  0.97627624648E+03  0.10902998353E+04  0.25500000920E-02 0. -1.
</event>
<event>
 5   0  0.5003526E-03  0.1250012E+04  0.7818609E-02  0.9070173E-01
       -2   -1    0    0    0  501  0.00000000000E+00  0.00000000000E+00  0.77881235198E+03  0.77881235199E+03  0.25500000920E-02 0.  1.
        2   -1    0    0  501    0  0.00000000000E+00  0.00000000000E+00 -0.50157491663E+03  0.50157491664E+03  0.25500000920E-02 0. -1.
    10030    2    1    2    0    0  0.00000000000E+00  0.00000000000E+00  0.27723743535E+03  0.12803872686E+04  0.12500123848E+04 0.  0.
        2    1    3    3  502    0  0.19010030797E+03 -0.29473177362E+03  0.66851715557E+03  0.75493054830E+03  0.25500000920E-02 0.  1.
       -2    1    3    3    0  502 -0.19010030797E+03  0.29473177362E+03 -0.39127972022E+03  0.52545672032E+03  0.25500000920E-02 0. -1.
</event>
<event>
 5   0  0.2930868E-03  0.1199590E+04  0.7818609E-02  0.9113215E-01
        1   -1    0    0  501    0  0.00000000000E+00  0.00000000000E+00  0.13100322531E+04  0.13100322531E+04  0.50400001928E-02 0. -1.
       -1   -1    0    0    0  501  0.00000000000E+00  0.00000000000E+00 -0.27461470133E+03  0.27461470138E+03  0.50400001928E-02 0.  1.
    10030    2    1    2    0    0  0.00000000000E+00  0.00000000000E+00  0.10354175518E+04  0.15846469545E+04  0.11995901233E+04 0.  0.
        3    1    3    3  502    0 -0.13862018402E+03  0.58339378897E+03  0.53592874059E+03  0.80422850833E+03  0.10100000352E+00 0.  1.
       -3    1    3    3    0  502  0.13862018402E+03 -0.58339378897E+03  0.49948881121E+03  0.78041844618E+03  0.10100000352E+00 0. -1.
</event>
<event>
 5   0  0.5189537E-03  0.1198795E+04  0.7818609E-02  0.9113912E-01
       -2   -1    0    0    0  501  0.00000000000E+00  0.00000000000E+00  0.36427393820E+03  0.36427393821E+03  0.25500000920E-02 0.  1.
        2   -1    0    0  501    0  0.00000000000E+00  0.00000000000E+00 -0.98628400848E+03  0.98628400848E+03  0.25500000920E-02 0. -1.
    10030    2    1    2    0    0  0.00000000000E+00  0.00000000000E+00 -0.62201007028E+03  0.13505579467E+04  0.11987953286E+04 0.  0.
        4    1    3    3  502    0 -0.44550104405E+03  0.22616505371E+03 -0.68406675492E+03  0.84709547859E+03  0.12699999809E+01 0. -1.
       -4    1    3    3    0  502  0.44550104405E+03 -0.22616505371E+03  0.62056684638E+02  0.50346246809E+03  0.12699999809E+01 0.  1.
</event>
<event>
 5   0  0.2875848E-03  0.9234654E+03  0.7818609E-02  0.9396715E-01
        1   -1    0    0  501    0  0.00000000000E+00  0.00000000000E+00  0.14961839830E+04  0.14961839831E+04  0.50400001928E-02 0.  1.
       -1   -1    0    0    0  501  0.00000000000E+00  0.00000000000E+00 -0.14249390774E+03  0.14249390783E+03  0.50400001928E-02 0. -1.
    10030    2    1    2    0    0  0.00000000000E+00  0.00000000000E+00  0.13536900753E+04  0.16386778909E+04  0.92346543524E+03 0.  0.
        1    1    3    3  502    0 -0.53775419038E+02  0.20973224695E+03  0.14005177111E+04  0.14171553444E+04  0.50400001928E-02 0.  1.
       -1    1    3    3    0  502  0.53775419038E+02 -0.20973224695E+03 -0.46827635766E+02  0.22152254648E+03  0.50400001928E-02 0. -1.
</event>
<event>
 5   0  0.5003526E-03  0.1196463E+04  0.7818609E-02  0.9115958E-01
        2   -1    0    0  501    0  0.00000000000E+00  0.00000000000E+00  0.53824483382E+03  0.53824483382E+03  0.25500000920E-02 0.  1.
       -2   -1    0    0    0  501  0.00000000000E+00  0.00000000000E+00 -0.66490314229E+03  0.66490314230E+03  0.25500000920E-02 0. -1.
    10030    2    1    2    0    0  0.00000000000E+00  0.00000000000E+00 -0.12665830847E+03  0.12031479761E+04  0.11964625884E+04 0.  0.
        2    1    3    3  502    0  0.63123083910E+02 -0.54136336533E+03  0.18466976337E+03  0.57546653991E+03  0.25500000920E-02 0.  1.
       -2    1    3    3    0  502 -0.63123083910E+02  0.54136336533E+03 -0.31132807185E+03  0.62768143621E+03  0.25500000920E-02 0. -1.
</event>
<event>
 5   0  0.2926844E-03  0.1213583E+04  0.7818609E-02  0.9101049E-01
       -1   -1    0    0    0  501  0.00000000000E+00  0.00000000000E+00  0.31519636029E+03  0.31519636033E+03  0.50400001928E-02 0. -1.
        1   -1    0    0  501    0  0.00000000000E+00  0.00000000000E+00 -0.11681486472E+04  0.11681486472E+04  0.50400001928E-02 0.  1.
    10030    2    1    2    0    0  0.00000000000E+00  0.00000000000E+00 -0.85295228690E+03  0.14833450075E+04  0.12135834572E+04 0.  0.
        5    1    3    3  502    0 -0.40000675225E+03  0.43672919666E+03 -0.58787480447E+03  0.83447987920E+03  0.46999998093E+01 0.  1.
       -5    1    3    3    0  502  0.40000675225E+03 -0.43672919666E+03 -0.26507748243E+03  0.64886512832E+03  0.46999998093E+01 0. -1.
</event>
<event>
 5   0  0.5467554E-03  0.1199321E+04  0.7818609E-02  0.9113451E-01
       -2   -1    0    0    0  501  0.00000000000E+00  0.00000000000E+00  0.56388869156E+03  0.56388869157E+03  0.25500000920E-02 0.  1.
        2   -1    0    0  501    0  0.00000000000E+00  0.00000000000E+00 -0.63770148078E+03  0.63770148079E+03  0.25500000920E-02 0. -1.
    10030    2    1    2    0    0  0.00000000000E+00  0.00000000000E+00 -0.73812789220E+02  0.12015901724E+04  0.11993208972E+04 0.  0.
        1    1    3    3  502    0  0.22348333593E+03  0.55342086997E+03  0.21282693455E+02  0.59722057384E+03  0.50400001928E-02 0.  1.
       -1    1    3    3    0  502 -0.22348333593E+03 -0.55342086997E+03 -0.95095482675E+02  0.60436959851E+03  0.50400001928E-02 0. -1.
</event>
<event>
 5   0  0.1922125E-03  0.1223548E+04  0.7818609E-02  0.9092491E-01
       -4   -1    0    0    0  501  0.00000000000E+00  0.00000000000E+00  0.10397502758E+04  0.10397510514E+04  0.12699999809E+01 0.  1.
        4   -1    0    0  501    0  0.00000000000E+00  0.00000000000E+00 -0.35995679210E+03  0.35995903250E+03  0.12699999809E+01 0. -1.
    10030    2    1    2    0    0  0.00000000000E+00  0.00000000000E+00  0.67979348366E+03  0.13997100839E+04  0.12235477671E+04 0.  0.
        1    1    3    3  502    0  0.25172010268E+03 -0.53380906923E+03  0.15560585857E+03  0.61035097750E+03  0.50400001928E-02 0. -1.
       -1    1    3    3    0  502 -0.25172010268E+03  0.53380906923E+03  0.52418762509E+03  0.78935910637E+03  0.50400001928E-02 0.  1.
</event>
<event>
 5   0  0.2875848E-03  0.1185788E+04  0.7818609E-02  0.9125388E-01
        1   -1    0    0  501    0  0.00000000000E+00  0.00000000000E+00  0.13005879566E+04  0.13005879567E+04  0.50400001928E-02 0.  1.
       -1   -1    0    0    0  501  0.00000000000E+00  0.00000000000E+00 -0.27028032954E+03  0.27028032958E+03  0.50400001928E-02 0. -1.
    10030    2    1    2    0    0  0.00000000000E+00  0.00000000000E+00  0.10303076271E+04  0.15708682862E+04  0.11857880781E+04 0.  0.
        1    1    3    3  502    0  0.45458827574E+03  0.33092512489E+03  0.76426741195E+03  0.94882380646E+03  0.50400001928E-02 0.  1.
       -1    1    3    3    0  502 -0.45458827574E+03 -0.33092512489E+03  0.26604021517E+03  0.62204447978E+03  0.50400001928E-02 0. -1.
</event>
<event>
 5   0  0.2938349E-03  0.1097899E+04  0.7818609E-02  0.9207242E-01
       -1   -1    0    0    0  501  0.00000000000E+00  0.00000000000E+00  0.32991537739E+03  0.32991537743E+03  0.50400001928E-02 0. -1.
        1   -1    0    0  501    0  0.00000000000E+00  0.00000000000E+00 -0.91340219709E+03  0.91340219711E+03  0.50400001928E-02 0.  1.
    10030    2    1    2    0    0  0.00000000000E+00  0.00000000000E+00 -0.58348681970E+03  0.12433175745E+04  0.10978987760E+04 0.  0.
        4    1    3    3  502    0 -0.18183846202E+03  0.31016085723E+03  0.17802466495E+03  0.40119743003E+03  0.12699999809E+01 0. -1.
       -4    1    3    3    0  502  0.18183846202E+03 -0.31016085723E+03 -0.76151148465E+03  0.84212014451E+03  0.12699999809E+01 0.  1.
</event>
<event>
 5   0  0.2938349E-03  0.1159639E+04  0.7818609E-02  0.9148937E-01
       -1   -1    0    0    0  501  0.00000000000E+00  0.00000000000E+00  0.21028193164E+03  0.21028193170E+03  0.50400001928E-02 0.  1.
        1   -1    0    0  501    0  0.00000000000E+00  0.00000000000E+00 -0.15987610948E+04  0.15987610948E+04  0.50400001928E-02 0. -1.
    10030    2    1    2    0    0  0.00000000000E+00  0.00000000000E+00 -0.13884791631E+04  0.18090430265E+04  0.11596388598E+04 0.  0.
        4    1    3    3  502    0 -0.14010021883E+03  0.41528686049E+03 -0.12864208644E+04  0.13590332965E+04  0.12699999809E+01 0. -1.
       -4    1    3    3    0  502  0.14010021883E+03 -0.41528686049E+03 -0.10205829874E+03  0.45000972995E+03  0.12699999809E+01 0.  1.
</event>
<event>
 5   0  0.5003526E-03  0.1190629E+04  0.7818609E-02  0.9121099E-01
        2   -1    0    0  501    0  0.00000000000E+00  0.00000000000E+00  0.85358647302E+03  0.85358647302E+03  0.25500000920E-02 0.  1.
       -2   -1    0    0    0  501  0.00000000000E+00  0.00000000000E+00 -0.41518828773E+03  0.41518828774E+03  0.25500000920E-02 0. -1.
    10030    2    1    2    0    0  0.00000000000E+00  0.00000000000E+00  0.43839818529E+03  0.12687747608E+04  0.11906285838E+04 0.  0.
        2    1    3    3  502    0 -0.51638237413E+02 -0.27034872588E+02  0.85053842254E+03  0.85253328388E+03  0.25500000920E-02 0.  1.
       -2    1    3    3    0  502  0.51638237413E+02  0.27034872588E+02 -0.41214023726E+03  0.41624147687E+03  0.25500000920E-02 0. -1.
</event>
<event>
 5   0  0.5003526E-03  0.1200831E+04  0.7818609E-02  0.9112130E-01
        2   -1    0    0  501    0  0.00000000000E+00  0.00000000000E+00  0.97161060678E+03  0.97161060678E+03  0.25500000920E-02 0. -1.
       -2   -1    0    0    0  501  0.00000000000E+00  0.00000000000E+00 -0.37103210828E+03  0.37103210829E+03  0.25500000920E-02 0.  1.
    10030    2    1    2    0    0  0.00000000000E+00  0.00000000000E+00  0.60057849850E+03  0.13426427151E+04  0.12008309321E+04 0.  0.
        2    1    3    3  502    0 -0.21592154394E+03  0.24292902977E+03 -0.26416822295E+03  0.41883347128E+03  0.25500000920E-02 0.  1.
       -2    1    3    3    0  502  0.21592154394E+03 -0.24292902977E+03  0.86474672145E+03  0.92380924379E+03  0.25500000920E-02 0. -1.
</event>
<event>
 5   0  0.5189537E-03  0.1181220E+04  0.7818609E-02  0.9129455E-01
       -2   -1    0    0    0  501  0.00000000000E+00  0.00000000000E+00  0.24188936510E+03  0.24188936512E+03  0.25500000920E-02 0.  1.
        2   -1    0    0  501    0  0.00000000000E+00  0.00000000000E+00 -0.14420659262E+04  0.14420659262E+04  0.25500000920E-02 0. -1.
    10030    2    1    2    0    0  0.00000000000E+00  0.00000000000E+00 -0.12001765611E+04  0.16839552913E+04  0.11812204051E+04 0.  0.
        4    1    3    3  502    0 -0.55509358826E+03  0.23013270054E+02 -0.88578027402E+03  0.10455939982E+04  0.12699999809E+01 0. -1.
       -4    1    3    3    0  502  0.55509358826E+03 -0.23013270054E+02 -0.31439628708E+03  0.63836129312E+03  0.12699999809E+01 0.  1.
</event>
<event>
 5   0  0.5031575E-03  0.1169861E+04  0.7818609E-02  0.9139654E-01
       -2   -1    0    0    0  501  0.00000000000E+00  0.00000000000E+00  0.82508832625E+03  0.82508832625E+03  0.25500000920E-02 0. -1.
        2   -1    0    0  501    0  0.00000000000E+00  0.00000000000E+00 -0.41467509349E+03  0.41467509350E+03  0.25500000920E-02 0.  1.
    10030    2    1    2    0    0  0.00000000000E+00  0.00000000000E+00  0.41041323276E+03  0.12397634197E+04  0.11698608102E+04 0.  0.
        5    1    3    3  502    0 -0.35210471370E+03 -0.58347716634E+02  0.69629583009E+03  0.78245265572E+03  0.46999998093E+01 0. -1.
       -5    1    3    3    0  502  0.35210471370E+03  0.58347716634E+02 -0.28588259733E+03  0.45731076403E+03  0.46999998093E+01 0.  1.
</event>
<event>
 5   0  0.5003526E-03  0.1213437E+04  0.7818609E-02  0.9101176E-01
        2   -1    0    0  501    0  0.00000000000E+00  0.00000000000E+00  0.17400316616E+04  0.17400316617E+04  0.25500000920E-02 0.  1.
       -2   -1    0    0    0  501  0.00000000000E+00  0.00000000000E+00 -0.21155203354E+03  0.21155203355E+03  0.25500000920E-02 0. -1.
    10030    2    1    2    0    0  0.00000000000E+00  0.00000000000E+00  0.15284796281E+04  0.19515836952E+04  0.12134368322E+04 0.  0.
        2    1    3    3  502    0 -0.49790121325E+02 -0.39977612066E+03  0.14938658541E+04  0.15472346923E+04  0.25500000920E-02 0.  1.
       -2    1    3    3    0  502  0.49790121325E+02  0.39977612066E+03  0.34613774005E+02  0.40434900295E+03  0.25500000920E-02 0. -1.
</event>
<event>
 5   0  0.5467554E-03  0.1252026E+04  0.7818609E-02  0.9068499E-01
       -2   -1    0    0    0  501  0.00000000000E+00  0.00000000000E+00  0.34307858124E+03  0.34307858124E+03  0.25500000920E-02 0.  1.
        2   -1    0    0  501    0  0.00000000000E+00  0.00000000000E+00 -0.11422811731E+04  0.11422811731E+04  0.25500000920E-02 0. -1.
    10030    2    1    2    0    0  0.00000000000E+00  0.00000000000E+00 -0.79920259189E+03  0.14853597544E+04  0.12520258851E+04 0.  0.
        1    1    3    3  502    0  0.38751358609E+03 -0.59391570037E+02  0.17941056529E+03  0.43114068349E+03  0.50400001928E-02 0.  1.
       -1    1    3    3    0  502 -0.38751358609E+03  0.59391570037E+02 -0.97861315717E+03  0.10542190709E+04  0.50400001928E-02 0. -1.
</event>
<event>
 5   0  0.5189537E-03  0.1207760E+04  0.7818609E-02  0.9106091E-01
       -2   -1    0    0    0  501  0.00000000000E+00  0.00000000000E+00  0.15209772101E+03  0.15209772104E+03  0.25500000920E-02 0.  1.
        2   -1    0    0  501    0  0.00000000000E+00  0.00000000000E+00 -0.23976121117E+04  0.23976121117E+04  0.25500000920E-02 0. -1.
    10030    2    1    2    0    0  0.00000000000E+00  0.00000000000E+00 -0.22455143907E+04  0.25497098328E+04  0.12077604698E+04 0.  0.
        4    1    3    3  502    0 -0.48960592782E+03 -0.90885613144E+02 -0.40158807054E+03  0.63972552750E+03  0.12699999809E+01 0.  1.
       -4    1    3    3    0  502  0.48960592782E+03  0.90885613144E+02 -0.18439263202E+04  0.19099843053E+04  0.12699999809E+01 0. -1.
</event>
<event>
 5   0  0.5189537E-03  0.1207141E+04  0.7818609E-02  0.9106629E-01
        2   -1    0    0  501    0  0.00000000000E+00  0.00000000000E+00  0.15020660230E+04  0.15020660230E+04  0.25500000920E-02 0. -1.
       -2   -1    0    0    0  501  0.00000000000E+00  0.00000000000E+00 -0.24253074903E+03  0.24253074904E+03  0.25500000920E-02 0.  1.
    10030    2    1    2    0    0  0.00000000000E+00  0.00000000000E+00  0.12595352739E+04  0.17445967720E+04  0.12071407501E+04 0.  0.
        4    1    3    3  502    0  0.12633672161E+03  0.28083936325E+03  0.13799855415E+04  0.14139283655E+04  0.12699999809E+01 0. -1.
       -4    1    3    3    0  502 -0.12633672161E+03 -0.28083936325E+03 -0.12045026758E+03  0.33066840647E+03  0.12699999809E+01 0.  1.
</event>
<event>
 5   0  0.5031575E-03  0.1219287E+04  0.7818609E-02  0.9096140E-01
        2   -1    0    0  501    0  0.00000000000E+00  0.00000000000E+00  0.22672252520E+03  0.22672252521E+03  0.25500000920E-02 0. -1.
       -2   -1    0    0    0  501  0.00000000000E+00  0.00000000000E+00 -0.16392948948E+04  0.16392948948E+04  0.25500000920E-02 0.  1.
    10030    2    1    2    0    0  0.00000000000E+00  0.00000000000E+00 -0.14125723696E+04  0.18660174200E+04  0.12192868048E+04 0.  0.
        5    1    3    3  502    0 -0.25788792354E+03 -0.15438528776E+03 -0.15179874484E+04  0.15474653410E+04  0.46999998093E+01 0.  1.
       -5    1    3    3    0  502  0.25788792354E+03  0.15438528776E+03  0.10541507881E+03  0.31855207898E+03  0.46999998093E+01 0. -1.
</event>
<event>
 5   0  0.2938349E-03  0.1210483E+04  0.7818609E-02  0.9103730E-01
       -1   -1    0    0    0  501  0.00000000000E+00  0.00000000000E+00  0.38770056321E+03  0.38770056325E+03  0.50400001928E-02 0. -1.
        1   -1    0    0  501    0  0.00000000000E+00  0.00000000000E+00 -0.94484515268E+03  0.94484515270E+03  0.50400001928E-02 0.  1.
    10030    2    1    2    0    0  0.00000000000E+00  0.00000000000E+00 -0.55714458947E+03  0.13325457159E+04  0.12104825449E+04 0.  0.
        4    1    3    3  502    0 -0.47845338346E+02 -0.14066123484E+02 -0.94257806914E+03  0.94389727277E+03  0.12699999809E+01 0.  1.
       -4    1    3    3    0  502  0.47845338346E+02  0.14066123484E+02  0.38543347967E+03  0.38864844317E+03  0.12699999809E+01 0. -1.
</event>
<event>
 5   0  0.5031575E-03  0.7892930E+03  0.7818609E-02  0.9575646E-01
       -2   -1    0    0    0  501  0.00000000000E+00  0.00000000000E+00  0.56802603682E+03  0.56802603683E+03  0.25500000920E-02 0.  1.
        2   -1    0    0  501    0  0.00000000000E+00  0.00000000000E+00 -0.27418787774E+03  0.27418787776E+03  0.25500000920E-02 0. -1.
    10030    2    1    2    0    0  0.00000000000E+00  0.00000000000E+00  0.29383815908E+03  0.84221391459E+03  0.78929298375E+03 0.  0.
        5    1    3    3  502    0 -0.67383003914E+02  0.31159508753E+03 -0.10125125711E+03  0.33452335472E+03  0.46999998093E+01 0. -1.
       -5    1    3    3    0  502  0.67383003914E+02 -0.31159508753E+03  0.39508941619E+03  0.50769055986E+03  0.46999998093E+01 0.  1.
</event>
<event>
 5   0  0.5108045E-03  0.1201082E+04  0.7818609E-02  0.9111910E-01
        2   -1    0    0  501    0  0.00000000000E+00  0.00000000000E+00  0.20441225538E+04  0.20441225538E+04  0.25500000920E-02 0.  1.
       -2   -1    0    0    0  501  0.00000000000E+00  0.00000000000E+00 -0.17643229471E+03  0.17643229472E+03  0.25500000920E-02 0. -1.
    10030    2    1    2    0    0  0.00000000000E+00  0.00000000000E+00  0.18676902591E+04  0.22205548485E+04  0.12010815673E+04 0.  0.
        3    1    3    3  502    0  0.14529295393E+03 -0.52790154053E+03  0.13899365697E+04  0.14938921503E+04  0.10100000352E+00 0.  1.
       -3    1    3    3    0  502 -0.14529295393E+03  0.52790154053E+03  0.47775368940E+03  0.72666269816E+03  0.10100000352E+00 0. -1.
</event>
<event>
 5   0  0.1922125E-03  0.1172564E+04  0.7818609E-02  0.9137216E-01
        4   -1    0    0  501    0  0.00000000000E+00  0.00000000000E+00  0.40165883020E+03  0.40166083799E+03  0.12699999809E+01 0.  1.
       -4   -1    0    0    0  501  0.00000000000E+00  0.00000000000E+00 -0.85576262236E+03  0.85576356473E+03  0.12699999809E+01 0. -1.
    10030    2    1    2    0    0  0.00000000000E+00  0.00000000000E+00 -0.45410379216E+03  0.12574244027E+04  0.11725638040E+04 0.  0.
        5    1    3    3  502    0  0.54665814105E+03  0.69916225407E+02 -0.44147525814E+03  0.70614863542E+03  0.46999998093E+01 0. -1.
       -5    1    3    3    0  502 -0.54665814105E+03 -0.69916225407E+02 -0.12628534016E+02  0.55127576731E+03  0.46999998093E+01 0.  1.
</event>
<event>
 5   0  0.2875848E-03  0.1205927E+04  0.7818609E-02  0.9107685E-01
       -1   -1    0    0    0  501  0.00000000000E+00  0.00000000000E+00  0.24040840710E+03  0.24040840716E+03  0.50400001928E-02 0. -1.
        1   -1    0    0  501    0  0.00000000000E+00  0.00000000000E+00 -0.15122797047E+04  0.15122797047E+04  0.50400001928E-02 0.  1.
    10030    2    1    2    0    0  0.00000000000E+00  0.00000000000E+00 -0.12718712976E+04  0.17526881118E+04  0.12059266229E+04 0.  0.
        1    1    3    3  502    0  0.49948687358E+03 -0.51189070365E+02 -0.11211548867E+04  0.12284525786E+04  0.50400001928E-02 0.  1.
       -1    1    3    3    0  502 -0.49948687358E+03  0.51189070365E+02 -0.15071641087E+03  0.52423553327E+03  0.50400001928E-02 0. -1.
</event>
<event>
 5   0  0.2926844E-03  0.1278047E+04  0.7818609E-02  0.9047158E-01
       -1   -1    0    0    0  501  0.00000000000E+00  0.00000000000E+00  0.10192138303E+04  0.10192138303E+04  0.50400001928E-02 0. -1.
        1   -1    0    0  501    0  0.00000000000E+00  0.00000000000E+00 -0.40065268417E+03  0.40065268420E+03  0.50400001928E-02 0.  1.
    10030    2    1    2    0    0  0.00000000000E+00  0.00000000000E+00  0.61856114613E+03  0.14198665145E+04  0.12780465670E+04 0.  0.
        5    1    3    3  502    0  0.39713471881E+03  0.28405042439E+03  0.76724670427E+03  0.90944500861E+03  0.46999998093E+01 0. -1.
       -5    1    3    3    0  502 -0.39713471881E+03 -0.28405042439E+03 -0.14868555814E+03  0.51042150589E+03  0.46999998093E+01 0.  1.
</event>
<event>
 5   0  0.2926844E-03  0.1194594E+04  0.7818609E-02  0.9117601E-01
        1   -1    0    0  501    0  0.00000000000E+00  0.00000000000E+00  0.45024070191E+03  0.45024070194E+03  0.50400001928E-02 0. -1.
       -1   -1    0    0    0  501  0.00000000000E+00  0.00000000000E+00 -0.79238460563E+03  0.79238460564E+03  0.50400001928E-02 0.  1.
    10030    2    1    2    0    0  0.00000000000E+00  0.00000000000E+00 -0.34214390372E+03  0.12426253076E+04  0.11945941588E+04 0.  0.
        5    1    3    3  502    0  0.54803479476E+03  0.14329896596E+03  0.25923006181E+02  0.56707214899E+03  0.46999998093E+01 0. -1.
       -5    1    3    3    0  502 -0.54803479476E+03 -0.14329896596E+03 -0.36806690990E+03  0.67555315859E+03  0.46999998093E+01 0.  1.
</event>
<event>
 5   0  0.5467554E-03  0.1201021E+04  0.7818609E-02  0.9111963E-01
       -2   -1    0    0    0  501  0.00000000000E+00  0.00000000000E+00  0.79879041276E+03  0.79879041277E+03  0.25500000920E-02 0.  1.
        2   -1    0    0  501    0  0.00000000000E+00  0.00000000000E+00 -0.45144899491E+03  0.45144899491E+03  0.25500000920E-02 0. -1.
    10030    2    1    2    0    0  0.00000000000E+00  0.00000000000E+00  0.34734141786E+03  0.12502394077E+04  0.12010214469E+04 0.  0.
        1    1    3    3  502    0 -0.74403543751E+02 -0.94402855208E+02  0.78613985227E+03  0.79527583501E+03  0.50400001928E-02 0.  1.
       -1    1    3    3    0  502  0.74403543751E+02  0.94402855208E+02 -0.43879843441E+03  0.45496357268E+03  0.50400001928E-02 0. -1.
</event>
<event>
 5   0  0.5467554E-03  0.1188603E+04  0.7818609E-02  0.9122891E-01
       -2   -1    0    0    0  501  0.00000000000E+00  0.00000000000E+00  0.22590774285E+03  0.22590774286E+03  0.25500000920E-02 0.  1.
        2   -1    0    0  501    0  0.00000000000E+00  0.00000000000E+00 -0.15634453042E+04  0.15634453042E+04  0.25500000920E-02 0. -1.
    10030    2    1    2    0    0  0.00000000000E+00  0.00000000000E+00 -0.13375375613E+04  0.17893530470E+04  0.11886032134E+04 0.  0.
        1    1    3    3  502    0  0.53224824049E+03 -0.19606954278E+03 -0.93579802079E+03  0.10942803073E+04  0.50400001928E-02 0. -1.
       -1    1    3    3    0  502 -0.53224824049E+03  0.19606954278E+03 -0.40173954053E+03  0.69507273977E+03  0.50400001928E-02 0.  1.
</event>
<event>
 5   0  0.2938349E-03  0.1217128E+04  0.7818609E-02  0.9097995E-01
       -1   -1    0    0    0  501  0.00000000000E+00  0.00000000000E+00  0.42874228251E+03  0.42874228254E+03  0.50400001928E-02 0.  1.
        1   -1    0    0  501    0  0.00000000000E+00  0.00000000000E+00 -0.86380556508E+03  0.86380556510E+03  0.50400001928E-02 0. -1.
    10030    2    1    2    0    0  0.00000000000E+00  0.00000000000E+00 -0.43506328257E+03  0.12925478476E+04  0.12171277166E+04 0.  0.
        4    1    3    3  502    0 -0.14655082570E+03  0.39006541247E+02  0.40835249171E+03  0.43560535483E+03  0.12699999809E+01 0.  1.
       -4    1    3    3    0  502  0.14655082570E+03 -0.39006541247E+02 -0.84341577428E+03  0.85694249281E+03  0.12699999809E+01 0. -1.
</event>
<event>
 5   0  0.5003526E-03  0.1120557E+04  0.7818609E-02  0.9185384E-01
       -2   -1    0    0    0  501  0.00000000000E+00  0.00000000000E+00  0.27806210799E+03  0.27806210800E+03  0.25500000920E-02 0.  1.
        2   -1    0    0  501    0  0.00000000000E+00  0.00000000000E+00 -0.11289269970E+04  0.11289269970E+04  0.25500000920E-02 0. -1.
    10030    2    1    2    0    0  0.00000000000E+00  0.00000000000E+00 -0.85086488900E+03  0.14069891050E+04  0.11205566841E+04 0.  0.
        2    1    3    3  502    0 -0.53794757632E+03  0.14104991460E+03 -0.51086185367E+03  0.75515727290E+03  0.25500000920E-02 0. -1.
       -2    1    3    3    0  502  0.53794757632E+03 -0.14104991460E+03 -0.34000303533E+03  0.65183183209E+03  0.25500000920E-02 0.  1.
</event>
<event>
 5   0  0.1922125E-03  0.1207721E+04  0.7818609E-02  0.9106125E-01
        3   -1    0    0  501    0  0.00000000000E+00  0.00000000000E+00  0.83043676855E+03  0.83043677469E+03  0.10100000352E+00 0.  1.
       -3   -1    0    0    0  501  0.00000000000E+00  0.00000000000E+00 -0.43910346027E+03  0.43910347188E+03  0.10100000352E+00 0. -1.
    10030    2    1    2    0    0  0.00000000000E+00  0.00000000000E+00  0.39133330828E+03  0.12695402466E+04  0.12077212756E+04 0.  0.
        3    1    3    3  502    0  0.38175515949E+03  0.19161505712E+03  0.64435747218E+03  0.77307819402E+03  0.10100000352E+00 0.  1.
       -3    1    3    3    0  502 -0.38175515949E+03 -0.19161505712E+03 -0.25302416389E+03  0.49646205256E+03  0.10100000352E+00 0. -1.
</event>
<event>
 5   0  0.5031575E-03  0.1225144E+04  0.7818609E-02  0.9091129E-01
       -2   -1    0    0    0  501  0.00000000000E+00  0.00000000000E+00  0.29688733372E+03  0.29688733373E+03  0.25500000920E-02 0.  1.
        2   -1    0    0  501    0  0.00000000000E+00  0.00000000000E+00 -0.12639279754E+04  0.12639279754E+04  0.25500000920E-02 0. -1.
    10030    2    1    2    0    0  0.00000000000E+00  0.00000000000E+00 -0.96704064172E+03  0.15608153092E+04  0.12251435943E+04 0.  0.
        5    1    3    3  502    0 -0.44641568735E+03  0.52259198965E+02  0.46684461053E+02  0.45190653756E+03  0.46999998093E+01 0.  1.
       -5    1    3    3    0  502  0.44641568735E+03 -0.52259198965E+02 -0.10137251028E+04  0.11089087716E+04  0.46999998093E+01 0. -1.
</event>
<event>
 5   0  0.5031575E-03  0.1212892E+04  0.7818609E-02  0.9101646E-01
        2   -1    0    0  501    0  0.00000000000E+00  0.00000000000E+00  0.88050618599E+03  0.88050618600E+03  0.25500000920E-02 0.  1.
       -2   -1    0    0    0  501  0.00000000000E+00  0.00000000000E+00 -0.41768787174E+03  0.41768787174E+03  0.25500000920E-02 0. -1.
    10030    2    1    2    0    0  0.00000000000E+00  0.00000000000E+00  0.46281831426E+03  0.12981940577E+04  0.12128920065E+04 0.  0.
        5    1    3    3  502    0 -0.37854470596E+02 -0.59779195130E+03  0.13005801614E+03  0.61296439990E+03  0.46999998093E+01 0. -1.
       -5    1    3    3    0  502  0.37854470596E+02  0.59779195130E+03  0.33276029812E+03  0.68522965784E+03  0.46999998093E+01 0.  1.
</event>
<event>
 5   0  0.2875848E-03  0.1209545E+04  0.7818609E-02  0.9104543E-01
        1   -1    0    0  501    0  0.00000000000E+00  0.00000000000E+00  0.86192596226E+03  0.86192596227E+03  0.50400001928E-02 0.  1.
       -1   -1    0    0    0  501  0.00000000000E+00  0.00000000000E+00 -0.42433986205E+03  0.42433986208E+03  0.50400001928E-02 0. -1.
    10030    2    1    2    0    0  0.00000000000E+00  0.00000000000E+00  0.43758610021E+03  0.12862658244E+04  0.12095446151E+04 0.  0.
        1    1    3    3  502    0  0.39515665658E+03  0.14750572488E+03 -0.24210634726E+03  0.48633548659E+03  0.50400001928E-02 0. -1.
       -1    1    3    3    0  502 -0.39515665658E+03 -0.14750572488E+03  0.67969244746E+03  0.79993033776E+03  0.50400001928E-02 0.  1.
</event>
<event>
 5   0  0.2938349E-03  0.1191588E+04  0.7818609E-02  0.9120252E-01
       -1   -1    0    0    0  501  0.00000000000E+00  0.00000000000E+00  0.69399668823E+03  0.69399668825E+03  0.50400001928E-02 0.  1.
        1   -1    0    0  501    0  0.00000000000E+00  0.00000000000E+00 -0.51148700008E+03  0.51148700011E+03  0.50400001928E-02 0. -1.
    10030    2    1    2    0    0  0.00000000000E+00  0.00000000000E+00  0.18250968814E+03  0.12054836884E+04  0.11915876538E+04 0.  0.
        4    1    3    3  502    0  0.45884405404E+03 -0.69080504012E+02 -0.28681263754E+03  0.54550259753E+03  0.12699999809E+01 0. -1.
       -4    1    3    3    0  502 -0.45884405404E+03  0.69080504012E+02  0.46932232568E+03  0.65998109082E+03  0.12699999809E+01 0.  1.
</event>
<event>
 5   0  0.5108045E-03  0.1187658E+04  0.7818609E-02  0.9123729E-01
        2   -1    0    0  501    0  0.00000000000E+00  0.00000000000E+00  0.66878111075E+03  0.66878111076E+03  0.25500000920E-02 0.  1.
       -2   -1    0    0    0  501  0.00000000000E+00  0.00000000000E+00 -0.52727676732E+03  0.52727676733E+03  0.25500000920E-02 0. -1.
    10030    2    1    2    0    0  0.00000000000E+00  0.00000000000E+00  0.14150434343E+03  0.11960578781E+04  0.11876577657E+04 0.  0.
        3    1    3    3  502    0  0.35174184081E+03 -0.40404212941E+03 -0.18730298151E+03  0.56749870660E+03  0.10100000352E+00 0. -1.
       -3    1    3    3    0  502 -0.35174184081E+03  0.40404212941E+03  0.32880732494E+03  0.62855917148E+03  0.10100000352E+00 0.  1.
</event>
<event>
 5   0  0.5467554E-03  0.1050020E+04  0.7818609E-02  0.9255324E-01
       -2   -1    0    0    0  501  0.00000000000E+00  0.00000000000E+00  0.55717862979E+03  0.55717862979E+03  0.25500000920E-02 0. -1.
        2   -1    0    0  501    0  0.00000000000E+00  0.00000000000E+00 -0.49469831813E+03  0.49469831814E+03  0.25500000920E-02 0.  1.
    10030    2    1    2    0    0  0.00000000000E+00  0.00000000000E+00  0.62480311655E+02  0.10518769479E+04  0.10500196780E+04 0.  0.
        1    1    3    3  502    0 -0.35942359333E+03  0.26857076593E+03  0.30433885717E+03  0.54216023071E+03  0.50400001928E-02 0. -1.
       -1    1    3    3    0  502  0.35942359333E+03 -0.26857076593E+03 -0.24185854551E+03  0.50971671722E+03  0.50400001928E-02 0.  1.
</event>
<event>
 5   0  0.5031575E-03  0.1008266E+04  0.7818609E-02  0.9299525E-01
       -2   -1    0    0    0  501  0.00000000000E+00  0.00000000000E+00  0.50885878204E+03  0.50885878204E+03  0.25500000920E-02 0.  1.
        2   -1    0    0  501    0  0.00000000000E+00  0.00000000000E+00 -0.49945097482E+03  0.49945097482E+03  0.25500000920E-02 0. -1.
    10030    2    1    2    0    0  0.00000000000E+00  0.00000000000E+00  0.94078072181E+01  0.10083097569E+04  0.10082658672E+04 0.  0.
        5    1    3    3  502    0 -0.16945950903E+00 -0.28138949509E+03  0.42298978589E+03  0.50805760070E+03  0.46999998093E+01 0.  1.
       -5    1    3    3    0  502  0.16945950903E+00  0.28138949509E+03 -0.41358197868E+03  0.50025215616E+03  0.46999998093E+01 0. -1.
</event>
<event>
 5   0  0.1922125E-03  0.1198289E+04  0.7818609E-02  0.9114356E-01
        4   -1    0    0  501    0  0.00000000000E+00  0.00000000000E+00  0.11740714219E+04  0.11740721088E+04  0.12699999809E+01 0. -1.
       -4   -1    0    0    0  501  0.00000000000E+00  0.00000000000E+00 -0.30574920564E+03  0.30575184325E+03  0.12699999809E+01 0.  1.
    10030    2    1    2    0    0  0.00000000000E+00  0.00000000000E+00  0.86832221627E+03  0.14798239520E+04  0.11982885536E+04 0.  0.
        5    1    3    3  502    0  0.58365259653E+01  0.51396442913E+03  0.81431305121E+03  0.96297525140E+03  0.46999998093E+01 0. -1.
       -5    1    3    3    0  502 -0.58365259653E+01 -0.51396442913E+03  0.54009165060E+02  0.51684870064E+03  0.46999998093E+01 0.  1.
</event>
<event>
 5   0  0.5108045E-03  0.1211222E+04  0.7818609E-02  0.9103091E-01
       -2   -1    0    0    0  501  0.00000000000E+00  0.00000000000E+00  0.34696036558E+03  0.34696036559E+03  0.25500000920E-02 0.  1.
        2   -1    0    0  501    0  0.00000000000E+00  0.00000000000E+00 -0.10570787655E+04  0.10570787655E+04  0.25500000920E-02 0. -1.
    10030    2    1    2    0    0  0.00000000000E+00  0.00000000000E+00 -0.71011839994E+03  0.14040391311E+04  0.12112215899E+04 0.  0.
        3    1    3    3  502    0 -0.21834276539E+03  0.25269468667E+03 -0.94069388688E+03  0.99821499031E+03  0.10100000352E+00 0. -1.
       -3    1    3    3    0  502  0.21834276539E+03 -0.25269468667E+03  0.23057548694E+03  0.40582414079E+03  0.10100000352E+00 0.  1.
</event>
<event>
 5   0  0.5189537E-03  0.1207359E+04  0.7818609E-02  0.9106439E-01
       -2   -1    0    0    0  501  0.00000000000E+00  0.00000000000E+00  0.42428288402E+03  0.42428288403E+03  0.25500000920E-02 0.  1.
        2   -1    0    0  501    0  0.00000000000E+00  0.00000000000E+00 -0.85892960188E+03  0.85892960188E+03  0.25500000920E-02 0. -1.
    10030    2    1    2    0    0  0.00000000000E+00  0.00000000000E+00 -0.43464671786E+03  0.12832124859E+04  0.12073593146E+04 0.  0.
        4    1    3    3  502    0 -0.10798768333E+03 -0.37965921973E+03  0.26812749529E+03  0.47717547035E+03  0.12699999809E+01 0.  1.
       -4    1    3    3    0  502  0.10798768333E+03  0.37965921973E+03 -0.70277421315E+03  0.80603701556E+03  0.12699999809E+01 0. -1.
</event>
<event>
 5   0  0.1922125E-03  0.1245846E+04  0.7818609E-02  0.9073648E-01
        3   -1    0    0  501    0  0.00000000000E+00  0.00000000000E+00  0.23174100258E+03  0.23174102459E+03  0.10100000352E+00 0.  1.
       -3   -1    0    0    0  501  0.00000000000E+00  0.00000000000E+00 -0.16744252015E+04  0.16744252045E+04  0.10100000352E+00 0. -1.
    10030    2    1    2    0    0  0.00000000000E+00  0.00000000000E+00 -0.14426841989E+04  0.19061662291E+04  0.12458458955E+04 0.  0.
        4    1    3    3  502    0  0.99057500219E+02  0.61498611518E+03 -0.72643402711E+03  0.95693694612E+03  0.12699999809E+01 0.  1.
       -4    1    3    3    0  502 -0.99057500219E+02 -0.61498611518E+03 -0.71625017177E+03  0.94922928299E+03  0.12699999809E+01 0. -1.
</event>
<event>
 5   0  0.5108045E-03  0.1235882E+04  0.7818609E-02  0.9082016E-01
        2   -1    0    0  501    0  0.00000000000E+00  0.00000000000E+00  0.97270200951E+03  0.97270200951E+03  0.25500000920E-02 0. -1.
       -2   -1    0    0    0  501  0.00000000000E+00  0.00000000000E+00 -0.39256753757E+03  0.39256753758E+03  0.25500000920E-02 0.  1.
    10030    2    1    2    0    0  0.00000000000E+00  0.00000000000E+00  0.58013447193E+03  0.13652695471E+04  0.12358822479E+04 0.  0.
        3    1    3    3  502    0 -0.36355962446E+03 -0.38280781204E+03 -0.64698624933E+02  0.53188658919E+03  0.10100000352E+00 0.  1.
       -3    1    3    3    0  502  0.36355962446E+03  0.38280781204E+03  0.64483309687E+03  0.83338295790E+03  0.10100000352E+00 0. -1.
</event>
<event>
 5   0  0.5189537E-03  0.1203037E+04  0.7818609E-02  0.9110203E-01
       -2   -1    0    0    0  501  0.00000000000E+00  0.00000000000E+00  0.40190757076E+03  0.40190757077E+03  0.25500000920E-02 0.  1.
        2   -1    0    0  501    0  0.00000000000E+00  0.00000000000E+00 -0.90026742721E+03  0.90026742721E+03  0.25500000920E-02 0. -1.
    10030    2    1    2    0    0  0.00000000000E+00  0.00000000000E+00 -0.49835985645E+03  0.13021749980E+04  0.12030366490E+04 0.  0.
        4    1    3    3  502    0  0.49223983469E+03 -0.49852702075E+02  0.12111921476E+03  0.50936904485E+03  0.12699999809E+01 0.  1.
       -4    1    3    3    0  502 -0.49223983469E+03  0.49852702075E+02 -0.61947907121E+03  0.79280595314E+03  0.12699999809E+01 0. -1.
</event>
<event>
 5   0  0.5467554E-03  0.1200767E+04  0.7818609E-02  0.9112185E-01
       -2   -1    0    0    0  501  0.00000000000E+00  0.00000000000E+00  0.67784166802E+03  0.67784166802E+03  0.25500000920E-02 0. -1.
        2   -1    0    0  501    0  0.00000000000E+00  0.00000000000E+00 -0.53177705651E+03  0.53177705651E+03  0.25500000920E-02 0.  1.
    10030    2    1    2    0    0  0.00000000000E+00  0.00000000000E+00  0.14606461151E+03  0.12096187245E+04  0.12007674996E+04 0.  0.
        1    1    3    3  502    0 -0.22576506237E+03  0.46748526328E+03  0.37683169632E+03  0.64149392994E+03  0.50400001928E-02 0. -1.
       -1    1    3    3    0  502  0.22576506237E+03 -0.46748526328E+03 -0.23076708481E+03  0.56812479460E+03  0.50400001928E-02 0.  1.
</event>
<event>
 5   0  0.2938349E-03  0.1211754E+04  0.7818609E-02  0.9102630E-01
       -1   -1    0    0    0  501  0.00000000000E+00  0.00000000000E+00  0.32558739463E+03  0.32558739467E+03  0.50400001928E-02 0. -1.
        1   -1    0    0  501    0  0.00000000000E+00  0.00000000000E+00 -0.11274609419E+04  0.11274609419E+04  0.50400001928E-02 0.  1.
    10030    2    1    2    0    0  0.00000000000E+00  0.00000000000E+00 -0.80187354726E+03  0.14530483366E+04  0.12117542171E+04 0.  0.
        4    1    3    3  502    0 -0.32220773450E+02 -0.30905614323E+03 -0.10246349959E+04  0.10707158192E+04  0.12699999809E+01 0.  1.
       -4    1    3    3    0  502  0.32220773450E+02  0.30905614323E+03  0.22276144862E+03  0.38233251732E+03  0.12699999809E+01 0. -1.
</event>
<event>
 5   0  0.5108045E-03  0.1207519E+04  0.7818609E-02  0.9106300E-01
        2   -1    0    0  501    0  0.00000000000E+00  0.00000000000E+00  0.15639540326E+04  0.15639540326E+04  0.25500000920E-02 0.  1.
       -2   -1    0    0    0  501  0.00000000000E+00  0.00000000000E+00 -0.23307961722E+03  0.23307961723E+03  0.25500000920E-02 0. -1.
    10030    2    1    2    0    0  0.00000000000E+00  0.00000000000E+00  0.13308744153E+04  0.17970336498E+04  0.12075194529E+04 0.  0.
        3    1    3    3  502    0 -0.38525260873E+03  0.15281042065E+03  0.13188161370E+04  0.13824060947E+04  0.10100000352E+00 0.  1.
       -3    1    3    3    0  502  0.38525260873E+03 -0.15281042065E+03  0.12058278364E+02  0.41462755513E+03  0.10100000352E+00 0. -1.
</event>
<event>
 5   0  0.5031575E-03  0.1246689E+04  0.7818609E-02  0.9072944E-01
       -2   -1    0    0    0  501  0.00000000000E+00  0.00000000000E+00  0.16048747717E+03  0.16048747719E+03  0.25500000920E-02 0. -1.
        2   -1    0    0  501    0  0.00000000000E+00  0.00000000000E+00 -0.24211122270E+04  0.24211122270E+04  0.25500000920E-02 0.  1.
    10030    2    1    2    0    0  0.00000000000E+00  0.00000000000E+00 -0.22606247498E+04  0.25815997042E+04  0.12466887234E+04 0.  0.
        5    1    3    3  502    0 -0.15261833563E+03 -0.21208245602E+01 -0.23817799219E+04  0.23866701785E+04  0.46999998093E+01 0.  1.
       -5    1    3    3    0  502  0.15261833563E+03  0.21208245602E+01  0.12115517212E+03  0.19492952571E+03  0.46999998093E+01 0. -1.
</event>
<event>
 5   0  0.2930868E-03  0.1186404E+04  0.7818609E-02  0.9124841E-01
       -1   -1    0    0    0  501  0.00000000000E+00  0.00000000000E+00  0.33460538781E+03  0.33460538785E+03  0.50400001928E-02 0. -1.
        1   -1    0    0  501    0  0.00000000000E+00  0.00000000000E+00 -0.10516518936E+04  0.10516518936E+04  0.50400001928E-02 0.  1.
    10030    2    1    2    0    0  0.00000000000E+00  0.00000000000E+00 -0.71704650581E+03  0.13862572815E+04  0.11864036240E+04 0.  0.
        3    1    3    3  502    0  0.16585035921E+03  0.13408085717E+03  0.28826012074E+03  0.35857764196E+03  0.10100000352E+00 0. -1.
       -3    1    3    3    0  502 -0.16585035921E+03 -0.13408085717E+03 -0.10053066265E+04  0.10276796395E+04  0.10100000352E+00 0.  1.
</event>
<event>
 5   0  0.2938349E-03  0.1212897E+04  0.7818609E-02  0.9101643E-01
        1   -1    0    0  501    0  0.00000000000E+00  0.00000000000E+00  0.66790112993E+03  0.66790112995E+03  0.50400001928E-02 0. -1.
       -1   -1    0    0    0  501  0.00000000000E+00  0.00000000000E+00 -0.55064960131E+03  0.55064960133E+03  0.50400001928E-02 0.  1.
    10030    2    1    2    0    0  0.00000000000E+00  0.00000000000E+00  0.11725152862E+03  0.12185507313E+04  0.12128965181E+04 0.  0.
        4    1    3    3  502    0  0.16720981945E+03 -0.31454150017E+03 -0.43445992600E+03  0.56182961763E+03  0.12699999809E+01 0.  1.
       -4    1    3    3    0  502 -0.16720981945E+03  0.31454150017E+03  0.55171145462E+03  0.65672111365E+03  0.12699999809E+01 0. -1.
</event>
<event>
 5   0  0.5189537E-03  0.1196289E+04  0.7818609E-02  0.9116111E-01
        2   -1    0    0  501    0  0.00000000000E+00  0.00000000000E+00  0.61330181607E+03  0.61330181608E+03  0.25500000920E-02 0. -1.
       -2   -1    0    0    0  501  0.00000000000E+00  0.00000000000E+00 -0.58336155847E+03  0.58336155848E+03  0.25500000920E-02 0.  1.
    10030    2    1    2    0    0  0.00000000000E+00  0.00000000000E+00  0.29940257602E+02  0.11966633746E+04  0.11962887665E+04 0.  0.
        4    1    3    3  502    0 -0.37469561535E+03 -0.25349972516E+03  0.40639328178E+03  0.60812500951E+03  0.12699999809E+01 0. -1.
       -4    1    3    3    0  502  0.37469561535E+03  0.25349972516E+03 -0.37645302418E+03  0.58853836504E+03  0.12699999809E+01 0.  1.
</event>
<event>
 5   0  0.2930868E-03  0.1192987E+04  0.7818609E-02  0.9119017E-01
        1   -1    0    0  501    0  0.00000000000E+00  0.00000000000E+00  0.16006161468E+04  0.16006161468E+04  0.50400001928E-02 0. -1.
       -1   -1    0    0    0  501  0.00000000000E+00  0.00000000000E+00 -0.22229213327E+03  0.22229213332E+03  0.50400001928E-02 0.  1.
    10030    2    1    2    0    0  0.00000000000E+00  0.00000000000E+00  0.13783240135E+04  0.18229082801E+04  0.11929868027E+04 0.  0.
        3    1    3    3  502    0  0.26289423503E+03  0.88111774840E+02 -0.11784014519E+03  0.30126960301E+03  0.10100000352E+00 0.  1.
       -3    1    3    3    0  502 -0.26289423503E+03 -0.88111774840E+02  0.14961641587E+04  0.15216386771E+04  0.10100000352E+00 0. -1.
</event>
<event>
 5   0  0.5031575E-03  0.7756380E+03  0.7818609E-02  0.9595965E-01
       -2   -1    0    0    0  501  0.00000000000E+00  0.00000000000E+00  0.14228045991E+03  0.14228045993E+03  0.25500000920E-02 0. -1.
        2   -1    0    0  501    0  0.00000000000E+00  0.00000000000E+00 -0.10570923941E+04  0.10570923941E+04  0.25500000920E-02 0.  1.
    10030    2    1    2    0    0  0.00000000000E+00  0.00000000000E+00 -0.91481193420E+03  0.11993728540E+04  0.77563803934E+03 0.  0.
        5    1    3    3  502    0 -0.32448730176E+03  0.13767034824E+03 -0.20741878839E+03  0.40901073038E+03  0.46999998093E+01 0. -1.
       -5    1    3    3    0  502  0.32448730176E+03 -0.13767034824E+03 -0.70739314581E+03  0.79036212367E+03  0.46999998093E+01 0.  1.
</event>
<event>
 5   0  0.5003526E-03  0.1194474E+04  0.7818609E-02  0.9117707E-01
        2   -1    0    0  501    0  0.00000000000E+00  0.00000000000E+00  0.94763235994E+03  0.94763235994E+03  0.25500000920E-02 0.  1.
       -2   -1    0    0    0  501  0.00000000000E+00  0.00000000000E+00 -0.37640320371E+03  0.37640320372E+03  0.25500000920E-02 0. -1.
    10030    2    1    2    0    0  0.00000000000E+00  0.00000000000E+00  0.57122915622E+03  0.13240355637E+04  0.11944737021E+04 0.  0.
        2    1    3    3  502    0 -0.56090449736E+03 -0.32758535587E+02  0.61153612264E+02  0.56517850376E+03  0.25500000920E-02 0. -1.
       -2    1    3    3    0  502  0.56090449736E+03  0.32758535587E+02  0.51007554396E+03  0.75885705990E+03  0.25500000920E-02 0.  1.
</event>
<event>
 5   0  0.5031575E-03  0.1206010E+04  0.7818609E-02  0.9107612E-01
       -2   -1    0    0    0  501  0.00000000000E+00  0.00000000000E+00  0.60066080473E+03  0.60066080473E+03  0.25500000920E-02 0.  1.
        2   -1    0    0  501    0  0.00000000000E+00  0.00000000000E+00 -0.60535856993E+03  0.60535856993E+03  0.25500000920E-02 0. -1.
    10030    2    1    2    0    0  0.00000000000E+00  0.00000000000E+00 -0.46977651994E+01  0.12060193747E+04  0.12060102251E+04 0.  0.
        5    1    3    3  502    0 -0.13590762608E+01 -0.40037855283E+03 -0.45322727826E+03  0.60476597822E+03  0.46999998093E+01 0. -1.
       -5    1    3    3    0  502  0.13590762608E+01  0.40037855283E+03  0.44852951306E+03  0.60125339645E+03  0.46999998093E+01 0.  1.
</event>
<event>
 5   0  0.2926844E-03  0.1238401E+04  0.7818609E-02  0.9079893E-01
        1   -1    0    0  501    0  0.00000000000E+00  0.00000000000E+00  0.29686936216E+03  0.29686936220E+03  0.50400001928E-02 0. -1.
       -1   -1    0    0    0  501  0.00000000000E+00  0.00000000000E+00 -0.12915073978E+04  0.12915073978E+04  0.50400001928E-02 0.  1.
    10030    2    1    2    0    0  0.00000000000E+00  0.00000000000E+00 -0.99463803559E+03  0.15883767600E+04  0.12384005450E+04 0.  0.
        5    1    3    3  502    0  0.20468818593E+03 -0.26718733371E+03 -0.11639034001E+04  0.12116020549E+04  0.46999998093E+01 0.  1.
       -5    1    3    3    0  502 -0.20468818593E+03  0.26718733371E+03  0.16926536449E+03  0.37677470505E+03  0.46999998093E+01 0. -1.
</event>
<event>
 5   0  0.2938349E-03  0.1197645E+04  0.7818609E-02  0.9114921E-01
       -1   -1    0    0    0  501  0.00000000000E+00  0.00000000000E+00  0.42417614739E+03  0.42417614742E+03  0.50400001928E-02 0. -1.
        1   -1    0    0  501    0  0.00000000000E+00  0.00000000000E+00 -0.84537577090E+03  0.84537577092E+03  0.50400001928E-02 0.  1.
    10030    2    1    2    0    0  0.00000000000E+00  0.00000000000E+00 -0.42119962351E+03  0.12695519183E+04  0.11976447514E+04 0.  0.
        4    1    3    3  502    0 -0.12822205705E+03  0.18572003830E+03 -0.79856767540E+03  0.82984623493E+03  0.12699999809E+01 0.  1.
       -4    1    3    3    0  502  0.12822205705E+03 -0.18572003830E+03  0.37736805188E+03  0.43970568341E+03  0.12699999809E+01 0. -1.
</event>
<event>
 5   0  0.5108045E-03  0.1199199E+04  0.7818609E-02  0.9113558E-01
       -2   -1    0    0    0  501  0.00000000000E+00  0.00000000000E+00  0.43265166613E+03  0.43265166614E+03  0.25500000920E-02 0. -1.
        2   -1    0    0  501    0  0.00000000000E+00  0.00000000000E+00 -0.83096809470E+03  0.83096809471E+03  0.25500000920E-02 0.  1.
    10030    2    1    2    0    0  0.00000000000E+00  0.00000000000E+00 -0.39831642857E+03  0.12636197608E+04  0.11991992840E+04 0.  0.
        3    1    3    3  502    0 -0.19309867991E+03 -0.22494573820E+03  0.35002283451E+03  0.45869780923E+03  0.10100000352E+00 0. -1.
       -3    1    3    3    0  502  0.19309867991E+03  0.22494573820E+03 -0.74833926308E+03  0.80492195161E+03  0.10100000352E+00 0.  1.
</event>
<event>
 5   0  0.2792518E-03  0.1219987E+04  0.7818609E-02  0.9095539E-01
       -1   -1    0    0    0  501  0.00000000000E+00  0.00000000000E+00  0.81509595667E+03  0.81509595669E+03  0.50400001928E-02 0.  1.
        1   -1    0    0  501    0  0.00000000000E+00  0.00000000000E+00 -0.45650122541E+03  0.45650122544E+03  0.50400001928E-02 0. -1.
    10030    2    1    2    0    0  0.00000000000E+00  0.00000000000E+00  0.35859473126E+03  0.12715971821E+04  0.12199873820E+04 0.  0.
        2    1    3    3  502    0 -0.39881181691E+03  0.13144393796E+03 -0.28187211020E+03  0.50574723000E+03  0.25500000920E-02 0. -1.
       -2    1    3    3    0  502  0.39881181691E+03 -0.13144393796E+03  0.64046684147E+03  0.76584995212E+03  0.25500000920E-02 0.  1.
</event>
<event>
 5   0  0.5189537E-03  0.1053085E+04  0.7818609E-02  0.9252165E-01
        2   -1    0    0  501    0  0.00000000000E+00  0.00000000000E+00  0.80927684568E+03  0.80927684568E+03  0.25500000920E-02 0. -1.
       -2   -1    0    0    0  501  0.00000000000E+00  0.00000000000E+00 -0.34258588998E+03  0.34258588998E+03  0.25500000920E-02 0.  1.
    10030    2    1    2    0    0  0.00000000000E+00  0.00000000000E+00  0.46669095570E+03  0.11518627357E+04  0.10530846660E+04 0.  0.
        4    1    3    3  502    0 -0.20560028160E+03 -0.45286963260E+03  0.44264281207E+02  0.49932286090E+03  0.12699999809E+01 0. -1.
       -4    1    3    3    0  502  0.20560028160E+03  0.45286963260E+03  0.42242667450E+03  0.65253987476E+03  0.12699999809E+01 0.  1.
</event>
<event>
 5   0  0.2938349E-03  0.1245104E+04  0.7818609E-02  0.9074268E-01
       -1   -1    0    0    0  501  0.00000000000E+00  0.00000000000E+00  0.69141041692E+03  0.69141041694E+03  0.50400001928E-02 0.  1.
        1   -1    0    0  501    0  0.00000000000E+00  0.00000000000E+00 -0.56055165997E+03  0.56055165999E+03  0.50400001928E-02 0. -1.
    10030    2    1    2    0    0  0.00000000000E+00  0.00000000000E+00  0.13085875695E+03  0.12519620769E+04  0.12451044245E+04 0.  0.
        4    1    3    3  502    0 -0.29525986389E+03 -0.32962804094E+03  0.50571846575E+03  0.67200134829E+03  0.12699999809E+01 0.  1.
       -4    1    3    3    0  502  0.29525986389E+03  0.32962804094E+03 -0.37485970879E+03  0.57996072865E+03  0.12699999809E+01 0. -1.
</event>
<event>
 5   0  0.2875848E-03  0.1212803E+04  0.7818609E-02  0.9101723E-01
        1   -1    0    0  501    0  0.00000000000E+00  0.00000000000E+00  0.14429518515E+04  0.14429518515E+04  0.50400001928E-02 0. -1.
       -1   -1    0    0    0  501  0.00000000000E+00  0.00000000000E+00 -0.25484081547E+03  0.25484081552E+03  0.50400001928E-02 0.  1.
    10030    2    1    2    0    0  0.00000000000E+00  0.00000000000E+00  0.11881110360E+04  0.16977926670E+04  0.12128034079E+04 0.  0.
        1    1    3    3  502    0 -0.41073562636E+03  0.61101197005E+02  0.12126837074E+04  0.12818107837E+04  0.50400001928E-02 0. -1.
       -1    1    3    3    0  502  0.41073562636E+03 -0.61101197005E+02 -0.24572671386E+02  0.41598188330E+03  0.50400001928E-02 0.  1.
</event>
<event>
 5   0  0.2926844E-03  0.1194701E+04  0.7818609E-02  0.9117508E-01
       -1   -1    0    0    0  501  0.00000000000E+00  0.00000000000E+00  0.44694593794E+03  0.44694593797E+03  0.50400001928E-02 0.  1.
        1   -1    0    0  501    0  0.00000000000E+00  0.00000000000E+00 -0.79836837628E+03  0.79836837630E+03  0.50400001928E-02 0. -1.
    10030    2    1    2    0    0  0.00000000000E+00  0.00000000000E+00 -0.35142243834E+03  0.12453143143E+04  0.11947008040E+04 0.  0.
        5    1    3    3  502    0  0.44611395644E+03  0.10390244383E+03 -0.57534916883E+03  0.73543329815E+03  0.46999998093E+01 0. -1.
       -5    1    3    3    0  502 -0.44611395644E+03 -0.10390244383E+03  0.22392673049E+03  0.50988101611E+03  0.46999998093E+01 0.  1.
</event>
<event>
 5   0  0.2930868E-03  0.1175490E+04  0.7818609E-02  0.9134585E-01
        1   -1    0    0  501    0  0.00000000000E+00  0.00000000000E+00  0.15809998798E+04  0.15809998798E+04  0.50400001928E-02 0. -1.
       -1   -1    0    0    0  501  0.00000000000E+00  0.00000000000E+00 -0.21849711024E+03  0.21849711030E+03  0.50400001928E-02 0.  1.
    10030    2    1    2    0    0  0.00000000000E+00  0.00000000000E+00  0.13625027696E+04  0.17994969901E+04  0.11754895237E+04 0.  0.
        3    1    3    3  502    0 -0.26611793189E+03 -0.27029066728E+02  0.14824202683E+04  0.15063595807E+04  0.10100000352E+00 0. -1.
       -3    1    3    3    0  502  0.26611793189E+03  0.27029066728E+02 -0.11991749874E+03  0.29313740946E+03  0.10100000352E+00 0.  1.
</event>
<event>
 5   0  0.5003526E-03  0.1191979E+04  0.7818609E-02  0.9119907E-01
        2   -1    0    0  501    0  0.00000000000E+00  0.00000000000E+00  0.11478745455E+04  0.11478745455E+04  0.25500000920E-02 0.  1.
       -2   -1    0    0    0  501  0.00000000000E+00  0.00000000000E+00 -0.30944427868E+03  0.30944427869E+03  0.25500000920E-02 0. -1.
    10030    2    1    2    0    0  0.00000000000E+00  0.00000000000E+00  0.83843026678E+03  0.14573188242E+04  0.11919785413E+04 0.  0.
        2    1    3    3  502    0 -0.25401177658E+03  0.52027635749E+03  0.24633974969E+03  0.62920008192E+03  0.25500000920E-02 0. -1.
       -2    1    3    3    0  502  0.25401177658E+03 -0.52027635749E+03  0.59209051709E+03  0.82811874224E+03  0.25500000920E-02 0.  1.
</event>
<event>
 5   0  0.2938349E-03  0.1206066E+04  0.7818609E-02  0.9107564E-01
       -1   -1    0    0    0  501  0.00000000000E+00  0.00000000000E+00  0.20431338729E+03  0.20431338735E+03  0.50400001928E-02 0.  1.
        1   -1    0    0  501    0  0.00000000000E+00  0.00000000000E+00 -0.17798569943E+04  0.17798569943E+04  0.50400001928E-02 0. -1.
    10030    2    1    2    0    0  0.00000000000E+00  0.00000000000E+00 -0.15755436070E+04  0.19841703816E+04  0.12060656888E+04 0.  0.
        4    1    3    3  502    0 -0.37047090337E+03  0.32812582179E+03 -0.13546522025E+04  0.14422203188E+04  0.12699999809E+01 0. -1.
       -4    1    3    3    0  502  0.37047090337E+03 -0.32812582179E+03 -0.22089140446E+03  0.54195006286E+03  0.12699999809E+01 0.  1.
</event>
<event>
 5   0  0.5031575E-03  0.1192424E+04  0.7818609E-02  0.9119514E-01
        2   -1    0    0  501    0  0.00000000000E+00  0.00000000000E+00  0.87403726877E+03  0.87403726877E+03  0.25500000920E-02 0.  1.
       -2   -1    0    0    0  501  0.00000000000E+00  0.00000000000E+00 -0.40669760147E+03  0.40669760148E+03  0.25500000920E-02 0. -1.
    10030    2    1    2    0    0  0.00000000000E+00  0.00000000000E+00  0.46733966729E+03  0.12807348703E+04  0.11924241876E+04 0.  0.
        5    1    3    3  502    0  0.16778935247E+03  0.56263579285E+03  0.12238941968E+03  0.59976125437E+03  0.46999998093E+01 0. -1.
       -5    1    3    3    0  502 -0.16778935247E+03 -0.56263579285E+03  0.34495024761E+03  0.68097361588E+03  0.46999998093E+01 0.  1.
</event>
<event>
 5   0  0.5189537E-03  0.1225853E+04  0.7818609E-02  0.9090523E-01
       -2   -1    0    0    0  501  0.00000000000E+00  0.00000000000E+00  0.61677430622E+03  0.61677430622E+03  0.25500000920E-02 0. -1.
        2   -1    0    0  501    0  0.00000000000E+00  0.00000000000E+00 -0.60910306701E+03  0.60910306701E+03  0.25500000920E-02 0.  1.
    10030    2    1    2    0    0  0.00000000000E+00  0.00000000000E+00  0.76712392105E+01  0.12258773732E+04  0.12258533706E+04 0.  0.
        4    1    3    3  502    0 -0.39609972076E+03 -0.39022576850E+02 -0.46228482245E+03  0.61002181949E+03  0.12699999809E+01 0.  1.
       -4    1    3    3    0  502  0.39609972076E+03  0.39022576850E+02  0.46995606166E+03  0.61585555375E+03  0.12699999809E+01 0. -1.
</event>
<event>
 5   0  0.2875848E-03  0.1201270E+04  0.7818609E-02  0.9111745E-01
        1   -1    0    0  501    0  0.00000000000E+00  0.00000000000E+00  0.99116043996E+03  0.99116043997E+03  0.50400001928E-02 0. -1.
       -1   -1    0    0    0  501  0.00000000000E+00  0.00000000000E+00 -0.36398008634E+03  0.36398008638E+03  0.50400001928E-02 0.  1.
    10030    2    1    2    0    0  0.00000000000E+00  0.00000000000E+00  0.62718035362E+03  0.13551405263E+04  0.12012704317E+04 0.  0.
        1    1    3    3  502    0 -0.58671158774E+03 -0.11369406354E+03  0.38133037861E+03  0.70892149420E+03  0.50400001928E-02 0.  1.
       -1    1    3    3    0  502  0.58671158774E+03  0.11369406354E+03  0.24584997501E+03  0.64621903214E+03  0.50400001928E-02 0. -1.
</event>
<event>
 5   0  0.5031575E-03  0.1105787E+04  0.7818609E-02  0.9199570E-01
       -2   -1    0    0    0  501  0.00000000000E+00  0.00000000000E+00  0.23675704259E+03  0.23675704260E+03  0.25500000920E-02 0.  1.
        2   -1    0    0  501    0  0.00000000000E+00  0.00000000000E+00 -0.12911601835E+04  0.12911601835E+04  0.25500000920E-02 0. -1.
    10030    2    1    2    0    0  0.00000000000E+00  0.00000000000E+00 -0.10544031409E+04  0.15279172261E+04  0.11057870800E+04 0.  0.
        5    1    3    3  502    0 -0.12644382959E+03 -0.11089947215E+02 -0.12707276578E+04  0.12770598652E+04  0.46999998093E+01 0. -1.
       -5    1    3    3    0  502  0.12644382959E+03  0.11089947215E+02  0.21632451684E+03  0.25085736097E+03  0.46999998093E+01 0.  1.
</event>
<event>
 5   0  0.5467554E-03  0.1122625E+04  0.7818609E-02  0.9183416E-01
        2   -1    0    0  501    0  0.00000000000E+00  0.00000000000E+00  0.11719512939E+04  0.11719512939E+04  0.25500000920E-02 0. -1.
       -2   -1    0    0    0  501  0.00000000000E+00  0.00000000000E+00 -0.26884380286E+03  0.26884380287E+03  0.25500000920E-02 0.  1.
    10030    2    1    2    0    0  0.00000000000E+00  0.00000000000E+00  0.90310749107E+03  0.14407950968E+04  0.11226252137E+04 0.  0.
        1    1    3    3  502    0  0.20951314242E+03 -0.43136260132E+03  0.82595587759E+03  0.95507725468E+03  0.50400001928E-02 0. -1.
       -1    1    3    3    0  502 -0.20951314242E+03  0.43136260132E+03  0.77151613477E+02  0.48571784211E+03  0.50400001928E-02 0.  1.
</event>
<event>
 5   0  0.5108045E-03  0.1206543E+04  0.7818609E-02  0.9107148E-01
        2   -1    0    0  501    0  0.00000000000E+00  0.00000000000E+00  0.14088692058E+04  0.14088692058E+04  0.25500000920E-02 0. -1.
       -2   -1    0    0    0  501  0.00000000000E+00  0.00000000000E+00 -0.25831828274E+03  0.25831828276E+03  0.25500000920E-02 0.  1.
    10030    2    1    2    0    0  0.00000000000E+00  0.00000000000E+00  0.11505509231E+04  0.16671874886E+04  0.12065432837E+04 0.  0.
        3    1    3    3  502    0  0.57449703319E+00 -0.37379195384E+03 -0.79021265710E+02  0.38205382532E+03  0.10100000352E+00 0.  1.
       -3    1    3    3    0  502 -0.57449703319E+00  0.37379195384E+03  0.12295721888E+04  0.12851336633E+04  0.10100000352E+00 0. -1.
</event>
<event>
 5   0  0.2875848E-03  0.1231185E+04  0.7818609E-02  0.9085990E-01
       -1   -1    0    0    0  501  0.00000000000E+00  0.00000000000E+00  0.47587821329E+03  0.47587821332E+03  0.50400001928E-02 0. -1.
        1   -1    0    0  501    0  0.00000000000E+00  0.00000000000E+00 -0.79632646501E+03  0.79632646503E+03  0.50400001928E-02 0.  1.
    10030    2    1    2    0    0  0.00000000000E+00  0.00000000000E+00 -0.32044825172E+03  0.12722046783E+04  0.12311854700E+04 0.  0.
        1    1    3    3  502    0  0.29485155009E+03  0.90703935071E+01  0.39808711446E+03  0.49547256165E+03  0.50400001928E-02 0. -1.
       -1    1    3    3    0  502 -0.29485155009E+03 -0.90703935071E+01 -0.71853536618E+03  0.77673211670E+03  0.50400001928E-02 0.  1.
</event>
<event>
 5   0  0.2792518E-03  0.1187976E+04  0.7818609E-02  0.9123446E-01
       -1   -1    0    0    0  501  0.00000000000E+00  0.00000000000E+00  0.33752262755E+03  0.33752262758E+03  0.50400001928E-02 0.  1.
        1   -1    0    0  501    0  0.00000000000E+00  0.00000000000E+00 -0.10453283249E+04  0.10453283249E+04  0.50400001928E-02 0. -1.
    10030    2    1    2    0    0  0.00000000000E+00  0.00000000000E+00 -0.70780569738E+03  0.13828509525E+04  0.11879763683E+04 0.  0.
        2    1    3    3  502    0  0.26460951646E+03 -0.36907666199E+02 -0.97143803781E+03  0.10075079321E+04  0.25500000920E-02 0. -1.
       -2    1    3    3    0  502 -0.26460951646E+03  0.36907666199E+02  0.26363234042E+03  0.37534302038E+03  0.25500000920E-02 0.  1.
</event>
<event>
 5   0  0.5467554E-03  0.1225282E+04  0.7818609E-02  0.9091010E-01
        2   -1    0    0  501    0  0.00000000000E+00  0.00000000000E+00  0.25158759137E+04  0.25158759137E+04  0.25500000920E-02 0. -1.
       -2   -1    0    0    0  501  0.00000000000E+00  0.00000000000E+00 -0.14918427194E+03  0.14918427196E+03  0.25500000920E-02 0.  1.
    10030    2    1    2    0    0  0.00000000000E+00  0.00000000000E+00  0.23666916418E+04  0.26650601857E+04  0.12252821985E+04 0.  0.
        1    1    3    3  502    0 -0.60653988285E+03 -0.43207090902E+02  0.10209921180E+04  0.11883528042E+04  0.50400001928E-02 0. -1.
       -1    1    3    3    0  502  0.60653988285E+03  0.43207090902E+02  0.13456995238E+04  0.14767073815E+04  0.50400001928E-02 0.  1.
</event>
<event>
 5   0  0.5108045E-03  0.1169664E+04  0.7818609E-02  0.9139832E-01
       -2   -1    0    0    0  501  0.00000000000E+00  0.00000000000E+00  0.29642803322E+03  0.29642803323E+03  0.25500000920E-02 0. -1.
        2   -1    0    0  501    0  0.00000000000E+00  0.00000000000E+00 -0.11538326066E+04  0.11538326066E+04  0.25500000920E-02 0.  1.
    10030    2    1    2    0    0  0.00000000000E+00  0.00000000000E+00 -0.85740457341E+03  0.14502606399E+04  0.11696637641E+04 0.  0.
        3    1    3    3  502    0 -0.17702556970E+03  0.39199093817E+03 -0.92004102127E+03  0.10156133314E+04  0.10100000352E+00 0.  1.
       -3    1    3    3    0  502  0.17702556970E+03 -0.39199093817E+03  0.62636447862E+02  0.43464730844E+03  0.10100000352E+00 0. -1.
</event>
<event>
 5   0  0.2926844E-03  0.1197447E+04  0.7818609E-02  0.9115094E-01
        1   -1    0    0  501    0  0.00000000000E+00  0.00000000000E+00  0.65197986952E+03  0.65197986954E+03  0.50400001928E-02 0.  1.
       -1   -1    0    0    0  501  0.00000000000E+00  0.00000000000E+00 -0.54981726704E+03  0.54981726706E+03  0.50400001928E-02 0. -1.
    10030    2    1    2    0    0  0.00000000000E+00  0.00000000000E+00  0.10216260248E+03  0.12017971366E+04  0.11974469342E+04 0.  0.
        5    1    3    3  502    0 -0.16684741895E+03  0.20694286907E+01  0.62815307373E+03  0.64995439670E+03  0.46999998093E+01 0.  1.
       -5    1    3    3    0  502  0.16684741895E+03 -0.20694286907E+01 -0.52599047125E+03  0.55184273991E+03  0.46999998093E+01 0. -1.
</event>
<event>
 5   0  0.5108045E-03  0.1094960E+04  0.7818609E-02  0.9210118E-01
        2   -1    0    0  501    0  0.00000000000E+00  0.00000000000E+00  0.48436311609E+03  0.48436311610E+03  0.25500000920E-02 0.  1.
       -2   -1    0    0    0  501  0.00000000000E+00  0.00000000000E+00 -0.61882118350E+03  0.61882118351E+03  0.25500000920E-02 0. -1.
    10030    2    1    2    0    0  0.00000000000E+00  0.00000000000E+00 -0.13445806741E+03  0.11031842996E+04  0.10949596463E+04 0.  0.
        3    1    3    3  502    0  0.50956901961E+03  0.23153282366E+02  0.13310488476E+03  0.52717509499E+03  0.10100000352E+00 0.  1.
       -3    1    3    3    0  502 -0.50956901961E+03 -0.23153282366E+02 -0.26756295217E+03  0.57600920462E+03  0.10100000352E+00 0. -1.
</event>
<event>
 5   0  0.2938349E-03  0.1062960E+04  0.7818609E-02  0.9242065E-01
       -1   -1    0    0    0  501  0.00000000000E+00  0.00000000000E+00  0.44903185176E+03  0.44903185179E+03  0.50400001928E-02 0. -1.
        1   -1    0    0  501    0  0.00000000000E+00  0.00000000000E+00 -0.62906635530E+03  0.62906635532E+03  0.50400001928E-02 0.  1.
    10030    2    1    2    0    0  0.00000000000E+00  0.00000000000E+00 -0.18003450355E+03  0.10780982071E+04  0.10629596990E+04 0.  0.
        4    1    3    3  502    0  0.41417770768E+03 -0.29957694477E+03 -0.23762236693E+03  0.56369807658E+03  0.12699999809E+01 0. -1.
       -4    1    3    3    0  502 -0.41417770768E+03  0.29957694477E+03  0.57587863387E+02  0.51440013053E+03  0.12699999809E+01 0.  1.
</event>
<event>
 5   0  0.2938349E-03  0.1089731E+04  0.7818609E-02  0.9215259E-01
       -1   -1    0    0    0  501  0.00000000000E+00  0.00000000000E+00  0.83550281313E+02  0.83550281465E+02  0.50400001928E-02 0. -1.
        1   -1    0    0  501    0  0.00000000000E+00  0.00000000000E+00 -0.35532884837E+04  0.35532884837E+04  0.50400001928E-02 0.  1.
    10030    2    1    2    0    0  0.00000000000E+00  0.00000000000E+00 -0.34697382024E+04  0.36368387652E+04  0.10897307056E+04 0.  0.
        4    1    3    3  502    0  0.43443748486E+03 -0.28784707609E+03 -0.22655511326E+04  0.23247183517E+04  0.12699999809E+01 0.  1.
       -4    1    3    3    0  502 -0.43443748486E+03  0.28784707609E+03 -0.12041870697E+04  0.13121204134E+04  0.12699999809E+01 0. -1.
</event>
<event>
 5   0  0.5108045E-03  0.1263454E+04  0.7818609E-02  0.9059059E-01
       -2   -1    0    0    0  501  0.00000000000E+00  0.00000000000E+00  0.31734514433E+03  0.31734514434E+03  0.25500000920E-02 0.  1.
        2   -1    0    0  501    0  0.00000000000E+00  0.00000000000E+00 -0.12575555965E+04  0.12575555965E+04  0.25500000920E-02 0. -1.
    10030    2    1    2    0    0  0.00000000000E+00  0.00000000000E+00 -0.94021045215E+03  0.15749007408E+04  0.12634542529E+04 0.  0.
        3    1    3    3  502    0  0.61535085020E+03 -0.56422373165E+02 -0.30644253478E+03  0.68974429346E+03  0.10100000352E+00 0.  1.
       -3    1    3    3    0  502 -0.61535085020E+03  0.56422373165E+02 -0.63376791737E+03  0.88515644737E+03  0.10100000352E+00 0. -1.
</event>
<event>
 5   0  0.2926844E-03  0.1107203E+04  0.7818609E-02  0.9198200E-01
       -1   -1    0    0    0  501  0.00000000000E+00  0.00000000000E+00  0.48789410390E+03  0.48789410392E+03  0.50400001928E-02 0. -1.
        1   -1    0    0  501    0  0.00000000000E+00  0.00000000000E+00 -0.62815762687E+03  0.62815762689E+03  0.50400001928E-02 0.  1.
    10030    2    1    2    0    0  0.00000000000E+00  0.00000000000E+00 -0.14026352297E+03  0.11160517308E+04  0.11072026057E+04 0.  0.
        5    1    3    3  502    0 -0.26397613855E+03 -0.38970687550E+03  0.22356866670E+03  0.52111408469E+03  0.46999998093E+01 0. -1.
       -5    1    3    3    0  502  0.26397613855E+03  0.38970687550E+03 -0.36383218967E+03  0.59493764612E+03  0.46999998093E+01 0.  1.
</event>
<event>
 5   0  0.2875848E-03  0.1209069E+04  0.7818609E-02  0.9104955E-01
        1   -1    0    0  501    0  0.00000000000E+00  0.00000000000E+00  0.58973311999E+03  0.58973312001E+03  0.50400001928E-02 0.  1.
       -1   -1    0    0    0  501  0.00000000000E+00  0.00000000000E+00 -0.61970751758E+03  0.61970751760E+03  0.50400001928E-02 0. -1.
    10030    2    1    2    0    0  0.00000000000E+00  0.00000000000E+00 -0.29974397592E+02  0.12094406376E+04  0.12090691425E+04 0.  0.
        1    1    3    3  502    0  0.14420602125E+03 -0.59885281899E+01 -0.60222022057E+03  0.61927411791E+03  0.50400001928E-02 0. -1.
       -1    1    3    3    0  502 -0.14420602125E+03  0.59885281899E+01  0.57224582297E+03  0.59016651970E+03  0.50400001928E-02 0.  1.
</event>
<event>
 5   0  0.2938349E-03  0.1225002E+04  0.7818609E-02  0.9091249E-01
        1   -1    0    0  501    0  0.00000000000E+00  0.00000000000E+00  0.19554609347E+04  0.19554609347E+04  0.50400001928E-02 0.  1.
       -1   -1    0    0    0  501  0.00000000000E+00  0.00000000000E+00 -0.19185125113E+03  0.19185125120E+03  0.50400001928E-02 0. -1.
    10030    2    1    2    0    0  0.00000000000E+00  0.00000000000E+00  0.17636096836E+04  0.21473121859E+04  0.12250022481E+04 0.  0.
        4    1    3    3  502    0  0.79434001503E+02  0.54227806781E+03  0.13611553731E+04  0.14673516368E+04  0.12699999809E+01 0.  1.
       -4    1    3    3    0  502 -0.79434001503E+02 -0.54227806781E+03  0.40245431047E+03  0.67996054910E+03  0.12699999809E+01 0. -1.
</event>
<event>
 5   0  0.5003526E-03  0.1172955E+04  0.7818609E-02  0.9136864E-01
       -2   -1    0    0    0  501  0.00000000000E+00  0.00000000000E+00  0.61716813352E+03  0.61716813352E+03  0.25500000920E-02 0. -1.
        2   -1    0    0  501    0  0.00000000000E+00  0.00000000000E+00 -0.55731296658E+03  0.55731296659E+03  0.25500000920E-02 0.  1.
    10030    2    1    2    0    0  0.00000000000E+00  0.00000000000E+00  0.59855166936E+02  0.11744811001E+04  0.11729549069E+04 0.  0.
        2    1    3    3  502    0  0.15235071191E+03 -0.21194577723E+03  0.55580047378E+03  0.61404064895E+03  0.25500000920E-02 0. -1.
       -2    1    3    3    0  502 -0.15235071191E+03  0.21194577723E+03 -0.49594530685E+03  0.56044045116E+03  0.25500000920E-02 0.  1.
</event>
<event>
 5   0  0.5003526E-03  0.7646110E+03  0.7818609E-02  0.9612703E-01
        2   -1    0    0  501    0  0.00000000000E+00  0.00000000000E+00  0.28062013377E+03  0.28062013378E+03  0.25500000920E-02 0.  1.
       -2   -1    0    0    0  501  0.00000000000E+00  0.00000000000E+00 -0.52083750689E+03  0.52083750689E+03  0.25500000920E-02 0. -1.
    10030    2    1    2    0    0  0.00000000000E+00  0.00000000000E+00 -0.24021737311E+03  0.80145764067E+03  0.76461098831E+03 0.  0.
        2    1    3    3  502    0  0.96773639533E+02  0.15840182046E+03 -0.47043196029E+03  0.50572967414E+03  0.25500000920E-02 0. -1.
       -2    1    3    3    0  502 -0.96773639533E+02 -0.15840182046E+03  0.23021458718E+03  0.29572796653E+03  0.25500000920E-02 0.  1.
</event>
<event>
 5   0  0.5003526E-03  0.1208989E+04  0.7818609E-02  0.9105025E-01
       -2   -1    0    0    0  501  0.00000000000E+00  0.00000000000E+00  0.75883486767E+03  0.75883486767E+03  0.25500000920E-02 0.  1.
        2   -1    0    0  501    0  0.00000000000E+00  0.00000000000E+00 -0.48154551374E+03  0.48154551375E+03  0.25500000920E-02 0. -1.
    10030    2    1    2    0    0  0.00000000000E+00  0.00000000000E+00  0.27728935393E+03  0.12403803814E+04  0.12089888770E+04 0.  0.
        2    1    3    3  502    0  0.25661411686E+03 -0.31792541628E+03  0.59573043348E+03  0.72237256638E+03  0.25500000920E-02 0.  1.
       -2    1    3    3    0  502 -0.25661411686E+03  0.31792541628E+03 -0.31844107955E+03  0.51800781504E+03  0.25500000920E-02 0. -1.
</event>
<event>
 5   0  0.2792518E-03  0.1195796E+04  0.7818609E-02  0.9116544E-01
        1   -1    0    0  501    0  0.00000000000E+00  0.00000000000E+00  0.11112659400E+04  0.11112659401E+04  0.50400001928E-02 0.  1.
       -1   -1    0    0    0  501  0.00000000000E+00  0.00000000000E+00 -0.32168909229E+03  0.32168909233E+03  0.50400001928E-02 0. -1.
    10030    2    1    2    0    0  0.00000000000E+00  0.00000000000E+00  0.78957684775E+03  0.14329550324E+04  0.11957961893E+04 0.  0.
        2    1    3    3  502    0 -0.84395409990E+02 -0.39233274083E+03 -0.13632142331E+03  0.42382908727E+03  0.25500000920E-02 0. -1.
       -2    1    3    3    0  502  0.84395409990E+02  0.39233274083E+03  0.92589827106E+03  0.10091259451E+04  0.25500000920E-02 0.  1.
</event>
<event>
 5   0  0.2938349E-03  0.1217896E+04  0.7818609E-02  0.9097335E-01
       -1   -1    0    0    0  501  0.00000000000E+00  0.00000000000E+00  0.32166836836E+03  0.32166836840E+03  0.50400001928E-02 0. -1.
        1   -1    0    0  501    0  0.00000000000E+00  0.00000000000E+00 -0.11527956730E+04  0.11527956730E+04  0.50400001928E-02 0.  1.
    10030    2    1    2    0    0  0.00000000000E+00  0.00000000000E+00 -0.83112730467E+03  0.14744640414E+04  0.12178963884E+04 0.  0.
        4    1    3    3  502    0  0.46545134543E+03  0.19892229298E+03 -0.57196980167E+01  0.50621078757E+03  0.12699999809E+01 0. -1.
       -4    1    3    3    0  502 -0.46545134543E+03 -0.19892229298E+03 -0.82540760666E+03  0.96825325387E+03  0.12699999809E+01 0.  1.
</event>
<event>
 5   0  0.2930868E-03  0.1116676E+04  0.7818609E-02  0.9189089E-01
       -1   -1    0    0    0  501  0.00000000000E+00  0.00000000000E+00  0.49940084764E+03  0.49940084767E+03  0.50400001928E-02 0. -1.
        1   -1    0    0  501    0  0.00000000000E+00  0.00000000000E+00 -0.62423104409E+03  0.62423104411E+03  0.50400001928E-02 0.  1.
    10030    2    1    2    0    0  0.00000000000E+00  0.00000000000E+00 -0.12483019645E+03  0.11236318918E+04  0.11166763409E+04 0.  0.
        3    1    3    3  502    0  0.15589293103E+03 -0.28599253995E+02  0.47628955882E+03  0.50196840270E+03  0.10100000352E+00 0. -1.
       -3    1    3    3    0  502 -0.15589293103E+03  0.28599253995E+02 -0.60111975527E+03  0.62166348908E+03  0.10100000352E+00 0.  1.
</event>
<event>
 5   0  0.5031575E-03  0.1206134E+04  0.7818609E-02  0.9107504E-01
        2   -1    0    0  501    0  0.00000000000E+00  0.00000000000E+00  0.21557200111E+04  0.21557200111E+04  0.25500000920E-02 0. -1.
       -2   -1    0    0    0  501  0.00000000000E+00  0.00000000000E+00 -0.16870927760E+03  0.16870927762E+03  0.25500000920E-02 0.  1.
    10030    2    1    2    0    0  0.00000000000E+00  0.00000000000E+00  0.19870107335E+04  0.23244292887E+04  0.12061342642E+04 0.  0.
        5    1    3    3  502    0  0.45370620274E+03  0.24823951496E+03  0.15912263675E+04  0.16731693333E+04  0.46999998093E+01 0. -1.
       -5    1    3    3    0  502 -0.45370620274E+03 -0.24823951496E+03  0.39578436598E+03  0.65125995543E+03  0.46999998093E+01 0.  1.
</event>
<event>
 5   0  0.2938349E-03  0.1221102E+04  0.7818609E-02  0.9094584E-01
       -1   -1    0    0    0  501  0.00000000000E+00  0.00000000000E+00  0.86163829599E+03  0.86163829600E+03  0.50400001928E-02 0.  1.
        1   -1    0    0  501    0  0.00000000000E+00  0.00000000000E+00 -0.43263195094E+03  0.43263195097E+03  0.50400001928E-02 0. -1.
    10030    2    1    2    0    0  0.00000000000E+00  0.00000000000E+00  0.42900634505E+03  0.12942702470E+04  0.12211015634E+04 0.  0.
        4    1    3    3  502    0  0.85969631647E+02  0.53717587069E+03 -0.79272510856E+02  0.54975852653E+03  0.12699999809E+01 0. -1.
       -4    1    3    3    0  502 -0.85969631647E+02 -0.53717587069E+03  0.50827885591E+03  0.74451172044E+03  0.12699999809E+01 0.  1.
</event>
<event>
 5   0  0.5031575E-03  0.1221528E+04  0.7818609E-02  0.9094219E-01
       -2   -1    0    0    0  501  0.00000000000E+00  0.00000000000E+00  0.36395559322E+03  0.36395559323E+03  0.25500000920E-02 0. -1.
        2   -1    0    0  501    0  0.00000000000E+00  0.00000000000E+00 -0.10249405726E+04  0.10249405726E+04  0.25500000920E-02 0.  1.
    10030    2    1    2    0    0  0.00000000000E+00  0.00000000000E+00 -0.66098497942E+03  0.13888961659E+04  0.12215283118E+04 0.  0.
        5    1    3    3  502    0 -0.22915895986E+03 -0.45920676274E+03  0.45971285256E+02  0.51528645325E+03  0.46999998093E+01 0. -1.
       -5    1    3    3    0  502  0.22915895986E+03  0.45920676274E+03 -0.70695626468E+03  0.87360971263E+03  0.46999998093E+01 0.  1.
</event>
<event>
 5   0  0.2938349E-03  0.1225045E+04  0.7818609E-02  0.9091213E-01
       -1   -1    0    0    0  501  0.00000000000E+00  0.00000000000E+00  0.12146000258E+04  0.12146000258E+04  0.50400001928E-02 0.  1.
        1   -1    0    0  501    0  0.00000000000E+00  0.00000000000E+00 -0.30889496865E+03  0.30889496869E+03  0.50400001928E-02 0. -1.
    10030    2    1    2    0    0  0.00000000000E+00  0.00000000000E+00  0.90570505712E+03  0.15234949945E+04  0.12250450390E+04 0.  0.
        4    1    3    3  502    0 -0.18972391918E+03  0.75599880233E+02  0.11710080078E+04  0.11886849350E+04  0.12699999809E+01 0.  1.
       -4    1    3    3    0  502  0.18972391918E+03 -0.75599880233E+02 -0.26530295068E+03  0.33481005950E+03  0.12699999809E+01 0. -1.
</event>
<event>
 5   0  0.1922125E-03  0.1185212E+04  0.7818609E-02  0.9125900E-01
        3   -1    0    0  501    0  0.00000000000E+00  0.00000000000E+00  0.81723031150E+03  0.81723031774E+03  0.10100000352E+00 0.  1.
       -3   -1    0    0    0  501  0.00000000000E+00  0.00000000000E+00 -0.42972199211E+03  0.42972200398E+03  0.10100000352E+00 0. -1.
    10030    2    1    2    0    0  0.00000000000E+00  0.00000000000E+00  0.38750831939E+03  0.12469523217E+04  0.11852119621E+04 0.  0.
        2    1    3    3  502    0 -0.21434858489E+03  0.35751939841E+03  0.63690412428E+03  0.76119136859E+03  0.25500000920E-02 0.  1.
       -2    1    3    3    0  502  0.21434858489E+03 -0.35751939841E+03 -0.24939580489E+03  0.48576095313E+03  0.25500000920E-02 0. -1.
</event>
<event>
 5   0  0.2930868E-03  0.8231287E+03  0.7818609E-02  0.9527130E-01
        1   -1    0    0  501    0  0.00000000000E+00  0.00000000000E+00  0.16369624138E+04  0.16369624138E+04  0.50400001928E-02 0.  1.
       -1   -1    0    0    0  501  0.00000000000E+00  0.00000000000E+00 -0.10347531177E+03  0.10347531189E+03  0.50400001928E-02 0. -1.
    10030    2    1    2    0    0  0.00000000000E+00  0.00000000000E+00  0.15334871021E+04  0.17404377257E+04  0.82312865638E+03 0.  0.
        3    1    3    3  502    0 -0.26415939525E+03  0.13718526134E+03  0.16576817198E+03  0.34070379961E+03  0.10100000352E+00 0. -1.
       -3    1    3    3    0  502  0.26415939525E+03 -0.13718526134E+03  0.13677189301E+04  0.13997339261E+04  0.10100000352E+00 0.  1.
</event>
<event>
 5   0  0.2930868E-03  0.1213820E+04  0.7818609E-02  0.9100845E-01
        1   -1    0    0  501    0  0.00000000000E+00  0.00000000000E+00  0.12262520266E+04  0.12262520266E+04  0.50400001928E-02 0.  1.
       -1   -1    0    0    0  501  0.00000000000E+00  0.00000000000E+00 -0.30037853158E+03  0.30037853162E+03  0.50400001928E-02 0. -1.
    10030    2    1    2    0    0  0.00000000000E+00  0.00000000000E+00  0.92587349502E+03  0.15266305582E+04  0.12138200577E+04 0.  0.
        3    1    3    3  502    0 -0.28404114260E+03 -0.40192932822E+03  0.16294351795E+02  0.49243484003E+03  0.10100000352E+00 0. -1.
       -3    1    3    3    0  502  0.28404114260E+03  0.40192932822E+03  0.90957914322E+03  0.10341957182E+04  0.10100000352E+00 0.  1.
</event>
<event>
 5   0  0.5189537E-03  0.1215298E+04  0.7818609E-02  0.9099571E-01
       -2   -1    0    0    0  501  0.00000000000E+00  0.00000000000E+00  0.72449097359E+03  0.72449097360E+03  0.25500000920E-02 0. -1.
        2   -1    0    0  501    0  0.00000000000E+00  0.00000000000E+00 -0.50965065844E+03  0.50965065844E+03  0.25500000920E-02 0.  1.
    10030    2    1    2    0    0  0.00000000000E+00  0.00000000000E+00  0.21484031516E+03  0.12341416320E+04  0.12152979910E+04 0.  0.
        4    1    3    3  502    0  0.53720880143E+03  0.13592420751E+03  0.36061927411E+03  0.66114791105E+03  0.12699999809E+01 0. -1.
       -4    1    3    3    0  502 -0.53720880143E+03 -0.13592420751E+03 -0.14577895895E+03  0.57299372099E+03  0.12699999809E+01 0.  1.
</event>
<event>
 5   0  0.5003526E-03  0.1132232E+04  0.7818609E-02  0.9174334E-01
       -2   -1    0    0    0  501  0.00000000000E+00  0.00000000000E+00  0.12938160697E+03  0.12938160700E+03  0.25500000920E-02 0. -1.
        2   -1    0    0  501    0  0.00000000000E+00  0.00000000000E+00 -0.24770685391E+04  0.24770685391E+04  0.25500000920E-02 0.  1.
    10030    2    1    2    0    0  0.00000000000E+00  0.00000000000E+00 -0.23476869321E+04  0.26064501461E+04  0.11322316162E+04 0.  0.
        2    1    3    3  502    0  0.14927059505E+03  0.38764241246E+03 -0.20592752924E+04  0.21007529794E+04  0.25500000920E-02 0.  1.
       -2    1    3    3    0  502 -0.14927059505E+03 -0.38764241246E+03 -0.28841163971E+03  0.50569716670E+03  0.25500000920E-02 0. -1.
</event>
<event>
 5   0  0.2930868E-03  0.1199864E+04  0.7818609E-02  0.9112975E-01
       -1   -1    0    0    0  501  0.00000000000E+00  0.00000000000E+00  0.10789997788E+04  0.10789997788E+04  0.50400001928E-02 0.  1.
        1   -1    0    0  501    0  0.00000000000E+00  0.00000000000E+00 -0.33356684173E+03  0.33356684177E+03  0.50400001928E-02 0. -1.
    10030    2    1    2    0    0  0.00000000000E+00  0.00000000000E+00  0.74543293704E+03  0.14125666206E+04  0.11998642398E+04 0.  0.
        3    1    3    3  502    0 -0.10918159315E+03  0.58973589248E+03  0.38975623997E+03  0.71527545740E+03  0.10100000352E+00 0. -1.
       -3    1    3    3    0  502  0.10918159315E+03 -0.58973589248E+03  0.35567669708E+03  0.69729116315E+03  0.10100000352E+00 0.  1.
</event>
<event>
 5   0  0.5108045E-03  0.1041171E+04  0.7818609E-02  0.9264507E-01
        2   -1    0    0  501    0  0.00000000000E+00  0.00000000000E+00  0.87182973997E+03  0.87182973998E+03  0.25500000920E-02 0.  1.
       -2   -1    0    0    0  501  0.00000000000E+00  0.00000000000E+00 -0.31085124942E+03  0.31085124943E+03  0.25500000920E-02 0. -1.
    10030    2    1    2    0    0  0.00000000000E+00  0.00000000000E+00  0.56097849055E+03  0.11826809894E+04  0.10411711943E+04 0.  0.
        3    1    3    3  502    0 -0.40464821905E+03 -0.27193186359E+02  0.65123896409E+03  0.76719739906E+03  0.10100000352E+00 0.  1.
       -3    1    3    3    0  502  0.40464821905E+03  0.27193186359E+02 -0.90260473542E+02  0.41548359035E+03  0.10100000352E+00 0. -1.
</event>
<event>
 5   0  0.2875848E-03  0.1158648E+04  0.7818609E-02  0.9149842E-01
       -1   -1    0    0    0  501  0.00000000000E+00  0.00000000000E+00  0.97557286654E+03  0.97557286655E+03  0.50400001928E-02 0.  1.
        1   -1    0    0  501    0  0.00000000000E+00  0.00000000000E+00 -0.34401972788E+03  0.34401972791E+03  0.50400001928E-02 0. -1.
    10030    2    1    2    0    0  0.00000000000E+00  0.00000000000E+00  0.63155313867E+03  0.13195925945E+04  0.11586480261E+04 0.  0.
        1    1    3    3  502    0 -0.39332036080E+03 -0.32481559583E+03  0.30221253619E+01  0.51011293924E+03  0.50400001928E-02 0. -1.
       -1    1    3    3    0  502  0.39332036080E+03  0.32481559583E+03  0.62853101330E+03  0.80947965523E+03  0.50400001928E-02 0.  1.
</event>
<event>
 5   0  0.2938349E-03  0.1177771E+04  0.7818609E-02  0.9132539E-01
        1   -1    0    0  501    0  0.00000000000E+00  0.00000000000E+00  0.14130692711E+04  0.14130692711E+04  0.50400001928E-02 0.  1.
       -1   -1    0    0    0  501  0.00000000000E+00  0.00000000000E+00 -0.24541347575E+03  0.24541347580E+03  0.50400001928E-02 0. -1.
    10030    2    1    2    0    0  0.00000000000E+00  0.00000000000E+00  0.11676557953E+04  0.16584827469E+04  0.11777711855E+04 0.  0.
        4    1    3    3  502    0  0.16374157279E+03 -0.27185622946E+03  0.12823452124E+04  0.13210329174E+04  0.12699999809E+01 0.  1.
       -4    1    3    3    0  502 -0.16374157279E+03  0.27185622946E+03 -0.11468941706E+03  0.33744982952E+03  0.12699999809E+01 0. -1.
</event>
<event>
 5   0  0.2926844E-03  0.1168145E+04  0.7818609E-02  0.9141205E-01
        1   -1    0    0  501    0  0.00000000000E+00  0.00000000000E+00  0.97727549371E+03  0.97727549372E+03  0.50400001928E-02 0.  1.
       -1   -1    0    0    0  501  0.00000000000E+00  0.00000000000E+00 -0.34907339726E+03  0.34907339730E+03  0.50400001928E-02 0. -1.
    10030    2    1    2    0    0  0.00000000000E+00  0.00000000000E+00  0.62820209645E+03  0.13263488910E+04  0.11681453277E+04 0.  0.
        5    1    3    3  502    0 -0.48232253136E+02  0.13416270268E+03  0.95719320408E+03  0.96776386633E+03  0.46999998093E+01 0.  1.
       -5    1    3    3    0  502  0.48232253136E+02 -0.13416270268E+03 -0.32899110764E+03  0.35858502470E+03  0.46999998093E+01 0. -1.
</event>
<event>
 5   0  0.5108045E-03  0.1183458E+04  0.7818609E-02  0.9127461E-01
       -2   -1    0    0    0  501  0.00000000000E+00  0.00000000000E+00  0.16205825974E+03  0.16205825976E+03  0.25500000920E-02 0. -1.
        2   -1    0    0  501    0  0.00000000000E+00  0.00000000000E+00 -0.21605993931E+04  0.21605993931E+04  0.25500000920E-02 0.  1.
    10030    2    1    2    0    0  0.00000000000E+00  0.00000000000E+00 -0.19985411334E+04  0.23226576529E+04  0.11834576083E+04 0.  0.
        3    1    3    3  502    0 -0.24877460246E+03 -0.42899322151E+03 -0.16328570537E+04  0.17065011442E+04  0.10100000352E+00 0.  1.
       -3    1    3    3    0  502  0.24877460246E+03  0.42899322151E+03 -0.36568407968E+03  0.61615650874E+03  0.10100000352E+00 0. -1.
</event>
<event>
 5   0  0.2875848E-03  0.1169378E+04  0.7818609E-02  0.9140090E-01
       -1   -1    0    0    0  501  0.00000000000E+00  0.00000000000E+00  0.68937235157E+03  0.68937235158E+03  0.50400001928E-02 0. -1.
        1   -1    0    0  501    0  0.00000000000E+00  0.00000000000E+00 -0.49590245394E+03  0.49590245397E+03  0.50400001928E-02 0.  1.
    10030    2    1    2    0    0  0.00000000000E+00  0.00000000000E+00  0.19346989762E+03  0.11852748056E+04  0.11693783662E+04 0.  0.
        1    1    3    3  502    0  0.31144622248E+03 -0.48499127361E+03  0.19628491918E+03  0.60888673372E+03  0.50400001928E-02 0.  1.
       -1    1    3    3    0  502 -0.31144622248E+03  0.48499127361E+03 -0.28150215519E+01  0.57638807183E+03  0.50400001928E-02 0. -1.
</event>
<event>
 5   0  0.5467554E-03  0.1285678E+04  0.7818609E-02  0.9041000E-01
       -2   -1    0    0    0  501  0.00000000000E+00  0.00000000000E+00  0.23728593671E+03  0.23728593672E+03  0.25500000920E-02 0.  1.
        2   -1    0    0  501    0  0.00000000000E+00  0.00000000000E+00 -0.17415372417E+04  0.17415372417E+04  0.25500000920E-02 0. -1.
    10030    2    1    2    0    0  0.00000000000E+00  0.00000000000E+00 -0.15042513050E+04  0.19788231784E+04  0.12856784913E+04 0.  0.
        1    1    3    3  502    0  0.20991719769E+03  0.32158792863E+03 -0.15455728020E+04  0.15925700336E+04  0.50400001928E-02 0. -1.
       -1    1    3    3    0  502 -0.20991719769E+03 -0.32158792863E+03  0.41321497001E+02  0.38625314480E+03  0.50400001928E-02 0.  1.
</event>
<event>
 5   0  0.2938349E-03  0.1185161E+04  0.7818609E-02  0.9125945E-01
       -1   -1    0    0    0  501  0.00000000000E+00  0.00000000000E+00  0.72539805520E+03  0.72539805522E+03  0.50400001928E-02 0.  1.
        1   -1    0    0  501    0  0.00000000000E+00  0.00000000000E+00 -0.48408134671E+03  0.48408134674E+03  0.50400001928E-02 0. -1.
    10030    2    1    2    0    0  0.00000000000E+00  0.00000000000E+00  0.24131670849E+03  0.12094794020E+04  0.11851610312E+04 0.  0.
        4    1    3    3  502    0  0.73931971306E+02 -0.48333402606E+03 -0.22098291629E+03  0.53657504538E+03  0.12699999809E+01 0.  1.
       -4    1    3    3    0  502 -0.73931971306E+02  0.48333402606E+03  0.46229962478E+03  0.67290435658E+03  0.12699999809E+01 0. -1.
</event>
<event>
 5   0  0.2926844E-03  0.1199988E+04  0.7818609E-02  0.9112867E-01
        1   -1    0    0  501    0  0.00000000000E+00  0.00000000000E+00  0.19021837667E+04  0.19021837667E+04  0.50400001928E-02 0.  1.
       -1   -1    0    0    0  501  0.00000000000E+00  0.00000000000E+00 -0.18925243706E+03  0.18925243713E+03  0.50400001928E-02 0. -1.
    10030    2    1    2    0    0  0.00000000000E+00  0.00000000000E+00  0.17129313297E+04  0.20914362039E+04  0.11999881894E+04 0.  0.
        5    1    3    3  502    0 -0.14089797764E+03  0.52493636718E+03  0.41362169431E+03  0.68301934504E+03  0.46999998093E+01 0. -1.
       -5    1    3    3    0  502  0.14089797764E+03 -0.52493636718E+03  0.12993096354E+04  0.14084168588E+04  0.46999998093E+01 0.  1.
</event>
<event>
 5   0  0.2792518E-03  0.1184619E+04  0.7818609E-02  0.9126427E-01
       -1   -1    0    0    0  501  0.00000000000E+00  0.00000000000E+00  0.51840465761E+03  0.51840465763E+03  0.50400001928E-02 0. -1.
        1   -1    0    0  501    0  0.00000000000E+00  0.00000000000E+00 -0.67675053862E+03  0.67675053864E+03  0.50400001928E-02 0.  1.
    10030    2    1    2    0    0  0.00000000000E+00  0.00000000000E+00 -0.15834588101E+03  0.11951551963E+04  0.11846191477E+04 0.  0.
        2    1    3    3  502    0  0.45391895699E+02 -0.22084853907E+03 -0.63176339928E+03  0.67079020124E+03  0.25500000920E-02 0.  1.
       -2    1    3    3    0  502 -0.45391895699E+02  0.22084853907E+03  0.47341751827E+03  0.52436499503E+03  0.25500000920E-02 0. -1.
</event>
<event>
 5   0  0.2938349E-03  0.1195485E+04  0.7818609E-02  0.9116818E-01
       -1   -1    0    0    0  501  0.00000000000E+00  0.00000000000E+00  0.93578377002E+03  0.93578377004E+03  0.50400001928E-02 0. -1.
        1   -1    0    0  501    0  0.00000000000E+00  0.00000000000E+00 -0.38181491137E+03  0.38181491141E+03  0.50400001928E-02 0.  1.
    10030    2    1    2    0    0  0.00000000000E+00  0.00000000000E+00  0.55396885865E+03  0.13175986814E+04  0.11954851689E+04 0.  0.
        4    1    3    3  502    0 -0.13462601656E+03 -0.13008978280E+03  0.90263730706E+03  0.92184772979E+03  0.12699999809E+01 0. -1.
       -4    1    3    3    0  502  0.13462601656E+03  0.13008978280E+03 -0.34866844841E+03  0.39575095166E+03  0.12699999809E+01 0.  1.
</event>
<event>
 5   0  0.2926844E-03  0.1130930E+04  0.7818609E-02  0.9175559E-01
        1   -1    0    0  501    0  0.00000000000E+00  0.00000000000E+00  0.67558029934E+03  0.67558029936E+03  0.50400001928E-02 0. -1.
       -1   -1    0    0    0  501  0.00000000000E+00  0.00000000000E+00 -0.47329743360E+03  0.47329743363E+03  0.50400001928E-02 0.  1.
    10030    2    1    2    0    0  0.00000000000E+00  0.00000000000E+00  0.20228286574E+03  0.11488777330E+04  0.11309295679E+04 0.  0.
        5    1    3    3  502    0 -0.54398947268E+03 -0.15378522116E+03  0.11374360006E+03  0.57665772967E+03  0.46999998093E+01 0.  1.
       -5    1    3    3    0  502  0.54398947268E+03  0.15378522116E+03  0.88539265685E+02  0.57222000332E+03  0.46999998093E+01 0. -1.
</event>
<event>
 5   0  0.5003526E-03  0.1207633E+04  0.7818609E-02  0.9106202E-01
        2   -1    0    0  501    0  0.00000000000E+00  0.00000000000E+00  0.10729466989E+04  0.10729466989E+04  0.25500000920E-02 0. -1.
       -2   -1    0    0    0  501  0.00000000000E+00  0.00000000000E+00 -0.33980635855E+03  0.33980635856E+03  0.25500000920E-02 0.  1.
    10030    2    1    2    0    0  0.00000000000E+00  0.00000000000E+00  0.73314034036E+03  0.14127530575E+04  0.12076325777E+04 0.  0.
        2    1    3    3  502    0  0.83664271745E+02  0.28052013346E+03  0.98438441229E+03  0.10269877929E+04  0.25500000920E-02 0. -1.
       -2    1    3    3    0  502 -0.83664271745E+02 -0.28052013346E+03 -0.25124407194E+03  0.38576526455E+03  0.25500000920E-02 0.  1.
</event>
<event>
 5   0  0.2875848E-03  0.1135074E+04  0.7818609E-02  0.9171665E-01
       -1   -1    0    0    0  501  0.00000000000E+00  0.00000000000E+00  0.38966794651E+03  0.38966794654E+03  0.50400001928E-02 0.  1.
        1   -1    0    0  501    0  0.00000000000E+00  0.00000000000E+00 -0.82659720911E+03  0.82659720912E+03  0.50400001928E-02 0. -1.
    10030    2    1    2    0    0  0.00000000000E+00  0.00000000000E+00 -0.43692926260E+03  0.12162651557E+04  0.11350743361E+04 0.  0.
        1    1    3    3  502    0  0.43932862191E+03  0.68958513048E+02  0.15936679654E+03  0.47240098478E+03  0.50400001928E-02 0.  1.
       -1    1    3    3    0  502 -0.43932862191E+03 -0.68958513048E+02 -0.59629605914E+03  0.74386417089E+03  0.50400001928E-02 0. -1.
</event>
<event>
 5   0  0.2875848E-03  0.7552631E+03  0.7818609E-02  0.9627129E-01
       -1   -1    0    0    0  501  0.00000000000E+00  0.00000000000E+00  0.27418557800E+03  0.27418557804E+03  0.50400001928E-02 0. -1.
        1   -1    0    0  501    0  0.00000000000E+00  0.00000000000E+00 -0.52010605555E+03  0.52010605557E+03  0.50400001928E-02 0.  1.
    10030    2    1    2    0    0  0.00000000000E+00  0.00000000000E+00 -0.24592047755E+03  0.79429163362E+03  0.75526307864E+03 0.  0.
        1    1    3    3  502    0 -0.34059797327E+03 -0.15045983221E+03 -0.56776180225E+02  0.37665458337E+03  0.50400001928E-02 0.  1.
       -1    1    3    3    0  502  0.34059797327E+03  0.15045983221E+03 -0.18914429733E+03  0.41763705025E+03  0.50400001928E-02 0. -1.
</event>
<event>
 5   0  0.2875848E-03  0.1209872E+04  0.7818609E-02  0.9104259E-01
        1   -1    0    0  501    0  0.00000000000E+00  0.00000000000E+00  0.16521616511E+04  0.16521616511E+04  0.50400001928E-02 0. -1.
       -1   -1    0    0    0  501  0.00000000000E+00  0.00000000000E+00 -0.22149624508E+03  0.22149624514E+03  0.50400001928E-02 0.  1.
    10030    2    1    2    0    0  0.00000000000E+00  0.00000000000E+00  0.14306654060E+04  0.18736578962E+04  0.12098720627E+04 0.  0.
        1    1    3    3  502    0  0.33391419120E+03  0.12700146645E+03  0.14713481643E+04  0.15140982400E+04  0.50400001928E-02 0. -1.
       -1    1    3    3    0  502 -0.33391419120E+03 -0.12700146645E+03 -0.40682758317E+02  0.35955965627E+03  0.50400001928E-02 0.  1.
</event>
<event>
 5   0  0.5189537E-03  0.1187101E+04  0.7818609E-02  0.9124222E-01
        2   -1    0    0  501    0  0.00000000000E+00  0.00000000000E+00  0.61383349424E+03  0.61383349424E+03  0.25500000920E-02 0. -1.
       -2   -1    0    0    0  501  0.00000000000E+00  0.00000000000E+00 -0.57393776265E+03  0.57393776265E+03  0.25500000920E-02 0.  1.
    10030    2    1    2    0    0  0.00000000000E+00  0.00000000000E+00  0.39895731589E+02  0.11877712569E+04  0.11871010443E+04 0.  0.
        4    1    3    3  502    0 -0.47376567058E+03 -0.13036320202E+03 -0.31318474944E+03  0.58269612599E+03  0.12699999809E+01 0.  1.
       -4    1    3    3    0  502  0.47376567058E+03  0.13036320202E+03  0.35308048103E+03  0.60507513091E+03  0.12699999809E+01 0. -1.
</event>
<event>
 5   0  0.2930868E-03  0.1301153E+04  0.7818609E-02  0.9028652E-01
        1   -1    0    0  501    0  0.00000000000E+00  0.00000000000E+00  0.11865733913E+04  0.11865733913E+04  0.50400001928E-02 0. -1.
       -1   -1    0    0    0  501  0.00000000000E+00  0.00000000000E+00 -0.35669896009E+03  0.35669896013E+03  0.50400001928E-02 0.  1.
    10030    2    1    2    0    0  0.00000000000E+00  0.00000000000E+00  0.82987443118E+03  0.15432723514E+04  0.13011525580E+04 0.  0.
        3    1    3    3  502    0  0.55745363209E+03 -0.24026061637E+03  0.69251506703E+03  0.92090001845E+03  0.10100000352E+00 0. -1.
       -3    1    3    3    0  502 -0.55745363209E+03  0.24026061637E+03  0.13735936414E+03  0.62237233295E+03  0.10100000352E+00 0.  1.
</event>
<event>
 5   0  0.5189537E-03  0.1208509E+04  0.7818609E-02  0.9105441E-01
        2   -1    0    0  501    0  0.00000000000E+00  0.00000000000E+00  0.70131252030E+03  0.70131252031E+03  0.25500000920E-02 0. -1.
       -2   -1    0    0    0  501  0.00000000000E+00  0.00000000000E+00 -0.52062919454E+03  0.52062919455E+03  0.25500000920E-02 0.  1.
    10030    2    1    2    0    0  0.00000000000E+00  0.00000000000E+00  0.18068332576E+03  0.12219417149E+04  0.12085094498E+04 0.  0.
        4    1    3    3  502    0  0.35112847688E+03  0.11887929720E+03 -0.39213985601E+03  0.53962836671E+03  0.12699999809E+01 0.  1.
       -4    1    3    3    0  502 -0.35112847688E+03 -0.11887929720E+03  0.57282318177E+03  0.68231334815E+03  0.12699999809E+01 0. -1.
</event>
<event>
 5   0  0.5108045E-03  0.1192816E+04  0.7818609E-02  0.9119168E-01
        2   -1    0    0  501    0  0.00000000000E+00  0.00000000000E+00  0.19247425256E+04  0.19247425256E+04  0.25500000920E-02 0. -1.
       -2   -1    0    0    0  501  0.00000000000E+00  0.00000000000E+00 -0.18480524384E+03  0.18480524386E+03  0.25500000920E-02 0.  1.
    10030    2    1    2    0    0  0.00000000000E+00  0.00000000000E+00  0.17399372817E+04  0.21095477694E+04  0.11928160156E+04 0.  0.
        3    1    3    3  502    0  0.53518629725E+03  0.20014071141E+03  0.56764677008E+03  0.80542134496E+03  0.10100000352E+00 0. -1.
       -3    1    3    3    0  502 -0.53518629725E+03 -0.20014071141E+03  0.11722905117E+04  0.13041264245E+04  0.10100000352E+00 0.  1.
</event>
<event>
 5   0  0.5467554E-03  0.1240125E+04  0.7818609E-02  0.9078443E-01
        2   -1    0    0  501    0  0.00000000000E+00  0.00000000000E+00  0.11657331044E+04  0.11657331044E+04  0.25500000920E-02 0.  1.
       -2   -1    0    0    0  501  0.00000000000E+00  0.00000000000E+00 -0.32981591311E+03  0.32981591312E+03  0.25500000920E-02 0. -1.
    10030    2    1    2    0    0  0.00000000000E+00  0.00000000000E+00  0.83591719133E+03  0.14955490176E+04  0.12401247168E+04 0.  0.
        1    1    3    3  502    0  0.19578998383E+03 -0.55522148923E+03  0.18326649596E+03  0.61659648753E+03  0.50400001928E-02 0. -1.
       -1    1    3    3    0  502 -0.19578998383E+03  0.55522148923E+03  0.65265069537E+03  0.87895253003E+03  0.50400001928E-02 0.  1.
</event>
<event>
 5   0  0.5189537E-03  0.1158381E+04  0.7818609E-02  0.9150087E-01
       -2   -1    0    0    0  501  0.00000000000E+00  0.00000000000E+00  0.27977444885E+03  0.27977444886E+03  0.25500000920E-02 0. -1.
        2   -1    0    0  501    0  0.00000000000E+00  0.00000000000E+00 -0.11990427527E+04  0.11990427527E+04  0.25500000920E-02 0.  1.
    10030    2    1    2    0    0  0.00000000000E+00  0.00000000000E+00 -0.91926830387E+03  0.14788172016E+04  0.11583808101E+04 0.  0.
        4    1    3    3  502    0  0.37782405261E+03  0.32689844735E+03 -0.83367922383E+03  0.97192400462E+03  0.12699999809E+01 0.  1.
       -4    1    3    3    0  502 -0.37782405261E+03 -0.32689844735E+03 -0.85589080035E+02  0.50689319697E+03  0.12699999809E+01 0. -1.
</event>
<event>
 5   0  0.2930868E-03  0.1180078E+04  0.7818609E-02  0.9130476E-01
        1   -1    0    0  501    0  0.00000000000E+00  0.00000000000E+00  0.46469450166E+03  0.46469450169E+03  0.50400001928E-02 0.  1.
       -1   -1    0    0    0  501  0.00000000000E+00  0.00000000000E+00 -0.74919279116E+03  0.74919279117E+03  0.50400001928E-02 0. -1.
    10030    2    1    2    0    0  0.00000000000E+00  0.00000000000E+00 -0.28449828949E+03  0.12138872929E+04  0.11800775750E+04 0.  0.
        3    1    3    3  502    0 -0.57027060640E+03 -0.42721540700E+02  0.72136762910E+01  0.57191410359E+03  0.10100000352E+00 0.  1.
       -3    1    3    3    0  502  0.57027060640E+03  0.42721540700E+02 -0.29171196578E+03  0.64197318927E+03  0.10100000352E+00 0. -1.
</event>
<event>
 5   0  0.5108045E-03  0.1230567E+04  0.7818609E-02  0.9086514E-01
       -2   -1    0    0    0  501  0.00000000000E+00  0.00000000000E+00  0.53746000126E+03  0.53746000127E+03  0.25500000920E-02 0. -1.
        2   -1    0    0  501    0  0.00000000000E+00  0.00000000000E+00 -0.70437531688E+03  0.70437531688E+03  0.25500000920E-02 0.  1.
    10030    2    1    2    0    0  0.00000000000E+00  0.00000000000E+00 -0.16691531561E+03  0.12418353181E+04  0.12305666316E+04 0.  0.
        3    1    3    3  502    0  0.47737328353E+03  0.31854920610E+03 -0.30733301594E+03  0.65100878751E+03  0.10100000352E+00 0.  1.
       -3    1    3    3    0  502 -0.47737328353E+03 -0.31854920610E+03  0.14041770033E+03  0.59082653063E+03  0.10100000352E+00 0. -1.
</event>
<event>
 5   0  0.2930868E-03  0.1213965E+04  0.7818609E-02  0.9100720E-01
        1   -1    0    0  501    0  0.00000000000E+00  0.00000000000E+00  0.57038631460E+03  0.57038631462E+03  0.50400001928E-02 0.  1.
       -1   -1    0    0    0  501  0.00000000000E+00  0.00000000000E+00 -0.64592702190E+03  0.64592702192E+03  0.50400001928E-02 0. -1.
    10030    2    1    2    0    0  0.00000000000E+00  0.00000000000E+00 -0.75540707299E+02  0.12163133365E+04  0.12139652937E+04 0.  0.
        3    1    3    3  502    0  0.14429822980E+03 -0.39170102898E+03  0.40373629765E+03  0.58073632870E+03  0.10100000352E+00 0.  1.
       -3    1    3    3    0  502 -0.14429822980E+03  0.39170102898E+03 -0.47927700495E+03  0.63557700785E+03  0.10100000352E+00 0. -1.
</event>
<event>
 5   0  0.5189537E-03  0.1208367E+04  0.7818609E-02  0.9105565E-01
        2   -1    0    0  501    0  0.00000000000E+00  0.00000000000E+00  0.44771187207E+03  0.44771187207E+03  0.25500000920E-02 0. -1.
       -2   -1    0    0    0  501  0.00000000000E+00  0.00000000000E+00 -0.81534006554E+03  0.81534006554E+03  0.25500000920E-02 0.  1.
    10030    2    1    2    0    0  0.00000000000E+00  0.00000000000E+00 -0.36762819347E+03  0.12630519376E+04  0.12083665456E+04 0.  0.
        4    1    3    3  502    0 -0.50278408940E+02 -0.19682408314E+03  0.41094294926E+03  0.45841395982E+03  0.12699999809E+01 0. -1.
       -4    1    3    3    0  502  0.50278408940E+02  0.19682408314E+03 -0.77857114274E+03  0.80463797780E+03  0.12699999809E+01 0.  1.
</event>
<event>
 5   0  0.5003526E-03  0.1196597E+04  0.7818609E-02  0.9115841E-01
        2   -1    0    0  501    0  0.00000000000E+00  0.00000000000E+00  0.12853376566E+04  0.12853376566E+04  0.25500000920E-02 0.  1.
       -2   -1    0    0    0  501  0.00000000000E+00  0.00000000000E+00 -0.27849569545E+03  0.27849569546E+03  0.25500000920E-02 0. -1.
    10030    2    1    2    0    0  0.00000000000E+00  0.00000000000E+00  0.10068419612E+04  0.15638333521E+04  0.11965968487E+04 0.  0.
        2    1    3    3  502    0 -0.27360034245E+03 -0.48018265966E+03  0.20389120974E+03  0.58907058953E+03  0.25500000920E-02 0.  1.
       -2    1    3    3    0  502  0.27360034245E+03  0.48018265966E+03  0.80295075142E+03  0.97476276254E+03  0.25500000920E-02 0. -1.
</event>
<event>
 5   0  0.5467554E-03  0.1213642E+04  0.7818609E-02  0.9100999E-01
       -2   -1    0    0    0  501  0.00000000000E+00  0.00000000000E+00  0.10250506611E+04  0.10250506611E+04  0.25500000920E-02 0.  1.
        2   -1    0    0  501    0  0.00000000000E+00  0.00000000000E+00 -0.35923283279E+03  0.35923283280E+03  0.25500000920E-02 0. -1.
    10030    2    1    2    0    0  0.00000000000E+00  0.00000000000E+00  0.66581782828E+03  0.13842834939E+04  0.12136422088E+04 0.  0.
        1    1    3    3  502    0  0.28658824935E+03 -0.37385060289E+03 -0.10341408949E+03  0.48227748431E+03  0.50400001928E-02 0. -1.
       -1    1    3    3    0  502 -0.28658824935E+03  0.37385060289E+03  0.76923191776E+03  0.90200600955E+03  0.50400001928E-02 0.  1.
</event>
<event>
 5   0  0.5108045E-03  0.1188176E+04  0.7818609E-02  0.9123269E-01
       -2   -1    0    0    0  501  0.00000000000E+00  0.00000000000E+00  0.40451072735E+03  0.40451072736E+03  0.25500000920E-02 0.  1.
        2   -1    0    0  501    0  0.00000000000E+00  0.00000000000E+00 -0.87251272827E+03  0.87251272827E+03  0.25500000920E-02 0. -1.
    10030    2    1    2    0    0  0.00000000000E+00  0.00000000000E+00 -0.46800200092E+03  0.12770234556E+04  0.11881763478E+04 0.  0.
        3    1    3    3  502    0 -0.25470361500E+03 -0.47936918751E+03  0.25445566598E+02  0.54343006586E+03  0.10100000352E+00 0.  1.
       -3    1    3    3    0  502  0.25470361500E+03  0.47936918751E+03 -0.49344756752E+03  0.73359338977E+03  0.10100000352E+00 0. -1.
</event>
<event>
 5   0  0.5003526E-03  0.1173296E+04  0.7818609E-02  0.9136557E-01
        2   -1    0    0  501    0  0.00000000000E+00  0.00000000000E+00  0.12942590573E+04  0.12942590573E+04  0.25500000920E-02 0.  1.
       -2   -1    0    0    0  501  0.00000000000E+00  0.00000000000E+00 -0.26590978809E+03  0.26590978811E+03  0.25500000920E-02 0. -1.
    10030    2    1    2    0    0  0.00000000000E+00  0.00000000000E+00  0.10283492692E+04  0.15601688454E+04  0.11732964701E+04 0.  0.
        2    1    3    3  502    0 -0.50195471466E+02  0.44199853663E+03  0.10227404893E+04  0.11152938627E+04  0.25500000920E-02 0.  1.
       -2    1    3    3    0  502  0.50195471466E+02 -0.44199853663E+03  0.56087798238E+01  0.44487498262E+03  0.25500000920E-02 0. -1.
</event>
<event>
 5   0  0.2792518E-03  0.1190139E+04  0.7818609E-02  0.9121531E-01
        1   -1    0    0  501    0  0.00000000000E+00  0.00000000000E+00  0.69867343767E+03  0.69867343769E+03  0.50400001928E-02 0. -1.
       -1   -1    0    0    0  501  0.00000000000E+00  0.00000000000E+00 -0.50682901288E+03  0.50682901290E+03  0.50400001928E-02 0.  1.
    10030    2    1    2    0    0  0.00000000000E+00  0.00000000000E+00  0.19184442480E+03  0.12055024506E+04  0.11901394351E+04 0.  0.
        2    1    3    3  502    0 -0.37725818047E+03 -0.26368698462E+03  0.47795583965E+03  0.66354829911E+03  0.25500000920E-02 0. -1.
       -2    1    3    3    0  502  0.37725818047E+03  0.26368698462E+03 -0.28611141485E+03  0.54195415148E+03  0.25500000920E-02 0.  1.
</event>
<event>
 5   0  0.2792518E-03  0.1192716E+04  0.7818609E-02  0.9119256E-01
       -1   -1    0    0    0  501  0.00000000000E+00  0.00000000000E+00  0.23386782787E+03  0.23386782793E+03  0.50400001928E-02 0.  1.
        1   -1    0    0  501    0  0.00000000000E+00  0.00000000000E+00 -0.15206999508E+04  0.15206999508E+04  0.50400001928E-02 0. -1.
    10030    2    1    2    0    0  0.00000000000E+00  0.00000000000E+00 -0.12868321229E+04  0.17545677787E+04  0.11927158830E+04 0.  0.
        2    1    3    3  502    0  0.98146058158E+02 -0.57786094967E+03 -0.48168626295E+03  0.75866829498E+03  0.25500000920E-02 0.  1.
       -2    1    3    3    0  502 -0.98146058158E+02  0.57786094967E+03 -0.80514585998E+03  0.99589948375E+03  0.25500000920E-02 0. -1.
</event>
<event>
 5   0  0.2938349E-03  0.1199355E+04  0.7818609E-02  0.9113421E-01
       -1   -1    0    0    0  501  0.00000000000E+00  0.00000000000E+00  0.63915164285E+03  0.63915164287E+03  0.50400001928E-02 0. -1.
        1   -1    0    0  501    0  0.00000000000E+00  0.00000000000E+00 -0.56264115310E+03  0.56264115313E+03  0.50400001928E-02 0.  1.
    10030    2    1    2    0    0  0.00000000000E+00  0.00000000000E+00  0.76510489742E+02  0.12017927960E+04  0.11993548555E+04 0.  0.
        4    1    3    3  502    0  0.55093628105E+03 -0.34510817044E+02 -0.19650633280E+03  0.58595062420E+03  0.12699999809E+01 0.  1.
       -4    1    3    3    0  502 -0.55093628105E+03  0.34510817044E+02  0.27301682254E+03  0.61584217179E+03  0.12699999809E+01 0. -1.
</event>
<event>
 5   0  0.2926844E-03  0.1199193E+04  0.7818609E-02  0.9113563E-01
       -1   -1    0    0    0  501  0.00000000000E+00  0.00000000000E+00  0.51643605086E+03  0.51643605089E+03  0.50400001928E-02 0.  1.
        1   -1    0    0  501    0  0.00000000000E+00  0.00000000000E+00 -0.69614817690E+03  0.69614817692E+03  0.50400001928E-02 0. -1.
    10030    2    1    2    0    0  0.00000000000E+00  0.00000000000E+00 -0.17971212604E+03  0.12125842278E+04  0.11991930876E+04 0.  0.
        5    1    3    3  502    0 -0.57742906548E+03 -0.11884788939E+03  0.20656551923E+02  0.58991349333E+03  0.46999998093E+01 0.  1.
       -5    1    3    3    0  502  0.57742906548E+03  0.11884788939E+03 -0.20036867797E+03  0.62267073448E+03  0.46999998093E+01 0. -1.
</event>
<event>
 5   0  0.2926844E-03  0.1110889E+04  0.7818609E-02  0.9194643E-01
       -1   -1    0    0    0  501  0.00000000000E+00  0.00000000000E+00  0.44378464549E+03  0.44378464551E+03  0.50400001928E-02 0. -1.
        1   -1    0    0  501    0  0.00000000000E+00  0.00000000000E+00 -0.69519889377E+03  0.69519889379E+03  0.50400001928E-02 0.  1.
    10030    2    1    2    0    0  0.00000000000E+00  0.00000000000E+00 -0.25141424829E+03  0.11389835393E+04  0.11108890037E+04 0.  0.
        5    1    3    3  502    0 -0.25226734493E+03 -0.28578444460E+03  0.28847067998E+03  0.47806797143E+03  0.46999998093E+01 0. -1.
       -5    1    3    3    0  502  0.25226734493E+03  0.28578444460E+03 -0.53988492827E+03  0.66091556788E+03  0.46999998093E+01 0.  1.
</event>
<event>
 5   0  0.5108045E-03  0.1140866E+04  0.7818609E-02  0.9166251E-01
        2   -1    0    0  501    0  0.00000000000E+00  0.00000000000E+00  0.12223508482E+04  0.12223508482E+04  0.25500000920E-02 0. -1.
       -2   -1    0    0    0  501  0.00000000000E+00  0.00000000000E+00 -0.26620338063E+03  0.26620338064E+03  0.25500000920E-02 0.  1.
    10030    2    1    2    0    0  0.00000000000E+00  0.00000000000E+00  0.95614746756E+03  0.14885542288E+04  0.11408662115E+04 0.  0.
        3    1    3    3  502    0  0.23672368050E+03 -0.37153648537E+03  0.52606115463E+01  0.44057365457E+03  0.10100000352E+00 0.  1.
       -3    1    3    3    0  502 -0.23672368050E+03  0.37153648537E+03  0.95088685602E+03  0.10479805743E+04  0.10100000352E+00 0. -1.
</event>
<event>
 5   0  0.5108045E-03  0.1200137E+04  0.7818609E-02  0.9112736E-01
       -2   -1    0    0    0  501  0.00000000000E+00  0.00000000000E+00  0.59038709531E+03  0.59038709532E+03  0.25500000920E-02 0. -1.
        2   -1    0    0  501    0  0.00000000000E+00  0.00000000000E+00 -0.60990885583E+03  0.60990885584E+03  0.25500000920E-02 0.  1.
    10030    2    1    2    0    0  0.00000000000E+00  0.00000000000E+00 -0.19521760521E+02  0.12002959512E+04  0.12001371885E+04 0.  0.
        3    1    3    3  502    0  0.29658134128E+03  0.34516910111E+03  0.38141757583E+03  0.59378580120E+03  0.10100000352E+00 0. -1.
       -3    1    3    3    0  502 -0.29658134128E+03 -0.34516910111E+03 -0.40093933635E+03  0.60651014995E+03  0.10100000352E+00 0.  1.
</event>
<event>
 5   0  0.1922125E-03  0.1209791E+04  0.7818609E-02  0.9104329E-01
       -3   -1    0    0    0  501  0.00000000000E+00  0.00000000000E+00  0.36261430736E+03  0.36261432143E+03  0.10100000352E+00 0.  1.
        3   -1    0    0  501    0  0.00000000000E+00  0.00000000000E+00 -0.10090571342E+04  0.10090571392E+04  0.10100000352E+00 0. -1.
    10030    2    1    2    0    0  0.00000000000E+00  0.00000000000E+00 -0.64644282682E+03  0.13716714607E+04  0.12097910016E+04 0.  0.
        2    1    3    3  502    0  0.47497004338E+03  0.33024413101E+03 -0.12281985462E+03  0.59139026444E+03  0.25500000920E-02 0. -1.
       -2    1    3    3    0  502 -0.47497004338E+03 -0.33024413101E+03 -0.52362297220E+03  0.78028119623E+03  0.25500000920E-02 0.  1.
</event>
<event>
 5   0  0.5467554E-03  0.8891553E+03  0.7818609E-02  0.9439240E-01
        2   -1    0    0  501    0  0.00000000000E+00  0.00000000000E+00  0.15221002832E+04  0.15221002832E+04  0.25500000920E-02 0. -1.
       -2   -1    0    0    0  501  0.00000000000E+00  0.00000000000E+00 -0.12985300884E+03  0.12985300886E+03  0.25500000920E-02 0.  1.
    10030    2    1    2    0    0  0.00000000000E+00  0.00000000000E+00  0.13922472743E+04  0.16519532920E+04  0.88915533298E+03 0.  0.
        1    1    3    3  502    0 -0.13330512283E+03 -0.33237408559E+03  0.20666021880E+03  0.41346249480E+03  0.50400001928E-02 0. -1.
       -1    1    3    3    0  502  0.13330512283E+03  0.33237408559E+03  0.11855870555E+04  0.12384907972E+04  0.50400001928E-02 0.  1.
</event>
<event>
 5   0  0.2792518E-03  0.1226837E+04  0.7818609E-02  0.9089685E-01
        1   -1    0    0  501    0  0.00000000000E+00  0.00000000000E+00  0.90015406581E+03  0.90015406582E+03  0.50400001928E-02 0.  1.
       -1   -1    0    0    0  501  0.00000000000E+00  0.00000000000E+00 -0.41802005400E+03  0.41802005403E+03  0.50400001928E-02 0. -1.
    10030    2    1    2    0    0  0.00000000000E+00  0.00000000000E+00  0.48213401181E+03  0.13181741198E+04  0.12268373180E+04 0.  0.
        2    1    3    3  502    0 -0.49131156636E+03 -0.33360577209E+03  0.75997980876E+02  0.59871158292E+03  0.25500000920E-02 0. -1.
       -2    1    3    3    0  502  0.49131156636E+03  0.33360577209E+03  0.40613603094E+03  0.71946253693E+03  0.25500000920E-02 0.  1.
</event>
<event>
 5   0  0.5108045E-03  0.1196869E+04  0.7818609E-02  0.9115601E-01
        2   -1    0    0  501    0  0.00000000000E+00  0.00000000000E+00  0.19806988599E+04  0.19806988599E+04  0.25500000920E-02 0. -1.
       -2   -1    0    0    0  501  0.00000000000E+00  0.00000000000E+00 -0.18080688371E+03  0.18080688373E+03  0.25500000920E-02 0.  1.
    10030    2    1    2    0    0  0.00000000000E+00  0.00000000000E+00  0.17998919762E+04  0.21615057437E+04  0.11968692301E+04 0.  0.
        3    1    3    3  502    0 -0.96724516167E+02  0.27001252589E+03 -0.48593254855E+02  0.29090154826E+03  0.10100000352E+00 0.  1.
       -3    1    3    3    0  502  0.96724516167E+02 -0.27001252589E+03  0.18484852311E+04  0.18706041954E+04  0.10100000352E+00 0. -1.
</event>
<event>
 5   0  0.5189537E-03  0.1165507E+04  0.7818609E-02  0.9143596E-01
        2   -1    0    0  501    0  0.00000000000E+00  0.00000000000E+00  0.26553100515E+04  0.26553100515E+04  0.25500000920E-02 0. -1.
       -2   -1    0    0    0  501  0.00000000000E+00  0.00000000000E+00 -0.12789520468E+03  0.12789520470E+03  0.25500000920E-02 0.  1.
    10030    2    1    2    0    0  0.00000000000E+00  0.00000000000E+00  0.25274148468E+04  0.27832052562E+04  0.11655066238E+04 0.  0.
        4    1    3    3  502    0 -0.37158451955E+03  0.13757591865E+03  0.22841252744E+04  0.23182390020E+04  0.12699999809E+01 0. -1.
       -4    1    3    3    0  502  0.37158451955E+03 -0.13757591865E+03  0.24328957244E+03  0.46496625417E+03  0.12699999809E+01 0.  1.
</event>
<event>
 5   0  0.5031575E-03  0.1207717E+04  0.7818609E-02  0.9106129E-01
       -2   -1    0    0    0  501  0.00000000000E+00  0.00000000000E+00  0.61757135660E+03  0.61757135660E+03  0.25500000920E-02 0.  1.
        2   -1    0    0  501    0  0.00000000000E+00  0.00000000000E+00 -0.59045003832E+03  0.59045003833E+03  0.25500000920E-02 0. -1.
    10030    2    1    2    0    0  0.00000000000E+00  0.00000000000E+00  0.27121318276E+02  0.12080213949E+04  0.12077169059E+04 0.  0.
        5    1    3    3  502    0  0.19970531359E+03  0.56932007040E+03  0.38373895091E+02  0.60456778004E+03  0.46999998093E+01 0. -1.
       -5    1    3    3    0  502 -0.19970531359E+03 -0.56932007040E+03 -0.11252576816E+02  0.60345361489E+03  0.46999998093E+01 0.  1.
</event>
<event>
 5   0  0.2875848E-03  0.1205041E+04  0.7818609E-02  0.9108455E-01
        1   -1    0    0  501    0  0.00000000000E+00  0.00000000000E+00  0.73488034479E+03  0.73488034480E+03  0.50400001928E-02 0. -1.
       -1   -1    0    0    0  501  0.00000000000E+00  0.00000000000E+00 -0.49400018341E+03  0.49400018343E+03  0.50400001928E-02 0.  1.
    10030    2    1    2    0    0  0.00000000000E+00  0.00000000000E+00  0.24088016138E+03  0.12288805282E+04  0.12050411199E+04 0.  0.
        1    1    3    3  502    0  0.35573417761E+03 -0.26502338649E+03 -0.29535991027E+03  0.53293684159E+03  0.50400001928E-02 0.  1.
       -1    1    3    3    0  502 -0.35573417761E+03  0.26502338649E+03  0.53624007165E+03  0.69594368664E+03  0.50400001928E-02 0. -1.
</event>
<event>
 5   0  0.2930868E-03  0.1085307E+04  0.7818609E-02  0.9219633E-01
       -1   -1    0    0    0  501  0.00000000000E+00  0.00000000000E+00  0.20414370074E+03  0.20414370080E+03  0.50400001928E-02 0.  1.
        1   -1    0    0  501    0  0.00000000000E+00  0.00000000000E+00 -0.14424767991E+04  0.14424767991E+04  0.50400001928E-02 0. -1.
    10030    2    1    2    0    0  0.00000000000E+00  0.00000000000E+00 -0.12383330984E+04  0.16466204999E+04  0.10853065043E+04 0.  0.
        3    1    3    3  502    0 -0.46202920537E+03  0.19484858773E+03 -0.93390873602E+03  0.10600106114E+04  0.10100000352E+00 0. -1.
       -3    1    3    3    0  502  0.46202920537E+03 -0.19484858773E+03 -0.30442436233E+03  0.58660988854E+03  0.10100000352E+00 0.  1.
</event>
<event>
 5   0  0.2938349E-03  0.1189256E+04  0.7818609E-02  0.9122313E-01
       -1   -1    0    0    0  501  0.00000000000E+00  0.00000000000E+00  0.34916722150E+03  0.34916722154E+03  0.50400001928E-02 0. -1.
        1   -1    0    0  501    0  0.00000000000E+00  0.00000000000E+00 -0.10126444211E+04  0.10126444211E+04  0.50400001928E-02 0.  1.
    10030    2    1    2    0    0  0.00000000000E+00  0.00000000000E+00 -0.66347719960E+03  0.13618116427E+04  0.11892556309E+04 0.  0.
        4    1    3    3  502    0  0.32500161285E+03  0.48808562482E+03 -0.21880288736E+03  0.62588332932E+03  0.12699999809E+01 0. -1.
       -4    1    3    3    0  502 -0.32500161285E+03 -0.48808562482E+03 -0.44467431224E+03  0.73592831334E+03  0.12699999809E+01 0.  1.
</event>
<event>
 5   0  0.2926844E-03  0.1214504E+04  0.7818609E-02  0.9100255E-01
        1   -1    0    0  501    0  0.00000000000E+00  0.00000000000E+00  0.62208295291E+03  0.62208295293E+03  0.50400001928E-02 0. -1.
       -1   -1    0    0    0  501  0.00000000000E+00  0.00000000000E+00 -0.59277508608E+03  0.59277508610E+03  0.50400001928E-02 0.  1.
    10030    2    1    2    0    0  0.00000000000E+00  0.00000000000E+00  0.29307866832E+02  0.12148580390E+04  0.12145044685E+04 0.  0.
        5    1    3    3  502    0  0.43529456542E+03  0.17877674899E+03  0.39855036909E+03  0.61669033668E+03  0.46999998093E+01 0. -1.
       -5    1    3    3    0  502 -0.43529456542E+03 -0.17877674899E+03 -0.36924250226E+03  0.59816770235E+03  0.46999998093E+01 0.  1.
</event>
<event>
 5   0  0.5108045E-03  0.1176516E+04  0.7818609E-02  0.9133664E-01
       -2   -1    0    0    0  501  0.00000000000E+00  0.00000000000E+00  0.49776918630E+03  0.49776918631E+03  0.25500000920E-02 0.  1.
        2   -1    0    0  501    0  0.00000000000E+00  0.00000000000E+00 -0.69519697003E+03  0.69519697004E+03  0.25500000920E-02 0. -1.
    10030    2    1    2    0    0  0.00000000000E+00  0.00000000000E+00 -0.19742778373E+03  0.11929661563E+04  0.11765162644E+04 0.  0.
        3    1    3    3  502    0  0.20246302140E+02 -0.41509152895E+03 -0.52087234245E+03  0.66634743002E+03  0.10100000352E+00 0. -1.
       -3    1    3    3    0  502 -0.20246302140E+02  0.41509152895E+03  0.32344455872E+03  0.52661872633E+03  0.10100000352E+00 0.  1.
</event>
<event>
 5   0  0.2792518E-03  0.1205199E+04  0.7818609E-02  0.9108318E-01
       -1   -1    0    0    0  501  0.00000000000E+00  0.00000000000E+00  0.14529763787E+04  0.14529763787E+04  0.50400001928E-02 0.  1.
        1   -1    0    0  501    0  0.00000000000E+00  0.00000000000E+00 -0.24991888084E+03  0.24991888089E+03  0.50400001928E-02 0. -1.
    10030    2    1    2    0    0  0.00000000000E+00  0.00000000000E+00  0.12030574978E+04  0.17028952596E+04  0.12051991213E+04 0.  0.
        2    1    3    3  502    0  0.20673869966E+03 -0.14231090528E+03 -0.17255146428E+03  0.30457723410E+03  0.25500000920E-02 0. -1.
       -2    1    3    3    0  502 -0.20673869966E+03  0.14231090528E+03  0.13756089621E+04  0.13983180255E+04  0.25500000920E-02 0.  1.
</event>
<event>
 5   0  0.2938349E-03  0.1171474E+04  0.7818609E-02  0.9138199E-01
        1   -1    0    0  501    0  0.00000000000E+00  0.00000000000E+00  0.13439504354E+04  0.13439504354E+04  0.50400001928E-02 0. -1.
       -1   -1    0    0    0  501  0.00000000000E+00  0.00000000000E+00 -0.25528297997E+03  0.25528298002E+03  0.50400001928E-02 0.  1.
    10030    2    1    2    0    0  0.00000000000E+00  0.00000000000E+00  0.10886674554E+04  0.15992334154E+04  0.11714737250E+04 0.  0.
        4    1    3    3  502    0 -0.19626017922E+03  0.13445754840E+03  0.12750241372E+04  0.12970293187E+04  0.12699999809E+01 0. -1.
       -4    1    3    3    0  502  0.19626017922E+03 -0.13445754840E+03 -0.18635668183E+03  0.30220409665E+03  0.12699999809E+01 0.  1.
</event>
<event>
 5   0  0.2930868E-03  0.1212214E+04  0.7818609E-02  0.9102233E-01
       -1   -1    0    0    0  501  0.00000000000E+00  0.00000000000E+00  0.23606898535E+03  0.23606898541E+03  0.50400001928E-02 0. -1.
        1   -1    0    0  501    0  0.00000000000E+00  0.00000000000E+00 -0.15561783015E+04  0.15561783015E+04  0.50400001928E-02 0.  1.
    10030    2    1    2    0    0  0.00000000000E+00  0.00000000000E+00 -0.13201093162E+04  0.17922472869E+04  0.12122135665E+04 0.  0.
        3    1    3    3  502    0 -0.55726024676E+03 -0.18314014463E+03 -0.88566937502E+03  0.10623038865E+04  0.10100000352E+00 0.  1.
       -3    1    3    3    0  502  0.55726024676E+03  0.18314014463E+03 -0.43443994115E+03  0.72994340045E+03  0.10100000352E+00 0. -1.
</event>
<event>
 5   0  0.2938349E-03  0.1126717E+04  0.7818609E-02  0.9179536E-01
        1   -1    0    0  501    0  0.00000000000E+00  0.00000000000E+00  0.42222165836E+03  0.42222165839E+03  0.50400001928E-02 0.  1.
       -1   -1    0    0    0  501  0.00000000000E+00  0.00000000000E+00 -0.75167354435E+03  0.75167354437E+03  0.50400001928E-02 0. -1.
    10030    2    1    2    0    0  0.00000000000E+00  0.00000000000E+00 -0.32945188599E+03  0.11738952028E+04  0.11267170904E+04 0.  0.
        4    1    3    3  502    0  0.52950588116E+03  0.14326144212E+03 -0.29843885785E+03  0.62447392560E+03  0.12699999809E+01 0.  1.
       -4    1    3    3    0  502 -0.52950588116E+03 -0.14326144212E+03 -0.31013028145E+02  0.54942127716E+03  0.12699999809E+01 0. -1.
</event>
<event>
 5   0  0.5003526E-03  0.1230915E+04  0.7818609E-02  0.9086219E-01
        2   -1    0    0  501    0  0.00000000000E+00  0.00000000000E+00  0.10097343126E+04  0.10097343126E+04  0.25500000920E-02 0.  1.
       -2   -1    0    0    0  501  0.00000000000E+00  0.00000000000E+00 -0.37513601989E+03  0.37513601990E+03  0.25500000920E-02 0. -1.
    10030    2    1    2    0    0  0.00000000000E+00  0.00000000000E+00  0.63459829268E+03  0.13848703325E+04  0.12309146374E+04 0.  0.
        2    1    3    3  502    0 -0.40249313660E+03 -0.34695121372E+03 -0.32039283937E+02  0.53235550663E+03  0.25500000920E-02 0. -1.
       -2    1    3    3    0  502  0.40249313660E+03  0.34695121372E+03  0.66663757662E+03  0.85251482584E+03  0.25500000920E-02 0.  1.
</event>
<event>
 5   0  0.5031575E-03  0.1200413E+04  0.7818609E-02  0.9112495E-01
       -2   -1    0    0    0  501  0.00000000000E+00  0.00000000000E+00  0.91313538859E+03  0.91313538859E+03  0.25500000920E-02 0. -1.
        2   -1    0    0  501    0  0.00000000000E+00  0.00000000000E+00 -0.39451718193E+03  0.39451718194E+03  0.25500000920E-02 0.  1.
    10030    2    1    2    0    0  0.00000000000E+00  0.00000000000E+00  0.51861820666E+03  0.13076525705E+04  0.12004125961E+04 0.  0.
        5    1    3    3  502    0 -0.15028236099E+03  0.57134744574E+03  0.37460808644E+03  0.69955414387E+03  0.46999998093E+01 0.  1.
       -5    1    3    3    0  502  0.15028236099E+03 -0.57134744574E+03  0.14401012021E+03  0.60809842666E+03  0.46999998093E+01 0. -1.
</event>
<event>
 5   0  0.5108045E-03  0.1188174E+04  0.7818609E-02  0.9123271E-01
        2   -1    0    0  501    0  0.00000000000E+00  0.00000000000E+00  0.90403051783E+03  0.90403051784E+03  0.25500000920E-02 0. -1.
       -2   -1    0    0    0  501  0.00000000000E+00  0.00000000000E+00 -0.39040654549E+03  0.39040654550E+03  0.25500000920E-02 0.  1.
    10030    2    1    2    0    0  0.00000000000E+00  0.00000000000E+00  0.51362397234E+03  0.12944370633E+04  0.11881741143E+04 0.  0.
        3    1    3    3  502    0  0.19963894751E+03 -0.26129430125E+03 -0.28222000738E+03  0.43333424051E+03  0.10100000352E+00 0.  1.
       -3    1    3    3    0  502 -0.19963894751E+03  0.26129430125E+03  0.79584397972E+03  0.86110282283E+03  0.10100000352E+00 0. -1.
</event>
<event>
 5   0  0.5031575E-03  0.1177573E+04  0.7818609E-02  0.9132716E-01
       -2   -1    0    0    0  501  0.00000000000E+00  0.00000000000E+00  0.26571099361E+03  0.26571099363E+03  0.25500000920E-02 0. -1.
        2   -1    0    0  501    0  0.00000000000E+00  0.00000000000E+00 -0.13046872589E+04  0.13046872589E+04  0.25500000920E-02 0.  1.
    10030    2    1    2    0    0  0.00000000000E+00  0.00000000000E+00 -0.10389762652E+04  0.15703982525E+04  0.11775733487E+04 0.  0.
        5    1    3    3  502    0 -0.27983560354E+03 -0.17331527487E+03 -0.11704944920E+04  0.12159052575E+04  0.46999998093E+01 0.  1.
       -5    1    3    3    0  502  0.27983560354E+03  0.17331527487E+03  0.13151822674E+03  0.35449299496E+03  0.46999998093E+01 0. -1.
</event>
<event>
 5   0  0.2938349E-03  0.1060036E+04  0.7818609E-02  0.9245043E-01
        1   -1    0    0  501    0  0.00000000000E+00  0.00000000000E+00  0.37619466505E+03  0.37619466509E+03  0.50400001928E-02 0. -1.
       -1   -1    0    0    0  501  0.00000000000E+00  0.00000000000E+00 -0.74673918040E+03  0.74673918042E+03  0.50400001928E-02 0.  1.
    10030    2    1    2    0    0  0.00000000000E+00  0.00000000000E+00 -0.37054451535E+03  0.11229338455E+04  0.10600364067E+04 0.  0.
        4    1    3    3  502    0 -0.15722367884E+03  0.50279465892E+03 -0.24700458859E+03  0.58183729161E+03  0.12699999809E+01 0.  1.
       -4    1    3    3    0  502  0.15722367884E+03 -0.50279465892E+03 -0.12353992676E+03  0.54109655389E+03  0.12699999809E+01 0. -1.
</event>
<event>
 5   0  0.2926844E-03  0.1178518E+04  0.7818609E-02  0.9131870E-01
       -1   -1    0    0    0  501  0.00000000000E+00  0.00000000000E+00  0.25346851149E+03  0.25346851154E+03  0.50400001928E-02 0. -1.
        1   -1    0    0  501    0  0.00000000000E+00  0.00000000000E+00 -0.13698997753E+04  0.13698997753E+04  0.50400001928E-02 0.  1.
    10030    2    1    2    0    0  0.00000000000E+00  0.00000000000E+00 -0.11164312638E+04  0.16233682869E+04  0.11785184886E+04 0.  0.
        5    1    3    3  502    0 -0.17500822601E+03 -0.34880786322E+03  0.49915491529E+02  0.39345705091E+03  0.46999998093E+01 0. -1.
       -5    1    3    3    0  502  0.17500822601E+03  0.34880786322E+03 -0.11663467553E+04  0.12299112360E+04  0.46999998093E+01 0.  1.
</event>
<event>
 5   0  0.2930868E-03  0.1202313E+04  0.7818609E-02  0.9110834E-01
       -1   -1    0    0    0  501  0.00000000000E+00  0.00000000000E+00  0.46057256449E+03  0.46057256452E+03  0.50400001928E-02 0.  1.
        1   -1    0    0  501    0  0.00000000000E+00  0.00000000000E+00 -0.78465180008E+03  0.78465180010E+03  0.50400001928E-02 0. -1.
    10030    2    1    2    0    0  0.00000000000E+00  0.00000000000E+00 -0.32407923559E+03  0.12452243646E+04  0.12023129240E+04 0.  0.
        3    1    3    3  502    0  0.34585879743E+03 -0.48430403019E+03 -0.74034054340E+02  0.59970805632E+03  0.10100000352E+00 0.  1.
       -3    1    3    3    0  502 -0.34585879743E+03  0.48430403019E+03 -0.25004518125E+03  0.64551630830E+03  0.10100000352E+00 0. -1.
</event>
<event>
 5   0  0.2926844E-03  0.1169610E+04  0.7818609E-02  0.9139881E-01
        1   -1    0    0  501    0  0.00000000000E+00  0.00000000000E+00  0.38416499760E+03  0.38416499764E+03  0.50400001928E-02 0.  1.
       -1   -1    0    0    0  501  0.00000000000E+00  0.00000000000E+00 -0.89023423539E+03  0.89023423541E+03  0.50400001928E-02 0. -1.
    10030    2    1    2    0    0  0.00000000000E+00  0.00000000000E+00 -0.50606923779E+03  0.12743992330E+04  0.11696099058E+04 0.  0.
        5    1    3    3  502    0 -0.39936161024E+03 -0.42559244513E+03 -0.29315944657E+03  0.65313335254E+03  0.46999998093E+01 0. -1.
       -5    1    3    3    0  502  0.39936161024E+03  0.42559244513E+03 -0.21290979122E+03  0.62126588051E+03  0.46999998093E+01 0.  1.
</event>
<event>
 5   0  0.5003526E-03  0.1218338E+04  0.7818609E-02  0.9096955E-01
        2   -1    0    0  501    0  0.00000000000E+00  0.00000000000E+00  0.13099528749E+04  0.13099528749E+04  0.25500000920E-02 0. -1.
       -2   -1    0    0    0  501  0.00000000000E+00  0.00000000000E+00 -0.28328245603E+03  0.28328245604E+03  0.25500000920E-02 0.  1.
    10030    2    1    2    0    0  0.00000000000E+00  0.00000000000E+00  0.10266704189E+04  0.15932353309E+04  0.12183376670E+04 0.  0.
        2    1    3    3  502    0 -0.14982886945E+03 -0.58761963397E+03  0.43774599864E+03  0.74790847280E+03  0.25500000920E-02 0.  1.
       -2    1    3    3    0  502  0.14982886945E+03  0.58761963397E+03  0.58892442023E+03  0.84532685814E+03  0.25500000920E-02 0. -1.
</event>
<event>
 5   0  0.5108045E-03  0.1225185E+04  0.7818609E-02  0.9091093E-01
       -2   -1    0    0    0  501  0.00000000000E+00  0.00000000000E+00  0.26630866165E+03  0.26630866166E+03  0.25500000920E-02 0. -1.
        2   -1    0    0  501    0  0.00000000000E+00  0.00000000000E+00 -0.14091524888E+04  0.14091524888E+04  0.25500000920E-02 0.  1.
    10030    2    1    2    0    0  0.00000000000E+00  0.00000000000E+00 -0.11428438272E+04  0.16754611505E+04  0.12251849058E+04 0.  0.
        3    1    3    3  502    0 -0.22918998590E+03 -0.12450309103E+02  0.20528251351E+03  0.30793502624E+03  0.10100000352E+00 0. -1.
       -3    1    3    3    0  502  0.22918998590E+03  0.12450309103E+02 -0.13481263407E+04  0.13675261242E+04  0.10100000352E+00 0.  1.
</event>
<event>
 5   0  0.5108045E-03  0.1201688E+04  0.7818609E-02  0.9111380E-01
        2   -1    0    0  501    0  0.00000000000E+00  0.00000000000E+00  0.70415910478E+03  0.70415910478E+03  0.25500000920E-02 0.  1.
       -2   -1    0    0    0  501  0.00000000000E+00  0.00000000000E+00 -0.51268727878E+03  0.51268727879E+03  0.25500000920E-02 0. -1.
    10030    2    1    2    0    0  0.00000000000E+00  0.00000000000E+00  0.19147182599E+03  0.12168463836E+04  0.12016878384E+04 0.  0.
        3    1    3    3  502    0  0.36374586420E+03  0.33161602099E+03  0.44465932760E+03  0.66332659145E+03  0.10100000352E+00 0.  1.
       -3    1    3    3    0  502 -0.36374586420E+03 -0.33161602099E+03 -0.25318750161E+03  0.55351979212E+03  0.10100000352E+00 0. -1.
</event>
<event>
 5   0  0.2792518E-03  0.1261836E+04  0.7818609E-02  0.9060390E-01
        1   -1    0    0  501    0  0.00000000000E+00  0.00000000000E+00  0.54742118086E+03  0.54742118088E+03  0.50400001928E-02 0.  1.
       -1   -1    0    0    0  501  0.00000000000E+00  0.00000000000E+00 -0.72714990198E+03  0.72714990199E+03  0.50400001928E-02 0. -1.
    10030    2    1    2    0    0  0.00000000000E+00  0.00000000000E+00 -0.17972872112E+03  0.12745710829E+04  0.12618355805E+04 0.  0.
        2    1    3    3  502    0 -0.17754001641E+03 -0.36453723572E+03  0.39838718982E+03  0.56843663382E+03  0.25500000920E-02 0.  1.
       -2    1    3    3    0  502  0.17754001641E+03  0.36453723572E+03 -0.57811591094E+03  0.70613444905E+03  0.25500000920E-02 0. -1.
</event>
<event>
 5   0  0.5189537E-03  0.1176970E+04  0.7818609E-02  0.9133257E-01
       -2   -1    0    0    0  501  0.00000000000E+00  0.00000000000E+00  0.54608815973E+03  0.54608815974E+03  0.25500000920E-02 0. -1.
        2   -1    0    0  501    0  0.00000000000E+00  0.00000000000E+00 -0.63417335438E+03  0.63417335439E+03  0.25500000920E-02 0.  1.
    10030    2    1    2    0    0  0.00000000000E+00  0.00000000000E+00 -0.88085194656E+02  0.11802615141E+04  0.11769699402E+04 0.  0.
        4    1    3    3  502    0  0.34538245813E+03  0.23095787989E+03  0.37387507247E+03  0.55894075480E+03  0.12699999809E+01 0. -1.
       -4    1    3    3    0  502 -0.34538245813E+03 -0.23095787989E+03 -0.46196026713E+03  0.62132075932E+03  0.12699999809E+01 0.  1.
</event>
<event>
 5   0  0.5108045E-03  0.1225647E+04  0.7818609E-02  0.9090700E-01
       -2   -1    0    0    0  501  0.00000000000E+00  0.00000000000E+00  0.18645620457E+03  0.18645620459E+03  0.25500000920E-02 0.  1.
        2   -1    0    0  501    0  0.00000000000E+00  0.00000000000E+00 -0.20141590028E+04  0.20141590028E+04  0.25500000920E-02 0. -1.
    10030    2    1    2    0    0  0.00000000000E+00  0.00000000000E+00 -0.18277027983E+04  0.22006152074E+04  0.12256466752E+04 0.  0.
        3    1    3    3  502    0 -0.18375991653E+03  0.40509073857E+03 -0.15700858470E+03  0.47171805061E+03  0.10100000352E+00 0.  1.
       -3    1    3    3    0  502  0.18375991653E+03 -0.40509073857E+03 -0.16706942136E+04  0.17288971568E+04  0.10100000352E+00 0. -1.
</event>
<event>
 5   0  0.5108045E-03  0.1207606E+04  0.7818609E-02  0.9106225E-01
       -2   -1    0    0    0  501  0.00000000000E+00  0.00000000000E+00  0.33450502613E+03  0.33450502614E+03  0.25500000920E-02 0.  1.
        2   -1    0    0  501    0  0.00000000000E+00  0.00000000000E+00 -0.10899028095E+04  0.10899028095E+04  0.25500000920E-02 0. -1.
    10030    2    1    2    0    0  0.00000000000E+00  0.00000000000E+00 -0.75539778338E+03  0.14244078356E+04  0.12076058426E+04 0.  0.
        3    1    3    3  502    0 -0.96409464333E+02  0.36403976890E+03  0.17900725621E+03  0.41696923883E+03  0.10100000352E+00 0.  1.
       -3    1    3    3    0  502  0.96409464333E+02 -0.36403976890E+03 -0.93440503958E+03  0.10074385968E+04  0.10100000352E+00 0. -1.
</event>
<event>
 5   0  0.5108045E-03  0.1199349E+04  0.7818609E-02  0.9113427E-01
       -2   -1    0    0    0  501  0.00000000000E+00  0.00000000000E+00  0.20360444249E+03  0.20360444250E+03  0.25500000920E-02 0. -1.
        2   -1    0    0  501    0  0.00000000000E+00  0.00000000000E+00 -0.17662151677E+04  0.17662151677E+04  0.25500000920E-02 0.  1.
    10030    2    1    2    0    0  0.00000000000E+00  0.00000000000E+00 -0.15626107252E+04  0.19698196102E+04  0.11993485808E+04 0.  0.
        3    1    3    3  502    0 -0.26487374697E+03 -0.34738562664E+03 -0.10656874848E+03  0.44965740713E+03  0.10100000352E+00 0. -1.
       -3    1    3    3    0  502  0.26487374697E+03  0.34738562664E+03 -0.14560419767E+04  0.15201622030E+04  0.10100000352E+00 0.  1.
</event>
<event>
 5   0  0.5031575E-03  0.1187603E+04  0.7818609E-02  0.9123778E-01
       -2   -1    0    0    0  501  0.00000000000E+00  0.00000000000E+00  0.22329186994E+03  0.22329186995E+03  0.25500000920E-02 0.  1.
        2   -1    0    0  501    0  0.00000000000E+00  0.00000000000E+00 -0.15790989838E+04  0.15790989838E+04  0.25500000920E-02 0. -1.
    10030    2    1    2    0    0  0.00000000000E+00  0.00000000000E+00 -0.13558071138E+04  0.18023908537E+04  0.11876025681E+04 0.  0.
        5    1    3    3  502    0 -0.31020825461E+02  0.24437935911E+03 -0.14978597738E+04  0.15179886544E+04  0.46999998093E+01 0. -1.
       -5    1    3    3    0  502  0.31020825461E+02 -0.24437935911E+03  0.14205266001E+03  0.28440219933E+03  0.46999998093E+01 0.  1.
</event>
<event>
 5   0  0.2930868E-03  0.1200665E+04  0.7818609E-02  0.9112274E-01
       -1   -1    0    0    0  501  0.00000000000E+00  0.00000000000E+00  0.54209917085E+03  0.54209917087E+03  0.50400001928E-02 0.  1.
        1   -1    0    0  501    0  0.00000000000E+00  0.00000000000E+00 -0.66482174507E+03  0.66482174509E+03  0.50400001928E-02 0. -1.
    10030    2    1    2    0    0  0.00000000000E+00  0.00000000000E+00 -0.12272257422E+03  0.12069209160E+04  0.12006653435E+04 0.  0.
        3    1    3    3  502    0 -0.52282470303E+03 -0.15232328690E+03  0.19264329421E+03  0.57763267120E+03  0.10100000352E+00 0.  1.
       -3    1    3    3    0  502  0.52282470303E+03  0.15232328690E+03 -0.31536586842E+03  0.62928824476E+03  0.10100000352E+00 0. -1.
</event>
<event>
 5   0  0.2792518E-03  0.1196622E+04  0.7818609E-02  0.9115818E-01
        1   -1    0    0  501    0  0.00000000000E+00  0.00000000000E+00  0.14623660402E+04  0.14623660402E+04  0.50400001928E-02 0.  1.
       -1   -1    0    0    0  501  0.00000000000E+00  0.00000000000E+00 -0.24479239875E+03  0.24479239880E+03  0.50400001928E-02 0. -1.
    10030    2    1    2    0    0  0.00000000000E+00  0.00000000000E+00  0.12175736414E+04  0.17071584390E+04  0.11966220638E+04 0.  0.
        2    1    3    3  502    0 -0.47461454217E+03  0.33346329498E+02  0.91235686745E+02  0.48445318852E+03  0.25500000920E-02 0. -1.
       -2    1    3    3    0  502  0.47461454217E+03 -0.33346329498E+02  0.11263379547E+04  0.12227052504E+04  0.25500000920E-02 0.  1.
</event>
<event>
 5   0  0.2938349E-03  0.1180497E+04  0.7818609E-02  0.9130101E-01
        1   -1    0    0  501    0  0.00000000000E+00  0.00000000000E+00  0.55785349255E+03  0.55785349258E+03  0.50400001928E-02 0.  1.
       -1   -1    0    0    0  501  0.00000000000E+00  0.00000000000E+00 -0.62452476097E+03  0.62452476099E+03  0.50400001928E-02 0. -1.
    10030    2    1    2    0    0  0.00000000000E+00  0.00000000000E+00 -0.66671268417E+02  0.11823782536E+04  0.11804970464E+04 0.  0.
        4    1    3    3  502    0 -0.24114869321E+03  0.33130957786E+03  0.39216246135E+03  0.56719638364E+03  0.12699999809E+01 0.  1.
       -4    1    3    3    0  502  0.24114869321E+03 -0.33130957786E+03 -0.45883372977E+03  0.61518186993E+03  0.12699999809E+01 0. -1.
</event>
<event>
 5   0  0.5108045E-03  0.1199751E+04  0.7818609E-02  0.9113074E-01
       -2   -1    0    0    0  501  0.00000000000E+00  0.00000000000E+00  0.39884386339E+03  0.39884386340E+03  0.25500000920E-02 0.  1.
        2   -1    0    0  501    0  0.00000000000E+00  0.00000000000E+00 -0.90223495846E+03  0.90223495846E+03  0.25500000920E-02 0. -1.
    10030    2    1    2    0    0  0.00000000000E+00  0.00000000000E+00 -0.50339109507E+03  0.13010788219E+04  0.11997514351E+04 0.  0.
        3    1    3    3  502    0 -0.37671268947E+03  0.41765359304E+03 -0.47788710262E+03  0.73805356664E+03  0.10100000352E+00 0. -1.
       -3    1    3    3    0  502  0.37671268947E+03 -0.41765359304E+03 -0.25503992450E+02  0.56302525522E+03  0.10100000352E+00 0.  1.
</event>
<event>
 5   0  0.5108045E-03  0.1203277E+04  0.7818609E-02  0.9109993E-01
       -2   -1    0    0    0  501  0.00000000000E+00  0.00000000000E+00  0.21286806020E+03  0.21286806021E+03  0.25500000920E-02 0. -1.
        2   -1    0    0  501    0  0.00000000000E+00  0.00000000000E+00 -0.17004388216E+04  0.17004388216E+04  0.25500000920E-02 0.  1.
    10030    2    1    2    0    0  0.00000000000E+00  0.00000000000E+00 -0.14875707614E+04  0.19133068819E+04  0.12032773803E+04 0.  0.
        3    1    3    3  502    0  0.21961211069E+03  0.16616439689E+02  0.14646543972E+03  0.26449521822E+03  0.10100000352E+00 0. -1.
       -3    1    3    3    0  502 -0.21961211069E+03 -0.16616439689E+02 -0.16340362012E+04  0.16488116636E+04  0.10100000352E+00 0.  1.
</event>
<event>
 5   0  0.5467554E-03  0.1160139E+04  0.7818609E-02  0.9148481E-01
        2   -1    0    0  501    0  0.00000000000E+00  0.00000000000E+00  0.45064016967E+03  0.45064016968E+03  0.25500000920E-02 0. -1.
       -2   -1    0    0    0  501  0.00000000000E+00  0.00000000000E+00 -0.74667207732E+03  0.74667207732E+03  0.25500000920E-02 0.  1.
    10030    2    1    2    0    0  0.00000000000E+00  0.00000000000E+00 -0.29603190765E+03  0.11973122470E+04  0.11601386669E+04 0.  0.
        1    1    3    3  502    0  0.30019548039E+03 -0.25846290038E+03  0.28930709056E+03  0.49052929576E+03  0.50400001928E-02 0. -1.
       -1    1    3    3    0  502 -0.30019548039E+03  0.25846290038E+03 -0.58533899821E+03  0.70678295124E+03  0.50400001928E-02 0.  1.
</event>
<event>
 5   0  0.2875848E-03  0.1151210E+04  0.7818609E-02  0.9156668E-01
       -1   -1    0    0    0  501  0.00000000000E+00  0.00000000000E+00  0.51077034859E+03  0.51077034862E+03  0.50400001928E-02 0.  1.
        1   -1    0    0  501    0  0.00000000000E+00  0.00000000000E+00 -0.64866953436E+03  0.64866953438E+03  0.50400001928E-02 0. -1.
    10030    2    1    2    0    0  0.00000000000E+00  0.00000000000E+00 -0.13789918577E+03  0.11594398830E+04  0.11512100837E+04 0.  0.
        1    1    3    3  502    0  0.35661602192E+03  0.26644980455E+03 -0.43645636190E+03  0.62342974048E+03  0.50400001928E-02 0. -1.
       -1    1    3    3    0  502 -0.35661602192E+03 -0.26644980455E+03  0.29855717613E+03  0.53601014252E+03  0.50400001928E-02 0.  1.
</event>
<event>
 5   0  0.5003526E-03  0.1014849E+04  0.7818609E-02  0.9292407E-01
       -2   -1    0    0    0  501  0.00000000000E+00  0.00000000000E+00  0.83937548089E+03  0.83937548089E+03  0.25500000920E-02 0. -1.
        2   -1    0    0  501    0  0.00000000000E+00  0.00000000000E+00 -0.30675113673E+03  0.30675113674E+03  0.25500000920E-02 0.  1.
    10030    2    1    2    0    0  0.00000000000E+00  0.00000000000E+00  0.53262434415E+03  0.11461266176E+04  0.10148485265E+04 0.  0.
        2    1    3    3  502    0  0.37958551808E+03 -0.22129369041E+03  0.55296281759E+03  0.70627469202E+03  0.25500000920E-02 0. -1.
       -2    1    3    3    0  502 -0.37958551808E+03  0.22129369041E+03 -0.20338473435E+02  0.43985192561E+03  0.25500000920E-02 0.  1.
</event>
<event>
 5   0  0.5108045E-03  0.1176374E+04  0.7818609E-02  0.9133792E-01
       -2   -1    0    0    0  501  0.00000000000E+00  0.00000000000E+00  0.20334368943E+03  0.20334368945E+03  0.25500000920E-02 0.  1.
        2   -1    0    0  501    0  0.00000000000E+00  0.00000000000E+00 -0.17013739862E+04  0.17013739862E+04  0.25500000920E-02 0. -1.
    10030    2    1    2    0    0  0.00000000000E+00  0.00000000000E+00 -0.14980302968E+04  0.19047176756E+04  0.11763735180E+04 0.  0.
        3    1    3    3  502    0 -0.27119340019E+03 -0.51638378267E+03 -0.87195903769E+03  0.10490522603E+04  0.10100000352E+00 0. -1.
       -3    1    3    3    0  502  0.27119340019E+03  0.51638378267E+03 -0.62607125907E+03  0.85566541530E+03  0.10100000352E+00 0.  1.
</event>
<event>
 5   0  0.2875848E-03  0.1232839E+04  0.7818609E-02  0.9084589E-01
       -1   -1    0    0    0  501  0.00000000000E+00  0.00000000000E+00  0.77205175587E+03  0.77205175588E+03  0.50400001928E-02 0.  1.
        1   -1    0    0  501    0  0.00000000000E+00  0.00000000000E+00 -0.49215995897E+03  0.49215995899E+03  0.50400001928E-02 0. -1.
    10030    2    1    2    0    0  0.00000000000E+00  0.00000000000E+00  0.27989179690E+03  0.12642117149E+04  0.12328389360E+04 0.  0.
        1    1    3    3  502    0  0.32234371092E+01 -0.55422840110E+03 -0.13672253945E+03  0.57085248878E+03  0.50400001928E-02 0. -1.
       -1    1    3    3    0  502 -0.32234371092E+01  0.55422840110E+03  0.41661433635E+03  0.69335922609E+03  0.50400001928E-02 0.  1.
</event>
<event>
 5   0  0.5189537E-03  0.1202662E+04  0.7818609E-02  0.9110530E-01
       -2   -1    0    0    0  501  0.00000000000E+00  0.00000000000E+00  0.25923845949E+03  0.25923845950E+03  0.25500000920E-02 0.  1.
        2   -1    0    0  501    0  0.00000000000E+00  0.00000000000E+00 -0.13948509735E+04  0.13948509735E+04  0.25500000920E-02 0. -1.
    10030    2    1    2    0    0  0.00000000000E+00  0.00000000000E+00 -0.11356125140E+04  0.16540894330E+04  0.12026620765E+04 0.  0.
        4    1    3    3  502    0  0.33687235456E+02  0.49612078055E+03 -0.10328451668E+04  0.11463164529E+04  0.12699999809E+01 0. -1.
       -4    1    3    3    0  502 -0.33687235456E+02 -0.49612078055E+03 -0.10276734716E+03  0.50777298005E+03  0.12699999809E+01 0.  1.
</event>
<event>
 5   0  0.1922125E-03  0.1205272E+04  0.7818609E-02  0.9108255E-01
       -3   -1    0    0    0  501  0.00000000000E+00  0.00000000000E+00  0.19530103981E+04  0.19530104007E+04  0.10100000352E+00 0.  1.
        3   -1    0    0  501    0  0.00000000000E+00  0.00000000000E+00 -0.18595394302E+03  0.18595397045E+03  0.10100000352E+00 0. -1.
    10030    2    1    2    0    0  0.00000000000E+00  0.00000000000E+00  0.17670564551E+04  0.21389643712E+04  0.12052717808E+04 0.  0.
        4    1    3    3  502    0 -0.49435385565E+02 -0.51557455078E+03  0.14302528910E+04  0.15211462519E+04  0.12699999809E+01 0.  1.
       -4    1    3    3    0  502  0.49435385565E+02  0.51557455078E+03  0.33680356414E+03  0.61781811925E+03  0.12699999809E+01 0. -1.
</event>
<event>
 5   0  0.5031575E-03  0.1202146E+04  0.7818609E-02  0.9110980E-01
        2   -1    0    0  501    0  0.00000000000E+00  0.00000000000E+00  0.68927880398E+03  0.68927880399E+03  0.25500000920E-02 0. -1.
       -2   -1    0    0    0  501  0.00000000000E+00  0.00000000000E+00 -0.52415495930E+03  0.52415495931E+03  0.25500000920E-02 0.  1.
    10030    2    1    2    0    0  0.00000000000E+00  0.00000000000E+00  0.16512384468E+03  0.12134337633E+04  0.12021462531E+04 0.  0.
        5    1    3    3  502    0  0.50654587514E+03 -0.12518845025E+03  0.38370179857E+03  0.64769594095E+03  0.46999998093E+01 0. -1.
       -5    1    3    3    0  502 -0.50654587514E+03  0.12518845025E+03 -0.21857795389E+03  0.56573782234E+03  0.46999998093E+01 0.  1.
</event>
<event>
 5   0  0.5189537E-03  0.1195387E+04  0.7818609E-02  0.9116903E-01
        2   -1    0    0  501    0  0.00000000000E+00  0.00000000000E+00  0.16365615776E+04  0.16365615776E+04  0.25500000920E-02 0. -1.
       -2   -1    0    0    0  501  0.00000000000E+00  0.00000000000E+00 -0.21828557527E+03  0.21828557529E+03  0.25500000920E-02 0.  1.
    10030    2    1    2    0    0  0.00000000000E+00  0.00000000000E+00  0.14182760023E+04  0.18548471528E+04  0.11953874442E+04 0.  0.
        4    1    3    3  502    0  0.92491714963E+01  0.95871882794E+02 -0.20616229809E+03  0.22755542432E+03  0.12699999809E+01 0.  1.
       -4    1    3    3    0  502 -0.92491714963E+01 -0.95871882794E+02  0.16244383004E+04  0.16272917285E+04  0.12699999809E+01 0. -1.
</event>
<event>
 5   0  0.5108045E-03  0.1194104E+04  0.7818609E-02  0.9118033E-01
        2   -1    0    0  501    0  0.00000000000E+00  0.00000000000E+00  0.98714085290E+03  0.98714085291E+03  0.25500000920E-02 0.  1.
       -2   -1    0    0    0  501  0.00000000000E+00  0.00000000000E+00 -0.36111464739E+03  0.36111464740E+03  0.25500000920E-02 0. -1.
    10030    2    1    2    0    0  0.00000000000E+00  0.00000000000E+00  0.62602620552E+03  0.13482555003E+04  0.11941038833E+04 0.  0.
        3    1    3    3  502    0  0.13370129361E+03 -0.39453055576E+03  0.79594418471E+03  0.89836381868E+03  0.10100000352E+00 0.  1.
       -3    1    3    3    0  502 -0.13370129361E+03  0.39453055576E+03 -0.16991797919E+03  0.44989168163E+03  0.10100000352E+00 0. -1.
</event>
<event>
 5   0  0.5031575E-03  0.1117776E+04  0.7818609E-02  0.9188037E-01
       -2   -1    0    0    0  501  0.00000000000E+00  0.00000000000E+00  0.78723299048E+03  0.78723299048E+03  0.25500000920E-02 0.  1.
        2   -1    0    0  501    0  0.00000000000E+00  0.00000000000E+00 -0.39677695271E+03  0.39677695272E+03  0.25500000920E-02 0. -1.
    10030    2    1    2    0    0  0.00000000000E+00  0.00000000000E+00  0.39045603777E+03  0.11840099432E+04  0.11177761977E+04 0.  0.
        5    1    3    3  502    0 -0.37418269439E+03 -0.41484512994E+03  0.21110435359E+03  0.59724057860E+03  0.46999998093E+01 0.  1.
       -5    1    3    3    0  502  0.37418269439E+03  0.41484512994E+03  0.17935168418E+03  0.58676936460E+03  0.46999998093E+01 0. -1.
</event>
<event>
 5   0  0.5189537E-03  0.1192467E+04  0.7818609E-02  0.9119476E-01
        2   -1    0    0  501    0  0.00000000000E+00  0.00000000000E+00  0.56381229693E+03  0.56381229693E+03  0.25500000920E-02 0.  1.
       -2   -1    0    0    0  501  0.00000000000E+00  0.00000000000E+00 -0.63051901799E+03  0.63051901800E+03  0.25500000920E-02 0. -1.
    10030    2    1    2    0    0  0.00000000000E+00  0.00000000000E+00 -0.66706721069E+02  0.11943313149E+04  0.11924669820E+04 0.  0.
        4    1    3    3  502    0  0.30673624659E+03  0.50017457280E+03 -0.13949562293E+03  0.60309399762E+03  0.12699999809E+01 0. -1.
       -4    1    3    3    0  502 -0.30673624659E+03 -0.50017457280E+03  0.72788901857E+02  0.59123731731E+03  0.12699999809E+01 0.  1.
</event>
<event>
 5   0  0.5108045E-03  0.1205775E+04  0.7818609E-02  0.9107817E-01
       -2   -1    0    0    0  501  0.00000000000E+00  0.00000000000E+00  0.44249790121E+03  0.44249790122E+03  0.25500000920E-02 0.  1.
        2   -1    0    0  501    0  0.00000000000E+00  0.00000000000E+00 -0.82141261954E+03  0.82141261954E+03  0.25500000920E-02 0. -1.
    10030    2    1    2    0    0  0.00000000000E+00  0.00000000000E+00 -0.37891471832E+03  0.12639105208E+04  0.12057750374E+04 0.  0.
        3    1    3    3  502    0 -0.42190544294E+03 -0.10246188629E+03 -0.62792012209E+03  0.76340443465E+03  0.10100000352E+00 0. -1.
       -3    1    3    3    0  502  0.42190544294E+03  0.10246188629E+03  0.24900540377E+03  0.50050608611E+03  0.10100000352E+00 0.  1.
</event>
<event>
 5   0  0.2926844E-03  0.1166013E+04  0.7818609E-02  0.9143137E-01
        1   -1    0    0  501    0  0.00000000000E+00  0.00000000000E+00  0.95673573383E+03  0.95673573384E+03  0.50400001928E-02 0. -1.
       -1   -1    0    0    0  501  0.00000000000E+00  0.00000000000E+00 -0.35526702231E+03  0.35526702235E+03  0.50400001928E-02 0.  1.
    10030    2    1    2    0    0  0.00000000000E+00  0.00000000000E+00  0.60146871152E+03  0.13120027562E+04  0.11660131309E+04 0.  0.
        5    1    3    3  502    0 -0.22050664167E+03  0.41293381882E+03  0.69171169080E+03  0.83523928962E+03  0.46999998093E+01 0. -1.
       -5    1    3    3    0  502  0.22050664167E+03 -0.41293381882E+03 -0.90242979284E+02  0.47676346657E+03  0.46999998093E+01 0.  1.
</event>
<event>
 5   0  0.5467554E-03  0.1222329E+04  0.7818609E-02  0.9093534E-01
        2   -1    0    0  501    0  0.00000000000E+00  0.00000000000E+00  0.74430178099E+03  0.74430178099E+03  0.25500000920E-02 0. -1.
       -2   -1    0    0    0  501  0.00000000000E+00  0.00000000000E+00 -0.50184190633E+03  0.50184190634E+03  0.25500000920E-02 0.  1.
    10030    2    1    2    0    0  0.00000000000E+00  0.00000000000E+00  0.24245987466E+03  0.12461436873E+04  0.12223286377E+04 0.  0.
        1    1    3    3  502    0  0.18262255559E+03  0.57209561823E+03  0.55402250155E+01  0.60056231011E+03  0.50400001928E-02 0.  1.
       -1    1    3    3    0  502 -0.18262255559E+03 -0.57209561823E+03  0.23691964964E+03  0.64558137722E+03  0.50400001928E-02 0. -1.
</event>
<event>
 5   0  0.2930868E-03  0.1203999E+04  0.7818609E-02  0.9109363E-01
        1   -1    0    0  501    0  0.00000000000E+00  0.00000000000E+00  0.22250256160E+04  0.22250256160E+04  0.50400001928E-02 0.  1.
       -1   -1    0    0    0  501  0.00000000000E+00  0.00000000000E+00 -0.16287609359E+03  0.16287609367E+03  0.50400001928E-02 0. -1.
    10030    2    1    2    0    0  0.00000000000E+00  0.00000000000E+00  0.20621495224E+04  0.23879017097E+04  0.12039991372E+04 0.  0.
        3    1    3    3  502    0  0.39182401526E+03  0.11148689868E+02  0.19372386608E+04  0.19764979108E+04  0.10100000352E+00 0.  1.
       -3    1    3    3    0  502 -0.39182401526E+03 -0.11148689868E+02  0.12491086166E+03  0.41140379894E+03  0.10100000352E+00 0. -1.
</event>
<event>
 5   0  0.5189537E-03  0.1234104E+04  0.7818609E-02  0.9083518E-01
        2   -1    0    0  501    0  0.00000000000E+00  0.00000000000E+00  0.10981743706E+04  0.10981743706E+04  0.25500000920E-02 0.  1.
       -2   -1    0    0    0  501  0.00000000000E+00  0.00000000000E+00 -0.34671485222E+03  0.34671485223E+03  0.25500000920E-02 0. -1.
    10030    2    1    2    0    0  0.00000000000E+00  0.00000000000E+00  0.75145951838E+03  0.14448892228E+04  0.12341043143E+04 0.  0.
        4    1    3    3  502    0  0.39250716876E+03  0.10038524314E+03  0.92063955613E+03  0.10058418761E+04  0.12699999809E+01 0.  1.
       -4    1    3    3    0  502 -0.39250716876E+03 -0.10038524314E+03 -0.16918003775E+03  0.43904734669E+03  0.12699999809E+01 0. -1.
</event>
<event>
 5   0  0.5467554E-03  0.1222780E+04  0.7818609E-02  0.9093147E-01
       -2   -1    0    0    0  501  0.00000000000E+00  0.00000000000E+00  0.11201003501E+04  0.11201003501E+04  0.25500000920E-02 0. -1.
        2   -1    0    0  501    0  0.00000000000E+00  0.00000000000E+00 -0.33371831891E+03  0.33371831892E+03  0.25500000920E-02 0.  1.
    10030    2    1    2    0    0  0.00000000000E+00  0.00000000000E+00  0.78638203114E+03  0.14538186690E+04  0.12227804477E+04 0.  0.
        1    1    3    3  502    0 -0.98237158460E+02 -0.17304700451E+03 -0.29414073864E+03  0.35512614552E+03  0.50400001928E-02 0.  1.
       -1    1    3    3    0  502  0.98237158460E+02  0.17304700451E+03  0.10805227698E+04  0.10986925235E+04  0.50400001928E-02 0. -1.
</event>
<event>
 5   0  0.1922125E-03  0.1201885E+04  0.7818609E-02  0.9111208E-01
       -3   -1    0    0    0  501  0.00000000000E+00  0.00000000000E+00  0.14588929379E+04  0.14588929414E+04  0.10100000352E+00 0. -1.
        3   -1    0    0  501    0  0.00000000000E+00  0.00000000000E+00 -0.24753843768E+03  0.24753845829E+03  0.10100000352E+00 0.  1.
    10030    2    1    2    0    0  0.00000000000E+00  0.00000000000E+00  0.12113545003E+04  0.17064313997E+04  0.12018853509E+04 0.  0.
        3    1    3    3  502    0  0.54911999260E+03  0.63108745498E+02  0.94051008881E+03  0.10909054576E+04  0.10100000352E+00 0. -1.
       -3    1    3    3    0  502 -0.54911999260E+03 -0.63108745498E+02  0.27084441145E+03  0.61552594214E+03  0.10100000352E+00 0.  1.
</event>
<event>
 5   0  0.5189537E-03  0.1252599E+04  0.7818609E-02  0.9068023E-01
       -2   -1    0    0    0  501  0.00000000000E+00  0.00000000000E+00  0.49408111602E+03  0.49408111603E+03  0.25500000920E-02 0. -1.
        2   -1    0    0  501    0  0.00000000000E+00  0.00000000000E+00 -0.79390064105E+03  0.79390064105E+03  0.25500000920E-02 0.  1.
    10030    2    1    2    0    0  0.00000000000E+00  0.00000000000E+00 -0.29981952503E+03  0.12879817571E+04  0.12525994008E+04 0.  0.
        4    1    3    3  502    0 -0.15993994893E+03  0.48807866548E+03  0.21861052949E+03  0.55820582894E+03  0.12699999809E+01 0. -1.
       -4    1    3    3    0  502  0.15993994893E+03 -0.48807866548E+03 -0.51843005452E+03  0.72977592814E+03  0.12699999809E+01 0.  1.
</event>
<event>
 5   0  0.5467554E-03  0.1152174E+04  0.7818609E-02  0.9155780E-01
        2   -1    0    0  501    0  0.00000000000E+00  0.00000000000E+00  0.11878808861E+04  0.11878808861E+04  0.25500000920E-02 0.  1.
       -2   -1    0    0    0  501  0.00000000000E+00  0.00000000000E+00 -0.27938516440E+03  0.27938516441E+03  0.25500000920E-02 0. -1.
    10030    2    1    2    0    0  0.00000000000E+00  0.00000000000E+00  0.90849572173E+03  0.14672660505E+04  0.11521741130E+04 0.  0.
        1    1    3    3  502    0 -0.24836332395E+03  0.13287081810E+03  0.10942088833E+04  0.11298814430E+04  0.50400001928E-02 0.  1.
       -1    1    3    3    0  502  0.24836332395E+03 -0.13287081810E+03 -0.18571316157E+03  0.33738460752E+03  0.50400001928E-02 0. -1.
</event>
<event>
 5   0  0.2938349E-03  0.1209408E+04  0.7818609E-02  0.9104661E-01
       -1   -1    0    0    0  501  0.00000000000E+00  0.00000000000E+00  0.25634703175E+03  0.25634703180E+03  0.50400001928E-02 0.  1.
        1   -1    0    0  501    0  0.00000000000E+00  0.00000000000E+00 -0.14264530591E+04  0.14264530591E+04  0.50400001928E-02 0. -1.
    10030    2    1    2    0    0  0.00000000000E+00  0.00000000000E+00 -0.11701060273E+04  0.16828000909E+04  0.12094081324E+04 0.  0.
        4    1    3    3  502    0 -0.35639346817E+03 -0.30415132474E+03 -0.53133684636E+02  0.47153911168E+03  0.12699999809E+01 0.  1.
       -4    1    3    3    0  502  0.35639346817E+03  0.30415132474E+03 -0.11169723427E+04  0.12112609792E+04  0.12699999809E+01 0. -1.
</event>
<event>
 5   0  0.1922125E-03  0.1199070E+04  0.7818609E-02  0.9113671E-01
        3   -1    0    0  501    0  0.00000000000E+00  0.00000000000E+00  0.57192738741E+03  0.57192739633E+03  0.10100000352E+00 0. -1.
       -3   -1    0    0    0  501  0.00000000000E+00  0.00000000000E+00 -0.62847565029E+03  0.62847565841E+03  0.10100000352E+00 0.  1.
    10030    2    1    2    0    0  0.00000000000E+00  0.00000000000E+00 -0.56548262879E+02  0.12004030547E+04  0.11990703848E+04 0.  0.
        5    1    3    3  502    0  0.10727217429E+03  0.22037852659E+03  0.51945948167E+03  0.57439904026E+03  0.46999998093E+01 0. -1.
       -5    1    3    3    0  502 -0.10727217429E+03 -0.22037852659E+03 -0.57600774455E+03  0.62600401448E+03  0.46999998093E+01 0.  1.
</event>
<event>
 5   0  0.2926844E-03  0.1183719E+04  0.7818609E-02  0.9127228E-01
        1   -1    0    0  501    0  0.00000000000E+00  0.00000000000E+00  0.83549874501E+03  0.83549874502E+03  0.50400001928E-02 0.  1.
       -1   -1    0    0    0  501  0.00000000000E+00  0.00000000000E+00 -0.41926788418E+03  0.41926788421E+03  0.50400001928E-02 0. -1.
    10030    2    1    2    0    0  0.00000000000E+00  0.00000000000E+00  0.41623086083E+03  0.12547666292E+04  0.11837192084E+04 0.  0.
        5    1    3    3  502    0 -0.57314714008E+03  0.93543942367E+02  0.87126324184E+02  0.58724883967E+03  0.46999998093E+01 0.  1.
       -5    1    3    3    0  502  0.57314714008E+03 -0.93543942367E+02  0.32910453665E+03  0.66751778956E+03  0.46999998093E+01 0. -1.
</event>
<event>
 5   0  0.5189537E-03  0.1205564E+04  0.7818609E-02  0.9108000E-01
        2   -1    0    0  501    0  0.00000000000E+00  0.00000000000E+00  0.17133559746E+04  0.17133559746E+04  0.25500000920E-02 0. -1.
       -2   -1    0    0    0  501  0.00000000000E+00  0.00000000000E+00 -0.21206693226E+03  0.21206693228E+03  0.25500000920E-02 0.  1.
    10030    2    1    2    0    0  0.00000000000E+00  0.00000000000E+00  0.15012890423E+04  0.19254229069E+04  0.12055640098E+04 0.  0.
        4    1    3    3  502    0 -0.44684149395E+02 -0.20102547165E+03 -0.15414069674E+03  0.25723312530E+03  0.12699999809E+01 0.  1.
       -4    1    3    3    0  502  0.44684149395E+02  0.20102547165E+03  0.16554297391E+04  0.16681897816E+04  0.12699999809E+01 0. -1.
</event>
<event>
 5   0  0.5108045E-03  0.1214360E+04  0.7818609E-02  0.9100379E-01
        2   -1    0    0  501    0  0.00000000000E+00  0.00000000000E+00  0.76280096723E+03  0.76280096723E+03  0.25500000920E-02 0. -1.
       -2   -1    0    0    0  501  0.00000000000E+00  0.00000000000E+00 -0.48330766905E+03  0.48330766906E+03  0.25500000920E-02 0.  1.
    10030    2    1    2    0    0  0.00000000000E+00  0.00000000000E+00  0.27949329818E+03  0.12461086363E+04  0.12143600083E+04 0.  0.
        3    1    3    3  502    0  0.50556822873E+01 -0.13694030376E+03 -0.46723254600E+03  0.48691320475E+03  0.10100000352E+00 0.  1.
       -3    1    3    3    0  502 -0.50556822873E+01  0.13694030376E+03  0.74672584418E+03  0.75919543154E+03  0.10100000352E+00 0. -1.
</event>
<event>
 5   0  0.5003526E-03  0.1200951E+04  0.7818609E-02  0.9112024E-01
       -2   -1    0    0    0  501  0.00000000000E+00  0.00000000000E+00  0.40186678654E+03  0.40186678655E+03  0.25500000920E-02 0. -1.
        2   -1    0    0  501    0  0.00000000000E+00  0.00000000000E+00 -0.89724011989E+03  0.89724011989E+03  0.25500000920E-02 0.  1.
    10030    2    1    2    0    0  0.00000000000E+00  0.00000000000E+00 -0.49537333335E+03  0.12991069064E+04  0.12009512958E+04 0.  0.
        2    1    3    3  502    0  0.17894213924E+03  0.38447827185E+03 -0.70755258491E+03  0.82490877747E+03  0.25500000920E-02 0.  1.
       -2    1    3    3    0  502 -0.17894213924E+03 -0.38447827185E+03  0.21217925156E+03  0.47419812897E+03  0.25500000920E-02 0. -1.
</event>
<event>
 5   0  0.5031575E-03  0.1128253E+04  0.7818609E-02  0.9178084E-01
        2   -1    0    0  501    0  0.00000000000E+00  0.00000000000E+00  0.25270513743E+04  0.25270513743E+04  0.25500000920E-02 0. -1.
       -2   -1    0    0    0  501  0.00000000000E+00  0.00000000000E+00 -0.12593277283E+03  0.12593277286E+03  0.25500000920E-02 0.  1.
    10030    2    1    2    0    0  0.00000000000E+00  0.00000000000E+00  0.24011186015E+04  0.26529841472E+04  0.11282527850E+04 0.  0.
        5    1    3    3  502    0  0.87331839770E+02 -0.41377599832E+03  0.32269574183E+03  0.53196997925E+03  0.46999998093E+01 0.  1.
       -5    1    3    3    0  502 -0.87331839770E+02  0.41377599832E+03  0.20784228597E+04  0.21210141680E+04  0.46999998093E+01 0. -1.
</event>
<event>
 5   0  0.5003526E-03  0.1212399E+04  0.7818609E-02  0.9102073E-01
        2   -1    0    0  501    0  0.00000000000E+00  0.00000000000E+00  0.15838731420E+04  0.15838731420E+04  0.25500000920E-02 0.  1.
       -2   -1    0    0    0  501  0.00000000000E+00  0.00000000000E+00 -0.23201205585E+03  0.23201205586E+03  0.25500000920E-02 0. -1.
    10030    2    1    2    0    0  0.00000000000E+00  0.00000000000E+00  0.13518610861E+04  0.18158851979E+04  0.12123987197E+04 0.  0.
        2    1    3    3  502    0 -0.10140949142E+03 -0.50151852474E+03  0.11628137904E+04  0.12704096295E+04  0.25500000920E-02 0.  1.
       -2    1    3    3    0  502  0.10140949142E+03  0.50151852474E+03  0.18904729572E+03  0.54547556832E+03  0.25500000920E-02 0. -1.
</event>
<event>
 5   0  0.2930868E-03  0.1325896E+04  0.7818609E-02  0.9009278E-01
       -1   -1    0    0    0  501  0.00000000000E+00  0.00000000000E+00  0.68779685831E+03  0.68779685833E+03  0.50400001928E-02 0.  1.
        1   -1    0    0  501    0  0.00000000000E+00  0.00000000000E+00 -0.63899703632E+03  0.63899703634E+03  0.50400001928E-02 0. -1.
    10030    2    1    2    0    0  0.00000000000E+00  0.00000000000E+00  0.48799821986E+02  0.13267938947E+04  0.13258961559E+04 0.  0.
        3    1    3    3  502    0 -0.52156937867E+03 -0.23058115507E+03  0.36270848049E+03  0.67584002386E+03  0.10100000352E+00 0.  1.
       -3    1    3    3    0  502  0.52156937867E+03  0.23058115507E+03 -0.31390865850E+03  0.65095387081E+03  0.10100000352E+00 0. -1.
</event>
<event>
 5   0  0.5467554E-03  0.1268248E+04  0.7818609E-02  0.9055131E-01
        2   -1    0    0  501    0  0.00000000000E+00  0.00000000000E+00  0.16138307038E+04  0.16138307038E+04  0.25500000920E-02 0. -1.
       -2   -1    0    0    0  501  0.00000000000E+00  0.00000000000E+00 -0.24916680371E+03  0.24916680372E+03  0.25500000920E-02 0.  1.
    10030    2    1    2    0    0  0.00000000000E+00  0.00000000000E+00  0.13646639000E+04  0.18629975075E+04  0.12682476701E+04 0.  0.
        1    1    3    3  502    0 -0.33324378780E+03 -0.37931854236E+03  0.12458803387E+04  0.13443034617E+04  0.50400001928E-02 0. -1.
       -1    1    3    3    0  502  0.33324378780E+03  0.37931854236E+03  0.11878356136E+03  0.51869404582E+03  0.50400001928E-02 0.  1.
</event>
<event>
 5   0  0.2792518E-03  0.1203203E+04  0.7818609E-02  0.9110058E-01
       -1   -1    0    0    0  501  0.00000000000E+00  0.00000000000E+00  0.54974875495E+03  0.54974875497E+03  0.50400001928E-02 0. -1.
        1   -1    0    0  501    0  0.00000000000E+00  0.00000000000E+00 -0.65834486246E+03  0.65834486248E+03  0.50400001928E-02 0.  1.
    10030    2    1    2    0    0  0.00000000000E+00  0.00000000000E+00 -0.10859610752E+03  0.12080936175E+04  0.12032028399E+04 0.  0.
        2    1    3    3  502    0  0.12409412079E+03 -0.58430407586E+03 -0.12609861875E+03  0.61050099552E+03  0.25500000920E-02 0.  1.
       -2    1    3    3    0  502 -0.12409412079E+03  0.58430407586E+03  0.17502511232E+02  0.59759262193E+03  0.25500000920E-02 0. -1.
</event>
<event>
 5   0  0.2938349E-03  0.1201509E+04  0.7818609E-02  0.9111537E-01
       -1   -1    0    0    0  501  0.00000000000E+00  0.00000000000E+00  0.42201209927E+03  0.42201209930E+03  0.50400001928E-02 0.  1.
        1   -1    0    0  501    0  0.00000000000E+00  0.00000000000E+00 -0.85520234653E+03  0.85520234654E+03  0.50400001928E-02 0. -1.
    10030    2    1    2    0    0  0.00000000000E+00  0.00000000000E+00 -0.43319024725E+03  0.12772144458E+04  0.12015086144E+04 0.  0.
        4    1    3    3  502    0  0.40708466481E+03 -0.10406750898E+03  0.23982601777E+03  0.48380378507E+03  0.12699999809E+01 0.  1.
       -4    1    3    3    0  502 -0.40708466481E+03  0.10406750898E+03 -0.67301626502E+03  0.79341066078E+03  0.12699999809E+01 0. -1.
</event>
<event>
 5   0  0.5108045E-03  0.1023692E+04  0.7818609E-02  0.9282935E-01
       -2   -1    0    0    0  501  0.00000000000E+00  0.00000000000E+00  0.19694732962E+03  0.19694732964E+03  0.25500000920E-02 0. -1.
        2   -1    0    0  501    0  0.00000000000E+00  0.00000000000E+00 -0.13302352491E+04  0.13302352491E+04  0.25500000920E-02 0.  1.
    10030    2    1    2    0    0  0.00000000000E+00  0.00000000000E+00 -0.11332879195E+04  0.15271825787E+04  0.10236919070E+04 0.  0.
        3    1    3    3  502    0  0.45907992270E+03  0.58784621010E+02 -0.24056124438E+03  0.52161262408E+03  0.10100000352E+00 0. -1.
       -3    1    3    3    0  502 -0.45907992270E+03 -0.58784621010E+02 -0.89272667507E+03  0.10055699546E+04  0.10100000352E+00 0.  1.
</event>
<event>
 5   0  0.5031575E-03  0.1233930E+04  0.7818609E-02  0.9083666E-01
        2   -1    0    0  501    0  0.00000000000E+00  0.00000000000E+00  0.22028876971E+04  0.22028876971E+04  0.25500000920E-02 0. -1.
       -2   -1    0    0    0  501  0.00000000000E+00  0.00000000000E+00 -0.17279393047E+03  0.17279393049E+03  0.25500000920E-02 0.  1.
    10030    2    1    2    0    0  0.00000000000E+00  0.00000000000E+00  0.20300937667E+04  0.23756816276E+04  0.12339296959E+04 0.  0.
        5    1    3    3  502    0  0.20057566863E+03  0.54113842548E+03  0.14349300973E+04  0.15466440666E+04  0.46999998093E+01 0. -1.
       -5    1    3    3    0  502 -0.20057566863E+03 -0.54113842548E+03  0.59516366933E+03  0.82903756108E+03  0.46999998093E+01 0.  1.
</event>
<event>
 5   0  0.1922125E-03  0.9152619E+03  0.7818609E-02  0.9406702E-01
       -3   -1    0    0    0  501  0.00000000000E+00  0.00000000000E+00  0.58747041721E+03  0.58747042589E+03  0.10100000352E+00 0.  1.
        3   -1    0    0  501    0  0.00000000000E+00  0.00000000000E+00 -0.35648790123E+03  0.35648791554E+03  0.10100000352E+00 0. -1.
    10030    2    1    2    0    0  0.00000000000E+00  0.00000000000E+00  0.23098251598E+03  0.94395834143E+03  0.91526194484E+03 0.  0.
        3    1    3    3  502    0 -0.25372748504E+03 -0.12315850692E+03  0.48717991044E+03  0.56292977345E+03  0.10100000352E+00 0.  1.
       -3    1    3    3    0  502  0.25372748504E+03  0.12315850692E+03 -0.25619739446E+03  0.38102856799E+03  0.10100000352E+00 0. -1.
</event>
<event>
 5   0  0.5031575E-03  0.1226077E+04  0.7818609E-02  0.9090333E-01
        2   -1    0    0  501    0  0.00000000000E+00  0.00000000000E+00  0.49608591627E+03  0.49608591628E+03  0.25500000920E-02 0. -1.
       -2   -1    0    0    0  501  0.00000000000E+00  0.00000000000E+00 -0.75756285209E+03  0.75756285209E+03  0.25500000920E-02 0.  1.
    10030    2    1    2    0    0  0.00000000000E+00  0.00000000000E+00 -0.26147693582E+03  0.12536487684E+04  0.12260770965E+04 0.  0.
        5    1    3    3  502    0  0.32497359887E+03 -0.37652412492E+03 -0.49714864177E+03  0.70324755145E+03  0.46999998093E+01 0.  1.
       -5    1    3    3    0  502 -0.32497359887E+03  0.37652412492E+03  0.23567170595E+03  0.55040121692E+03  0.46999998093E+01 0. -1.
</event>
<event>
 5   0  0.5467554E-03  0.1196278E+04  0.7818609E-02  0.9116121E-01
       -2   -1    0    0    0  501  0.00000000000E+00  0.00000000000E+00  0.27608199792E+03  0.27608199793E+03  0.25500000920E-02 0.  1.
        2   -1    0    0  501    0  0.00000000000E+00  0.00000000000E+00 -0.12958833644E+04  0.12958833644E+04  0.25500000920E-02 0. -1.
    10030    2    1    2    0    0  0.00000000000E+00  0.00000000000E+00 -0.10198013665E+04  0.15719653624E+04  0.11962776740E+04 0.  0.
        1    1    3    3  502    0 -0.13108422277E+03  0.23588680640E+03 -0.12113415180E+04  0.12410374419E+04  0.50400001928E-02 0. -1.
       -1    1    3    3    0  502  0.13108422277E+03 -0.23588680640E+03  0.19154015150E+03  0.33092792048E+03  0.50400001928E-02 0.  1.
</event>
<event>
 5   0  0.2938349E-03  0.1187984E+04  0.7818609E-02  0.9123439E-01
       -1   -1    0    0    0  501  0.00000000000E+00  0.00000000000E+00  0.22457135256E+03  0.22457135262E+03  0.50400001928E-02 0.  1.
        1   -1    0    0  501    0  0.00000000000E+00  0.00000000000E+00 -0.15711114139E+04  0.15711114139E+04  0.50400001928E-02 0. -1.
    10030    2    1    2    0    0  0.00000000000E+00  0.00000000000E+00 -0.13465400613E+04  0.17956827665E+04  0.11879842007E+04 0.  0.
        4    1    3    3  502    0  0.33323795131E+02  0.29924358444E+03 -0.14472124097E+04  0.14782024793E+04  0.12699999809E+01 0. -1.
       -4    1    3    3    0  502 -0.33323795131E+02 -0.29924358444E+03  0.10067234836E+03  0.31748028722E+03  0.12699999809E+01 0.  1.
</event>
<event>
 5   0  0.1922125E-03  0.1166036E+04  0.7818609E-02  0.9143116E-01
       -3   -1    0    0    0  501  0.00000000000E+00  0.00000000000E+00  0.63347462267E+03  0.63347463073E+03  0.10100000352E+00 0.  1.
        3   -1    0    0  501    0  0.00000000000E+00  0.00000000000E+00 -0.53657992017E+03  0.53657992968E+03  0.10100000352E+00 0. -1.
    10030    2    1    2    0    0  0.00000000000E+00  0.00000000000E+00  0.96894702500E+02  0.11700545604E+04  0.11660356302E+04 0.  0.
        4    1    3    3  502    0  0.50657072806E+03  0.27811562624E+03  0.12582314707E+03  0.59143493415E+03  0.12699999809E+01 0.  1.
       -4    1    3    3    0  502 -0.50657072806E+03 -0.27811562624E+03 -0.28928444573E+02  0.57861962626E+03  0.12699999809E+01 0. -1.
</event>
<event>
 5   0  0.5031575E-03  0.1200219E+04  0.7818609E-02  0.9112665E-01
       -2   -1    0    0    0  501  0.00000000000E+00  0.00000000000E+00  0.33195487653E+03  0.33195487654E+03  0.25500000920E-02 0.  1.
        2   -1    0    0  501    0  0.00000000000E+00  0.00000000000E+00 -0.10848812775E+04  0.10848812775E+04  0.25500000920E-02 0. -1.
    10030    2    1    2    0    0  0.00000000000E+00  0.00000000000E+00 -0.75292640097E+03  0.14168361540E+04  0.12002193642E+04 0.  0.
        5    1    3    3  502    0  0.34632970152E+03  0.36807973060E+03  0.54777559433E+01  0.50544935062E+03  0.46999998093E+01 0.  1.
       -5    1    3    3    0  502 -0.34632970152E+03 -0.36807973060E+03 -0.75840415692E+03  0.91138680343E+03  0.46999998093E+01 0. -1.
</event>
<event>
 5   0  0.5003526E-03  0.1195308E+04  0.7818609E-02  0.9116974E-01
       -2   -1    0    0    0  501  0.00000000000E+00  0.00000000000E+00  0.39490363594E+03  0.39490363595E+03  0.25500000920E-02 0.  1.
        2   -1    0    0  501    0  0.00000000000E+00  0.00000000000E+00 -0.90449957365E+03  0.90449957365E+03  0.25500000920E-02 0. -1.
    10030    2    1    2    0    0  0.00000000000E+00  0.00000000000E+00 -0.50959593771E+03  0.12994032096E+04  0.11953077768E+04 0.  0.
        2    1    3    3  502    0 -0.20046771316E+02 -0.12973914224E+03 -0.88863203735E+03  0.89827669227E+03  0.25500000920E-02 0. -1.
       -2    1    3    3    0  502  0.20046771316E+02  0.12973914224E+03  0.37903609963E+03  0.40112651733E+03  0.25500000920E-02 0.  1.
</event>
<event>
 5   0  0.5108045E-03  0.1207835E+04  0.7818609E-02  0.9106026E-01
        2   -1    0    0  501    0  0.00000000000E+00  0.00000000000E+00  0.16455468475E+04  0.16455468475E+04  0.25500000920E-02 0.  1.
       -2   -1    0    0    0  501  0.00000000000E+00  0.00000000000E+00 -0.22163828350E+03  0.22163828351E+03  0.25500000920E-02 0. -1.
    10030    2    1    2    0    0  0.00000000000E+00  0.00000000000E+00  0.14239085640E+04  0.18671851310E+04  0.12078347217E+04 0.  0.
        3    1    3    3  502    0  0.52637975590E+03 -0.89052228933E+02  0.27550188957E+03  0.60075556448E+03  0.10100000352E+00 0. -1.
       -3    1    3    3    0  502 -0.52637975590E+03  0.89052228933E+02  0.11484066744E+04  0.12664295665E+04  0.10100000352E+00 0.  1.
</event>
<event>
 5   0  0.2875848E-03  0.1158642E+04  0.7818609E-02  0.9149848E-01
       -1   -1    0    0    0  501  0.00000000000E+00  0.00000000000E+00  0.43157238397E+03  0.43157238400E+03  0.50400001928E-02 0.  1.
        1   -1    0    0  501    0  0.00000000000E+00  0.00000000000E+00 -0.77765164500E+03  0.77765164502E+03  0.50400001928E-02 0. -1.
    10030    2    1    2    0    0  0.00000000000E+00  0.00000000000E+00 -0.34607926103E+03  0.12092240290E+04  0.11586422647E+04 0.  0.
        1    1    3    3  502    0  0.11600813243E+02 -0.51266174481E+03 -0.45435543597E+03  0.68512444540E+03  0.50400001928E-02 0. -1.
       -1    1    3    3    0  502 -0.11600813243E+02  0.51266174481E+03  0.10827617495E+03  0.52409958362E+03  0.50400001928E-02 0.  1.
</event>
<event>
 5   0  0.5108045E-03  0.1195604E+04  0.7818609E-02  0.9116713E-01
       -2   -1    0    0    0  501  0.00000000000E+00  0.00000000000E+00  0.15941978930E+03  0.15941978932E+03  0.25500000920E-02 0. -1.
        2   -1    0    0  501    0  0.00000000000E+00  0.00000000000E+00 -0.22416728866E+04  0.22416728866E+04  0.25500000920E-02 0.  1.
    10030    2    1    2    0    0  0.00000000000E+00  0.00000000000E+00 -0.20822530973E+04  0.24010926760E+04  0.11956036455E+04 0.  0.
        3    1    3    3  502    0 -0.43275103243E+03 -0.30849637408E+03 -0.15908330046E+04  0.16772576211E+04  0.10100000352E+00 0.  1.
       -3    1    3    3    0  502  0.43275103243E+03  0.30849637408E+03 -0.49142009279E+03  0.72383505489E+03  0.10100000352E+00 0. -1.
</event>
<event>
 5   0  0.1922125E-03  0.1201568E+04  0.7818609E-02  0.9111485E-01
        4   -1    0    0  501    0  0.00000000000E+00  0.00000000000E+00  0.26800409196E+03  0.26800710104E+03  0.12699999809E+01 0. -1.
       -4   -1    0    0    0  501  0.00000000000E+00  0.00000000000E+00 -0.13467654968E+04  0.13467660956E+04  0.12699999809E+01 0.  1.
    10030    2    1    2    0    0  0.00000000000E+00  0.00000000000E+00 -0.10787614048E+04  0.16147731966E+04  0.12015682702E+04 0.  0.
        2    1    3    3  502    0  0.46520617097E+03 -0.28828305583E+03 -0.20633044984E+03  0.58488986683E+03  0.25500000920E-02 0.  1.
       -2    1    3    3    0  502 -0.46520617097E+03  0.28828305583E+03 -0.87243095495E+03  0.10298833298E+04  0.25500000920E-02 0. -1.
</event>
<event>
 5   0  0.2875848E-03  0.1185295E+04  0.7818609E-02  0.9125826E-01
        1   -1    0    0  501    0  0.00000000000E+00  0.00000000000E+00  0.61613062670E+03  0.61613062672E+03  0.50400001928E-02 0. -1.
       -1   -1    0    0    0  501  0.00000000000E+00  0.00000000000E+00 -0.57005910093E+03  0.57005910095E+03  0.50400001928E-02 0.  1.
    10030    2    1    2    0    0  0.00000000000E+00  0.00000000000E+00  0.46071525773E+02  0.11861897277E+04  0.11852946826E+04 0.  0.
        1    1    3    3  502    0  0.19239035638E+02  0.55765528279E+03  0.22288963364E+03  0.60085717415E+03  0.50400001928E-02 0.  1.
       -1    1    3    3    0  502 -0.19239035638E+02 -0.55765528279E+03 -0.17681810787E+03  0.58533255353E+03  0.50400001928E-02 0. -1.
</event>
<event>
 5   0  0.2792518E-03  0.1216094E+04  0.7818609E-02  0.9098885E-01
        1   -1    0    0  501    0  0.00000000000E+00  0.00000000000E+00  0.15524746831E+04  0.15524746831E+04  0.50400001928E-02 0.  1.
       -1   -1    0    0    0  501  0.00000000000E+00  0.00000000000E+00 -0.23814959823E+03  0.23814959828E+03  0.50400001928E-02 0. -1.
    10030    2    1    2    0    0  0.00000000000E+00  0.00000000000E+00  0.13143250848E+04  0.17906242813E+04  0.12160941116E+04 0.  0.
        2    1    3    3  502    0 -0.37316280341E+03  0.19189635016E+02  0.13634767697E+04  0.14137494904E+04  0.25500000920E-02 0.  1.
       -2    1    3    3    0  502  0.37316280341E+03 -0.19189635016E+02 -0.49151684893E+02  0.37687479098E+03  0.25500000920E-02 0. -1.
</event>
<event>
 5   0  0.5189537E-03  0.1215301E+04  0.7818609E-02  0.9099568E-01
        2   -1    0    0  501    0  0.00000000000E+00  0.00000000000E+00  0.99361849921E+03  0.99361849921E+03  0.25500000920E-02 0. -1.
       -2   -1    0    0    0  501  0.00000000000E+00  0.00000000000E+00 -0.37161047049E+03  0.37161047050E+03  0.25500000920E-02 0.  1.
    10030    2    1    2    0    0  0.00000000000E+00  0.00000000000E+00  0.62200802872E+03  0.13652289697E+04  0.12153008483E+04 0.  0.
        4    1    3    3  502    0 -0.37606461062E+03 -0.23953567351E+03 -0.15276498748E+03  0.47131802909E+03  0.12699999809E+01 0.  1.
       -4    1    3    3    0  502  0.37606461062E+03  0.23953567351E+03  0.77477301619E+03  0.89391094063E+03  0.12699999809E+01 0. -1.
</event>
<event>
 5   0  0.5189537E-03  0.8778282E+03  0.7818609E-02  0.9453730E-01
       -2   -1    0    0    0  501  0.00000000000E+00  0.00000000000E+00  0.24618704096E+03  0.24618704097E+03  0.25500000920E-02 0.  1.
        2   -1    0    0  501    0  0.00000000000E+00  0.00000000000E+00 -0.78251723112E+03  0.78251723112E+03  0.25500000920E-02 0. -1.
    10030    2    1    2    0    0  0.00000000000E+00  0.00000000000E+00 -0.53633019016E+03  0.10287042721E+04  0.87782823294E+03 0.  0.
        4    1    3    3  502    0  0.32550144161E+03 -0.19798485607E+03 -0.12775019446E+02  0.38120074206E+03  0.12699999809E+01 0. -1.
       -4    1    3    3    0  502 -0.32550144161E+03  0.19798485607E+03 -0.52355517071E+03  0.64750353003E+03  0.12699999809E+01 0.  1.
</event>
<event>
 5   0  0.5003526E-03  0.1201482E+04  0.7818609E-02  0.9111560E-01
       -2   -1    0    0    0  501  0.00000000000E+00  0.00000000000E+00  0.53488591637E+03  0.53488591637E+03  0.25500000920E-02 0. -1.
        2   -1    0    0  501    0  0.00000000000E+00  0.00000000000E+00 -0.67470420743E+03  0.67470420744E+03  0.25500000920E-02 0.  1.
    10030    2    1    2    0    0  0.00000000000E+00  0.00000000000E+00 -0.13981829106E+03  0.12095901238E+04  0.12014820486E+04 0.  0.
        2    1    3    3  502    0 -0.57939875066E+03 -0.15859549690E+03 -0.75808241364E+02  0.60547694702E+03  0.25500000920E-02 0. -1.
       -2    1    3    3    0  502  0.57939875066E+03  0.15859549690E+03 -0.64010049700E+02  0.60411317679E+03  0.25500000920E-02 0.  1.
</event>
<event>
 5   0  0.5467554E-03  0.1196640E+04  0.7818609E-02  0.9115803E-01
       -2   -1    0    0    0  501  0.00000000000E+00  0.00000000000E+00  0.29712145523E+03  0.29712145524E+03  0.25500000920E-02 0.  1.
        2   -1    0    0  501    0  0.00000000000E+00  0.00000000000E+00 -0.12048497894E+04  0.12048497894E+04  0.25500000920E-02 0. -1.
    10030    2    1    2    0    0  0.00000000000E+00  0.00000000000E+00 -0.90772833418E+03  0.15019712446E+04  0.11966398335E+04 0.  0.
        1    1    3    3  502    0 -0.11989068055E+03  0.41747042413E+03  0.62631761618E+02  0.43883717697E+03  0.50400001928E-02 0.  1.
       -1    1    3    3    0  502  0.11989068055E+03 -0.41747042413E+03 -0.97036009580E+03  0.10631340677E+04  0.50400001928E-02 0. -1.
</event>
<event>
 5   0  0.5189537E-03  0.1193526E+04  0.7818609E-02  0.9118542E-01
       -2   -1    0    0    0  501  0.00000000000E+00  0.00000000000E+00  0.17427466330E+04  0.17427466330E+04  0.25500000920E-02 0. -1.
        2   -1    0    0  501    0  0.00000000000E+00  0.00000000000E+00 -0.20434770538E+03  0.20434770540E+03  0.25500000920E-02 0.  1.
    10030    2    1    2    0    0  0.00000000000E+00  0.00000000000E+00  0.15383989277E+04  0.19470943384E+04  0.11935263307E+04 0.  0.
        4    1    3    3  502    0 -0.41203200449E+03  0.40065684628E+03  0.50701703328E+03  0.76639687247E+03  0.12699999809E+01 0.  1.
       -4    1    3    3    0  502  0.41203200449E+03 -0.40065684628E+03  0.10313818944E+04  0.11806974660E+04  0.12699999809E+01 0. -1.
</event>
<event>
 5   0  0.5031575E-03  0.1228856E+04  0.7818609E-02  0.9087967E-01
        2   -1    0    0  501    0  0.00000000000E+00  0.00000000000E+00  0.16575240627E+04  0.16575240627E+04  0.25500000920E-02 0.  1.
       -2   -1    0    0    0  501  0.00000000000E+00  0.00000000000E+00 -0.22776239333E+03  0.22776239334E+03  0.25500000920E-02 0. -1.
    10030    2    1    2    0    0  0.00000000000E+00  0.00000000000E+00  0.14297616694E+04  0.18852864561E+04  0.12288558053E+04 0.  0.
        5    1    3    3  502    0  0.27472958235E+03 -0.23420445987E+03 -0.47857554963E+02  0.36419844591E+03  0.46999998093E+01 0. -1.
       -5    1    3    3    0  502 -0.27472958235E+03  0.23420445987E+03  0.14776192244E+04  0.15210880102E+04  0.46999998093E+01 0.  1.
</event>
<event>
 5   0  0.2930868E-03  0.1190537E+04  0.7818609E-02  0.9121180E-01
       -1   -1    0    0    0  501  0.00000000000E+00  0.00000000000E+00  0.20708389709E+03  0.20708389715E+03  0.50400001928E-02 0.  1.
        1   -1    0    0  501    0  0.00000000000E+00  0.00000000000E+00 -0.17111149071E+04  0.17111149071E+04  0.50400001928E-02 0. -1.
    10030    2    1    2    0    0  0.00000000000E+00  0.00000000000E+00 -0.15040310100E+04  0.19181988043E+04  0.11905365906E+04 0.  0.
        3    1    3    3  502    0 -0.18633258514E+03  0.15484296001E+03  0.12405378633E+03  0.27218656589E+03  0.10100000352E+00 0.  1.
       -3    1    3    3    0  502  0.18633258514E+03 -0.15484296001E+03 -0.16280847963E+04  0.16460122384E+04  0.10100000352E+00 0. -1.
</event>
<event>
 5   0  0.2930868E-03  0.1204275E+04  0.7818609E-02  0.9109122E-01
       -1   -1    0    0    0  501  0.00000000000E+00  0.00000000000E+00  0.49839488471E+03  0.49839488473E+03  0.50400001928E-02 0.  1.
        1   -1    0    0  501    0  0.00000000000E+00  0.00000000000E+00 -0.72747500768E+03  0.72747500769E+03  0.50400001928E-02 0. -1.
    10030    2    1    2    0    0  0.00000000000E+00  0.00000000000E+00 -0.22908012297E+03  0.12258698924E+04  0.12042754213E+04 0.  0.
        3    1    3    3  502    0  0.23852593649E+03  0.55183906956E+03 -0.14904225380E+03  0.61938242201E+03  0.10100000352E+00 0. -1.
       -3    1    3    3    0  502 -0.23852593649E+03 -0.55183906956E+03 -0.80037869169E+02  0.60648747042E+03  0.10100000352E+00 0.  1.
</event>
<event>
 5   0  0.2938349E-03  0.1172276E+04  0.7818609E-02  0.9137475E-01
       -1   -1    0    0    0  501  0.00000000000E+00  0.00000000000E+00  0.28324848183E+03  0.28324848188E+03  0.50400001928E-02 0. -1.
        1   -1    0    0  501    0  0.00000000000E+00  0.00000000000E+00 -0.12129200909E+04  0.12129200909E+04  0.50400001928E-02 0.  1.
    10030    2    1    2    0    0  0.00000000000E+00  0.00000000000E+00 -0.92967160907E+03  0.14961685728E+04  0.11722760330E+04 0.  0.
        4    1    3    3  502    0 -0.15365333110E+03  0.55802043064E+03 -0.58291894298E+03  0.82145739643E+03  0.12699999809E+01 0. -1.
       -4    1    3    3    0  502  0.15365333110E+03 -0.55802043064E+03 -0.34675266609E+03  0.67471117636E+03  0.12699999809E+01 0.  1.
</event>
<event>
 5   0  0.2875848E-03  0.1204366E+04  0.7818609E-02  0.9109044E-01
       -1   -1    0    0    0  501  0.00000000000E+00  0.00000000000E+00  0.30510054155E+03  0.30510054160E+03  0.50400001928E-02 0. -1.
        1   -1    0    0  501    0  0.00000000000E+00  0.00000000000E+00 -0.11885401553E+04  0.11885401553E+04  0.50400001928E-02 0.  1.
    10030    2    1    2    0    0  0.00000000000E+00  0.00000000000E+00 -0.88343961376E+03  0.14936406969E+04  0.12043658001E+04 0.  0.
        1    1    3    3  502    0  0.70233944534E+02 -0.18797830332E+03 -0.11458538313E+04  0.11632925910E+04  0.50400001928E-02 0.  1.
       -1    1    3    3    0  502 -0.70233944534E+02  0.18797830332E+03  0.26241421756E+03  0.33034810592E+03  0.50400001928E-02 0. -1.
</event>
<event>
 5   0  0.5467554E-03  0.1227133E+04  0.7818609E-02  0.9089433E-01
       -2   -1    0    0    0  501  0.00000000000E+00  0.00000000000E+00  0.89096312496E+03  0.89096312496E+03  0.25500000920E-02 0.  1.
        2   -1    0    0  501    0  0.00000000000E+00  0.00000000000E+00 -0.42253560042E+03  0.42253560042E+03  0.25500000920E-02 0. -1.
    10030    2    1    2    0    0  0.00000000000E+00  0.00000000000E+00  0.46842752454E+03  0.13134987254E+04  0.12271326562E+04 0.  0.
        1    1    3    3  502    0  0.38955756348E+03  0.14765895149E+03  0.71636681502E+03  0.82869757748E+03  0.50400001928E-02 0.  1.
       -1    1    3    3    0  502 -0.38955756348E+03 -0.14765895149E+03 -0.24793929048E+03  0.48480114791E+03  0.50400001928E-02 0. -1.
</event>
<event>
 5   0  0.5189537E-03  0.1193323E+04  0.7818609E-02  0.9118721E-01
        2   -1    0    0  501    0  0.00000000000E+00  0.00000000000E+00  0.58282792339E+03  0.58282792339E+03  0.25500000920E-02 0. -1.
       -2   -1    0    0    0  501  0.00000000000E+00  0.00000000000E+00 -0.61082312100E+03  0.61082312101E+03  0.25500000920E-02 0.  1.
    10030    2    1    2    0    0  0.00000000000E+00  0.00000000000E+00 -0.27995197616E+02  0.11936510444E+04  0.11933227077E+04 0.  0.
        4    1    3    3  502    0  0.24711449654E+03 -0.46853849474E+02 -0.55520311980E+03  0.60951864184E+03  0.12699999809E+01 0.  1.
       -4    1    3    3    0  502 -0.24711449654E+03  0.46853849474E+02  0.52720792219E+03  0.58413240256E+03  0.12699999809E+01 0. -1.
</event>
<event>
 5   0  0.5003526E-03  0.1268377E+04  0.7818609E-02  0.9055025E-01
       -2   -1    0    0    0  501  0.00000000000E+00  0.00000000000E+00  0.48990772521E+03  0.48990772522E+03  0.25500000920E-02 0.  1.
        2   -1    0    0  501    0  0.00000000000E+00  0.00000000000E+00 -0.82096074037E+03  0.82096074038E+03  0.25500000920E-02 0. -1.
    10030    2    1    2    0    0  0.00000000000E+00  0.00000000000E+00 -0.33105301516E+03  0.13108684656E+04  0.12683769295E+04 0.  0.
        2    1    3    3  502    0  0.42046364689E+03  0.29425753922E+03  0.21953792817E+03  0.55818821168E+03  0.25500000920E-02 0.  1.
       -2    1    3    3    0  502 -0.42046364689E+03 -0.29425753922E+03 -0.55059094333E+03  0.75268025391E+03  0.25500000920E-02 0. -1.
</event>
<event>
 5   0  0.2926844E-03  0.1142718E+04  0.7818609E-02  0.9164528E-01
        1   -1    0    0  501    0  0.00000000000E+00  0.00000000000E+00  0.22927454656E+04  0.22927454656E+04  0.50400001928E-02 0.  1.
       -1   -1    0    0    0  501  0.00000000000E+00  0.00000000000E+00 -0.14238442313E+03  0.14238442322E+03  0.50400001928E-02 0. -1.
    10030    2    1    2    0    0  0.00000000000E+00  0.00000000000E+00  0.21503610424E+04  0.24351298888E+04  0.11427182341E+04 0.  0.
        5    1    3    3  502    0 -0.33686374914E+03 -0.17822004493E+02  0.92528669323E+02  0.34982631973E+03  0.46999998093E+01 0. -1.
       -5    1    3    3    0  502  0.33686374914E+03  0.17822004493E+02  0.20578323731E+04  0.20853035691E+04  0.46999998093E+01 0.  1.
</event>
<event>
 5   0  0.2930868E-03  0.1198473E+04  0.7818609E-02  0.9114194E-01
       -1   -1    0    0    0  501  0.00000000000E+00  0.00000000000E+00  0.34278562202E+03  0.34278562206E+03  0.50400001928E-02 0. -1.
        1   -1    0    0  501    0  0.00000000000E+00  0.00000000000E+00 -0.10475487119E+04  0.10475487119E+04  0.50400001928E-02 0.  1.
    10030    2    1    2    0    0  0.00000000000E+00  0.00000000000E+00 -0.70476308991E+03  0.13903343340E+04  0.11984734237E+04 0.  0.
        3    1    3    3  502    0 -0.33462914802E+03 -0.25232948718E+03 -0.84924292847E+03  0.94702713718E+03  0.10100000352E+00 0.  1.
       -3    1    3    3    0  502  0.33462914802E+03  0.25232948718E+03  0.14447983856E+03  0.44330719682E+03  0.10100000352E+00 0. -1.
</event>
<event>
 5   0  0.5467554E-03  0.1187233E+04  0.7818609E-02  0.9124105E-01
       -2   -1    0    0    0  501  0.00000000000E+00  0.00000000000E+00  0.22783293690E+03  0.22783293691E+03  0.25500000920E-02 0.  1.
        2   -1    0    0  501    0  0.00000000000E+00  0.00000000000E+00 -0.15466626368E+04  0.15466626368E+04  0.25500000920E-02 0. -1.
    10030    2    1    2    0    0  0.00000000000E+00  0.00000000000E+00 -0.13188296999E+04  0.17744955737E+04  0.11872332390E+04 0.  0.
        1    1    3    3  502    0 -0.52201592944E+02 -0.26343155428E+03 -0.14506745470E+04  0.14753229583E+04  0.50400001928E-02 0. -1.
       -1    1    3    3    0  502  0.52201592944E+02  0.26343155428E+03  0.13184484705E+03  0.29917261542E+03  0.50400001928E-02 0.  1.
</event>
<event>
 5   0  0.2938349E-03  0.1188609E+04  0.7818609E-02  0.9122886E-01
        1   -1    0    0  501    0  0.00000000000E+00  0.00000000000E+00  0.73177083641E+03  0.73177083643E+03  0.50400001928E-02 0.  1.
       -1   -1    0    0    0  501  0.00000000000E+00  0.00000000000E+00 -0.48266200696E+03  0.48266200699E+03  0.50400001928E-02 0. -1.
    10030    2    1    2    0    0  0.00000000000E+00  0.00000000000E+00  0.24910882945E+03  0.12144328434E+04  0.11886092387E+04 0.  0.
        4    1    3    3  502    0 -0.36595969942E+03 -0.46333488153E+03  0.55328027899E+02  0.59301645645E+03  0.12699999809E+01 0. -1.
       -4    1    3    3    0  502  0.36595969942E+03  0.46333488153E+03  0.19378080155E+03  0.62141638697E+03  0.12699999809E+01 0.  1.
</event>
<event>
 5   0  0.2930868E-03  0.1221197E+04  0.7818609E-02  0.9094502E-01
       -1   -1    0    0    0  501  0.00000000000E+00  0.00000000000E+00  0.47505106271E+03  0.47505106273E+03  0.50400001928E-02 0.  1.
        1   -1    0    0  501    0  0.00000000000E+00  0.00000000000E+00 -0.78482224786E+03  0.78482224787E+03  0.50400001928E-02 0. -1.
    10030    2    1    2    0    0  0.00000000000E+00  0.00000000000E+00 -0.30977118515E+03  0.12598733106E+04  0.12211971879E+04 0.  0.
        3    1    3    3  502    0  0.44826008378E+02  0.55945544804E+03  0.93211067766E+02  0.56893592145E+03  0.10100000352E+00 0.  1.
       -3    1    3    3    0  502 -0.44826008378E+02 -0.55945544804E+03 -0.40298225292E+03  0.69093738915E+03  0.10100000352E+00 0. -1.
</event>
<event>
 5   0  0.2875848E-03  0.1204203E+04  0.7818609E-02  0.9109185E-01
        1   -1    0    0  501    0  0.00000000000E+00  0.00000000000E+00  0.69290028771E+03  0.69290028773E+03  0.50400001928E-02 0.  1.
       -1   -1    0    0    0  501  0.00000000000E+00  0.00000000000E+00 -0.52320136688E+03  0.52320136691E+03  0.50400001928E-02 0. -1.
    10030    2    1    2    0    0  0.00000000000E+00  0.00000000000E+00  0.16969892082E+03  0.12161016546E+04  0.12042032680E+04 0.  0.
        1    1    3    3  502    0  0.28106348872E+03  0.16917863294E+03  0.59472250391E+03  0.67920022910E+03  0.50400001928E-02 0.  1.
       -1    1    3    3    0  502 -0.28106348872E+03 -0.16917863294E+03 -0.42502358308E+03  0.53690142553E+03  0.50400001928E-02 0. -1.
</event>
<event>
 5   0  0.2926844E-03  0.1215554E+04  0.7818609E-02  0.9099350E-01
        1   -1    0    0  501    0  0.00000000000E+00  0.00000000000E+00  0.14373392163E+04  0.14373392163E+04  0.50400001928E-02 0.  1.
       -1   -1    0    0    0  501  0.00000000000E+00  0.00000000000E+00 -0.25699777067E+03  0.25699777072E+03  0.50400001928E-02 0. -1.
    10030    2    1    2    0    0  0.00000000000E+00  0.00000000000E+00  0.11803414456E+04  0.16943369870E+04  0.12155541524E+04 0.  0.
        5    1    3    3  502    0 -0.14655408106E+03 -0.32958965825E+03  0.12719811741E+04  0.13221443335E+04  0.46999998093E+01 0.  1.
       -5    1    3    3    0  502  0.14655408106E+03  0.32958965825E+03 -0.91639728423E+02  0.37219265351E+03  0.46999998093E+01 0. -1.
</event>
<event>
 5   0  0.2930868E-03  0.1204280E+04  0.7818609E-02  0.9109119E-01
       -1   -1    0    0    0  501  0.00000000000E+00  0.00000000000E+00  0.10650817616E+04  0.10650817616E+04  0.50400001928E-02 0.  1.
        1   -1    0    0  501    0  0.00000000000E+00  0.00000000000E+00 -0.34041745451E+03  0.34041745455E+03  0.50400001928E-02 0. -1.
    10030    2    1    2    0    0  0.00000000000E+00  0.00000000000E+00  0.72466430711E+03  0.14054992162E+04  0.12042797386E+04 0.  0.
        3    1    3    3  502    0  0.20570112991E+03  0.50392470640E+02  0.10201801304E+04  0.10419308348E+04  0.10100000352E+00 0.  1.
       -3    1    3    3    0  502 -0.20570112991E+03 -0.50392470640E+02 -0.29551582325E+03  0.36356838137E+03  0.10100000352E+00 0. -1.
</event>
<event>
 5   0  0.5189537E-03  0.1170034E+04  0.7818609E-02  0.9139497E-01
        2   -1    0    0  501    0  0.00000000000E+00  0.00000000000E+00  0.75062244509E+03  0.75062244509E+03  0.25500000920E-02 0.  1.
       -2   -1    0    0    0  501  0.00000000000E+00  0.00000000000E+00 -0.45594836968E+03  0.45594836969E+03  0.25500000920E-02 0. -1.
    10030    2    1    2    0    0  0.00000000000E+00  0.00000000000E+00  0.29467407540E+03  0.12065708148E+04  0.11700343244E+04 0.  0.
        4    1    3    3  502    0 -0.20482640761E+03 -0.40402100073E+03  0.52910919796E+03  0.69652349749E+03  0.12699999809E+01 0.  1.
       -4    1    3    3    0  502  0.20482640761E+03  0.40402100073E+03 -0.23443512256E+03  0.51004731729E+03  0.12699999809E+01 0. -1.
</event>
<event>
 5   0  0.5467554E-03  0.1216166E+04  0.7818609E-02  0.9098823E-01
        2   -1    0    0  501    0  0.00000000000E+00  0.00000000000E+00  0.38719059715E+03  0.38719059716E+03  0.25500000920E-02 0.  1.
       -2   -1    0    0    0  501  0.00000000000E+00  0.00000000000E+00 -0.95499517208E+03  0.95499517208E+03  0.25500000920E-02 0. -1.
    10030    2    1    2    0    0  0.00000000000E+00  0.00000000000E+00 -0.56780457493E+03  0.13421857692E+04  0.12161663553E+04 0.  0.
        1    1    3    3  502    0 -0.58541112943E+03  0.15910029274E+03 -0.33001799688E+03  0.69060189103E+03  0.50400001928E-02 0. -1.
       -1    1    3    3    0  502  0.58541112943E+03 -0.15910029274E+03 -0.23778657805E+03  0.65158387820E+03  0.50400001928E-02 0.  1.
</event>
<event>
 5   0  0.2938349E-03  0.1216065E+04  0.7818609E-02  0.9098910E-01
        1   -1    0    0  501    0  0.00000000000E+00  0.00000000000E+00  0.18120562946E+04  0.18120562946E+04  0.50400001928E-02 0.  1.
       -1   -1    0    0    0  501  0.00000000000E+00  0.00000000000E+00 -0.20402425221E+03  0.20402425228E+03  0.50400001928E-02 0. -1.
    10030    2    1    2    0    0  0.00000000000E+00  0.00000000000E+00  0.16080320423E+04  0.20160805468E+04  0.12160648511E+04 0.  0.
        4    1    3    3  502    0 -0.21480163392E+02  0.12713629051E+03 -0.18109623929E+03  0.22231170587E+03  0.12699999809E+01 0. -1.
       -4    1    3    3    0  502  0.21480163392E+02 -0.12713629051E+03  0.17891282816E+04  0.17937688410E+04  0.12699999809E+01 0.  1.
</event>
<event>
 5   0  0.5031575E-03  0.1185911E+04  0.7818609E-02  0.9125279E-01
        2   -1    0    0  501    0  0.00000000000E+00  0.00000000000E+00  0.92562368646E+03  0.92562368646E+03  0.25500000920E-02 0.  1.
       -2   -1    0    0    0  501  0.00000000000E+00  0.00000000000E+00 -0.37984778144E+03  0.37984778145E+03  0.25500000920E-02 0. -1.
    10030    2    1    2    0    0  0.00000000000E+00  0.00000000000E+00  0.54577590502E+03  0.13054714679E+04  0.11859107956E+04 0.  0.
        5    1    3    3  502    0 -0.83151871727E+02 -0.22048574132E+02  0.91869705890E+03  0.92272788482E+03  0.46999998093E+01 0.  1.
       -5    1    3    3    0  502  0.83151871727E+02  0.22048574132E+02 -0.37292115388E+03  0.38274358309E+03  0.46999998093E+01 0. -1.
</event>
<event>
 5   0  0.2938349E-03  0.1225643E+04  0.7818609E-02  0.9090703E-01
        1   -1    0    0  501    0  0.00000000000E+00  0.00000000000E+00  0.27918850446E+03  0.27918850451E+03  0.50400001928E-02 0. -1.
       -1   -1    0    0    0  501  0.00000000000E+00  0.00000000000E+00 -0.13451490909E+04  0.13451490909E+04  0.50400001928E-02 0.  1.
    10030    2    1    2    0    0  0.00000000000E+00  0.00000000000E+00 -0.10659605864E+04  0.16243375954E+04  0.12256429545E+04 0.  0.
        4    1    3    3  502    0  0.40793746547E+03 -0.44910103187E+03 -0.41863698155E+03  0.73713177098E+03  0.12699999809E+01 0.  1.
       -4    1    3    3    0  502 -0.40793746547E+03  0.44910103187E+03 -0.64732360486E+03  0.88720582441E+03  0.12699999809E+01 0. -1.
</event>
<event>
 5   0  0.2875848E-03  0.1221242E+04  0.7818609E-02  0.9094464E-01
       -1   -1    0    0    0  501  0.00000000000E+00  0.00000000000E+00  0.94016201903E+03  0.94016201905E+03  0.50400001928E-02 0. -1.
        1   -1    0    0  501    0  0.00000000000E+00  0.00000000000E+00 -0.39658879609E+03  0.39658879612E+03  0.50400001928E-02 0.  1.
    10030    2    1    2    0    0  0.00000000000E+00  0.00000000000E+00  0.54357322295E+03  0.13367508152E+04  0.12212415376E+04 0.  0.
        1    1    3    3  502    0 -0.48566207437E+03  0.36164483443E+03  0.18557757141E+03  0.63331956529E+03  0.50400001928E-02 0.  1.
       -1    1    3    3    0  502  0.48566207437E+03 -0.36164483443E+03  0.35799565154E+03  0.70343124987E+03  0.50400001928E-02 0. -1.
</event>
<event>
 5   0  0.2875848E-03  0.1216220E+04  0.7818609E-02  0.9098776E-01
       -1   -1    0    0    0  501  0.00000000000E+00  0.00000000000E+00  0.42811802885E+03  0.42811802888E+03  0.50400001928E-02 0.  1.
        1   -1    0    0  501    0  0.00000000000E+00  0.00000000000E+00 -0.86377565767E+03  0.86377565768E+03  0.50400001928E-02 0. -1.
    10030    2    1    2    0    0  0.00000000000E+00  0.00000000000E+00 -0.43565762881E+03  0.12918936866E+04  0.12162202629E+04 0.  0.
        1    1    3    3  502    0 -0.45109600617E+03  0.30322473304E+03  0.71838227723E+02  0.54826414847E+03  0.50400001928E-02 0.  1.
       -1    1    3    3    0  502  0.45109600617E+03 -0.30322473304E+03 -0.50749585654E+03  0.74362953810E+03  0.50400001928E-02 0. -1.
</event>
<event>
 5   0  0.2930868E-03  0.1165769E+04  0.7818609E-02  0.9143358E-01
       -1   -1    0    0    0  501  0.00000000000E+00  0.00000000000E+00  0.22112548473E+03  0.22112548479E+03  0.50400001928E-02 0.  1.
        1   -1    0    0  501    0  0.00000000000E+00  0.00000000000E+00 -0.15364762291E+04  0.15364762291E+04  0.50400001928E-02 0. -1.
    10030    2    1    2    0    0  0.00000000000E+00  0.00000000000E+00 -0.13153507443E+04  0.17576017139E+04  0.11657685036E+04 0.  0.
        3    1    3    3  502    0  0.30096884535E+03  0.33768892196E+03 -0.12119141042E+04  0.12935810219E+04  0.10100000352E+00 0. -1.
       -3    1    3    3    0  502 -0.30096884535E+03 -0.33768892196E+03 -0.10343664010E+03  0.46402069200E+03  0.10100000352E+00 0.  1.
</event>
<event>
 5   0  0.5031575E-03  0.1175420E+04  0.7818609E-02  0.9134647E-01
        2   -1    0    0  501    0  0.00000000000E+00  0.00000000000E+00  0.10775329259E+04  0.10775329259E+04  0.25500000920E-02 0.  1.
       -2   -1    0    0    0  501  0.00000000000E+00  0.00000000000E+00 -0.32055010722E+03  0.32055010723E+03  0.25500000920E-02 0. -1.
    10030    2    1    2    0    0  0.00000000000E+00  0.00000000000E+00  0.75698281869E+03  0.13980830331E+04  0.11754204268E+04 0.  0.
        5    1    3    3  502    0 -0.50197364934E+03 -0.30074668200E+02  0.16741308971E+02  0.50317431545E+03  0.46999998093E+01 0. -1.
       -5    1    3    3    0  502  0.50197364934E+03  0.30074668200E+02  0.74024150972E+03  0.89490871769E+03  0.46999998093E+01 0.  1.
</event>
<event>
 5   0  0.5467554E-03  0.1180384E+04  0.7818609E-02  0.9130202E-01
        2   -1    0    0  501    0  0.00000000000E+00  0.00000000000E+00  0.17923359567E+04  0.17923359567E+04  0.25500000920E-02 0. -1.
       -2   -1    0    0    0  501  0.00000000000E+00  0.00000000000E+00 -0.19434209133E+03  0.19434209135E+03  0.25500000920E-02 0.  1.
    10030    2    1    2    0    0  0.00000000000E+00  0.00000000000E+00  0.15979938653E+04  0.19866780480E+04  0.11803835279E+04 0.  0.
        1    1    3    3  502    0 -0.54206861898E+03  0.20333428463E+03  0.60604317287E+03  0.83813575655E+03  0.50400001928E-02 0.  1.
       -1    1    3    3    0  502  0.54206861898E+03 -0.20333428463E+03  0.99195069247E+03  0.11485422915E+04  0.50400001928E-02 0. -1.
</event>
<event>
 5   0  0.2938349E-03  0.1170389E+04  0.7818609E-02  0.9139177E-01
       -1   -1    0    0    0  501  0.00000000000E+00  0.00000000000E+00  0.42241666506E+03  0.42241666509E+03  0.50400001928E-02 0.  1.
        1   -1    0    0  501    0  0.00000000000E+00  0.00000000000E+00 -0.81069890524E+03  0.81069890526E+03  0.50400001928E-02 0. -1.
    10030    2    1    2    0    0  0.00000000000E+00  0.00000000000E+00 -0.38828224018E+03  0.12331155703E+04  0.11703892138E+04 0.  0.
        4    1    3    3  502    0  0.56418254818E+03 -0.91285131509E+02 -0.32664373134E+03  0.65828007947E+03  0.12699999809E+01 0.  1.
       -4    1    3    3    0  502 -0.56418254818E+03  0.91285131509E+02 -0.61638508839E+02  0.57483549088E+03  0.12699999809E+01 0. -1.
</event>
<event>
 5   0  0.2930868E-03  0.1074846E+04  0.7818609E-02  0.9230062E-01
        1   -1    0    0  501    0  0.00000000000E+00  0.00000000000E+00  0.72028207242E+03  0.72028207244E+03  0.50400001928E-02 0. -1.
       -1   -1    0    0    0  501  0.00000000000E+00  0.00000000000E+00 -0.40098638723E+03  0.40098638726E+03  0.50400001928E-02 0.  1.
    10030    2    1    2    0    0  0.00000000000E+00  0.00000000000E+00  0.31929568519E+03  0.11212684597E+04  0.10748456746E+04 0.  0.
        3    1    3    3  502    0 -0.99819911465E+02  0.31445264521E+03  0.60220990975E+03  0.68665949815E+03  0.10100000352E+00 0. -1.
       -3    1    3    3    0  502  0.99819911465E+02 -0.31445264521E+03 -0.28291422455E+03  0.43460896155E+03  0.10100000352E+00 0.  1.
</event>
<event>
 5   0  0.5031575E-03  0.1181869E+04  0.7818609E-02  0.9128876E-01
       -2   -1    0    0    0  501  0.00000000000E+00  0.00000000000E+00  0.22693554819E+03  0.22693554821E+03  0.25500000920E-02 0. -1.
        2   -1    0    0  501    0  0.00000000000E+00  0.00000000000E+00 -0.15387782412E+04  0.15387782412E+04  0.25500000920E-02 0.  1.
    10030    2    1    2    0    0  0.00000000000E+00  0.00000000000E+00 -0.13118426930E+04  0.17657137894E+04  0.11818688315E+04 0.  0.
        5    1    3    3  502    0  0.20033115206E+03 -0.29288546344E+03 -0.13618539303E+04  0.14073317600E+04  0.46999998093E+01 0.  1.
       -5    1    3    3    0  502 -0.20033115206E+03  0.29288546344E+03  0.50011237275E+02  0.35838202945E+03  0.46999998093E+01 0. -1.
</event>
<event>
 5   0  0.2930868E-03  0.1204776E+04  0.7818609E-02  0.9108687E-01
        1   -1    0    0  501    0  0.00000000000E+00  0.00000000000E+00  0.68553694100E+03  0.68553694101E+03  0.50400001928E-02 0. -1.
       -1   -1    0    0    0  501  0.00000000000E+00  0.00000000000E+00 -0.52932387084E+03  0.52932387086E+03  0.50400001928E-02 0.  1.
    10030    2    1    2    0    0  0.00000000000E+00  0.00000000000E+00  0.15621307016E+03  0.12148608119E+04  0.12047756094E+04 0.  0.
        3    1    3    3  502    0  0.56788103009E+02  0.17966779552E+03  0.65505485275E+03  0.68161739686E+03  0.10100000352E+00 0. -1.
       -3    1    3    3    0  502 -0.56788103009E+02 -0.17966779552E+03 -0.49884178259E+03  0.53324341501E+03  0.10100000352E+00 0.  1.
</event>
<event>
 5   0  0.2930868E-03  0.1192602E+04  0.7818609E-02  0.9119356E-01
        1   -1    0    0  501    0  0.00000000000E+00  0.00000000000E+00  0.64676568043E+03  0.64676568045E+03  0.50400001928E-02 0. -1.
       -1   -1    0    0    0  501  0.00000000000E+00  0.00000000000E+00 -0.54977426826E+03  0.54977426828E+03  0.50400001928E-02 0.  1.
    10030    2    1    2    0    0  0.00000000000E+00  0.00000000000E+00  0.96991412167E+02  0.11965399487E+04  0.11926024127E+04 0.  0.
        3    1    3    3  502    0  0.19846689581E+03  0.85695377123E+02 -0.50907495935E+03  0.55307335032E+03  0.10100000352E+00 0.  1.
       -3    1    3    3    0  502 -0.19846689581E+03 -0.85695377123E+02  0.60606637152E+03  0.64346659842E+03  0.10100000352E+00 0. -1.
</event>
<event>
 5   0  0.5189537E-03  0.1199411E+04  0.7818609E-02  0.9113372E-01
        2   -1    0    0  501    0  0.00000000000E+00  0.00000000000E+00  0.12454324403E+04  0.12454324403E+04  0.25500000920E-02 0. -1.
       -2   -1    0    0    0  501  0.00000000000E+00  0.00000000000E+00 -0.28877257373E+03  0.28877257375E+03  0.25500000920E-02 0.  1.
    10030    2    1    2    0    0  0.00000000000E+00  0.00000000000E+00  0.95665986655E+03  0.15342050140E+04  0.11994110742E+04 0.  0.
        4    1    3    3  502    0  0.69894346843E+02  0.59391699293E+03  0.53585538634E+03  0.80297274062E+03  0.12699999809E+01 0.  1.
       -4    1    3    3    0  502 -0.69894346843E+02 -0.59391699293E+03  0.42080448021E+03  0.73123227341E+03  0.12699999809E+01 0. -1.
</event>
<event>
 5   0  0.5003526E-03  0.1208468E+04  0.7818609E-02  0.9105477E-01
       -2   -1    0    0    0  501  0.00000000000E+00  0.00000000000E+00  0.34961027588E+03  0.34961027589E+03  0.25500000920E-02 0.  1.
        2   -1    0    0  501    0  0.00000000000E+00  0.00000000000E+00 -0.10443018231E+04  0.10443018231E+04  0.25500000920E-02 0. -1.
    10030    2    1    2    0    0  0.00000000000E+00  0.00000000000E+00 -0.69469154719E+03  0.13939120990E+04  0.12084678705E+04 0.  0.
        2    1    3    3  502    0 -0.40479617648E+03  0.17001925757E+03  0.13148652836E+03  0.45831779322E+03  0.25500000920E-02 0. -1.
       -2    1    3    3    0  502  0.40479617648E+03 -0.17001925757E+03 -0.82617807554E+03  0.93559430575E+03  0.25500000920E-02 0.  1.
</event>
<event>
 5   0  0.2792518E-03  0.1198189E+04  0.7818609E-02  0.9114443E-01
        1   -1    0    0  501    0  0.00000000000E+00  0.00000000000E+00  0.10775592056E+04  0.10775592056E+04  0.50400001928E-02 0.  1.
       -1   -1    0    0    0  501  0.00000000000E+00  0.00000000000E+00 -0.33308058693E+03  0.33308058696E+03  0.50400001928E-02 0. -1.
    10030    2    1    2    0    0  0.00000000000E+00  0.00000000000E+00  0.74447861864E+03  0.14106397925E+04  0.11981887208E+04 0.  0.
        2    1    3    3  502    0  0.25992817277E+02 -0.25554951861E+03 -0.26495950154E+03  0.36903214016E+03  0.25500000920E-02 0. -1.
       -2    1    3    3    0  502 -0.25992817277E+02  0.25554951861E+03  0.10094381202E+04  0.10416076524E+04  0.25500000920E-02 0.  1.
</event>
<event>
 5   0  0.5003526E-03  0.1187807E+04  0.7818609E-02  0.9123596E-01
        2   -1    0    0  501    0  0.00000000000E+00  0.00000000000E+00  0.19997047649E+04  0.19997047649E+04  0.25500000920E-02 0. -1.
       -2   -1    0    0    0  501  0.00000000000E+00  0.00000000000E+00 -0.17638685856E+03  0.17638685858E+03  0.25500000920E-02 0.  1.
    10030    2    1    2    0    0  0.00000000000E+00  0.00000000000E+00  0.18233179064E+04  0.21760916235E+04  0.11878074618E+04 0.  0.
        2    1    3    3  502    0  0.93333437628E+02 -0.79723902296E+02  0.19762123990E+04  0.19800208275E+04  0.25500000920E-02 0. -1.
       -2    1    3    3    0  502 -0.93333437628E+02  0.79723902296E+02 -0.15289449264E+03  0.19607079605E+03  0.25500000920E-02 0.  1.
</event>
<event>
 5   0  0.2792518E-03  0.1200445E+04  0.7818609E-02  0.9112467E-01
       -1   -1    0    0    0  501  0.00000000000E+00  0.00000000000E+00  0.61158908941E+03  0.61158908943E+03  0.50400001928E-02 0. -1.
        1   -1    0    0  501    0  0.00000000000E+00  0.00000000000E+00 -0.58906760436E+03  0.58906760439E+03  0.50400001928E-02 0.  1.
    10030    2    1    2    0    0  0.00000000000E+00  0.00000000000E+00  0.22521485049E+02  0.12006566938E+04  0.12004454503E+04 0.  0.
        2    1    3    3  502    0  0.52012106890E+03  0.29379241076E+03 -0.47293669747E+02  0.59923000437E+03  0.25500000920E-02 0.  1.
       -2    1    3    3    0  502 -0.52012106890E+03 -0.29379241076E+03  0.69815154796E+02  0.60142668945E+03  0.25500000920E-02 0. -1.
</event>
<event>
 5   0  0.1922125E-03  0.1362091E+04  0.7818609E-02  0.8981726E-01
        3   -1    0    0  501    0  0.00000000000E+00  0.00000000000E+00  0.78096302978E+03  0.78096303632E+03  0.10100000352E+00 0. -1.
       -3   -1    0    0    0  501  0.00000000000E+00  0.00000000000E+00 -0.59391132684E+03  0.59391133542E+03  0.10100000352E+00 0.  1.
    10030    2    1    2    0    0  0.00000000000E+00  0.00000000000E+00  0.18705170295E+03  0.13748743717E+04  0.13620907453E+04 0.  0.
        3    1    3    3  502    0 -0.49162174903E+03 -0.26138891354E+03  0.48938854468E+03  0.74129431814E+03  0.10100000352E+00 0. -1.
       -3    1    3    3    0  502  0.49162174903E+03  0.26138891354E+03 -0.30233684173E+03  0.63358005360E+03  0.10100000352E+00 0.  1.
</event>
<event>
 5   0  0.2875848E-03  0.9991187E+03  0.7818609E-02  0.9309512E-01
        1   -1    0    0  501    0  0.00000000000E+00  0.00000000000E+00  0.42195058814E+03  0.42195058817E+03  0.50400001928E-02 0.  1.
       -1   -1    0    0    0  501  0.00000000000E+00  0.00000000000E+00 -0.59144260976E+03  0.59144260979E+03  0.50400001928E-02 0. -1.
    10030    2    1    2    0    0  0.00000000000E+00  0.00000000000E+00 -0.16949202163E+03  0.10133931980E+04  0.99911872581E+03 0.  0.
        1    1    3    3  502    0  0.39399412991E+03  0.17856495509E+03  0.16870957103E+03  0.46430565038E+03  0.50400001928E-02 0.  1.
       -1    1    3    3    0  502 -0.39399412991E+03 -0.17856495509E+03 -0.33820159266E+03  0.54908754757E+03  0.50400001928E-02 0. -1.
</event>
<event>
 5   0  0.5003526E-03  0.1207358E+04  0.7818609E-02  0.9106441E-01
       -2   -1    0    0    0  501  0.00000000000E+00  0.00000000000E+00  0.31627505710E+03  0.31627505711E+03  0.25500000920E-02 0. -1.
        2   -1    0    0  501    0  0.00000000000E+00  0.00000000000E+00 -0.11522505772E+04  0.11522505772E+04  0.25500000920E-02 0.  1.
    10030    2    1    2    0    0  0.00000000000E+00  0.00000000000E+00 -0.83597552011E+03  0.14685256343E+04  0.12073576390E+04 0.  0.
        2    1    3    3  502    0  0.25544122684E+03 -0.19976713263E+00  0.24730120658E+03  0.35553923420E+03  0.25500000920E-02 0. -1.
       -2    1    3    3    0  502 -0.25544122684E+03  0.19976713263E+00 -0.10832767267E+04  0.11129864001E+04  0.25500000920E-02 0.  1.
</event>
<event>
 5   0  0.5189537E-03  0.1203345E+04  0.7818609E-02  0.9109934E-01
        2   -1    0    0  501    0  0.00000000000E+00  0.00000000000E+00  0.19230085926E+04  0.19230085926E+04  0.25500000920E-02 0. -1.
       -2   -1    0    0    0  501  0.00000000000E+00  0.00000000000E+00 -0.18825166793E+03  0.18825166794E+03  0.25500000920E-02 0.  1.
    10030    2    1    2    0    0  0.00000000000E+00  0.00000000000E+00  0.17347569247E+04  0.21112602606E+04  0.12033446306E+04 0.  0.
        4    1    3    3  502    0 -0.59089398738E+03 -0.35089979613E+02  0.67824316513E+03  0.90022353609E+03  0.12699999809E+01 0. -1.
       -4    1    3    3    0  502  0.59089398738E+03  0.35089979613E+02  0.10565137596E+04  0.12110367245E+04  0.12699999809E+01 0.  1.
</event>
<event>
 5   0  0.5467554E-03  0.1206981E+04  0.7818609E-02  0.9106768E-01
        2   -1    0    0  501    0  0.00000000000E+00  0.00000000000E+00  0.17956717468E+04  0.17956717468E+04  0.25500000920E-02 0.  1.
       -2   -1    0    0    0  501  0.00000000000E+00  0.00000000000E+00 -0.20282133612E+03  0.20282133614E+03  0.25500000920E-02 0. -1.
    10030    2    1    2    0    0  0.00000000000E+00  0.00000000000E+00  0.15928504107E+04  0.19984930829E+04  0.12069806012E+04 0.  0.
        1    1    3    3  502    0  0.54732378937E+03  0.23479731093E+03  0.95787371792E+03  0.11279251603E+04  0.50400001928E-02 0.  1.
       -1    1    3    3    0  502 -0.54732378937E+03 -0.23479731093E+03  0.63497669274E+03  0.87056792267E+03  0.50400001928E-02 0. -1.
</event>
<event>
 5   0  0.5467554E-03  0.1219447E+04  0.7818609E-02  0.9096002E-01
       -2   -1    0    0    0  501  0.00000000000E+00  0.00000000000E+00  0.43831394782E+03  0.43831394783E+03  0.25500000920E-02 0. -1.
        2   -1    0    0  501    0  0.00000000000E+00  0.00000000000E+00 -0.84816613324E+03  0.84816613324E+03  0.25500000920E-02 0.  1.
    10030    2    1    2    0    0  0.00000000000E+00  0.00000000000E+00 -0.40985218542E+03  0.12864800811E+04  0.12194474917E+04 0.  0.
        1    1    3    3  502    0 -0.26651264480E+03 -0.42165545924E+03 -0.57482909438E+03  0.76108528031E+03  0.50400001928E-02 0.  1.
       -1    1    3    3    0  502  0.26651264480E+03  0.42165545924E+03  0.16497690896E+03  0.52539480075E+03  0.50400001928E-02 0. -1.
</event>
<event>
 5   0  0.2792518E-03  0.1202500E+04  0.7818609E-02  0.9110672E-01
        1   -1    0    0  501    0  0.00000000000E+00  0.00000000000E+00  0.36723935275E+03  0.36723935279E+03  0.50400001928E-02 0.  1.
       -1   -1    0    0    0  501  0.00000000000E+00  0.00000000000E+00 -0.98437512165E+03  0.98437512166E+03  0.50400001928E-02 0. -1.
    10030    2    1    2    0    0  0.00000000000E+00  0.00000000000E+00 -0.61713576889E+03  0.13516144744E+04  0.12024995344E+04 0.  0.
        2    1    3    3  502    0 -0.30011099079E+03 -0.29933051898E+03  0.17073247163E+03  0.45696273728E+03  0.25500000920E-02 0.  1.
       -2    1    3    3    0  502  0.30011099079E+03  0.29933051898E+03 -0.78786824052E+03  0.89465173717E+03  0.25500000920E-02 0. -1.
</event>
<event>
 5   0  0.1922125E-03  0.1169244E+04  0.7818609E-02  0.9140212E-01
       -4   -1    0    0    0  501  0.00000000000E+00  0.00000000000E+00  0.11824765132E+04  0.11824771952E+04  0.12699999809E+01 0.  1.
        4   -1    0    0  501    0  0.00000000000E+00  0.00000000000E+00 -0.28903769999E+03  0.28904049009E+03  0.12699999809E+01 0. -1.
    10030    2    1    2    0    0  0.00000000000E+00  0.00000000000E+00  0.89343881320E+03  0.14715176853E+04  0.11692439374E+04 0.  0.
        5    1    3    3  502    0 -0.14425333339E+03  0.53704949997E+03  0.67370562957E+03  0.87357458464E+03  0.46999998093E+01 0.  1.
       -5    1    3    3    0  502  0.14425333339E+03 -0.53704949997E+03  0.21973318363E+03  0.59794310064E+03  0.46999998093E+01 0. -1.
</event>
<event>
 5   0  0.5467554E-03  0.1209406E+04  0.7818609E-02  0.9104663E-01
        2   -1    0    0  501    0  0.00000000000E+00  0.00000000000E+00  0.16915910731E+04  0.16915910731E+04  0.25500000920E-02 0.  1.
       -2   -1    0    0    0  501  0.00000000000E+00  0.00000000000E+00 -0.21616661798E+03  0.21616661799E+03  0.25500000920E-02 0. -1.
    10030    2    1    2    0    0  0.00000000000E+00  0.00000000000E+00  0.14754244551E+04  0.19077576911E+04  0.12094056743E+04 0.  0.
        1    1    3    3  502    0  0.46057157820E+03  0.96123469752E+02  0.13369287870E+04  0.14173018315E+04  0.50400001928E-02 0.  1.
       -1    1    3    3    0  502 -0.46057157820E+03 -0.96123469752E+02  0.13849566813E+03  0.49045585958E+03  0.50400001928E-02 0. -1.
</event>
<event>
 5   0  0.5031575E-03  0.1204474E+04  0.7818609E-02  0.9108950E-01
       -2   -1    0    0    0  501  0.00000000000E+00  0.00000000000E+00  0.23528555886E+03  0.23528555888E+03  0.25500000920E-02 0. -1.
        2   -1    0    0  501    0  0.00000000000E+00  0.00000000000E+00 -0.15414856360E+04  0.15414856360E+04  0.25500000920E-02 0.  1.
    10030    2    1    2    0    0  0.00000000000E+00  0.00000000000E+00 -0.13062000771E+04  0.17767711949E+04  0.12044738426E+04 0.  0.
        5    1    3    3  502    0  0.37648958859E+03 -0.51589967874E+02  0.36063805887E+02  0.38174418555E+03  0.46999998093E+01 0. -1.
       -5    1    3    3    0  502 -0.37648958859E+03  0.51589967874E+02 -0.13422638830E+04  0.13950270093E+04  0.46999998093E+01 0.  1.
</event>
<event>
 5   0  0.5189537E-03  0.1190303E+04  0.7818609E-02  0.9121386E-01
       -2   -1    0    0    0  501  0.00000000000E+00  0.00000000000E+00  0.65055419274E+03  0.65055419275E+03  0.25500000920E-02 0.  1.
        2   -1    0    0  501    0  0.00000000000E+00  0.00000000000E+00 -0.54446746148E+03  0.54446746149E+03  0.25500000920E-02 0. -1.
    10030    2    1    2    0    0  0.00000000000E+00  0.00000000000E+00  0.10608673126E+03  0.11950216542E+04  0.11903034737E+04 0.  0.
        4    1    3    3  502    0 -0.13804555943E+03  0.30105986315E+03  0.54948329578E+03  0.64158173518E+03  0.12699999809E+01 0.  1.
       -4    1    3    3    0  502  0.13804555943E+03 -0.30105986315E+03 -0.44339656452E+03  0.55343991905E+03  0.12699999809E+01 0. -1.
</event>
<event>
 5   0  0.2875848E-03  0.1298343E+04  0.7818609E-02  0.9030880E-01
       -1   -1    0    0    0  501  0.00000000000E+00  0.00000000000E+00  0.73558145897E+03  0.73558145898E+03  0.50400001928E-02 0.  1.
        1   -1    0    0  501    0  0.00000000000E+00  0.00000000000E+00 -0.57291210832E+03  0.57291210834E+03  0.50400001928E-02 0. -1.
    10030    2    1    2    0    0  0.00000000000E+00  0.00000000000E+00  0.16266935064E+03  0.13084935673E+04  0.12983428276E+04 0.  0.
        1    1    3    3  502    0  0.13397289984E+03  0.14848001843E+03 -0.54109281009E+03  0.57686782101E+03  0.50400001928E-02 0. -1.
       -1    1    3    3    0  502 -0.13397289984E+03 -0.14848001843E+03  0.70376216074E+03  0.73162574632E+03  0.50400001928E-02 0.  1.
</event>
<event>
 5   0  0.5108045E-03  0.1194669E+04  0.7818609E-02  0.9117535E-01
       -2   -1    0    0    0  501  0.00000000000E+00  0.00000000000E+00  0.37642227145E+03  0.37642227146E+03  0.25500000920E-02 0.  1.
        2   -1    0    0  501    0  0.00000000000E+00  0.00000000000E+00 -0.94789482429E+03  0.94789482429E+03  0.25500000920E-02 0. -1.
    10030    2    1    2    0    0  0.00000000000E+00  0.00000000000E+00 -0.57147255284E+03  0.13243170958E+04  0.11946693649E+04 0.  0.
        3    1    3    3  502    0  0.36502222578E+03  0.47261743698E+03 -0.27004978709E+03  0.65538947563E+03  0.10100000352E+00 0. -1.
       -3    1    3    3    0  502 -0.36502222578E+03 -0.47261743698E+03 -0.30142276575E+03  0.66892762013E+03  0.10100000352E+00 0.  1.
</event>
<event>
 5   0  0.5467554E-03  0.1211647E+04  0.7818609E-02  0.9102722E-01
       -2   -1    0    0    0  501  0.00000000000E+00  0.00000000000E+00  0.37283224244E+03  0.37283224245E+03  0.25500000920E-02 0.  1.
        2   -1    0    0  501    0  0.00000000000E+00  0.00000000000E+00 -0.98441703763E+03  0.98441703763E+03  0.25500000920E-02 0. -1.
    10030    2    1    2    0    0  0.00000000000E+00  0.00000000000E+00 -0.61158479518E+03  0.13572492801E+04  0.12116474927E+04 0.  0.
        1    1    3    3  502    0 -0.27703762431E+03 -0.53687918107E+03 -0.35630331615E+03  0.70138516770E+03  0.50400001928E-02 0.  1.
       -1    1    3    3    0  502  0.27703762431E+03  0.53687918107E+03 -0.25528147903E+03  0.65586411238E+03  0.50400001928E-02 0. -1.
</event>
<event>
 5   0  0.2938349E-03  0.1043010E+04  0.7818609E-02  0.9262590E-01
       -1   -1    0    0    0  501  0.00000000000E+00  0.00000000000E+00  0.37222441339E+03  0.37222441342E+03  0.50400001928E-02 0. -1.
        1   -1    0    0  501    0  0.00000000000E+00  0.00000000000E+00 -0.73065488071E+03  0.73065488072E+03  0.50400001928E-02 0.  1.
    10030    2    1    2    0    0  0.00000000000E+00  0.00000000000E+00 -0.35843046732E+03  0.11028792941E+04  0.10430102289E+04 0.  0.
        4    1    3    3  502    0 -0.28015357677E+02 -0.15650076383E+03 -0.70440224310E+03  0.72212289974E+03  0.12699999809E+01 0.  1.
       -4    1    3    3    0  502  0.28015357677E+02  0.15650076383E+03  0.34597177578E+03  0.38075639441E+03  0.12699999809E+01 0. -1.
</event>
<event>
 5   0  0.5108045E-03  0.1180640E+04  0.7818609E-02  0.9129973E-01
        2   -1    0    0  501    0  0.00000000000E+00  0.00000000000E+00  0.30933035386E+03  0.30933035387E+03  0.25500000920E-02 0.  1.
       -2   -1    0    0    0  501  0.00000000000E+00  0.00000000000E+00 -0.11265558863E+04  0.11265558863E+04  0.25500000920E-02 0. -1.
    10030    2    1    2    0    0  0.00000000000E+00  0.00000000000E+00 -0.81722553240E+03  0.14358862401E+04  0.11806403872E+04 0.  0.
        3    1    3    3  502    0  0.55365684729E+03 -0.16446359478E+03 -0.55703682863E+03  0.80241773237E+03  0.10100000352E+00 0.  1.
       -3    1    3    3    0  502 -0.55365684729E+03  0.16446359478E+03 -0.26018870376E+03  0.63346850777E+03  0.10100000352E+00 0. -1.
</event>
<event>
 5   0  0.5467554E-03  0.1196090E+04  0.7818609E-02  0.9116286E-01
       -2   -1    0    0    0  501  0.00000000000E+00  0.00000000000E+00  0.31101299224E+03  0.31101299225E+03  0.25500000920E-02 0. -1.
        2   -1    0    0  501    0  0.00000000000E+00  0.00000000000E+00 -0.11499763178E+04  0.11499763178E+04  0.25500000920E-02 0.  1.
    10030    2    1    2    0    0  0.00000000000E+00  0.00000000000E+00 -0.83896332561E+03  0.14609893101E+04  0.11960895880E+04 0.  0.
        1    1    3    3  502    0  0.25861265218E+03  0.47523653416E+03 -0.10824050097E+03  0.55176650255E+03  0.50400001928E-02 0. -1.
       -1    1    3    3    0  502 -0.25861265218E+03 -0.47523653416E+03 -0.73072282464E+03  0.90922280754E+03  0.50400001928E-02 0.  1.
</event>
<event>
 5   0  0.2792518E-03  0.1218022E+04  0.7818609E-02  0.9097227E-01
        1   -1    0    0  501    0  0.00000000000E+00  0.00000000000E+00  0.13236128898E+04  0.13236128898E+04  0.50400001928E-02 0.  1.
       -1   -1    0    0    0  501  0.00000000000E+00  0.00000000000E+00 -0.28021347388E+03  0.28021347393E+03  0.50400001928E-02 0. -1.
    10030    2    1    2    0    0  0.00000000000E+00  0.00000000000E+00  0.10433994160E+04  0.16038263638E+04  0.12180216188E+04 0.  0.
        2    1    3    3  502    0 -0.21776001448E+03 -0.52718977314E+03  0.24068699272E+03  0.61909507290E+03  0.25500000920E-02 0. -1.
       -2    1    3    3    0  502  0.21776001448E+03  0.52718977314E+03  0.80271242323E+03  0.98473129088E+03  0.25500000920E-02 0.  1.
</event>
<event>
 5   0  0.5031575E-03  0.1209778E+04  0.7818609E-02  0.9104340E-01
        2   -1    0    0  501    0  0.00000000000E+00  0.00000000000E+00  0.86551439314E+03  0.86551439314E+03  0.25500000920E-02 0.  1.
       -2   -1    0    0    0  501  0.00000000000E+00  0.00000000000E+00 -0.42274383926E+03  0.42274383927E+03  0.25500000920E-02 0. -1.
    10030    2    1    2    0    0  0.00000000000E+00  0.00000000000E+00  0.44277055388E+03  0.12882582324E+04  0.12097782896E+04 0.  0.
        5    1    3    3  502    0 -0.21324991055E+03  0.24073981445E+03  0.76690464296E+03  0.83162251292E+03  0.46999998093E+01 0.  1.
       -5    1    3    3    0  502  0.21324991055E+03 -0.24073981445E+03 -0.32413408908E+03  0.45663571949E+03  0.46999998093E+01 0. -1.
</event>
<event>
 5   0  0.2875848E-03  0.1174168E+04  0.7818609E-02  0.9135773E-01
       -1   -1    0    0    0  501  0.00000000000E+00  0.00000000000E+00  0.48298632256E+03  0.48298632259E+03  0.50400001928E-02 0.  1.
        1   -1    0    0  501    0  0.00000000000E+00  0.00000000000E+00 -0.71361754077E+03  0.71361754079E+03  0.50400001928E-02 0. -1.
    10030    2    1    2    0    0  0.00000000000E+00  0.00000000000E+00 -0.23063121821E+03  0.11966038634E+04  0.11741678104E+04 0.  0.
        1    1    3    3  502    0 -0.58611600386E+03  0.33503847873E+02 -0.11163636982E+03  0.59759280191E+03  0.50400001928E-02 0.  1.
       -1    1    3    3    0  502  0.58611600386E+03 -0.33503847873E+02 -0.11899484839E+03  0.59901106147E+03  0.50400001928E-02 0. -1.
</event>
<event>
 5   0  0.5108045E-03  0.1180481E+04  0.7818609E-02  0.9130115E-01
       -2   -1    0    0    0  501  0.00000000000E+00  0.00000000000E+00  0.23278006496E+03  0.23278006497E+03  0.25500000920E-02 0.  1.
        2   -1    0    0  501    0  0.00000000000E+00  0.00000000000E+00 -0.14966227543E+04  0.14966227543E+04  0.25500000920E-02 0. -1.
    10030    2    1    2    0    0  0.00000000000E+00  0.00000000000E+00 -0.12638426893E+04  0.17294028192E+04  0.11804811595E+04 0.  0.
        3    1    3    3  502    0 -0.23369010818E+03 -0.48640222782E+03 -0.98225427935E+03  0.11207237275E+04  0.10100000352E+00 0. -1.
       -3    1    3    3    0  502  0.23369010818E+03  0.48640222782E+03 -0.28158840996E+03  0.60867909174E+03  0.10100000352E+00 0.  1.
</event>
<event>
 5   0  0.5003526E-03  0.1205789E+04  0.7818609E-02  0.9107805E-01
       -2   -1    0    0    0  501  0.00000000000E+00  0.00000000000E+00  0.45343474645E+03  0.45343474646E+03  0.25500000920E-02 0.  1.
        2   -1    0    0  501    0  0.00000000000E+00  0.00000000000E+00 -0.80161832021E+03  0.80161832021E+03  0.25500000920E-02 0. -1.
    10030    2    1    2    0    0  0.00000000000E+00  0.00000000000E+00 -0.34818357376E+03  0.12550530667E+04  0.12057887042E+04 0.  0.
        2    1    3    3  502    0  0.24356806263E+03 -0.15772870783E+03 -0.72415059946E+03  0.78012680836E+03  0.25500000920E-02 0. -1.
       -2    1    3    3    0  502 -0.24356806263E+03  0.15772870783E+03  0.37596702571E+03  0.47492625831E+03  0.25500000920E-02 0.  1.
</event>
<event>
 5   0  0.1922125E-03  0.1203731E+04  0.7818609E-02  0.9109597E-01
       -3   -1    0    0    0  501  0.00000000000E+00  0.00000000000E+00  0.45646769179E+03  0.45646770297E+03  0.10100000352E+00 0.  1.
        3   -1    0    0  501    0  0.00000000000E+00  0.00000000000E+00 -0.79357616111E+03  0.79357616754E+03  0.10100000352E+00 0. -1.
    10030    2    1    2    0    0  0.00000000000E+00  0.00000000000E+00 -0.33710846932E+03  0.12500438705E+04  0.12037306834E+04 0.  0.
        2    1    3    3  502    0  0.42062466157E+03 -0.30146279641E+02  0.27739537248E+03  0.50475944447E+03  0.25500000920E-02 0.  1.
       -2    1    3    3    0  502 -0.42062466157E+03  0.30146279641E+02 -0.61450384180E+03  0.74528442604E+03  0.25500000920E-02 0. -1.
</event>
<event>
 5   0  0.2930868E-03  0.1219106E+04  0.7818609E-02  0.9096296E-01
       -1   -1    0    0    0  501  0.00000000000E+00  0.00000000000E+00  0.22647936947E+03  0.22647936953E+03  0.50400001928E-02 0.  1.
        1   -1    0    0  501    0  0.00000000000E+00  0.00000000000E+00 -0.16405677711E+04  0.16405677711E+04  0.50400001928E-02 0. -1.
    10030    2    1    2    0    0  0.00000000000E+00  0.00000000000E+00 -0.14140884016E+04  0.18670471406E+04  0.12191058271E+04 0.  0.
        3    1    3    3  502    0 -0.49518273019E+03 -0.27479574637E+03 -0.10523469321E+04  0.11950534357E+04  0.10100000352E+00 0. -1.
       -3    1    3    3    0  502  0.49518273019E+03  0.27479574637E+03 -0.36174146958E+03  0.67199370496E+03  0.10100000352E+00 0.  1.
</event>
<event>
 5   0  0.5108045E-03  0.1234184E+04  0.7818609E-02  0.9083450E-01
        2   -1    0    0  501    0  0.00000000000E+00  0.00000000000E+00  0.63376670761E+03  0.63376670761E+03  0.25500000920E-02 0.  1.
       -2   -1    0    0    0  501  0.00000000000E+00  0.00000000000E+00 -0.60085643994E+03  0.60085643994E+03  0.25500000920E-02 0. -1.
    10030    2    1    2    0    0  0.00000000000E+00  0.00000000000E+00  0.32910267672E+02  0.12346231476E+04  0.12341844395E+04 0.  0.
        3    1    3    3  502    0 -0.27418425360E+03  0.45157733655E+03 -0.30256840529E+03  0.60880764277E+03  0.10100000352E+00 0. -1.
       -3    1    3    3    0  502  0.27418425360E+03 -0.45157733655E+03  0.33547867297E+03  0.62581550479E+03  0.10100000352E+00 0.  1.
</event>
<event>
 5   0  0.5031575E-03  0.1091278E+04  0.7818609E-02  0.9213735E-01
        2   -1    0    0  501    0  0.00000000000E+00  0.00000000000E+00  0.30460190604E+03  0.30460190605E+03  0.25500000920E-02 0.  1.
       -2   -1    0    0    0  501  0.00000000000E+00  0.00000000000E+00 -0.97741371786E+03  0.97741371786E+03  0.25500000920E-02 0. -1.
    10030    2    1    2    0    0  0.00000000000E+00  0.00000000000E+00 -0.67281181181E+03  0.12820156239E+04  0.10912782990E+04 0.  0.
        5    1    3    3  502    0  0.51497190561E+03  0.16261695299E+03 -0.42785548911E+03  0.68900126743E+03  0.46999998093E+01 0. -1.
       -5    1    3    3    0  502 -0.51497190561E+03 -0.16261695299E+03 -0.24495632270E+03  0.59301435648E+03  0.46999998093E+01 0.  1.
</event>
<event>
 5   0  0.2926844E-03  0.1091900E+04  0.7818609E-02  0.9213123E-01
        1   -1    0    0  501    0  0.00000000000E+00  0.00000000000E+00  0.53085850173E+03  0.53085850176E+03  0.50400001928E-02 0.  1.
       -1   -1    0    0    0  501  0.00000000000E+00  0.00000000000E+00 -0.56147049459E+03  0.56147049461E+03  0.50400001928E-02 0. -1.
    10030    2    1    2    0    0  0.00000000000E+00  0.00000000000E+00 -0.30611992856E+02  0.10923289964E+04  0.10918999690E+04 0.  0.
        5    1    3    3  502    0  0.11136472175E+03  0.16436808549E+03 -0.52405308486E+03  0.56042188976E+03  0.46999998093E+01 0. -1.
       -5    1    3    3    0  502 -0.11136472175E+03 -0.16436808549E+03  0.49344109200E+03  0.53190710660E+03  0.46999998093E+01 0.  1.
</event>
<event>
 5   0  0.5467554E-03  0.1170239E+04  0.7818609E-02  0.9139313E-01
       -2   -1    0    0    0  501  0.00000000000E+00  0.00000000000E+00  0.97705653363E+03  0.97705653363E+03  0.25500000920E-02 0.  1.
        2   -1    0    0  501    0  0.00000000000E+00  0.00000000000E+00 -0.35040432058E+03  0.35040432059E+03  0.25500000920E-02 0. -1.
    10030    2    1    2    0    0  0.00000000000E+00  0.00000000000E+00  0.62665221304E+03  0.13274608542E+04  0.11702390027E+04 0.  0.
        1    1    3    3  502    0 -0.25697139420E+03 -0.11115946845E+03  0.89613721142E+03  0.93885708528E+03  0.50400001928E-02 0.  1.
       -1    1    3    3    0  502  0.25697139420E+03  0.11115946845E+03 -0.26948499837E+03  0.38860376894E+03  0.50400001928E-02 0. -1.
</event>
<event>
 5   0  0.2875848E-03  0.1216544E+04  0.7818609E-02  0.9098497E-01
        1   -1    0    0  501    0  0.00000000000E+00  0.00000000000E+00  0.66871922843E+03  0.66871922845E+03  0.50400001928E-02 0. -1.
       -1   -1    0    0    0  501  0.00000000000E+00  0.00000000000E+00 -0.55328889866E+03  0.55328889869E+03  0.50400001928E-02 0.  1.
    10030    2    1    2    0    0  0.00000000000E+00  0.00000000000E+00  0.11543032976E+03  0.12220081271E+04  0.12165441635E+04 0.  0.
        1    1    3    3  502    0  0.59924562235E+03 -0.70033671572E+02 -0.20059291028E+02  0.60365752397E+03  0.50400001928E-02 0. -1.
       -1    1    3    3    0  502 -0.59924562235E+03  0.70033671572E+02  0.13548962079E+03  0.61835060316E+03  0.50400001928E-02 0.  1.
</event>
<event>
 5   0  0.5108045E-03  0.1193555E+04  0.7818609E-02  0.9118517E-01
       -2   -1    0    0    0  501  0.00000000000E+00  0.00000000000E+00  0.21156388644E+03  0.21156388645E+03  0.25500000920E-02 0.  1.
        2   -1    0    0  501    0  0.00000000000E+00  0.00000000000E+00 -0.16833844260E+04  0.16833844260E+04  0.25500000920E-02 0. -1.
    10030    2    1    2    0    0  0.00000000000E+00  0.00000000000E+00 -0.14718205396E+04  0.18949483125E+04  0.11935549448E+04 0.  0.
        3    1    3    3  502    0  0.14153184746E+03 -0.19016636283E+03  0.13360765573E+03  0.27211307442E+03  0.10100000352E+00 0.  1.
       -3    1    3    3    0  502 -0.14153184746E+03  0.19016636283E+03 -0.16054281953E+04  0.16228352381E+04  0.10100000352E+00 0. -1.
</event>
<event>
 5   0  0.5189537E-03  0.1178682E+04  0.7818609E-02  0.9131724E-01
       -2   -1    0    0    0  501  0.00000000000E+00  0.00000000000E+00  0.14886520718E+03  0.14886520720E+03  0.25500000920E-02 0.  1.
        2   -1    0    0  501    0  0.00000000000E+00  0.00000000000E+00 -0.23331359744E+04  0.23331359744E+04  0.25500000920E-02 0. -1.
    10030    2    1    2    0    0  0.00000000000E+00  0.00000000000E+00 -0.21842707672E+04  0.24820011816E+04  0.11786819253E+04 0.  0.
        4    1    3    3  502    0 -0.50278720934E+03 -0.30599788835E+03 -0.10292631104E+04  0.11856702109E+04  0.12699999809E+01 0.  1.
       -4    1    3    3    0  502  0.50278720934E+03  0.30599788835E+03 -0.11550076568E+04  0.12963309707E+04  0.12699999809E+01 0. -1.
</event>
<event>
 5   0  0.5003526E-03  0.1181699E+04  0.7818609E-02  0.9129028E-01
       -2   -1    0    0    0  501  0.00000000000E+00  0.00000000000E+00  0.36169291058E+03  0.36169291059E+03  0.25500000920E-02 0.  1.
        2   -1    0    0  501    0  0.00000000000E+00  0.00000000000E+00 -0.96519225587E+03  0.96519225587E+03  0.25500000920E-02 0. -1.
    10030    2    1    2    0    0  0.00000000000E+00  0.00000000000E+00 -0.60349934528E+03  0.13268851665E+04  0.11816991094E+04 0.  0.
        2    1    3    3  502    0 -0.23299632661E+03 -0.11021263234E+03  0.29523830661E+03  0.39191806572E+03  0.25500000920E-02 0.  1.
       -2    1    3    3    0  502  0.23299632661E+03  0.11021263234E+03 -0.89873765189E+03  0.93496710075E+03  0.25500000920E-02 0. -1.
</event>
<event>
 5   0  0.5003526E-03  0.1271802E+04  0.7818609E-02  0.9052230E-01
        2   -1    0    0  501    0  0.00000000000E+00  0.00000000000E+00  0.11231746228E+04  0.11231746228E+04  0.25500000920E-02 0.  1.
       -2   -1    0    0    0  501  0.00000000000E+00  0.00000000000E+00 -0.36002419549E+03  0.36002419549E+03  0.25500000920E-02 0. -1.
    10030    2    1    2    0    0  0.00000000000E+00  0.00000000000E+00  0.76315042732E+03  0.14831988183E+04  0.12718019342E+04 0.  0.
        2    1    3    3  502    0  0.21116195250E+03  0.38074256859E+02  0.10796823748E+04  0.11007965524E+04  0.25500000920E-02 0.  1.
       -2    1    3    3    0  502 -0.21116195250E+03 -0.38074256859E+02 -0.31653194748E+03  0.38240226595E+03  0.25500000920E-02 0. -1.
</event>
<event>
 5   0  0.5467554E-03  0.1189527E+04  0.7818609E-02  0.9122074E-01
       -2   -1    0    0    0  501  0.00000000000E+00  0.00000000000E+00  0.54370969653E+03  0.54370969654E+03  0.25500000920E-02 0. -1.
        2   -1    0    0  501    0  0.00000000000E+00  0.00000000000E+00 -0.65061075878E+03  0.65061075879E+03  0.25500000920E-02 0.  1.
    10030    2    1    2    0    0  0.00000000000E+00  0.00000000000E+00 -0.10690106225E+03  0.11943204553E+04  0.11895265919E+04 0.  0.
        1    1    3    3  502    0  0.57301807251E+03 -0.14040337086E+03 -0.12912376607E+03  0.60393357661E+03  0.50400001928E-02 0. -1.
       -1    1    3    3    0  502 -0.57301807251E+03  0.14040337086E+03  0.22222703819E+02  0.59038687872E+03  0.50400001928E-02 0.  1.
</event>
<event>
 5   0  0.2926844E-03  0.1091350E+04  0.7818609E-02  0.9213664E-01
        1   -1    0    0  501    0  0.00000000000E+00  0.00000000000E+00  0.30511949035E+03  0.30511949039E+03  0.50400001928E-02 0. -1.
       -1   -1    0    0    0  501  0.00000000000E+00  0.00000000000E+00 -0.97588387576E+03  0.97588387578E+03  0.50400001928E-02 0.  1.
    10030    2    1    2    0    0  0.00000000000E+00  0.00000000000E+00 -0.67076438541E+03  0.12810033662E+04  0.10913499729E+04 0.  0.
        5    1    3    3  502    0 -0.50490818788E+03  0.20501162731E+03 -0.36810211026E+03  0.65763462432E+03  0.46999998093E+01 0. -1.
       -5    1    3    3    0  502  0.50490818788E+03 -0.20501162731E+03 -0.30266227515E+03  0.62336874186E+03  0.46999998093E+01 0.  1.
</event>
<event>
 5   0  0.2875848E-03  0.7498437E+03  0.7818609E-02  0.9635596E-01
       -1   -1    0    0    0  501  0.00000000000E+00  0.00000000000E+00  0.15692774854E+03  0.15692774862E+03  0.50400001928E-02 0.  1.
        1   -1    0    0  501    0  0.00000000000E+00  0.00000000000E+00 -0.89573966088E+03  0.89573966090E+03  0.50400001928E-02 0. -1.
    10030    2    1    2    0    0  0.00000000000E+00  0.00000000000E+00 -0.73881191235E+03  0.10526674095E+04  0.74984373921E+03 0.  0.
        1    1    3    3  502    0 -0.20365651258E+03 -0.28552936016E+03 -0.18335799199E+03  0.39575641989E+03  0.50400001928E-02 0. -1.
       -1    1    3    3    0  502  0.20365651258E+03  0.28552936016E+03 -0.55545392036E+03  0.65691098963E+03  0.50400001928E-02 0.  1.
</event>
<event>
 5   0  0.5467554E-03  0.1207049E+04  0.7818609E-02  0.9106709E-01
        2   -1    0    0  501    0  0.00000000000E+00  0.00000000000E+00  0.10839515839E+04  0.10839515839E+04  0.25500000920E-02 0. -1.
       -2   -1    0    0    0  501  0.00000000000E+00  0.00000000000E+00 -0.33603123388E+03  0.33603123389E+03  0.25500000920E-02 0.  1.
    10030    2    1    2    0    0  0.00000000000E+00  0.00000000000E+00  0.74792034998E+03  0.14199828178E+04  0.12070486125E+04 0.  0.
        1    1    3    3  502    0 -0.49674343874E+03 -0.11859654803E+03  0.75228569737E+03  0.90925956450E+03  0.50400001928E-02 0. -1.
       -1    1    3    3    0  502  0.49674343874E+03  0.11859654803E+03 -0.43653473885E+01  0.51072325326E+03  0.50400001928E-02 0.  1.
</event>
<event>
 5   0  0.2792518E-03  0.1096453E+04  0.7818609E-02  0.9208656E-01
        1   -1    0    0  501    0  0.00000000000E+00  0.00000000000E+00  0.43720763118E+03  0.43720763121E+03  0.50400001928E-02 0. -1.
       -1   -1    0    0    0  501  0.00000000000E+00  0.00000000000E+00 -0.68743606661E+03  0.68743606663E+03  0.50400001928E-02 0.  1.
    10030    2    1    2    0    0  0.00000000000E+00  0.00000000000E+00 -0.25022843543E+03  0.11246436978E+04  0.10964529982E+04 0.  0.
        2    1    3    3  502    0 -0.39552454099E+02  0.46167584630E+03  0.17540909230E+03  0.49545669170E+03  0.25500000920E-02 0. -1.
       -2    1    3    3    0  502  0.39552454099E+02 -0.46167584630E+03 -0.42563752772E+03  0.62918700614E+03  0.25500000920E-02 0.  1.
</event>
<event>
 5   0  0.2930868E-03  0.1231919E+04  0.7818609E-02  0.9085367E-01
        1   -1    0    0  501    0  0.00000000000E+00  0.00000000000E+00  0.91033561546E+03  0.91033561547E+03  0.50400001928E-02 0.  1.
       -1   -1    0    0    0  501  0.00000000000E+00  0.00000000000E+00 -0.41677636537E+03  0.41677636540E+03  0.50400001928E-02 0. -1.
    10030    2    1    2    0    0  0.00000000000E+00  0.00000000000E+00  0.49355925009E+03  0.13271119809E+04  0.12319194277E+04 0.  0.
        3    1    3    3  502    0  0.21576232755E+03 -0.40051522787E+03 -0.20056779717E+03  0.49718535900E+03  0.10100000352E+00 0. -1.
       -3    1    3    3    0  502 -0.21576232755E+03  0.40051522787E+03  0.69412704726E+03  0.82992662187E+03  0.10100000352E+00 0.  1.
</event>
<event>
 5   0  0.2938349E-03  0.1195940E+04  0.7818609E-02  0.9116417E-01
       -1   -1    0    0    0  501  0.00000000000E+00  0.00000000000E+00  0.80775082496E+03  0.80775082498E+03  0.50400001928E-02 0.  1.
        1   -1    0    0  501    0  0.00000000000E+00  0.00000000000E+00 -0.44267158679E+03  0.44267158681E+03  0.50400001928E-02 0. -1.
    10030    2    1    2    0    0  0.00000000000E+00  0.00000000000E+00  0.36507923818E+03  0.12504224118E+04  0.11959403655E+04 0.  0.
        4    1    3    3  502    0 -0.35823863977E+03  0.47734413725E+03  0.14377813954E+03  0.61389422110E+03  0.12699999809E+01 0. -1.
       -4    1    3    3    0  502  0.35823863977E+03 -0.47734413725E+03  0.22130109863E+03  0.63652819069E+03  0.12699999809E+01 0.  1.
</event>
<event>
 5   0  0.5467554E-03  0.8616034E+03  0.7818609E-02  0.9474894E-01
        2   -1    0    0  501    0  0.00000000000E+00  0.00000000000E+00  0.33063286838E+03  0.33063286839E+03  0.25500000920E-02 0. -1.
       -2   -1    0    0    0  501  0.00000000000E+00  0.00000000000E+00 -0.56131779799E+03  0.56131779800E+03  0.25500000920E-02 0.  1.
    10030    2    1    2    0    0  0.00000000000E+00  0.00000000000E+00 -0.23068492961E+03  0.89195066639E+03  0.86160342068E+03 0.  0.
        1    1    3    3  502    0  0.11854122672E+03 -0.25455261979E+03 -0.45356237129E+03  0.53344904476E+03  0.50400001928E-02 0.  1.
       -1    1    3    3    0  502 -0.11854122672E+03  0.25455261979E+03  0.22287744169E+03  0.35850162163E+03  0.50400001928E-02 0. -1.
</event>
<event>
 5   0  0.2792518E-03  0.1171189E+04  0.7818609E-02  0.9138455E-01
        1   -1    0    0  501    0  0.00000000000E+00  0.00000000000E+00  0.40258223697E+03  0.40258223700E+03  0.50400001928E-02 0. -1.
       -1   -1    0    0    0  501  0.00000000000E+00  0.00000000000E+00 -0.85180360929E+03  0.85180360931E+03  0.50400001928E-02 0.  1.
    10030    2    1    2    0    0  0.00000000000E+00  0.00000000000E+00 -0.44922137233E+03  0.12543858463E+04  0.11711891436E+04 0.  0.
        2    1    3    3  502    0 -0.40075654630E+03 -0.13590711699E+03  0.20892012934E+03  0.47193662107E+03  0.25500000920E-02 0. -1.
       -2    1    3    3    0  502  0.40075654630E+03  0.13590711699E+03 -0.65814150167E+03  0.78244922524E+03  0.25500000920E-02 0.  1.
</event>
<event>
 5   0  0.2926844E-03  0.1199086E+04  0.7818609E-02  0.9113657E-01
       -1   -1    0    0    0  501  0.00000000000E+00  0.00000000000E+00  0.96518093789E+03  0.96518093790E+03  0.50400001928E-02 0. -1.
        1   -1    0    0  501    0  0.00000000000E+00  0.00000000000E+00 -0.37241906148E+03  0.37241906152E+03  0.50400001928E-02 0.  1.
    10030    2    1    2    0    0  0.00000000000E+00  0.00000000000E+00  0.59276187641E+03  0.13375999994E+04  0.11990859504E+04 0.  0.
        5    1    3    3  502    0  0.15558056973E+03 -0.41640713864E+02  0.94057635550E+03  0.95427733561E+03  0.46999998093E+01 0. -1.
       -5    1    3    3    0  502 -0.15558056973E+03  0.41640713864E+02 -0.34781447909E+03  0.38332266381E+03  0.46999998093E+01 0.  1.
</event>
<event>
 5   0  0.2926844E-03  0.1193008E+04  0.7818609E-02  0.9118999E-01
        1   -1    0    0  501    0  0.00000000000E+00  0.00000000000E+00  0.10261232899E+04  0.10261232900E+04  0.50400001928E-02 0. -1.
       -1   -1    0    0    0  501  0.00000000000E+00  0.00000000000E+00 -0.34675853491E+03  0.34675853495E+03  0.50400001928E-02 0.  1.
    10030    2    1    2    0    0  0.00000000000E+00  0.00000000000E+00  0.67936475504E+03  0.13728818249E+04  0.11930079777E+04 0.  0.
        5    1    3    3  502    0  0.49658259757E+03 -0.33027723155E+03  0.32720336573E+03  0.68026572634E+03  0.46999998093E+01 0.  1.
       -5    1    3    3    0  502 -0.49658259757E+03  0.33027723155E+03  0.35216138931E+03  0.69261609857E+03  0.46999998093E+01 0. -1.
</event>
<event>
 5   0  0.5467554E-03  0.1195840E+04  0.7818609E-02  0.9116505E-01
        2   -1    0    0  501    0  0.00000000000E+00  0.00000000000E+00  0.59383729937E+03  0.59383729938E+03  0.25500000920E-02 0. -1.
       -2   -1    0    0    0  501  0.00000000000E+00  0.00000000000E+00 -0.60203088033E+03  0.60203088033E+03  0.25500000920E-02 0.  1.
    10030    2    1    2    0    0  0.00000000000E+00  0.00000000000E+00 -0.81935809546E+01  0.11958681797E+04  0.11958401099E+04 0.  0.
        1    1    3    3  502    0  0.52618349439E+03  0.12976750367E+03 -0.25668877863E+03  0.59966474290E+03  0.50400001928E-02 0.  1.
       -1    1    3    3    0  502 -0.52618349439E+03 -0.12976750367E+03  0.24849519767E+03  0.59620343681E+03  0.50400001928E-02 0. -1.
</event>
<event>
 5   0  0.2926844E-03  0.1118430E+04  0.7818609E-02  0.9187413E-01
        1   -1    0    0  501    0  0.00000000000E+00  0.00000000000E+00  0.60826996522E+03  0.60826996524E+03  0.50400001928E-02 0.  1.
       -1   -1    0    0    0  501  0.00000000000E+00  0.00000000000E+00 -0.51411620468E+03  0.51411620471E+03  0.50400001928E-02 0. -1.
    10030    2    1    2    0    0  0.00000000000E+00  0.00000000000E+00  0.94153760534E+02  0.11223861699E+04  0.11184300532E+04 0.  0.
        5    1    3    3  502    0 -0.13117725613E+03  0.49488642434E+03  0.27277083699E+03  0.58012590446E+03  0.46999998093E+01 0. -1.
       -5    1    3    3    0  502  0.13117725613E+03 -0.49488642434E+03 -0.17861707645E+03  0.54226026548E+03  0.46999998093E+01 0.  1.
</event>
<event>
 5   0  0.5003526E-03  0.9541889E+03  0.7818609E-02  0.9360268E-01
        2   -1    0    0  501    0  0.00000000000E+00  0.00000000000E+00  0.43629283282E+03  0.43629283283E+03  0.25500000920E-02 0. -1.
       -2   -1    0    0    0  501  0.00000000000E+00  0.00000000000E+00 -0.52171182986E+03  0.52171182987E+03  0.25500000920E-02 0.  1.
    10030    2    1    2    0    0  0.00000000000E+00  0.00000000000E+00 -0.85418997039E+02  0.95800466269E+03  0.95418893762E+03 0.  0.
        2    1    3    3  502    0 -0.12525002362E+03  0.14505463381E+03  0.39594809336E+03  0.43989010883E+03  0.25500000920E-02 0. -1.
       -2    1    3    3    0  502  0.12525002362E+03 -0.14505463381E+03 -0.48136709039E+03  0.51811455387E+03  0.25500000920E-02 0.  1.
</event>
<event>
 5   0  0.2792518E-03  0.1197244E+04  0.7818609E-02  0.9115272E-01
        1   -1    0    0  501    0  0.00000000000E+00  0.00000000000E+00  0.52312294710E+03  0.52312294713E+03  0.50400001928E-02 0.  1.
       -1   -1    0    0    0  501  0.00000000000E+00  0.00000000000E+00 -0.68501752558E+03  0.68501752560E+03  0.50400001928E-02 0. -1.
    10030    2    1    2    0    0  0.00000000000E+00  0.00000000000E+00 -0.16189457848E+03  0.12081404727E+04  0.11972441469E+04 0.  0.
        2    1    3    3  502    0  0.23242354044E+03 -0.74601705803E+02  0.47061883654E+03  0.53015866113E+03  0.25500000920E-02 0.  1.
       -2    1    3    3    0  502 -0.23242354044E+03  0.74601705803E+02 -0.63251341503E+03  0.67798181160E+03  0.25500000920E-02 0. -1.
</event>
<event>
 5   0  0.5031575E-03  0.1084850E+04  0.7818609E-02  0.9220085E-01
       -2   -1    0    0    0  501  0.00000000000E+00  0.00000000000E+00  0.60834952926E+03  0.60834952927E+03  0.25500000920E-02 0. -1.
        2   -1    0    0  501    0  0.00000000000E+00  0.00000000000E+00 -0.48364473677E+03  0.48364473678E+03  0.25500000920E-02 0.  1.
    10030    2    1    2    0    0  0.00000000000E+00  0.00000000000E+00  0.12470479249E+03  0.10919942660E+04  0.10848503085E+04 0.  0.
        5    1    3    3  502    0  0.53161472681E+02  0.22501544813E+03 -0.43153626579E+03  0.48959547870E+03  0.46999998093E+01 0.  1.
       -5    1    3    3    0  502 -0.53161472681E+02 -0.22501544813E+03  0.55624105828E+03  0.60239878734E+03  0.46999998093E+01 0. -1.
</event>
<event>
 5   0  0.5189537E-03  0.1173248E+04  0.7818609E-02  0.9136600E-01
       -2   -1    0    0    0  501  0.00000000000E+00  0.00000000000E+00  0.30071310544E+03  0.30071310546E+03  0.25500000920E-02 0. -1.
        2   -1    0    0  501    0  0.00000000000E+00  0.00000000000E+00 -0.11443729781E+04  0.11443729781E+04  0.25500000920E-02 0.  1.
    10030    2    1    2    0    0  0.00000000000E+00  0.00000000000E+00 -0.84365987266E+03  0.14450860836E+04  0.11732484000E+04 0.  0.
        4    1    3    3  502    0 -0.40696471842E+02  0.19591587837E+03 -0.11010378698E+04  0.11190733836E+04  0.12699999809E+01 0.  1.
       -4    1    3    3    0  502  0.40696471842E+02 -0.19591587837E+03  0.25737799715E+03  0.32601269996E+03  0.12699999809E+01 0. -1.
</event>
<event>
 5   0  0.5189537E-03  0.1267567E+04  0.7818609E-02  0.9055688E-01
        2   -1    0    0  501    0  0.00000000000E+00  0.00000000000E+00  0.11880488361E+04  0.11880488361E+04  0.25500000920E-02 0.  1.
       -2   -1    0    0    0  501  0.00000000000E+00  0.00000000000E+00 -0.33810172351E+03  0.33810172352E+03  0.25500000920E-02 0. -1.
    10030    2    1    2    0    0  0.00000000000E+00  0.00000000000E+00  0.84994711259E+03  0.15261505596E+04  0.12675667385E+04 0.  0.
        4    1    3    3  502    0 -0.16383720423E+03 -0.89858565423E+02  0.11541271833E+04  0.11691571149E+04  0.12699999809E+01 0.  1.
       -4    1    3    3    0  502  0.16383720423E+03  0.89858565423E+02 -0.30418007068E+03  0.35699344471E+03  0.12699999809E+01 0. -1.
</event>
<event>
 5   0  0.1922125E-03  0.1201362E+04  0.7818609E-02  0.9111665E-01
       -3   -1    0    0    0  501  0.00000000000E+00  0.00000000000E+00  0.31673314011E+03  0.31673315621E+03  0.10100000352E+00 0.  1.
        3   -1    0    0  501    0  0.00000000000E+00  0.00000000000E+00 -0.11391854147E+04  0.11391854191E+04  0.10100000352E+00 0. -1.
    10030    2    1    2    0    0  0.00000000000E+00  0.00000000000E+00 -0.82245227456E+03  0.14559185753E+04  0.12013622077E+04 0.  0.
        2    1    3    3  502    0 -0.76425994508E+02  0.50466700089E+03 -0.79501093423E+03  0.94476033997E+03  0.25500000920E-02 0. -1.
       -2    1    3    3    0  502  0.76425994508E+02 -0.50466700089E+03 -0.27441340325E+02  0.51115823538E+03  0.25500000920E-02 0.  1.
</event>
<event>
 5   0  0.1922125E-03  0.1220601E+04  0.7818609E-02  0.9095013E-01
        3   -1    0    0  501    0  0.00000000000E+00  0.00000000000E+00  0.15109932859E+04  0.15109932893E+04  0.10100000352E+00 0. -1.
       -3   -1    0    0    0  501  0.00000000000E+00  0.00000000000E+00 -0.24650439734E+03  0.24650441803E+03  0.10100000352E+00 0.  1.
    10030    2    1    2    0    0  0.00000000000E+00  0.00000000000E+00  0.12644888886E+04  0.17574977074E+04  0.12206006890E+04 0.  0.
        4    1    3    3  502    0  0.22577376825E+03  0.38647031706E+03  0.34863028304E+02  0.44894336396E+03  0.12699999809E+01 0.  1.
       -4    1    3    3    0  502 -0.22577376825E+03 -0.38647031706E+03  0.12296258603E+04  0.13085543434E+04  0.12699999809E+01 0. -1.
</event>
<event>
 5   0  0.2926844E-03  0.1206275E+04  0.7818609E-02  0.9107381E-01
       -1   -1    0    0    0  501  0.00000000000E+00  0.00000000000E+00  0.53394144026E+03  0.53394144028E+03  0.50400001928E-02 0.  1.
        1   -1    0    0  501    0  0.00000000000E+00  0.00000000000E+00 -0.68130134939E+03  0.68130134941E+03  0.50400001928E-02 0. -1.
    10030    2    1    2    0    0  0.00000000000E+00  0.00000000000E+00 -0.14735990913E+03  0.12152427897E+04  0.12062752982E+04 0.  0.
        5    1    3    3  502    0 -0.52932891947E+03 -0.39362422618E+02  0.21483062942E+03  0.57263670388E+03  0.46999998093E+01 0. -1.
       -5    1    3    3    0  502  0.52932891947E+03  0.39362422618E+02 -0.36219053855E+03  0.64260608581E+03  0.46999998093E+01 0.  1.
</event>
<event>
 5   0  0.5467554E-03  0.9669716E+03  0.7818609E-02  0.9345530E-01
        2   -1    0    0  501    0  0.00000000000E+00  0.00000000000E+00  0.85012386199E+03  0.85012386200E+03  0.25500000920E-02 0.  1.
       -2   -1    0    0    0  501  0.00000000000E+00  0.00000000000E+00 -0.27496996462E+03  0.27496996463E+03  0.25500000920E-02 0. -1.
    10030    2    1    2    0    0  0.00000000000E+00  0.00000000000E+00  0.57515389737E+03  0.11250938266E+04  0.96697161957E+03 0.  0.
        1    1    3    3  502    0 -0.28236471133E+03  0.37965445706E+03  0.17185937636E+03  0.50339148010E+03  0.50400001928E-02 0.  1.
       -1    1    3    3    0  502  0.28236471133E+03 -0.37965445706E+03  0.40329452101E+03  0.62170234653E+03  0.50400001928E-02 0. -1.
</event>
<event>
 5   0  0.5031575E-03  0.1233509E+04  0.7818609E-02  0.9084021E-01
        2   -1    0    0  501    0  0.00000000000E+00  0.00000000000E+00  0.40162082649E+03  0.40162082650E+03  0.25500000920E-02 0.  1.
       -2   -1    0    0    0  501  0.00000000000E+00  0.00000000000E+00 -0.94712787359E+03  0.94712787359E+03  0.25500000920E-02 0. -1.
    10030    2    1    2    0    0  0.00000000000E+00  0.00000000000E+00 -0.54550704710E+03  0.13487487001E+04  0.12335092693E+04 0.  0.
        5    1    3    3  502    0  0.14814381317E+03 -0.50304655784E+03 -0.62767324452E+03  0.81792311412E+03  0.46999998093E+01 0. -1.
       -5    1    3    3    0  502 -0.14814381317E+03  0.50304655784E+03  0.82166197418E+02  0.53082558597E+03  0.46999998093E+01 0.  1.
</event>
<event>
 5   0  0.2930868E-03  0.1205747E+04  0.7818609E-02  0.9107841E-01
       -1   -1    0    0    0  501  0.00000000000E+00  0.00000000000E+00  0.21742829940E+03  0.21742829946E+03  0.50400001928E-02 0.  1.
        1   -1    0    0  501    0  0.00000000000E+00  0.00000000000E+00 -0.16716162424E+04  0.16716162424E+04  0.50400001928E-02 0. -1.
    10030    2    1    2    0    0  0.00000000000E+00  0.00000000000E+00 -0.14541879430E+04  0.18890445419E+04  0.12057473648E+04 0.  0.
        3    1    3    3  502    0  0.58452236842E+03  0.95106224165E+01 -0.49630561293E+03  0.76686121479E+03  0.10100000352E+00 0. -1.
       -3    1    3    3    0  502 -0.58452236842E+03 -0.95106224165E+01 -0.95788233009E+03  0.11221833271E+04  0.10100000352E+00 0.  1.
</event>
<event>
 5   0  0.5189537E-03  0.1164897E+04  0.7818609E-02  0.9144150E-01
        2   -1    0    0  501    0  0.00000000000E+00  0.00000000000E+00  0.23977117027E+04  0.23977117028E+04  0.25500000920E-02 0. -1.
       -2   -1    0    0    0  501  0.00000000000E+00  0.00000000000E+00 -0.14148742179E+03  0.14148742181E+03  0.25500000920E-02 0.  1.
    10030    2    1    2    0    0  0.00000000000E+00  0.00000000000E+00  0.22562242810E+04  0.25391991246E+04  0.11648966427E+04 0.  0.
        4    1    3    3  502    0  0.21000148110E+03  0.35779343286E+03  0.20192267160E+04  0.20614060508E+04  0.12699999809E+01 0. -1.
       -4    1    3    3    0  502 -0.21000148110E+03 -0.35779343286E+03  0.23699756497E+03  0.47779307379E+03  0.12699999809E+01 0.  1.
</event>
<event>
 5   0  0.5467554E-03  0.1196854E+04  0.7818609E-02  0.9115615E-01
       -2   -1    0    0    0  501  0.00000000000E+00  0.00000000000E+00  0.29544195743E+03  0.29544195744E+03  0.25500000920E-02 0. -1.
        2   -1    0    0  501    0  0.00000000000E+00  0.00000000000E+00 -0.12121330492E+04  0.12121330492E+04  0.25500000920E-02 0.  1.
    10030    2    1    2    0    0  0.00000000000E+00  0.00000000000E+00 -0.91669109181E+03  0.15075750067E+04  0.11968541444E+04 0.  0.
        1    1    3    3  502    0 -0.21334135377E+03  0.21872518379E+03  0.18978674423E+03  0.35968631829E+03  0.50400001928E-02 0. -1.
       -1    1    3    3    0  502  0.21334135377E+03 -0.21872518379E+03 -0.11064778360E+04  0.11478886884E+04  0.50400001928E-02 0.  1.
</event>
<event>
 5   0  0.2930868E-03  0.1508200E+04  0.7818609E-02  0.8879018E-01
       -1   -1    0    0    0  501  0.00000000000E+00  0.00000000000E+00  0.49670581945E+03  0.49670581947E+03  0.50400001928E-02 0. -1.
        1   -1    0    0  501    0  0.00000000000E+00  0.00000000000E+00 -0.11448768185E+04  0.11448768185E+04  0.50400001928E-02 0.  1.
    10030    2    1    2    0    0  0.00000000000E+00  0.00000000000E+00 -0.64817099906E+03  0.16415826380E+04  0.15082002232E+04 0.  0.
        3    1    3    3  502    0 -0.52920105390E+03 -0.53558645252E+03 -0.36975277037E+03  0.83882282096E+03  0.10100000352E+00 0. -1.
       -3    1    3    3    0  502  0.52920105390E+03  0.53558645252E+03 -0.27841822869E+03  0.80275981703E+03  0.10100000352E+00 0.  1.
</event>
<event>
 5   0  0.5108045E-03  0.1191944E+04  0.7818609E-02  0.9119937E-01
        2   -1    0    0  501    0  0.00000000000E+00  0.00000000000E+00  0.16511960151E+04  0.16511960151E+04  0.25500000920E-02 0.  1.
       -2   -1    0    0    0  501  0.00000000000E+00  0.00000000000E+00 -0.21510644659E+03  0.21510644661E+03  0.25500000920E-02 0. -1.
    10030    2    1    2    0    0  0.00000000000E+00  0.00000000000E+00  0.14360895685E+04  0.18663024617E+04  0.11919444743E+04 0.  0.
        3    1    3    3  502    0 -0.93768149564E+02  0.44249470604E+03  0.13256513196E+04  0.14006946356E+04  0.10100000352E+00 0.  1.
       -3    1    3    3    0  502  0.93768149564E+02 -0.44249470604E+03  0.11043824891E+03  0.46560782614E+03  0.10100000352E+00 0. -1.
</event>
<event>
 5   0  0.2930868E-03  0.1201574E+04  0.7818609E-02  0.9111480E-01
        1   -1    0    0  501    0  0.00000000000E+00  0.00000000000E+00  0.66518433423E+03  0.66518433425E+03  0.50400001928E-02 0. -1.
       -1   -1    0    0    0  501  0.00000000000E+00  0.00000000000E+00 -0.54262445980E+03  0.54262445983E+03  0.50400001928E-02 0.  1.
    10030    2    1    2    0    0  0.00000000000E+00  0.00000000000E+00  0.12255987442E+03  0.12078087941E+04  0.12015744506E+04 0.  0.
        3    1    3    3  502    0  0.27901623856E+03  0.25942109473E+03  0.52822857295E+03  0.65128703445E+03  0.10100000352E+00 0. -1.
       -3    1    3    3    0  502 -0.27901623856E+03 -0.25942109473E+03 -0.40566869852E+03  0.55652175962E+03  0.10100000352E+00 0.  1.
</event>
<event>
 5   0  0.2926844E-03  0.1192930E+04  0.7818609E-02  0.9119068E-01
        1   -1    0    0  501    0  0.00000000000E+00  0.00000000000E+00  0.16673801077E+04  0.16673801077E+04  0.50400001928E-02 0.  1.
       -1   -1    0    0    0  501  0.00000000000E+00  0.00000000000E+00 -0.21337088592E+03  0.21337088598E+03  0.50400001928E-02 0. -1.
    10030    2    1    2    0    0  0.00000000000E+00  0.00000000000E+00  0.14540092218E+04  0.18807509937E+04  0.11929297897E+04 0.  0.
        5    1    3    3  502    0 -0.33740751103E+03 -0.48693822698E+03  0.83618347965E+03  0.10247817168E+04  0.46999998093E+01 0.  1.
       -5    1    3    3    0  502  0.33740751103E+03  0.48693822698E+03  0.61782574218E+03  0.85596927695E+03  0.46999998093E+01 0. -1.
</event>
<event>
 5   0  0.2875848E-03  0.1188406E+04  0.7818609E-02  0.9123066E-01
        1   -1    0    0  501    0  0.00000000000E+00  0.00000000000E+00  0.96216849023E+03  0.96216849025E+03  0.50400001928E-02 0. -1.
       -1   -1    0    0    0  501  0.00000000000E+00  0.00000000000E+00 -0.36695976606E+03  0.36695976609E+03  0.50400001928E-02 0.  1.
    10030    2    1    2    0    0  0.00000000000E+00  0.00000000000E+00  0.59520872418E+03  0.13291282563E+04  0.11884058635E+04 0.  0.
        1    1    3    3  502    0  0.94128734193E+02 -0.58654046191E+03  0.31290627718E+03  0.67141661462E+03  0.50400001928E-02 0.  1.
       -1    1    3    3    0  502 -0.94128734193E+02  0.58654046191E+03  0.28230244699E+03  0.65771164173E+03  0.50400001928E-02 0. -1.
</event>
<event>
 5   0  0.2875848E-03  0.1294669E+04  0.7818609E-02  0.9033803E-01
        1   -1    0    0  501    0  0.00000000000E+00  0.00000000000E+00  0.19166880422E+04  0.19166880422E+04  0.50400001928E-02 0.  1.
       -1   -1    0    0    0  501  0.00000000000E+00  0.00000000000E+00 -0.21862831529E+03  0.21862831535E+03  0.50400001928E-02 0. -1.
    10030    2    1    2    0    0  0.00000000000E+00  0.00000000000E+00  0.16980597269E+04  0.21353163575E+04  0.12946694986E+04 0.  0.
        1    1    3    3  502    0  0.57086854385E+02  0.25831360339E+03 -0.12540265113E+03  0.29276381535E+03  0.50400001928E-02 0. -1.
       -1    1    3    3    0  502 -0.57086854385E+02 -0.25831360339E+03  0.18234623780E+04  0.18425525422E+04  0.50400001928E-02 0.  1.
</event>
<event>
 5   0  0.5108045E-03  0.1195417E+04  0.7818609E-02  0.9116878E-01
       -2   -1    0    0    0  501  0.00000000000E+00  0.00000000000E+00  0.35092801957E+03  0.35092801958E+03  0.25500000920E-02 0. -1.
        2   -1    0    0  501    0  0.00000000000E+00  0.00000000000E+00 -0.10180302905E+04  0.10180302905E+04  0.25500000920E-02 0.  1.
    10030    2    1    2    0    0  0.00000000000E+00  0.00000000000E+00 -0.66710227094E+03  0.13689583101E+04  0.11954168373E+04 0.  0.
        3    1    3    3  502    0 -0.23875643157E+03 -0.51950819666E+03 -0.53309374058E+03  0.78171756182E+03  0.10100000352E+00 0.  1.
       -3    1    3    3    0  502  0.23875643157E+03  0.51950819666E+03 -0.13400853037E+03  0.58724074827E+03  0.10100000352E+00 0. -1.
</event>
<event>
 5   0  0.2875848E-03  0.1159414E+04  0.7818609E-02  0.9149142E-01
       -1   -1    0    0    0  501  0.00000000000E+00  0.00000000000E+00  0.54516892019E+03  0.54516892021E+03  0.50400001928E-02 0. -1.
        1   -1    0    0  501    0  0.00000000000E+00  0.00000000000E+00 -0.61643323720E+03  0.61643323722E+03  0.50400001928E-02 0.  1.
    10030    2    1    2    0    0  0.00000000000E+00  0.00000000000E+00 -0.71264317010E+02  0.11616021574E+04  0.11594140629E+04 0.  0.
        1    1    3    3  502    0 -0.35594313077E+03  0.54845980613E+02 -0.49075442017E+03  0.60872283912E+03  0.50400001928E-02 0.  1.
       -1    1    3    3    0  502  0.35594313077E+03 -0.54845980613E+02  0.41949010316E+03  0.55287931830E+03  0.50400001928E-02 0. -1.
</event>
<event>
 5   0  0.2792518E-03  0.1112408E+04  0.7818609E-02  0.9193181E-01
        1   -1    0    0  501    0  0.00000000000E+00  0.00000000000E+00  0.97166928065E+03  0.97166928067E+03  0.50400001928E-02 0. -1.
       -1   -1    0    0    0  501  0.00000000000E+00  0.00000000000E+00 -0.31838318574E+03  0.31838318578E+03  0.50400001928E-02 0.  1.
    10030    2    1    2    0    0  0.00000000000E+00  0.00000000000E+00  0.65328609492E+03  0.12900524664E+04  0.11124084881E+04 0.  0.
        2    1    3    3  502    0  0.16869770288E+03 -0.11041527896E+03  0.92779904693E+03  0.94945327441E+03  0.25500000920E-02 0. -1.
       -2    1    3    3    0  502 -0.16869770288E+03  0.11041527896E+03 -0.27451295202E+03  0.34059919204E+03  0.25500000920E-02 0.  1.
</event>
<event>
 5   0  0.2926844E-03  0.1189996E+04  0.7818609E-02  0.9121659E-01
       -1   -1    0    0    0  501  0.00000000000E+00  0.00000000000E+00  0.50248371740E+03  0.50248371742E+03  0.50400001928E-02 0. -1.
        1   -1    0    0  501    0  0.00000000000E+00  0.00000000000E+00 -0.70454505149E+03  0.70454505151E+03  0.50400001928E-02 0.  1.
    10030    2    1    2    0    0  0.00000000000E+00  0.00000000000E+00 -0.20206133409E+03  0.12070287689E+04  0.11899956581E+04 0.  0.
        5    1    3    3  502    0  0.16877928831E+03  0.55049182687E+03  0.51023793915E+02  0.57805987333E+03  0.46999998093E+01 0. -1.
       -5    1    3    3    0  502 -0.16877928831E+03 -0.55049182687E+03 -0.25308512801E+03  0.62896889560E+03  0.46999998093E+01 0.  1.
</event>
<event>
 5   0  0.5467554E-03  0.1170149E+04  0.7818609E-02  0.9139394E-01
        2   -1    0    0  501    0  0.00000000000E+00  0.00000000000E+00  0.38635962899E+03  0.38635962900E+03  0.25500000920E-02 0.  1.
       -2   -1    0    0    0  501  0.00000000000E+00  0.00000000000E+00 -0.88599322601E+03  0.88599322601E+03  0.25500000920E-02 0. -1.
    10030    2    1    2    0    0  0.00000000000E+00  0.00000000000E+00 -0.49963359702E+03  0.12723528550E+04  0.11701487326E+04 0.  0.
        1    1    3    3  502    0 -0.33278281251E+03 -0.38751657598E+03 -0.56004033803E+03  0.75799648892E+03  0.50400001928E-02 0. -1.
       -1    1    3    3    0  502  0.33278281251E+03  0.38751657598E+03  0.60406741013E+02  0.51435636610E+03  0.50400001928E-02 0.  1.
</event>
<event>
 5   0  0.5108045E-03  0.1171205E+04  0.7818609E-02  0.9138441E-01
       -2   -1    0    0    0  501  0.00000000000E+00  0.00000000000E+00  0.14805724546E+04  0.14805724546E+04  0.25500000920E-02 0.  1.
        2   -1    0    0  501    0  0.00000000000E+00  0.00000000000E+00 -0.23162019058E+03  0.23162019060E+03  0.25500000920E-02 0. -1.
    10030    2    1    2    0    0  0.00000000000E+00  0.00000000000E+00  0.12489522640E+04  0.17121926452E+04  0.11712053178E+04 0.  0.
        3    1    3    3  502    0  0.11676975254E+03 -0.23414598845E+02  0.14626816600E+04  0.14675220841E+04  0.10100000352E+00 0.  1.
       -3    1    3    3    0  502 -0.11676975254E+03  0.23414598845E+02 -0.21372939601E+03  0.24467056110E+03  0.10100000352E+00 0. -1.
</event>
<event>
 5   0  0.2938349E-03  0.1196374E+04  0.7818609E-02  0.9116036E-01
       -1   -1    0    0    0  501  0.00000000000E+00  0.00000000000E+00  0.32892340145E+03  0.32892340149E+03  0.50400001928E-02 0.  1.
        1   -1    0    0  501    0  0.00000000000E+00  0.00000000000E+00 -0.10878754609E+04  0.10878754609E+04  0.50400001928E-02 0. -1.
    10030    2    1    2    0    0  0.00000000000E+00  0.00000000000E+00 -0.75895205948E+03  0.14167988624E+04  0.11963740168E+04 0.  0.
        4    1    3    3  502    0  0.22594032277E+03  0.19021023500E+03  0.23655531887E+03  0.37840321713E+03  0.12699999809E+01 0.  1.
       -4    1    3    3    0  502 -0.22594032277E+03 -0.19021023500E+03 -0.99550737835E+03  0.10383956453E+04  0.12699999809E+01 0. -1.
</event>
<event>
 5   0  0.2792518E-03  0.1192385E+04  0.7818609E-02  0.9119548E-01
        1   -1    0    0  501    0  0.00000000000E+00  0.00000000000E+00  0.12779991918E+04  0.12779991918E+04  0.50400001928E-02 0. -1.
       -1   -1    0    0    0  501  0.00000000000E+00  0.00000000000E+00 -0.27812672061E+03  0.27812672065E+03  0.50400001928E-02 0.  1.
    10030    2    1    2    0    0  0.00000000000E+00  0.00000000000E+00  0.99987247116E+03  0.15561259124E+04  0.11923853810E+04 0.  0.
        2    1    3    3  502    0 -0.42684885162E+03 -0.40589236458E+03  0.62023613286E+03  0.85536040022E+03  0.25500000920E-02 0. -1.
       -2    1    3    3    0  502  0.42684885162E+03  0.40589236458E+03  0.37963633831E+03  0.70076551222E+03  0.25500000920E-02 0.  1.
</event>
<event>
 5   0  0.2938349E-03  0.1197891E+04  0.7818609E-02  0.9114704E-01
       -1   -1    0    0    0  501  0.00000000000E+00  0.00000000000E+00  0.40235293616E+03  0.40235293619E+03  0.50400001928E-02 0. -1.
        1   -1    0    0  501    0  0.00000000000E+00  0.00000000000E+00 -0.89159526189E+03  0.89159526191E+03  0.50400001928E-02 0.  1.
    10030    2    1    2    0    0  0.00000000000E+00  0.00000000000E+00 -0.48924232573E+03  0.12939481981E+04  0.11978914333E+04 0.  0.
        4    1    3    3  502    0 -0.42548990572E+03  0.34399095532E+03 -0.50780369669E+03  0.74648351923E+03  0.12699999809E+01 0.  1.
       -4    1    3    3    0  502  0.42548990572E+03 -0.34399095532E+03  0.18561370951E+02  0.54746467887E+03  0.12699999809E+01 0. -1.
</event>
<event>
 5   0  0.2930868E-03  0.1182944E+04  0.7818609E-02  0.9127918E-01
       -1   -1    0    0    0  501  0.00000000000E+00  0.00000000000E+00  0.78554894182E+03  0.78554894184E+03  0.50400001928E-02 0.  1.
        1   -1    0    0  501    0  0.00000000000E+00  0.00000000000E+00 -0.44534376668E+03  0.44534376671E+03  0.50400001928E-02 0. -1.
    10030    2    1    2    0    0  0.00000000000E+00  0.00000000000E+00  0.34020517514E+03  0.12308927085E+04  0.11829443346E+04 0.  0.
        3    1    3    3  502    0 -0.54326626482E+02  0.55978806345E+03 -0.20418013430E+02  0.56278856048E+03  0.10100000352E+00 0. -1.
       -3    1    3    3    0  502  0.54326626482E+02 -0.55978806345E+03  0.36062318857E+03  0.66810414807E+03  0.10100000352E+00 0.  1.
</event>
<event>
 5   0  0.1922125E-03  0.1217427E+04  0.7818609E-02  0.9097738E-01
       -3   -1    0    0    0  501  0.00000000000E+00  0.00000000000E+00  0.22580509276E+03  0.22580511535E+03  0.10100000352E+00 0. -1.
        3   -1    0    0  501    0  0.00000000000E+00  0.00000000000E+00 -0.16409383144E+04  0.16409383175E+04  0.10100000352E+00 0.  1.
    10030    2    1    2    0    0  0.00000000000E+00  0.00000000000E+00 -0.14151332217E+04  0.18667434329E+04  0.12174272090E+04 0.  0.
        3    1    3    3  502    0 -0.54648087344E+03  0.26298198394E+03 -0.62742978286E+03  0.87262191786E+03  0.10100000352E+00 0. -1.
       -3    1    3    3    0  502  0.54648087344E+03 -0.26298198394E+03 -0.78770343882E+03  0.99412151503E+03  0.10100000352E+00 0.  1.
</event>
<event>
 5   0  0.2875848E-03  0.1260818E+04  0.7818609E-02  0.9061227E-01
        1   -1    0    0  501    0  0.00000000000E+00  0.00000000000E+00  0.16229422838E+04  0.16229422838E+04  0.50400001928E-02 0.  1.
       -1   -1    0    0    0  501  0.00000000000E+00  0.00000000000E+00 -0.24487363549E+03  0.24487363554E+03  0.50400001928E-02 0. -1.
    10030    2    1    2    0    0  0.00000000000E+00  0.00000000000E+00  0.13780686483E+04  0.18678159194E+04  0.12608184283E+04 0.  0.
        1    1    3    3  502    0 -0.23538246980E+03 -0.80793570424E+02  0.15470929428E+04  0.15669808811E+04  0.50400001928E-02 0.  1.
       -1    1    3    3    0  502  0.23538246980E+03  0.80793570424E+02 -0.16902429445E+03  0.30083503827E+03  0.50400001928E-02 0. -1.
</event>
<event>
 5   0  0.5189537E-03  0.1253515E+04  0.7818609E-02  0.9067263E-01
        2   -1    0    0  501    0  0.00000000000E+00  0.00000000000E+00  0.16134767561E+04  0.16134767561E+04  0.25500000920E-02 0. -1.
       -2   -1    0    0    0  501  0.00000000000E+00  0.00000000000E+00 -0.24346492679E+03  0.24346492680E+03  0.25500000920E-02 0.  1.
    10030    2    1    2    0    0  0.00000000000E+00  0.00000000000E+00  0.13700118293E+04  0.18569416829E+04  0.12535150582E+04 0.  0.
        4    1    3    3  502    0  0.80033040789E+00  0.46184943163E+03  0.13126631332E+04  0.13915429035E+04  0.12699999809E+01 0. -1.
       -4    1    3    3    0  502 -0.80033040789E+00 -0.46184943163E+03  0.57348696072E+02  0.46539877940E+03  0.12699999809E+01 0.  1.
</event>
<event>
 5   0  0.5189537E-03  0.1293225E+04  0.7818609E-02  0.9034955E-01
       -2   -1    0    0    0  501  0.00000000000E+00  0.00000000000E+00  0.44600460412E+03  0.44600460413E+03  0.25500000920E-02 0. -1.
        2   -1    0    0  501    0  0.00000000000E+00  0.00000000000E+00 -0.93745095884E+03  0.93745095884E+03  0.25500000920E-02 0.  1.
    10030    2    1    2    0    0  0.00000000000E+00  0.00000000000E+00 -0.49144635472E+03  0.13834555630E+04  0.12932245649E+04 0.  0.
        4    1    3    3  502    0 -0.10007770439E+03  0.50205691104E+03 -0.66828876711E+03  0.84183619427E+03  0.12699999809E+01 0.  1.
       -4    1    3    3    0  502  0.10007770439E+03 -0.50205691104E+03  0.17684241239E+03  0.54161936871E+03  0.12699999809E+01 0. -1.
</event>
<event>
 5   0  0.2875848E-03  0.1205214E+04  0.7818609E-02  0.9108305E-01
        1   -1    0    0  501    0  0.00000000000E+00  0.00000000000E+00  0.96379986837E+03  0.96379986838E+03  0.50400001928E-02 0. -1.
       -1   -1    0    0    0  501  0.00000000000E+00  0.00000000000E+00 -0.37677450453E+03  0.37677450457E+03  0.50400001928E-02 0.  1.
    10030    2    1    2    0    0  0.00000000000E+00  0.00000000000E+00  0.58702536383E+03  0.13405743730E+04  0.12052140356E+04 0.  0.
        1    1    3    3  502    0 -0.35381641056E+03  0.35066876252E+03 -0.83658921687E+02  0.50512716082E+03  0.50400001928E-02 0.  1.
       -1    1    3    3    0  502  0.35381641056E+03 -0.35066876252E+03  0.67068428552E+03  0.83544721213E+03  0.50400001928E-02 0. -1.
</event>
<event>
 5   0  0.2938349E-03  0.1215139E+04  0.7818609E-02  0.9099708E-01
        1   -1    0    0  501    0  0.00000000000E+00  0.00000000000E+00  0.10694267961E+04  0.10694267962E+04  0.50400001928E-02 0.  1.
       -1   -1    0    0    0  501  0.00000000000E+00  0.00000000000E+00 -0.34517603251E+03  0.34517603255E+03  0.50400001928E-02 0. -1.
    10030    2    1    2    0    0  0.00000000000E+00  0.00000000000E+00  0.72425076364E+03  0.14146028287E+04  0.12151386729E+04 0.  0.
        4    1    3    3  502    0 -0.10491853747E+03 -0.34913706995E+03  0.92794779948E+03  0.99699213868E+03  0.12699999809E+01 0.  1.
       -4    1    3    3    0  502  0.10491853747E+03  0.34913706995E+03 -0.20369703585E+03  0.41761069003E+03  0.12699999809E+01 0. -1.
</event>
<event>
 5   0  0.5189537E-03  0.1181655E+04  0.7818609E-02  0.9129067E-01
        2   -1    0    0  501    0  0.00000000000E+00  0.00000000000E+00  0.99074815739E+03  0.99074815739E+03  0.25500000920E-02 0.  1.
       -2   -1    0    0    0  501  0.00000000000E+00  0.00000000000E+00 -0.35233680972E+03  0.35233680973E+03  0.25500000920E-02 0. -1.
    10030    2    1    2    0    0  0.00000000000E+00  0.00000000000E+00  0.63841134767E+03  0.13430849671E+04  0.11816548481E+04 0.  0.
        4    1    3    3  502    0 -0.22457194141E+03  0.41247146023E+03  0.72666249780E+03  0.86521977612E+03  0.12699999809E+01 0.  1.
       -4    1    3    3    0  502  0.22457194141E+03 -0.41247146023E+03 -0.88251150136E+02  0.47786519101E+03  0.12699999809E+01 0. -1.
</event>
<event>
 5   0  0.5189537E-03  0.1187527E+04  0.7818609E-02  0.9123845E-01
        2   -1    0    0  501    0  0.00000000000E+00  0.00000000000E+00  0.18245419632E+04  0.18245419632E+04  0.25500000920E-02 0. -1.
       -2   -1    0    0    0  501  0.00000000000E+00  0.00000000000E+00 -0.19322944165E+03  0.19322944167E+03  0.25500000920E-02 0.  1.
    10030    2    1    2    0    0  0.00000000000E+00  0.00000000000E+00  0.16313125216E+04  0.20177714049E+04  0.11875272205E+04 0.  0.
        4    1    3    3  502    0  0.99900078694E+02  0.49282418107E+03  0.27915416493E+03  0.57513855710E+03  0.12699999809E+01 0.  1.
       -4    1    3    3    0  502 -0.99900078694E+02 -0.49282418107E+03  0.13521583566E+04  0.14426328478E+04  0.12699999809E+01 0. -1.
</event>
<event>
 5   0  0.5031575E-03  0.1142946E+04  0.7818609E-02  0.9164316E-01
       -2   -1    0    0    0  501  0.00000000000E+00  0.00000000000E+00  0.57348380577E+03  0.57348380578E+03  0.25500000920E-02 0. -1.
        2   -1    0    0  501    0  0.00000000000E+00  0.00000000000E+00 -0.56946902197E+03  0.56946902198E+03  0.25500000920E-02 0.  1.
    10030    2    1    2    0    0  0.00000000000E+00  0.00000000000E+00  0.40147837974E+01  0.11429528278E+04  0.11429457765E+04 0.  0.
        5    1    3    3  502    0 -0.46565765883E+03  0.25948566416E+03 -0.20388051426E+03  0.57075320343E+03  0.46999998093E+01 0. -1.
       -5    1    3    3    0  502  0.46565765883E+03 -0.25948566416E+03  0.20789529806E+03  0.57219962433E+03  0.46999998093E+01 0.  1.
</event>
<event>
 5   0  0.5467554E-03  0.1204999E+04  0.7818609E-02  0.9108492E-01
        2   -1    0    0  501    0  0.00000000000E+00  0.00000000000E+00  0.17243051168E+04  0.17243051168E+04  0.25500000920E-02 0.  1.
       -2   -1    0    0    0  501  0.00000000000E+00  0.00000000000E+00 -0.21052292851E+03  0.21052292853E+03  0.25500000920E-02 0. -1.
    10030    2    1    2    0    0  0.00000000000E+00  0.00000000000E+00  0.15137821883E+04  0.19348280453E+04  0.12049991915E+04 0.  0.
        1    1    3    3  502    0 -0.41595687593E+03 -0.42885755391E+03  0.88195639754E+03  0.10652633531E+04  0.50400001928E-02 0.  1.
       -1    1    3    3    0  502  0.41595687593E+03  0.42885755391E+03  0.63182579076E+03  0.86956469229E+03  0.50400001928E-02 0. -1.
</event>
<event>
 5   0  0.1922125E-03  0.1207835E+04  0.7818609E-02  0.9106026E-01
       -3   -1    0    0    0  501  0.00000000000E+00  0.00000000000E+00  0.43141204414E+03  0.43141205597E+03  0.10100000352E+00 0. -1.
        3   -1    0    0  501    0  0.00000000000E+00  0.00000000000E+00 -0.84540108083E+03  0.84540108686E+03  0.10100000352E+00 0.  1.
    10030    2    1    2    0    0  0.00000000000E+00  0.00000000000E+00 -0.41398903668E+03  0.12768131428E+04  0.12078347897E+04 0.  0.
        2    1    3    3  502    0 -0.10560241230E+03  0.20189903597E+03  0.38423208292E+03  0.44670950713E+03  0.25500000920E-02 0. -1.
       -2    1    3    3    0  502  0.10560241230E+03 -0.20189903597E+03 -0.79822111960E+03  0.83010363570E+03  0.25500000920E-02 0.  1.
</event>
<event>
 5   0  0.5031575E-03  0.1191636E+04  0.7818609E-02  0.9120210E-01
       -2   -1    0    0    0  501  0.00000000000E+00  0.00000000000E+00  0.26630323856E+03  0.26630323857E+03  0.25500000920E-02 0. -1.
        2   -1    0    0  501    0  0.00000000000E+00  0.00000000000E+00 -0.13330622793E+04  0.13330622793E+04  0.25500000920E-02 0.  1.
    10030    2    1    2    0    0  0.00000000000E+00  0.00000000000E+00 -0.10667590407E+04  0.15993655179E+04  0.11916355184E+04 0.  0.
        5    1    3    3  502    0  0.23965083632E+03  0.46761984187E+03 -0.91032312267E+03  0.10510999560E+04  0.46999998093E+01 0.  1.
       -5    1    3    3    0  502 -0.23965083632E+03 -0.46761984187E+03 -0.15643591807E+03  0.54826556186E+03  0.46999998093E+01 0. -1.
</event>
<event>
 5   0  0.2792518E-03  0.1198659E+04  0.7818609E-02  0.9114031E-01
        1   -1    0    0  501    0  0.00000000000E+00  0.00000000000E+00  0.12762011900E+04  0.12762011900E+04  0.50400001928E-02 0. -1.
       -1   -1    0    0    0  501  0.00000000000E+00  0.00000000000E+00 -0.28145717165E+03  0.28145717169E+03  0.50400001928E-02 0.  1.
    10030    2    1    2    0    0  0.00000000000E+00  0.00000000000E+00  0.99474401838E+03  0.15576583617E+04  0.11986592134E+04 0.  0.
        2    1    3    3  502    0 -0.11529476054E+03  0.96441607318E+02  0.12513087385E+04  0.12603044967E+04  0.25500000920E-02 0. -1.
       -2    1    3    3    0  502  0.11529476054E+03 -0.96441607318E+02 -0.25656472011E+03  0.29735386501E+03  0.25500000920E-02 0.  1.
</event>
<event>
 5   0  0.5031575E-03  0.1205429E+04  0.7818609E-02  0.9108117E-01
        2   -1    0    0  501    0  0.00000000000E+00  0.00000000000E+00  0.10349930273E+04  0.10349930273E+04  0.25500000920E-02 0. -1.
       -2   -1    0    0    0  501  0.00000000000E+00  0.00000000000E+00 -0.35098304773E+03  0.35098304774E+03  0.25500000920E-02 0.  1.
    10030    2    1    2    0    0  0.00000000000E+00  0.00000000000E+00  0.68400997954E+03  0.13859760750E+04  0.12054293959E+04 0.  0.
        5    1    3    3  502    0 -0.11159329845E+02 -0.15859243770E+03  0.10104273836E+04  0.10228693364E+04  0.46999998093E+01 0. -1.
       -5    1    3    3    0  502  0.11159329845E+02  0.15859243770E+03 -0.32641740404E+03  0.36310673857E+03  0.46999998093E+01 0.  1.
</event>
<event>
 5   0  0.2930868E-03  0.1176337E+04  0.7818609E-02  0.9133824E-01
        1   -1    0    0  501    0  0.00000000000E+00  0.00000000000E+00  0.71336061588E+03  0.71336061590E+03  0.50400001928E-02 0.  1.
       -1   -1    0    0    0  501  0.00000000000E+00  0.00000000000E+00 -0.48494738741E+03  0.48494738743E+03  0.50400001928E-02 0. -1.
    10030    2    1    2    0    0  0.00000000000E+00  0.00000000000E+00  0.22841322847E+03  0.11983080033E+04  0.11763373104E+04 0.  0.
        3    1    3    3  502    0  0.29383296026E+03  0.50921045799E+03  0.13212079133E+03  0.60256867887E+03  0.10100000352E+00 0. -1.
       -3    1    3    3    0  502 -0.29383296026E+03 -0.50921045799E+03  0.96292437143E+02  0.59573932446E+03  0.10100000352E+00 0.  1.
</event>
<event>
 5   0  0.2938349E-03  0.1182321E+04  0.7818609E-02  0.9128473E-01
       -1   -1    0    0    0  501  0.00000000000E+00  0.00000000000E+00  0.51165514389E+03  0.51165514392E+03  0.50400001928E-02 0.  1.
        1   -1    0    0  501    0  0.00000000000E+00  0.00000000000E+00 -0.68302033308E+03  0.68302033310E+03  0.50400001928E-02 0. -1.
    10030    2    1    2    0    0  0.00000000000E+00  0.00000000000E+00 -0.17136518919E+03  0.11946754770E+04  0.11823212200E+04 0.  0.
        4    1    3    3  502    0 -0.53746296697E+03  0.45573212422E+02  0.15876653662E+03  0.56227376304E+03  0.12699999809E+01 0.  1.
       -4    1    3    3    0  502  0.53746296697E+03 -0.45573212422E+02 -0.33013172581E+03  0.63240171398E+03  0.12699999809E+01 0. -1.
</event>
<event>
 5   0  0.2930868E-03  0.1172043E+04  0.7818609E-02  0.9137686E-01
        1   -1    0    0  501    0  0.00000000000E+00  0.00000000000E+00  0.16618833296E+04  0.16618833296E+04  0.50400001928E-02 0.  1.
       -1   -1    0    0    0  501  0.00000000000E+00  0.00000000000E+00 -0.20664573511E+03  0.20664573517E+03  0.50400001928E-02 0. -1.
    10030    2    1    2    0    0  0.00000000000E+00  0.00000000000E+00  0.14552375945E+04  0.18685290647E+04  0.11720428360E+04 0.  0.
        3    1    3    3  502    0 -0.53614607320E+03 -0.55073965342E+02  0.36081888669E+03  0.64859543065E+03  0.10100000352E+00 0. -1.
       -3    1    3    3    0  502  0.53614607320E+03  0.55073965342E+02  0.10944187078E+04  0.12199336341E+04  0.10100000352E+00 0.  1.
</event>
<event>
 5   0  0.2930868E-03  0.1218078E+04  0.7818609E-02  0.9097178E-01
        1   -1    0    0  501    0  0.00000000000E+00  0.00000000000E+00  0.94791450617E+03  0.94791450619E+03  0.50400001928E-02 0.  1.
       -1   -1    0    0    0  501  0.00000000000E+00  0.00000000000E+00 -0.39131005392E+03  0.39131005395E+03  0.50400001928E-02 0. -1.
    10030    2    1    2    0    0  0.00000000000E+00  0.00000000000E+00  0.55660445226E+03  0.13392245601E+04  0.12180779557E+04 0.  0.
        3    1    3    3  502    0 -0.37963240855E+03 -0.47295045561E+03  0.21683512294E+03  0.64406550896E+03  0.10100000352E+00 0. -1.
       -3    1    3    3    0  502  0.37963240855E+03  0.47295045561E+03  0.33976932932E+03  0.69515905118E+03  0.10100000352E+00 0.  1.
</event>
<event>
 5   0  0.5003526E-03  0.1174979E+04  0.7818609E-02  0.9135044E-01
       -2   -1    0    0    0  501  0.00000000000E+00  0.00000000000E+00  0.22789021111E+03  0.22789021112E+03  0.25500000920E-02 0. -1.
        2   -1    0    0  501    0  0.00000000000E+00  0.00000000000E+00 -0.15145186069E+04  0.15145186069E+04  0.25500000920E-02 0.  1.
    10030    2    1    2    0    0  0.00000000000E+00  0.00000000000E+00 -0.12866283958E+04  0.17424088180E+04  0.11749790893E+04 0.  0.
        2    1    3    3  502    0 -0.36472526968E+03  0.45819685094E+03 -0.71247474011E+03  0.92227389199E+03  0.25500000920E-02 0. -1.
       -2    1    3    3    0  502  0.36472526968E+03 -0.45819685094E+03 -0.57415365570E+03  0.82013492604E+03  0.25500000920E-02 0.  1.
</event>
<event>
 5   0  0.2926844E-03  0.1246924E+04  0.7818609E-02  0.9072748E-01
        1   -1    0    0  501    0  0.00000000000E+00  0.00000000000E+00  0.13173614095E+04  0.13173614095E+04  0.50400001928E-02 0.  1.
       -1   -1    0    0    0  501  0.00000000000E+00  0.00000000000E+00 -0.29506300386E+03  0.29506300390E+03  0.50400001928E-02 0. -1.
    10030    2    1    2    0    0  0.00000000000E+00  0.00000000000E+00  0.10222984056E+04  0.16124244134E+04  0.12469235978E+04 0.  0.
        5    1    3    3  502    0 -0.26887674411E+03 -0.54139195905E+03  0.31383653900E+03  0.68111336799E+03  0.46999998093E+01 0.  1.
       -5    1    3    3    0  502  0.26887674411E+03  0.54139195905E+03  0.70846186664E+03  0.93131104542E+03  0.46999998093E+01 0. -1.
</event>
<event>
 5   0  0.2792518E-03  0.1180087E+04  0.7818609E-02  0.9130467E-01
       -1   -1    0    0    0  501  0.00000000000E+00  0.00000000000E+00  0.43012068869E+03  0.43012068872E+03  0.50400001928E-02 0. -1.
        1   -1    0    0  501    0  0.00000000000E+00  0.00000000000E+00 -0.80942770946E+03  0.80942770947E+03  0.50400001928E-02 0.  1.
    10030    2    1    2    0    0  0.00000000000E+00  0.00000000000E+00 -0.37930702076E+03  0.12395483982E+04  0.11800874609E+04 0.  0.
        2    1    3    3  502    0  0.25979403555E+02  0.43563606588E+03  0.22746766486E+03  0.49213336594E+03  0.25500000920E-02 0. -1.
       -2    1    3    3    0  502 -0.25979403555E+02 -0.43563606588E+03 -0.60677468563E+03  0.74741503225E+03  0.25500000920E-02 0.  1.
</event>
<event>
 5   0  0.2930868E-03  0.1182652E+04  0.7818609E-02  0.9128178E-01
        1   -1    0    0  501    0  0.00000000000E+00  0.00000000000E+00  0.76861120135E+03  0.76861120137E+03  0.50400001928E-02 0.  1.
       -1   -1    0    0    0  501  0.00000000000E+00  0.00000000000E+00 -0.45493292403E+03  0.45493292405E+03  0.50400001928E-02 0. -1.
    10030    2    1    2    0    0  0.00000000000E+00  0.00000000000E+00  0.31367827732E+03  0.12235441254E+04  0.11826521742E+04 0.  0.
        3    1    3    3  502    0  0.40217602278E+03  0.30736943413E+03 -0.15941823219E+03  0.53069360774E+03  0.10100000352E+00 0. -1.
       -3    1    3    3    0  502 -0.40217602278E+03 -0.30736943413E+03  0.47309650952E+03  0.69285051768E+03  0.10100000352E+00 0.  1.
</event>
<event>
 5   0  0.5467554E-03  0.1203090E+04  0.7818609E-02  0.9110156E-01
        2   -1    0    0  501    0  0.00000000000E+00  0.00000000000E+00  0.73514097538E+03  0.73514097538E+03  0.25500000920E-02 0. -1.
       -2   -1    0    0    0  501  0.00000000000E+00  0.00000000000E+00 -0.49222719186E+03  0.49222719186E+03  0.25500000920E-02 0.  1.
    10030    2    1    2    0    0  0.00000000000E+00  0.00000000000E+00  0.24291378352E+03  0.12273681672E+04  0.12030899849E+04 0.  0.
        1    1    3    3  502    0  0.25585795052E+03  0.25652609298E+02  0.67624625935E+03  0.72348486544E+03  0.50400001928E-02 0. -1.
       -1    1    3    3    0  502 -0.25585795052E+03 -0.25652609298E+02 -0.43333247583E+03  0.50388330181E+03  0.50400001928E-02 0.  1.
</event>
<event>
 5   0  0.5003526E-03  0.1184185E+04  0.7818609E-02  0.9126813E-01
        2   -1    0    0  501    0  0.00000000000E+00  0.00000000000E+00  0.16443179537E+04  0.16443179537E+04  0.25500000920E-02 0. -1.
       -2   -1    0    0    0  501  0.00000000000E+00  0.00000000000E+00 -0.21320301261E+03  0.21320301262E+03  0.25500000920E-02 0.  1.
    10030    2    1    2    0    0  0.00000000000E+00  0.00000000000E+00  0.14311149410E+04  0.18575209663E+04  0.11841850217E+04 0.  0.
        2    1    3    3  502    0  0.34951645361E+03  0.35214214340E+03  0.20870633108E+03  0.53826032098E+03  0.25500000920E-02 0.  1.
       -2    1    3    3    0  502 -0.34951645361E+03 -0.35214214340E+03  0.12224086100E+04  0.13192606453E+04  0.25500000920E-02 0. -1.
</event>
<event>
 5   0  0.2930868E-03  0.1135760E+04  0.7818609E-02  0.9171022E-01
        1   -1    0    0  501    0  0.00000000000E+00  0.00000000000E+00  0.83576244804E+03  0.83576244806E+03  0.50400001928E-02 0.  1.
       -1   -1    0    0    0  501  0.00000000000E+00  0.00000000000E+00 -0.38586062971E+03  0.38586062975E+03  0.50400001928E-02 0. -1.
    10030    2    1    2    0    0  0.00000000000E+00  0.00000000000E+00  0.44990181833E+03  0.12216230778E+04  0.11357602291E+04 0.  0.
        3    1    3    3  502    0 -0.42900342200E+03  0.26429982379E+03 -0.56744215731E+02  0.50706828846E+03  0.10100000352E+00 0. -1.
       -3    1    3    3    0  502  0.42900342200E+03 -0.26429982379E+03  0.50664603406E+03  0.71455478934E+03  0.10100000352E+00 0.  1.
</event>
<event>
 5   0  0.5467554E-03  0.1158544E+04  0.7818609E-02  0.9149938E-01
        2   -1    0    0  501    0  0.00000000000E+00  0.00000000000E+00  0.77993167855E+03  0.77993167855E+03  0.25500000920E-02 0.  1.
       -2   -1    0    0    0  501  0.00000000000E+00  0.00000000000E+00 -0.43023742490E+03  0.43023742490E+03  0.25500000920E-02 0. -1.
    10030    2    1    2    0    0  0.00000000000E+00  0.00000000000E+00  0.34969425365E+03  0.12101691035E+04  0.11585435632E+04 0.  0.
        1    1    3    3  502    0 -0.46797426785E+02  0.57439683075E+03  0.23605944254E+03  0.62277265416E+03  0.50400001928E-02 0. -1.
       -1    1    3    3    0  502  0.46797426785E+02 -0.57439683075E+03  0.11363481112E+03  0.58739644930E+03  0.50400001928E-02 0.  1.
</event>
<event>
 5   0  0.2875848E-03  0.1208362E+04  0.7818609E-02  0.9105569E-01
        1   -1    0    0  501    0  0.00000000000E+00  0.00000000000E+00  0.11830802312E+04  0.11830802312E+04  0.50400001928E-02 0. -1.
       -1   -1    0    0    0  501  0.00000000000E+00  0.00000000000E+00 -0.30854593902E+03  0.30854593906E+03  0.50400001928E-02 0.  1.
    10030    2    1    2    0    0  0.00000000000E+00  0.00000000000E+00  0.87453429219E+03  0.14916261703E+04  0.12083618678E+04 0.  0.
        1    1    3    3  502    0 -0.56109561242E+02 -0.95518068401E+01  0.11797634763E+04  0.11811356314E+04  0.50400001928E-02 0. -1.
       -1    1    3    3    0  502  0.56109561242E+02  0.95518068401E+01 -0.30522918408E+03  0.31049053885E+03  0.50400001928E-02 0.  1.
</event>
<event>
 5   0  0.2930868E-03  0.1243398E+04  0.7818609E-02  0.9075696E-01
       -1   -1    0    0    0  501  0.00000000000E+00  0.00000000000E+00  0.49914996163E+03  0.49914996166E+03  0.50400001928E-02 0. -1.
        1   -1    0    0  501    0  0.00000000000E+00  0.00000000000E+00 -0.77433585518E+03  0.77433585520E+03  0.50400001928E-02 0.  1.
    10030    2    1    2    0    0  0.00000000000E+00  0.00000000000E+00 -0.27518589354E+03  0.12734858169E+04  0.12433981059E+04 0.  0.
        3    1    3    3  502    0  0.15678594171E+03 -0.55734833122E+03 -0.36954769101E+03  0.68686570737E+03  0.10100000352E+00 0.  1.
       -3    1    3    3    0  502 -0.15678594171E+03  0.55734833122E+03  0.94361797465E+02  0.58662010948E+03  0.10100000352E+00 0. -1.
</event>
<event>
 5   0  0.5189537E-03  0.9740545E+03  0.7818609E-02  0.9337468E-01
        2   -1    0    0  501    0  0.00000000000E+00  0.00000000000E+00  0.95319636743E+03  0.95319636743E+03  0.25500000920E-02 0.  1.
       -2   -1    0    0    0  501  0.00000000000E+00  0.00000000000E+00 -0.24884224122E+03  0.24884224123E+03  0.25500000920E-02 0. -1.
    10030    2    1    2    0    0  0.00000000000E+00  0.00000000000E+00  0.70435412621E+03  0.12020386087E+04  0.97405445516E+03 0.  0.
        4    1    3    3  502    0  0.47172043929E+03  0.13320224029E+02  0.50075826201E+03  0.68808288097E+03  0.12699999809E+01 0. -1.
       -4    1    3    3    0  502 -0.47172043929E+03 -0.13320224029E+02  0.20359586420E+03  0.51395572770E+03  0.12699999809E+01 0.  1.
</event>
<event>
 5   0  0.1922125E-03  0.1163636E+04  0.7818609E-02  0.9145295E-01
       -4   -1    0    0    0  501  0.00000000000E+00  0.00000000000E+00  0.69271418628E+03  0.69271535047E+03  0.12699999809E+01 0. -1.
        4   -1    0    0  501    0  0.00000000000E+00  0.00000000000E+00 -0.48867267861E+03  0.48867432890E+03  0.12699999809E+01 0.  1.
    10030    2    1    2    0    0  0.00000000000E+00  0.00000000000E+00  0.20404150767E+03  0.11813896794E+04  0.11636359558E+04 0.  0.
        3    1    3    3  502    0  0.41965002575E+03 -0.40279405513E+03  0.11498087004E+03  0.59293322190E+03  0.10100000352E+00 0. -1.
       -3    1    3    3    0  502 -0.41965002575E+03  0.40279405513E+03  0.89060637627E+02  0.58845645747E+03  0.10100000352E+00 0.  1.
</event>
<event>
 5   0  0.5467554E-03  0.1206139E+04  0.7818609E-02  0.9107500E-01
        2   -1    0    0  501    0  0.00000000000E+00  0.00000000000E+00  0.72393550724E+03  0.72393550724E+03  0.25500000920E-02 0. -1.
       -2   -1    0    0    0  501  0.00000000000E+00  0.00000000000E+00 -0.50238293668E+03  0.50238293669E+03  0.25500000920E-02 0.  1.
    10030    2    1    2    0    0  0.00000000000E+00  0.00000000000E+00  0.22155257055E+03  0.12263184439E+04  0.12061390402E+04 0.  0.
        1    1    3    3  502    0  0.88287154378E+02 -0.16365633807E+03  0.69405967568E+03  0.71853799625E+03  0.50400001928E-02 0. -1.
       -1    1    3    3    0  502 -0.88287154378E+02  0.16365633807E+03 -0.47250710513E+03  0.50778044768E+03  0.50400001928E-02 0.  1.
</event>
<event>
 5   0  0.5031575E-03  0.1198035E+04  0.7818609E-02  0.9114578E-01
        2   -1    0    0  501    0  0.00000000000E+00  0.00000000000E+00  0.60299964422E+03  0.60299964423E+03  0.25500000920E-02 0.  1.
       -2   -1    0    0    0  501  0.00000000000E+00  0.00000000000E+00 -0.59506174791E+03  0.59506174791E+03  0.25500000920E-02 0. -1.
    10030    2    1    2    0    0  0.00000000000E+00  0.00000000000E+00  0.79378963150E+01  0.11980613921E+04  0.11980350951E+04 0.  0.
        5    1    3    3  502    0  0.16887202176E+03  0.53936835370E+03  0.20237681012E+03  0.60034527064E+03  0.46999998093E+01 0.  1.
       -5    1    3    3    0  502 -0.16887202176E+03 -0.53936835370E+03 -0.19443891380E+03  0.59771612150E+03  0.46999998093E+01 0. -1.
</event>
<event>
 5   0  0.5189537E-03  0.1185777E+04  0.7818609E-02  0.9125398E-01
       -2   -1    0    0    0  501  0.00000000000E+00  0.00000000000E+00  0.92764723022E+03  0.92764723022E+03  0.25500000920E-02 0. -1.
        2   -1    0    0  501    0  0.00000000000E+00  0.00000000000E+00 -0.37893369990E+03  0.37893369991E+03  0.25500000920E-02 0.  1.
    10030    2    1    2    0    0  0.00000000000E+00  0.00000000000E+00  0.54871353032E+03  0.13065809301E+04  0.11857770400E+04 0.  0.
        4    1    3    3  502    0  0.23426710746E+03 -0.49092492335E+03  0.14475232428E+02  0.54415025798E+03  0.12699999809E+01 0.  1.
       -4    1    3    3    0  502 -0.23426710746E+03  0.49092492335E+03  0.53423829789E+03  0.76243067215E+03  0.12699999809E+01 0. -1.
</event>
<event>
 5   0  0.2930868E-03  0.1096640E+04  0.7818609E-02  0.9208473E-01
       -1   -1    0    0    0  501  0.00000000000E+00  0.00000000000E+00  0.94104506735E+03  0.94104506737E+03  0.50400001928E-02 0.  1.
        1   -1    0    0  501    0  0.00000000000E+00  0.00000000000E+00 -0.31949026528E+03  0.31949026532E+03  0.50400001928E-02 0. -1.
    10030    2    1    2    0    0  0.00000000000E+00  0.00000000000E+00  0.62155480207E+03  0.12605353327E+04  0.10966398465E+04 0.  0.
        3    1    3    3  502    0 -0.54529079330E+03  0.25081344800E+02  0.25123171663E+03  0.60090640599E+03  0.10100000352E+00 0. -1.
       -3    1    3    3    0  502  0.54529079330E+03 -0.25081344800E+02  0.37032308544E+03  0.65962892669E+03  0.10100000352E+00 0.  1.
</event>
<event>
 5   0  0.2930868E-03  0.1193556E+04  0.7818609E-02  0.9118516E-01
       -1   -1    0    0    0  501  0.00000000000E+00  0.00000000000E+00  0.77123560015E+03  0.77123560017E+03  0.50400001928E-02 0.  1.
        1   -1    0    0  501    0  0.00000000000E+00  0.00000000000E+00 -0.46178382095E+03  0.46178382098E+03  0.50400001928E-02 0. -1.
    10030    2    1    2    0    0  0.00000000000E+00  0.00000000000E+00  0.30945177920E+03  0.12330194211E+04  0.11935562363E+04 0.  0.
        3    1    3    3  502    0 -0.17928419735E+03  0.48426172992E+03  0.46376881900E+03  0.69407043891E+03  0.10100000352E+00 0.  1.
       -3    1    3    3    0  502  0.17928419735E+03 -0.48426172992E+03 -0.15431703980E+03  0.53894898224E+03  0.10100000352E+00 0. -1.
</event>
<event>
 5   0  0.5108045E-03  0.1219744E+04  0.7818609E-02  0.9095748E-01
        2   -1    0    0  501    0  0.00000000000E+00  0.00000000000E+00  0.60935343874E+03  0.60935343875E+03  0.25500000920E-02 0. -1.
       -2   -1    0    0    0  501  0.00000000000E+00  0.00000000000E+00 -0.61039089456E+03  0.61039089456E+03  0.25500000920E-02 0.  1.
    10030    2    1    2    0    0  0.00000000000E+00  0.00000000000E+00 -0.10374558156E+01  0.12197443333E+04  0.12197438921E+04 0.  0.
        3    1    3    3  502    0  0.31333734076E+03 -0.23181873180E+03 -0.46958559524E+03  0.61027113235E+03  0.10100000352E+00 0.  1.
       -3    1    3    3    0  502 -0.31333734076E+03  0.23181873180E+03  0.46854813942E+03  0.60947320096E+03  0.10100000352E+00 0. -1.
</event>
<event>
 5   0  0.5189537E-03  0.1220288E+04  0.7818609E-02  0.9095282E-01
        2   -1    0    0  501    0  0.00000000000E+00  0.00000000000E+00  0.29243542418E+03  0.29243542419E+03  0.25500000920E-02 0. -1.
       -2   -1    0    0    0  501  0.00000000000E+00  0.00000000000E+00 -0.12730176738E+04  0.12730176738E+04  0.25500000920E-02 0.  1.
    10030    2    1    2    0    0  0.00000000000E+00  0.00000000000E+00 -0.98058224960E+03  0.15654530980E+04  0.12202876111E+04 0.  0.
        4    1    3    3  502    0 -0.26557938921E+03 -0.37585318271E+03  0.23613664296E+02  0.46082235727E+03  0.12699999809E+01 0. -1.
       -4    1    3    3    0  502  0.26557938921E+03  0.37585318271E+03 -0.10041959139E+04  0.11046307407E+04  0.12699999809E+01 0.  1.
</event>
<event>
 5   0  0.2792518E-03  0.1211367E+04  0.7818609E-02  0.9102965E-01
        1   -1    0    0  501    0  0.00000000000E+00  0.00000000000E+00  0.89545496908E+03  0.89545496909E+03  0.50400001928E-02 0. -1.
       -1   -1    0    0    0  501  0.00000000000E+00  0.00000000000E+00 -0.40968271125E+03  0.40968271128E+03  0.50400001928E-02 0.  1.
    10030    2    1    2    0    0  0.00000000000E+00  0.00000000000E+00  0.48577225783E+03  0.13051376804E+04  0.12113668636E+04 0.  0.
        2    1    3    3  502    0 -0.34921108978E+03 -0.22352156460E+03  0.71858651989E+03  0.82962453052E+03  0.25500000920E-02 0. -1.
       -2    1    3    3    0  502  0.34921108978E+03  0.22352156460E+03 -0.23281426206E+03  0.47551314986E+03  0.25500000920E-02 0.  1.
</event>
<event>
 5   0  0.2875848E-03  0.1162123E+04  0.7818609E-02  0.9146672E-01
        1   -1    0    0  501    0  0.00000000000E+00  0.00000000000E+00  0.84958078768E+03  0.84958078770E+03  0.50400001928E-02 0.  1.
       -1   -1    0    0    0  501  0.00000000000E+00  0.00000000000E+00 -0.39741059405E+03  0.39741059409E+03  0.50400001928E-02 0. -1.
    10030    2    1    2    0    0  0.00000000000E+00  0.00000000000E+00  0.45217019363E+03  0.12469913818E+04  0.11621228946E+04 0.  0.
        1    1    3    3  502    0 -0.42212527988E+03 -0.28974399535E+03  0.52090662131E+03  0.73040060440E+03  0.50400001928E-02 0.  1.
       -1    1    3    3    0  502  0.42212527988E+03  0.28974399535E+03 -0.68736427684E+02  0.51659077738E+03  0.50400001928E-02 0. -1.
</event>
<event>
 5   0  0.2792518E-03  0.1207647E+04  0.7818609E-02  0.9106190E-01
        1   -1    0    0  501    0  0.00000000000E+00  0.00000000000E+00  0.35407964970E+03  0.35407964974E+03  0.50400001928E-02 0. -1.
       -1   -1    0    0    0  501  0.00000000000E+00  0.00000000000E+00 -0.10297190990E+04  0.10297190990E+04  0.50400001928E-02 0.  1.
    10030    2    1    2    0    0  0.00000000000E+00  0.00000000000E+00 -0.67563944926E+03  0.13837987487E+04  0.12076466004E+04 0.  0.
        2    1    3    3  502    0 -0.49181888667E+03 -0.18149704162E+03  0.55106212674E+01  0.52426840487E+03  0.25500000920E-02 0. -1.
       -2    1    3    3    0  502  0.49181888667E+03  0.18149704162E+03 -0.68115007052E+03  0.85953034384E+03  0.25500000920E-02 0.  1.
</event>
<event>
 5   0  0.5189537E-03  0.1216727E+04  0.7818609E-02  0.9098340E-01
       -2   -1    0    0    0  501  0.00000000000E+00  0.00000000000E+00  0.22814263909E+03  0.22814263910E+03  0.25500000920E-02 0.  1.
        2   -1    0    0  501    0  0.00000000000E+00  0.00000000000E+00 -0.16222577184E+04  0.16222577184E+04  0.25500000920E-02 0. -1.
    10030    2    1    2    0    0  0.00000000000E+00  0.00000000000E+00 -0.13941150793E+04  0.18504003575E+04  0.12167270149E+04 0.  0.
        4    1    3    3  502    0  0.19285310559E+03 -0.52613177580E+03 -0.33685679185E+03  0.65382037056E+03  0.12699999809E+01 0.  1.
       -4    1    3    3    0  502 -0.19285310559E+03  0.52613177580E+03 -0.10572582875E+04  0.11965799869E+04  0.12699999809E+01 0. -1.
</event>
<event>
 5   0  0.5189537E-03  0.1216619E+04  0.7818609E-02  0.9098433E-01
        2   -1    0    0  501    0  0.00000000000E+00  0.00000000000E+00  0.13233065003E+04  0.13233065003E+04  0.25500000920E-02 0.  1.
       -2   -1    0    0    0  501  0.00000000000E+00  0.00000000000E+00 -0.27963330070E+03  0.27963330071E+03  0.25500000920E-02 0. -1.
    10030    2    1    2    0    0  0.00000000000E+00  0.00000000000E+00  0.10436731996E+04  0.16029398010E+04  0.12166191919E+04 0.  0.
        4    1    3    3  502    0  0.38064528566E+03 -0.15025906341E+03  0.11148308323E+04  0.11875681106E+04  0.12699999809E+01 0.  1.
       -4    1    3    3    0  502 -0.38064528566E+03  0.15025906341E+03 -0.71157632729E+02  0.41537169045E+03  0.12699999809E+01 0. -1.
</event>
<event>
 5   0  0.5031575E-03  0.1189108E+04  0.7818609E-02  0.9122444E-01
        2   -1    0    0  501    0  0.00000000000E+00  0.00000000000E+00  0.99620033504E+03  0.99620033504E+03  0.25500000920E-02 0. -1.
       -2   -1    0    0    0  501  0.00000000000E+00  0.00000000000E+00 -0.35484275882E+03  0.35484275883E+03  0.25500000920E-02 0.  1.
    10030    2    1    2    0    0  0.00000000000E+00  0.00000000000E+00  0.64135757622E+03  0.13510430939E+04  0.11891080274E+04 0.  0.
        5    1    3    3  502    0  0.19504207491E+03  0.30236584947E+03 -0.21706770617E+03  0.42024635271E+03  0.46999998093E+01 0.  1.
       -5    1    3    3    0  502 -0.19504207491E+03 -0.30236584947E+03  0.85842528239E+03  0.93079674116E+03  0.46999998093E+01 0. -1.
</event>
<event>
 5   0  0.2930868E-03  0.1157805E+04  0.7818609E-02  0.9150613E-01
        1   -1    0    0  501    0  0.00000000000E+00  0.00000000000E+00  0.65186070601E+03  0.65186070603E+03  0.50400001928E-02 0.  1.
       -1   -1    0    0    0  501  0.00000000000E+00  0.00000000000E+00 -0.51410992679E+03  0.51410992681E+03  0.50400001928E-02 0. -1.
    10030    2    1    2    0    0  0.00000000000E+00  0.00000000000E+00  0.13775077922E+03  0.11659706328E+04  0.11578049229E+04 0.  0.
        3    1    3    3  502    0  0.32692405708E+03 -0.22677804809E+03 -0.35459050474E+03  0.53295596296E+03  0.10100000352E+00 0. -1.
       -3    1    3    3    0  502 -0.32692405708E+03  0.22677804809E+03  0.49234128397E+03  0.63301466989E+03  0.10100000352E+00 0.  1.
</event>
<event>
 5   0  0.2792518E-03  0.1178603E+04  0.7818609E-02  0.9131794E-01
       -1   -1    0    0    0  501  0.00000000000E+00  0.00000000000E+00  0.19885286410E+03  0.19885286416E+03  0.50400001928E-02 0. -1.
        1   -1    0    0  501    0  0.00000000000E+00  0.00000000000E+00 -0.17463991856E+04  0.17463991856E+04  0.50400001928E-02 0.  1.
    10030    2    1    2    0    0  0.00000000000E+00  0.00000000000E+00 -0.15475463215E+04  0.19452520498E+04  0.11786033769E+04 0.  0.
        2    1    3    3  502    0 -0.17502470437E+03 -0.47201736147E+03 -0.26817224266E+03  0.57039494073E+03  0.25500000920E-02 0. -1.
       -2    1    3    3    0  502  0.17502470437E+03  0.47201736147E+03 -0.12793740788E+04  0.13748571090E+04  0.25500000920E-02 0.  1.
</event>
<event>
 5   0  0.5467554E-03  0.1189774E+04  0.7818609E-02  0.9121855E-01
        2   -1    0    0  501    0  0.00000000000E+00  0.00000000000E+00  0.13192574733E+04  0.13192574733E+04  0.25500000920E-02 0. -1.
       -2   -1    0    0    0  501  0.00000000000E+00  0.00000000000E+00 -0.26824982208E+03  0.26824982209E+03  0.25500000920E-02 0.  1.
    10030    2    1    2    0    0  0.00000000000E+00  0.00000000000E+00  0.10510076512E+04  0.15875072954E+04  0.11897740668E+04 0.  0.
        1    1    3    3  502    0 -0.47488574672E+03  0.20164082783E+03  0.13032981056E+03  0.53212907779E+03  0.50400001928E-02 0.  1.
       -1    1    3    3    0  502  0.47488574672E+03 -0.20164082783E+03  0.92067784067E+03  0.10553782176E+04  0.50400001928E-02 0. -1.
</event>
<event>
 5   0  0.2938349E-03  0.1194784E+04  0.7818609E-02  0.9117434E-01
       -1   -1    0    0    0  501  0.00000000000E+00  0.00000000000E+00  0.52878921365E+03  0.52878921367E+03  0.50400001928E-02 0. -1.
        1   -1    0    0  501    0  0.00000000000E+00  0.00000000000E+00 -0.67489556631E+03  0.67489556633E+03  0.50400001928E-02 0.  1.
    10030    2    1    2    0    0  0.00000000000E+00  0.00000000000E+00 -0.14610635267E+03  0.12036847800E+04  0.11947844924E+04 0.  0.
        4    1    3    3  502    0  0.10003426436E+02 -0.18721484548E+02  0.52840781585E+03  0.52883550872E+03  0.12699999809E+01 0. -1.
       -4    1    3    3    0  502 -0.10003426436E+02  0.18721484548E+02 -0.67451416852E+03  0.67484927129E+03  0.12699999809E+01 0.  1.
</event>
<event>
 5   0  0.5467554E-03  0.1168413E+04  0.7818609E-02  0.9140962E-01
        2   -1    0    0  501    0  0.00000000000E+00  0.00000000000E+00  0.21405798789E+04  0.21405798789E+04  0.25500000920E-02 0. -1.
       -2   -1    0    0    0  501  0.00000000000E+00  0.00000000000E+00 -0.15944161419E+03  0.15944161421E+03  0.25500000920E-02 0.  1.
    10030    2    1    2    0    0  0.00000000000E+00  0.00000000000E+00  0.19811382647E+04  0.23000214931E+04  0.11684134734E+04 0.  0.
        1    1    3    3  502    0  0.31110111802E+03  0.38984162542E+03  0.39175325041E+03  0.63421684602E+03  0.50400001928E-02 0.  1.
       -1    1    3    3    0  502 -0.31110111802E+03 -0.38984162542E+03  0.15893850143E+04  0.16658046470E+04  0.50400001928E-02 0. -1.
</event>
<event>
 5   0  0.1922125E-03  0.1244415E+04  0.7818609E-02  0.9074845E-01
        3   -1    0    0  501    0  0.00000000000E+00  0.00000000000E+00  0.48024547850E+03  0.48024548912E+03  0.10100000352E+00 0.  1.
       -3   -1    0    0    0  501  0.00000000000E+00  0.00000000000E+00 -0.80613369500E+03  0.80613370133E+03  0.10100000352E+00 0. -1.
    10030    2    1    2    0    0  0.00000000000E+00  0.00000000000E+00 -0.32588821650E+03  0.12863791904E+04  0.12444148392E+04 0.  0.
        5    1    3    3  502    0 -0.22498380299E+03  0.37821217364E+03  0.29172659672E+03  0.52800441014E+03  0.46999998093E+01 0.  1.
       -5    1    3    3    0  502  0.22498380299E+03 -0.37821217364E+03 -0.61761481322E+03  0.75837478031E+03  0.46999998093E+01 0. -1.
</event>
<event>
 5   0  0.5003526E-03  0.1207860E+04  0.7818609E-02  0.9106004E-01
        2   -1    0    0  501    0  0.00000000000E+00  0.00000000000E+00  0.57156926207E+03  0.57156926208E+03  0.25500000920E-02 0.  1.
       -2   -1    0    0    0  501  0.00000000000E+00  0.00000000000E+00 -0.63812340822E+03  0.63812340823E+03  0.25500000920E-02 0. -1.
    10030    2    1    2    0    0  0.00000000000E+00  0.00000000000E+00 -0.66554146146E+02  0.12096926703E+04  0.12078604647E+04 0.  0.
        2    1    3    3  502    0  0.27907014436E+03  0.30817083012E+03  0.40543113781E+03  0.58070974980E+03  0.25500000920E-02 0. -1.
       -2    1    3    3    0  502 -0.27907014436E+03 -0.30817083012E+03 -0.47198528396E+03  0.62898292050E+03  0.25500000920E-02 0.  1.
</event>
<event>
 5   0  0.2938349E-03  0.1205537E+04  0.7818609E-02  0.9108024E-01
        1   -1    0    0  501    0  0.00000000000E+00  0.00000000000E+00  0.18296921194E+04  0.18296921194E+04  0.50400001928E-02 0. -1.
       -1   -1    0    0    0  501  0.00000000000E+00  0.00000000000E+00 -0.19857424330E+03  0.19857424337E+03  0.50400001928E-02 0.  1.
    10030    2    1    2    0    0  0.00000000000E+00  0.00000000000E+00  0.16311178761E+04  0.20282663627E+04  0.12055367736E+04 0.  0.
        4    1    3    3  502    0  0.27030656240E+03  0.51798677821E+03  0.56628130887E+03  0.81366582437E+03  0.12699999809E+01 0.  1.
       -4    1    3    3    0  502 -0.27030656240E+03 -0.51798677821E+03  0.10648365672E+04  0.12146005384E+04  0.12699999809E+01 0. -1.
</event>
<event>
 5   0  0.5189537E-03  0.1219405E+04  0.7818609E-02  0.9096039E-01
        2   -1    0    0  501    0  0.00000000000E+00  0.00000000000E+00  0.17969803216E+04  0.17969803216E+04  0.25500000920E-02 0.  1.
       -2   -1    0    0    0  501  0.00000000000E+00  0.00000000000E+00 -0.20686771510E+03  0.20686771512E+03  0.25500000920E-02 0. -1.
    10030    2    1    2    0    0  0.00000000000E+00  0.00000000000E+00  0.15901126065E+04  0.20038480367E+04  0.12194051226E+04 0.  0.
        4    1    3    3  502    0 -0.42969560741E+03 -0.21732740800E+03  0.14096285930E+04  0.14896052834E+04  0.12699999809E+01 0.  1.
       -4    1    3    3    0  502  0.42969560741E+03  0.21732740800E+03  0.18048401349E+03  0.51424275329E+03  0.12699999809E+01 0. -1.
</event>
<event>
 5   0  0.2930868E-03  0.1197255E+04  0.7818609E-02  0.9115263E-01
        1   -1    0    0  501    0  0.00000000000E+00  0.00000000000E+00  0.10511955432E+04  0.10511955432E+04  0.50400001928E-02 0.  1.
       -1   -1    0    0    0  501  0.00000000000E+00  0.00000000000E+00 -0.34090223475E+03  0.34090223479E+03  0.50400001928E-02 0. -1.
    10030    2    1    2    0    0  0.00000000000E+00  0.00000000000E+00  0.71029330845E+03  0.13920977780E+04  0.11972550436E+04 0.  0.
        3    1    3    3  502    0 -0.26692751113E+03  0.32197462179E+03 -0.14285005294E+03  0.44195486319E+03  0.10100000352E+00 0. -1.
       -3    1    3    3    0  502  0.26692751113E+03 -0.32197462179E+03  0.85314336139E+03  0.95014291481E+03  0.10100000352E+00 0.  1.
</event>
<event>
 5   0  0.5031575E-03  0.1209683E+04  0.7818609E-02  0.9104423E-01
        2   -1    0    0  501    0  0.00000000000E+00  0.00000000000E+00  0.14974180741E+04  0.14974180741E+04  0.25500000920E-02 0. -1.
       -2   -1    0    0    0  501  0.00000000000E+00  0.00000000000E+00 -0.24430940102E+03  0.24430940103E+03  0.25500000920E-02 0.  1.
    10030    2    1    2    0    0  0.00000000000E+00  0.00000000000E+00  0.12531086730E+04  0.17417274751E+04  0.12096831201E+04 0.  0.
        5    1    3    3  502    0 -0.53173942975E+03  0.23122302436E+03  0.87427186921E+03  0.10490873650E+04  0.46999998093E+01 0. -1.
       -5    1    3    3    0  502  0.53173942975E+03 -0.23122302436E+03  0.37883680384E+03  0.69264011008E+03  0.46999998093E+01 0.  1.
</event>
<event>
 5   0  0.5031575E-03  0.1195643E+04  0.7818609E-02  0.9116679E-01
       -2   -1    0    0    0  501  0.00000000000E+00  0.00000000000E+00  0.42245665869E+03  0.42245665870E+03  0.25500000920E-02 0.  1.
        2   -1    0    0  501    0  0.00000000000E+00  0.00000000000E+00 -0.84598184543E+03  0.84598184544E+03  0.25500000920E-02 0. -1.
    10030    2    1    2    0    0  0.00000000000E+00  0.00000000000E+00 -0.42352518674E+03  0.12684385041E+04  0.11956431972E+04 0.  0.
        5    1    3    3  502    0  0.37555674332E+03 -0.41590882493E+03 -0.43263431013E+03  0.70796719868E+03  0.46999998093E+01 0. -1.
       -5    1    3    3    0  502 -0.37555674332E+03  0.41590882493E+03  0.91091233878E+01  0.56047130545E+03  0.46999998093E+01 0.  1.
</event>
<event>
 5   0  0.5467554E-03  0.1054675E+04  0.7818609E-02  0.9250530E-01
       -2   -1    0    0    0  501  0.00000000000E+00  0.00000000000E+00  0.22901744717E+03  0.22901744718E+03  0.25500000920E-02 0.  1.
        2   -1    0    0  501    0  0.00000000000E+00  0.00000000000E+00 -0.12142523760E+04  0.12142523760E+04  0.25500000920E-02 0. -1.
    10030    2    1    2    0    0  0.00000000000E+00  0.00000000000E+00 -0.98523492880E+03  0.14432698231E+04  0.10546752664E+04 0.  0.
        1    1    3    3  502    0  0.25689630429E+03 -0.45468723738E+03 -0.59269954249E+03  0.78995502574E+03  0.50400001928E-02 0. -1.
       -1    1    3    3    0  502 -0.25689630429E+03  0.45468723738E+03 -0.39253538630E+03  0.65331479741E+03  0.50400001928E-02 0.  1.
</event>
<event>
 5   0  0.2938349E-03  0.1195697E+04  0.7818609E-02  0.9116632E-01
       -1   -1    0    0    0  501  0.00000000000E+00  0.00000000000E+00  0.31699295557E+03  0.31699295561E+03  0.50400001928E-02 0. -1.
        1   -1    0    0  501    0  0.00000000000E+00  0.00000000000E+00 -0.11275410797E+04  0.11275410797E+04  0.50400001928E-02 0.  1.
    10030    2    1    2    0    0  0.00000000000E+00  0.00000000000E+00 -0.81054812411E+03  0.14445340353E+04  0.11956965826E+04 0.  0.
        4    1    3    3  502    0  0.46849296897E+03 -0.89690737717E+02 -0.84068177096E+03  0.96658033465E+03  0.12699999809E+01 0.  1.
       -4    1    3    3    0  502 -0.46849296897E+03  0.89690737717E+02  0.30133646851E+02  0.47795370066E+03  0.12699999809E+01 0. -1.
</event>
<event>
 5   0  0.2930868E-03  0.1389051E+04  0.7818609E-02  0.8961782E-01
        1   -1    0    0  501    0  0.00000000000E+00  0.00000000000E+00  0.15305999203E+04  0.15305999203E+04  0.50400001928E-02 0. -1.
       -1   -1    0    0    0  501  0.00000000000E+00  0.00000000000E+00 -0.31514821988E+03  0.31514821992E+03  0.50400001928E-02 0.  1.
    10030    2    1    2    0    0  0.00000000000E+00  0.00000000000E+00  0.12154517004E+04  0.18457481402E+04  0.13890512449E+04 0.  0.
        3    1    3    3  502    0  0.56584847465E+03 -0.61378527051E+01  0.72663789062E+02  0.57052800627E+03  0.10100000352E+00 0.  1.
       -3    1    3    3    0  502 -0.56584847465E+03  0.61378527051E+01  0.11427879114E+04  0.12752201340E+04  0.10100000352E+00 0. -1.
</event>
<event>
 5   0  0.2930868E-03  0.1106328E+04  0.7818609E-02  0.9199046E-01
       -1   -1    0    0    0  501  0.00000000000E+00  0.00000000000E+00  0.36883311625E+03  0.36883311629E+03  0.50400001928E-02 0.  1.
        1   -1    0    0  501    0  0.00000000000E+00  0.00000000000E+00 -0.82961808814E+03  0.82961808815E+03  0.50400001928E-02 0. -1.
    10030    2    1    2    0    0  0.00000000000E+00  0.00000000000E+00 -0.46078497188E+03  0.11984512044E+04  0.11063283867E+04 0.  0.
        3    1    3    3  502    0  0.45575907322E+03 -0.15847977479E+03  0.62608125450E+02  0.48657163852E+03  0.10100000352E+00 0.  1.
       -3    1    3    3    0  502 -0.45575907322E+03  0.15847977479E+03 -0.52339309733E+03  0.71187956592E+03  0.10100000352E+00 0. -1.
</event>
<event>
 5   0  0.5189537E-03  0.1169207E+04  0.7818609E-02  0.9140245E-01
        2   -1    0    0  501    0  0.00000000000E+00  0.00000000000E+00  0.84122910910E+03  0.84122910910E+03  0.25500000920E-02 0. -1.
       -2   -1    0    0    0  501  0.00000000000E+00  0.00000000000E+00 -0.40626427231E+03  0.40626427231E+03  0.25500000920E-02 0.  1.
    10030    2    1    2    0    0  0.00000000000E+00  0.00000000000E+00  0.43496483679E+03  0.12474933814E+04  0.11692071362E+04 0.  0.
        4    1    3    3  502    0 -0.13571339421E+03 -0.15197842698E+03 -0.36715158463E+03  0.41990173449E+03  0.12699999809E+01 0.  1.
       -4    1    3    3    0  502  0.13571339421E+03  0.15197842698E+03  0.80211642142E+03  0.82759164692E+03  0.12699999809E+01 0. -1.
</event>
<event>
 5   0  0.2926844E-03  0.8026420E+03  0.7818609E-02  0.9556201E-01
       -1   -1    0    0    0  501  0.00000000000E+00  0.00000000000E+00  0.28145222718E+03  0.28145222723E+03  0.50400001928E-02 0.  1.
        1   -1    0    0  501    0  0.00000000000E+00  0.00000000000E+00 -0.57224107891E+03  0.57224107894E+03  0.50400001928E-02 0. -1.
    10030    2    1    2    0    0  0.00000000000E+00  0.00000000000E+00 -0.29078885173E+03  0.85369330616E+03  0.80264195299E+03 0.  0.
        5    1    3    3  502    0 -0.64098483034E+02 -0.76398127300E+02  0.26803323374E+03  0.28602306510E+03  0.46999998093E+01 0.  1.
       -5    1    3    3    0  502  0.64098483034E+02  0.76398127300E+02 -0.55882208547E+03  0.56767024106E+03  0.46999998093E+01 0. -1.
</event>
<event>
 5   0  0.2938349E-03  0.1222308E+04  0.7818609E-02  0.9093551E-01
        1   -1    0    0  501    0  0.00000000000E+00  0.00000000000E+00  0.40726468774E+03  0.40726468777E+03  0.50400001928E-02 0.  1.
       -1   -1    0    0    0  501  0.00000000000E+00  0.00000000000E+00 -0.91711671227E+03  0.91711671229E+03  0.50400001928E-02 0. -1.
    10030    2    1    2    0    0  0.00000000000E+00  0.00000000000E+00 -0.50985202453E+03  0.13243814001E+04  0.12223080651E+04 0.  0.
        4    1    3    3  502    0 -0.19645223070E+03 -0.47073513905E+02  0.37004179895E+03  0.42159452146E+03  0.12699999809E+01 0.  1.
       -4    1    3    3    0  502  0.19645223070E+03  0.47073513905E+02 -0.87989382348E+03  0.90278687859E+03  0.12699999809E+01 0. -1.
</event>
<event>
 5   0  0.2792518E-03  0.1086001E+04  0.7818609E-02  0.9218945E-01
        1   -1    0    0  501    0  0.00000000000E+00  0.00000000000E+00  0.12940979267E+04  0.12940979268E+04  0.50400001928E-02 0. -1.
       -1   -1    0    0    0  501  0.00000000000E+00  0.00000000000E+00 -0.22784162328E+03  0.22784162334E+03  0.50400001928E-02 0.  1.
    10030    2    1    2    0    0  0.00000000000E+00  0.00000000000E+00  0.10662563035E+04  0.15219395501E+04  0.10860006858E+04 0.  0.
        2    1    3    3  502    0  0.30989061695E+03  0.26889159891E+03  0.10315963214E+04  0.11101918108E+04  0.25500000920E-02 0. -1.
       -2    1    3    3    0  502 -0.30989061695E+03 -0.26889159891E+03  0.34659982053E+02  0.41174773928E+03  0.25500000920E-02 0.  1.
</event>
<event>
 5   0  0.5108045E-03  0.1210770E+04  0.7818609E-02  0.9103482E-01
       -2   -1    0    0    0  501  0.00000000000E+00  0.00000000000E+00  0.42966325058E+03  0.42966325059E+03  0.25500000920E-02 0. -1.
        2   -1    0    0  501    0  0.00000000000E+00  0.00000000000E+00 -0.85297227523E+03  0.85297227523E+03  0.25500000920E-02 0.  1.
    10030    2    1    2    0    0  0.00000000000E+00  0.00000000000E+00 -0.42330902465E+03  0.12826355258E+04  0.12107697394E+04 0.  0.
        3    1    3    3  502    0  0.41584098905E+02 -0.97984155679E+02  0.41967218792E+03  0.43296060740E+03  0.10100000352E+00 0. -1.
       -3    1    3    3    0  502 -0.41584098905E+02  0.97984155679E+02 -0.84298121257E+03  0.84967491842E+03  0.10100000352E+00 0.  1.
</event>
<event>
 5   0  0.5189537E-03  0.1189488E+04  0.7818609E-02  0.9122108E-01
       -2   -1    0    0    0  501  0.00000000000E+00  0.00000000000E+00  0.54059125200E+03  0.54059125200E+03  0.25500000920E-02 0.  1.
        2   -1    0    0  501    0  0.00000000000E+00  0.00000000000E+00 -0.65432088101E+03  0.65432088101E+03  0.25500000920E-02 0. -1.
    10030    2    1    2    0    0  0.00000000000E+00  0.00000000000E+00 -0.11372962901E+03  0.11949121330E+04  0.11894875271E+04 0.  0.
        4    1    3    3  502    0 -0.87933659269E+02 -0.13848420330E+03 -0.63114341892E+03  0.65211489106E+03  0.12699999809E+01 0. -1.
       -4    1    3    3    0  502  0.87933659269E+02  0.13848420330E+03  0.51741378990E+03  0.54279724196E+03  0.12699999809E+01 0.  1.
</event>
<event>
 5   0  0.5108045E-03  0.1194939E+04  0.7818609E-02  0.9117298E-01
       -2   -1    0    0    0  501  0.00000000000E+00  0.00000000000E+00  0.19622043852E+03  0.19622043853E+03  0.25500000920E-02 0.  1.
        2   -1    0    0  501    0  0.00000000000E+00  0.00000000000E+00 -0.18192275827E+04  0.18192275827E+04  0.25500000920E-02 0. -1.
    10030    2    1    2    0    0  0.00000000000E+00  0.00000000000E+00 -0.16230071442E+04  0.20154480213E+04  0.11949387165E+04 0.  0.
        3    1    3    3  502    0 -0.74676196606E+02  0.59277268382E+03 -0.80527553606E+03  0.10027086756E+04  0.10100000352E+00 0.  1.
       -3    1    3    3    0  502  0.74676196606E+02 -0.59277268382E+03 -0.81773160816E+03  0.10127393456E+04  0.10100000352E+00 0. -1.
</event>
<event>
 5   0  0.5108045E-03  0.1187060E+04  0.7818609E-02  0.9124258E-01
        2   -1    0    0  501    0  0.00000000000E+00  0.00000000000E+00  0.83495911145E+03  0.83495911145E+03  0.25500000920E-02 0.  1.
       -2   -1    0    0    0  501  0.00000000000E+00  0.00000000000E+00 -0.42191065996E+03  0.42191065997E+03  0.25500000920E-02 0. -1.
    10030    2    1    2    0    0  0.00000000000E+00  0.00000000000E+00  0.41304845148E+03  0.12568697714E+04  0.11870604867E+04 0.  0.
        3    1    3    3  502    0 -0.50806998339E+03  0.28930318420E+03  0.31474408784E+03  0.66399946644E+03  0.10100000352E+00 0. -1.
       -3    1    3    3    0  502  0.50806998339E+03 -0.28930318420E+03  0.98304363646E+02  0.59287030498E+03  0.10100000352E+00 0.  1.
</event>
<event>
 5   0  0.2926844E-03  0.1203367E+04  0.7818609E-02  0.9109914E-01
        1   -1    0    0  501    0  0.00000000000E+00  0.00000000000E+00  0.85004775133E+03  0.85004775134E+03  0.50400001928E-02 0.  1.
       -1   -1    0    0    0  501  0.00000000000E+00  0.00000000000E+00 -0.42588574366E+03  0.42588574369E+03  0.50400001928E-02 0. -1.
    10030    2    1    2    0    0  0.00000000000E+00  0.00000000000E+00  0.42416200767E+03  0.12759334950E+04  0.12033673068E+04 0.  0.
        5    1    3    3  502    0  0.47763895009E+03  0.23753283474E+03  0.50714307337E+03  0.73605502585E+03  0.46999998093E+01 0.  1.
       -5    1    3    3    0  502 -0.47763895009E+03 -0.23753283474E+03 -0.82981065698E+02  0.53987846918E+03  0.46999998093E+01 0. -1.
</event>
<event>
 5   0  0.2938349E-03  0.1217323E+04  0.7818609E-02  0.9097828E-01
       -1   -1    0    0    0  501  0.00000000000E+00  0.00000000000E+00  0.36763935727E+03  0.36763935731E+03  0.50400001928E-02 0. -1.
        1   -1    0    0  501    0  0.00000000000E+00  0.00000000000E+00 -0.10076962002E+04  0.10076962002E+04  0.50400001928E-02 0.  1.
    10030    2    1    2    0    0  0.00000000000E+00  0.00000000000E+00 -0.64005684294E+03  0.13753355575E+04  0.12173229373E+04 0.  0.
        4    1    3    3  502    0 -0.51750966532E+03 -0.22679513985E+03 -0.64345952456E+02  0.56867767994E+03  0.12699999809E+01 0. -1.
       -4    1    3    3    0  502  0.51750966532E+03  0.22679513985E+03 -0.57571089048E+03  0.80665787759E+03  0.12699999809E+01 0.  1.
</event>
<event>
 5   0  0.2926844E-03  0.1180130E+04  0.7818609E-02  0.9130428E-01
        1   -1    0    0  501    0  0.00000000000E+00  0.00000000000E+00  0.52109211282E+03  0.52109211285E+03  0.50400001928E-02 0.  1.
       -1   -1    0    0    0  501  0.00000000000E+00  0.00000000000E+00 -0.66816776989E+03  0.66816776991E+03  0.50400001928E-02 0. -1.
    10030    2    1    2    0    0  0.00000000000E+00  0.00000000000E+00 -0.14707565707E+03  0.11892598828E+04  0.11801304249E+04 0.  0.
        5    1    3    3  502    0 -0.65468048436E+02  0.55939017460E+03 -0.25082901100E+03  0.61655552512E+03  0.46999998093E+01 0. -1.
       -5    1    3    3    0  502  0.65468048436E+02 -0.55939017460E+03  0.10375335393E+03  0.57270435763E+03  0.46999998093E+01 0.  1.
</event>
<event>
 5   0  0.2875848E-03  0.1187437E+04  0.7818609E-02  0.9123924E-01
       -1   -1    0    0    0  501  0.00000000000E+00  0.00000000000E+00  0.65321807892E+03  0.65321807894E+03  0.50400001928E-02 0.  1.
        1   -1    0    0  501    0  0.00000000000E+00  0.00000000000E+00 -0.53963875883E+03  0.53963875885E+03  0.50400001928E-02 0. -1.
    10030    2    1    2    0    0  0.00000000000E+00  0.00000000000E+00  0.11357932009E+03  0.11928568378E+04  0.11874372293E+04 0.  0.
        1    1    3    3  502    0 -0.20491016437E+03  0.39417808483E+03  0.45246202170E+03  0.63410284586E+03  0.50400001928E-02 0.  1.
       -1    1    3    3    0  502  0.20491016437E+03 -0.39417808483E+03 -0.33888270162E+03  0.55875399193E+03  0.50400001928E-02 0. -1.
</event>
<event>
 5   0  0.5189537E-03  0.1180003E+04  0.7818609E-02  0.9130542E-01
       -2   -1    0    0    0  501  0.00000000000E+00  0.00000000000E+00  0.57743797884E+03  0.57743797885E+03  0.25500000920E-02 0.  1.
        2   -1    0    0  501    0  0.00000000000E+00  0.00000000000E+00 -0.60283852558E+03  0.60283852559E+03  0.25500000920E-02 0. -1.
    10030    2    1    2    0    0  0.00000000000E+00  0.00000000000E+00 -0.25400546739E+02  0.11802765044E+04  0.11800031522E+04 0.  0.
        4    1    3    3  502    0 -0.20565822658E+03  0.44979469185E+03  0.30907236224E+03  0.58321343347E+03  0.12699999809E+01 0.  1.
       -4    1    3    3    0  502  0.20565822658E+03 -0.44979469185E+03 -0.33447290898E+03  0.59706307097E+03  0.12699999809E+01 0. -1.
</event>
<event>
 5   0  0.5467554E-03  0.1196519E+04  0.7818609E-02  0.9115909E-01
       -2   -1    0    0    0  501  0.00000000000E+00  0.00000000000E+00  0.44124041256E+03  0.44124041257E+03  0.25500000920E-02 0.  1.
        2   -1    0    0  501    0  0.00000000000E+00  0.00000000000E+00 -0.81115541893E+03  0.81115541893E+03  0.25500000920E-02 0. -1.
    10030    2    1    2    0    0  0.00000000000E+00  0.00000000000E+00 -0.36991500636E+03  0.12523958315E+04  0.11965192045E+04 0.  0.
        1    1    3    3  502    0  0.53668648049E+03 -0.40914394959E+02 -0.45832079053E+03  0.70694010575E+03  0.50400001928E-02 0. -1.
       -1    1    3    3    0  502 -0.53668648049E+03  0.40914394959E+02  0.88405784165E+02  0.54545572575E+03  0.50400001928E-02 0.  1.
</event>
<event>
 5   0  0.5003526E-03  0.1141531E+04  0.7818609E-02  0.9165632E-01
        2   -1    0    0  501    0  0.00000000000E+00  0.00000000000E+00  0.10704444180E+04  0.10704444180E+04  0.25500000920E-02 0.  1.
       -2   -1    0    0    0  501  0.00000000000E+00  0.00000000000E+00 -0.30433468121E+03  0.30433468122E+03  0.25500000920E-02 0. -1.
    10030    2    1    2    0    0  0.00000000000E+00  0.00000000000E+00  0.76610973683E+03  0.13747790993E+04  0.11415311835E+04 0.  0.
        2    1    3    3  502    0 -0.51432083366E+03 -0.24740475416E+03  0.39051086184E+03  0.69154447835E+03  0.25500000920E-02 0. -1.
       -2    1    3    3    0  502  0.51432083366E+03  0.24740475416E+03  0.37559887499E+03  0.68323462092E+03  0.25500000920E-02 0.  1.
</event>
<event>
 5   0  0.2930868E-03  0.1182992E+04  0.7818609E-02  0.9127875E-01
        1   -1    0    0  501    0  0.00000000000E+00  0.00000000000E+00  0.98307409052E+03  0.98307409053E+03  0.50400001928E-02 0. -1.
       -1   -1    0    0    0  501  0.00000000000E+00  0.00000000000E+00 -0.35589149139E+03  0.35589149143E+03  0.50400001928E-02 0.  1.
    10030    2    1    2    0    0  0.00000000000E+00  0.00000000000E+00  0.62718259913E+03  0.13389655820E+04  0.11829923149E+04 0.  0.
        3    1    3    3  502    0 -0.87282015364E+02  0.31590064756E+03 -0.24372821369E+03  0.40842970225E+03  0.10100000352E+00 0.  1.
       -3    1    3    3    0  502  0.87282015364E+02 -0.31590064756E+03  0.87091081282E+03  0.93053587970E+03  0.10100000352E+00 0. -1.
</event>
<event>
 5   0  0.5108045E-03  0.1182118E+04  0.7818609E-02  0.9128654E-01
       -2   -1    0    0    0  501  0.00000000000E+00  0.00000000000E+00  0.18541327577E+03  0.18541327579E+03  0.25500000920E-02 0.  1.
        2   -1    0    0  501    0  0.00000000000E+00  0.00000000000E+00 -0.18841729908E+04  0.18841729908E+04  0.25500000920E-02 0. -1.
    10030    2    1    2    0    0  0.00000000000E+00  0.00000000000E+00 -0.16987597151E+04  0.20695862666E+04  0.11821179068E+04 0.  0.
        3    1    3    3  502    0 -0.66355980195E+02 -0.57583032486E+03 -0.64696626938E+03  0.86864782452E+03  0.10100000352E+00 0. -1.
       -3    1    3    3    0  502  0.66355980195E+02  0.57583032486E+03 -0.10517934457E+04  0.12009384421E+04  0.10100000352E+00 0.  1.
</event>
<event>
 5   0  0.5031575E-03  0.1207696E+04  0.7818609E-02  0.9106147E-01
       -2   -1    0    0    0  501  0.00000000000E+00  0.00000000000E+00  0.19115775142E+03  0.19115775143E+03  0.25500000920E-02 0. -1.
        2   -1    0    0  501    0  0.00000000000E+00  0.00000000000E+00 -0.19074936020E+04  0.19074936020E+04  0.25500000920E-02 0.  1.
    10030    2    1    2    0    0  0.00000000000E+00  0.00000000000E+00 -0.17163358506E+04  0.20986513534E+04  0.12076956368E+04 0.  0.
        5    1    3    3  502    0  0.50240845630E+02  0.26602797474E+03 -0.17960846403E+04  0.18163802331E+04  0.46999998093E+01 0.  1.
       -5    1    3    3    0  502 -0.50240845630E+02 -0.26602797474E+03  0.79748789757E+02  0.28227112034E+03  0.46999998093E+01 0. -1.
</event>
<event>
 5   0  0.5467554E-03  0.1243253E+04  0.7818609E-02  0.9075817E-01
       -2   -1    0    0    0  501  0.00000000000E+00  0.00000000000E+00  0.44480881254E+03  0.44480881254E+03  0.25500000920E-02 0. -1.
        2   -1    0    0  501    0  0.00000000000E+00  0.00000000000E+00 -0.86873198697E+03  0.86873198697E+03  0.25500000920E-02 0.  1.
    10030    2    1    2    0    0  0.00000000000E+00  0.00000000000E+00 -0.42392317443E+03  0.13135407995E+04  0.12432532221E+04 0.  0.
        1    1    3    3  502    0 -0.39152929138E+03  0.47743795653E+03 -0.13593908730E+03  0.63223541805E+03  0.50400001928E-02 0. -1.
       -1    1    3    3    0  502  0.39152929138E+03 -0.47743795653E+03 -0.28798408714E+03  0.68130538147E+03  0.50400001928E-02 0.  1.
</event>
<event>
 5   0  0.2930868E-03  0.1183909E+04  0.7818609E-02  0.9127059E-01
        1   -1    0    0  501    0  0.00000000000E+00  0.00000000000E+00  0.93770091750E+03  0.93770091751E+03  0.50400001928E-02 0.  1.
       -1   -1    0    0    0  501  0.00000000000E+00  0.00000000000E+00 -0.37369067682E+03  0.37369067686E+03  0.50400001928E-02 0. -1.
    10030    2    1    2    0    0  0.00000000000E+00  0.00000000000E+00  0.56401024067E+03  0.13113915944E+04  0.11839089332E+04 0.  0.
        3    1    3    3  502    0 -0.44257930182E+03 -0.66440375222E+02  0.71117811855E+03  0.84027679271E+03  0.10100000352E+00 0.  1.
       -3    1    3    3    0  502  0.44257930182E+03  0.66440375222E+02 -0.14716787787E+03  0.47111480166E+03  0.10100000352E+00 0. -1.
</event>
<event>
 5   0  0.2938349E-03  0.1236001E+04  0.7818609E-02  0.9081916E-01
        1   -1    0    0  501    0  0.00000000000E+00  0.00000000000E+00  0.64167487968E+03  0.64167487970E+03  0.50400001928E-02 0.  1.
       -1   -1    0    0    0  501  0.00000000000E+00  0.00000000000E+00 -0.59519935564E+03  0.59519935566E+03  0.50400001928E-02 0. -1.
    10030    2    1    2    0    0  0.00000000000E+00  0.00000000000E+00  0.46475524043E+02  0.12368742354E+04  0.12360007685E+04 0.  0.
        4    1    3    3  502    0  0.60408947712E+03 -0.12815623243E+03  0.47228560017E+02  0.61933857143E+03  0.12699999809E+01 0.  1.
       -4    1    3    3    0  502 -0.60408947712E+03  0.12815623243E+03 -0.75303597396E+00  0.61753566394E+03  0.12699999809E+01 0. -1.
</event>
<event>
 5   0  0.2930868E-03  0.1178432E+04  0.7818609E-02  0.9131947E-01
        1   -1    0    0  501    0  0.00000000000E+00  0.00000000000E+00  0.63929224172E+03  0.63929224174E+03  0.50400001928E-02 0. -1.
       -1   -1    0    0    0  501  0.00000000000E+00  0.00000000000E+00 -0.54306264311E+03  0.54306264313E+03  0.50400001928E-02 0.  1.
    10030    2    1    2    0    0  0.00000000000E+00  0.00000000000E+00  0.96229598606E+02  0.11823548849E+04  0.11784324071E+04 0.  0.
        3    1    3    3  502    0 -0.32231295537E+03 -0.38860829319E+03 -0.25666212904E+03  0.56637223221E+03  0.10100000352E+00 0.  1.
       -3    1    3    3    0  502  0.32231295537E+03  0.38860829319E+03  0.35289172764E+03  0.61598265266E+03  0.10100000352E+00 0. -1.
</event>
<event>
 5   0  0.5467554E-03  0.1208891E+04  0.7818609E-02  0.9105109E-01
       -2   -1    0    0    0  501  0.00000000000E+00  0.00000000000E+00  0.51349681642E+03  0.51349681643E+03  0.25500000920E-02 0.  1.
        2   -1    0    0  501    0  0.00000000000E+00  0.00000000000E+00 -0.71150307581E+03  0.71150307582E+03  0.25500000920E-02 0. -1.
    10030    2    1    2    0    0  0.00000000000E+00  0.00000000000E+00 -0.19800625940E+03  0.12249998922E+04  0.12088913339E+04 0.  0.
        1    1    3    3  502    0  0.57302401227E+03 -0.17708232813E+03 -0.22903194906E+02  0.60019932183E+03  0.50400001928E-02 0. -1.
       -1    1    3    3    0  502 -0.57302401227E+03  0.17708232813E+03 -0.17510306449E+03  0.62480057041E+03  0.50400001928E-02 0.  1.
</event>
<event>
 5   0  0.1922125E-03  0.1218365E+04  0.7818609E-02  0.9096932E-01
        4   -1    0    0  501    0  0.00000000000E+00  0.00000000000E+00  0.39320670150E+03  0.39320875245E+03  0.12699999809E+01 0. -1.
       -4   -1    0    0    0  501  0.00000000000E+00  0.00000000000E+00 -0.94378230472E+03  0.94378315921E+03  0.12699999809E+01 0.  1.
    10030    2    1    2    0    0  0.00000000000E+00  0.00000000000E+00 -0.55057560322E+03  0.13369919117E+04  0.12183652478E+04 0.  0.
        2    1    3    3  502    0 -0.26476948260E+03  0.54715948689E+03 -0.31941616969E+03  0.68666809484E+03  0.25500000920E-02 0. -1.
       -2    1    3    3    0  502  0.26476948260E+03 -0.54715948689E+03 -0.23115943353E+03  0.65032381682E+03  0.25500000920E-02 0.  1.
</event>
<event>
 5   0  0.5003526E-03  0.8571095E+03  0.7818609E-02  0.9480844E-01
       -2   -1    0    0    0  501  0.00000000000E+00  0.00000000000E+00  0.14958544597E+03  0.14958544599E+03  0.25500000920E-02 0. -1.
        2   -1    0    0  501    0  0.00000000000E+00  0.00000000000E+00 -0.12277878597E+04  0.12277878597E+04  0.25500000920E-02 0.  1.
    10030    2    1    2    0    0  0.00000000000E+00  0.00000000000E+00 -0.10782024138E+04  0.13773733057E+04  0.85710954859E+03 0.  0.
        2    1    3    3  502    0 -0.28824536111E+03 -0.30747446429E+03 -0.66392326960E+03  0.78639687329E+03  0.25500000920E-02 0.  1.
       -2    1    3    3    0  502  0.28824536111E+03  0.30747446429E+03 -0.41427914416E+03  0.59097643243E+03  0.25500000920E-02 0. -1.
</event>
<event>
 5   0  0.5108045E-03  0.1197680E+04  0.7818609E-02  0.9114890E-01
       -2   -1    0    0    0  501  0.00000000000E+00  0.00000000000E+00  0.42222076197E+03  0.42222076198E+03  0.25500000920E-02 0. -1.
        2   -1    0    0  501    0  0.00000000000E+00  0.00000000000E+00 -0.84934039304E+03  0.84934039305E+03  0.25500000920E-02 0.  1.
    10030    2    1    2    0    0  0.00000000000E+00  0.00000000000E+00 -0.42711963108E+03  0.12715611550E+04  0.11976796699E+04 0.  0.
        3    1    3    3  502    0  0.29247857523E+03 -0.41687105976E+03 -0.54809059071E+03  0.74815005397E+03  0.10100000352E+00 0.  1.
       -3    1    3    3    0  502 -0.29247857523E+03  0.41687105976E+03  0.12097095963E+03  0.52341110106E+03  0.10100000352E+00 0. -1.
</event>
<event>
 5   0  0.5003526E-03  0.1190142E+04  0.7818609E-02  0.9121529E-01
        2   -1    0    0  501    0  0.00000000000E+00  0.00000000000E+00  0.16435286757E+04  0.16435286757E+04  0.25500000920E-02 0. -1.
       -2   -1    0    0    0  501  0.00000000000E+00  0.00000000000E+00 -0.21545701835E+03  0.21545701836E+03  0.25500000920E-02 0.  1.
    10030    2    1    2    0    0  0.00000000000E+00  0.00000000000E+00  0.14280716574E+04  0.18589856941E+04  0.11901424924E+04 0.  0.
        2    1    3    3  502    0  0.36543008188E+03 -0.21170988217E+03  0.59212383022E+02  0.42645788216E+03  0.25500000920E-02 0.  1.
       -2    1    3    3    0  502 -0.36543008188E+03  0.21170988217E+03  0.13688592744E+04  0.14325278119E+04  0.25500000920E-02 0. -1.
</event>
<event>
 5   0  0.5108045E-03  0.1127023E+04  0.7818609E-02  0.9179247E-01
       -2   -1    0    0    0  501  0.00000000000E+00  0.00000000000E+00  0.19194810159E+03  0.19194810161E+03  0.25500000920E-02 0.  1.
        2   -1    0    0  501    0  0.00000000000E+00  0.00000000000E+00 -0.16543270724E+04  0.16543270725E+04  0.25500000920E-02 0. -1.
    10030    2    1    2    0    0  0.00000000000E+00  0.00000000000E+00 -0.14623789709E+04  0.18462751741E+04  0.11270225215E+04 0.  0.
        3    1    3    3  502    0  0.70410543650E+02 -0.46720225288E+03 -0.12342742791E+04  0.13216159033E+04  0.10100000352E+00 0. -1.
       -3    1    3    3    0  502 -0.70410543650E+02  0.46720225288E+03 -0.22810469179E+03  0.52465927073E+03  0.10100000352E+00 0.  1.
</event>
<event>
 5   0  0.5108045E-03  0.1203825E+04  0.7818609E-02  0.9109515E-01
       -2   -1    0    0    0  501  0.00000000000E+00  0.00000000000E+00  0.13886300988E+03  0.13886300990E+03  0.25500000920E-02 0.  1.
        2   -1    0    0  501    0  0.00000000000E+00  0.00000000000E+00 -0.26090374666E+04  0.26090374666E+04  0.25500000920E-02 0. -1.
    10030    2    1    2    0    0  0.00000000000E+00  0.00000000000E+00 -0.24701744567E+04  0.27479004765E+04  0.12038252291E+04 0.  0.
        3    1    3    3  502    0  0.16653462284E+03  0.20400967816E+03 -0.24705527927E+04  0.24845492230E+04  0.10100000352E+00 0. -1.
       -3    1    3    3    0  502 -0.16653462284E+03 -0.20400967816E+03  0.37833605591E+00  0.26335125351E+03  0.10100000352E+00 0.  1.
</event>
<event>
 5   0  0.5189537E-03  0.1205762E+04  0.7818609E-02  0.9107828E-01
       -2   -1    0    0    0  501  0.00000000000E+00  0.00000000000E+00  0.26090687479E+03  0.26090687480E+03  0.25500000920E-02 0.  1.
        2   -1    0    0  501    0  0.00000000000E+00  0.00000000000E+00 -0.13930849057E+04  0.13930849057E+04  0.25500000920E-02 0. -1.
    10030    2    1    2    0    0  0.00000000000E+00  0.00000000000E+00 -0.11321780309E+04  0.16539917805E+04  0.12057618821E+04 0.  0.
        4    1    3    3  502    0 -0.23281710745E+03  0.28297018366E+03 -0.12227899372E+04  0.12765158729E+04  0.12699999809E+01 0. -1.
       -4    1    3    3    0  502  0.23281710745E+03 -0.28297018366E+03  0.90611906282E+02  0.37747590760E+03  0.12699999809E+01 0.  1.
</event>
<event>
 5   0  0.2926844E-03  0.1131247E+04  0.7818609E-02  0.9175261E-01
       -1   -1    0    0    0  501  0.00000000000E+00  0.00000000000E+00  0.23073385844E+03  0.23073385849E+03  0.50400001928E-02 0. -1.
        1   -1    0    0  501    0  0.00000000000E+00  0.00000000000E+00 -0.13865753791E+04  0.13865753791E+04  0.50400001928E-02 0.  1.
    10030    2    1    2    0    0  0.00000000000E+00  0.00000000000E+00 -0.11558415206E+04  0.16173092376E+04  0.11312469002E+04 0.  0.
        5    1    3    3  502    0 -0.32356302897E+03 -0.27794554699E+03 -0.46897078936E+02  0.42914821079E+03  0.46999998093E+01 0. -1.
       -5    1    3    3    0  502  0.32356302897E+03  0.27794554699E+03 -0.11089444417E+04  0.11881610268E+04  0.46999998093E+01 0.  1.
</event>
<event>
 5   0  0.2792518E-03  0.1203236E+04  0.7818609E-02  0.9110029E-01
        1   -1    0    0  501    0  0.00000000000E+00  0.00000000000E+00  0.54479031084E+03  0.54479031086E+03  0.50400001928E-02 0. -1.
       -1   -1    0    0    0  501  0.00000000000E+00  0.00000000000E+00 -0.66437292279E+03  0.66437292281E+03  0.50400001928E-02 0.  1.
    10030    2    1    2    0    0  0.00000000000E+00  0.00000000000E+00 -0.11958261196E+03  0.12091632337E+04  0.12032355233E+04 0.  0.
        2    1    3    3  502    0  0.54239334599E+02 -0.29014844133E+03 -0.58660277627E+03  0.65668168891E+03  0.25500000920E-02 0.  1.
       -2    1    3    3    0  502 -0.54239334599E+02  0.29014844133E+03  0.46702016431E+03  0.55248154476E+03  0.25500000920E-02 0. -1.
</event>
<event>
 5   0  0.2792518E-03  0.1204866E+04  0.7818609E-02  0.9108608E-01
        1   -1    0    0  501    0  0.00000000000E+00  0.00000000000E+00  0.10342064209E+04  0.10342064209E+04  0.50400001928E-02 0.  1.
       -1   -1    0    0    0  501  0.00000000000E+00  0.00000000000E+00 -0.35092177327E+03  0.35092177331E+03  0.50400001928E-02 0. -1.
    10030    2    1    2    0    0  0.00000000000E+00  0.00000000000E+00  0.68328464764E+03  0.13851281942E+04  0.12048660526E+04 0.  0.
        2    1    3    3  502    0 -0.58963588649E+03 -0.11817840649E+03  0.30036923145E+03  0.67220405355E+03  0.25500000920E-02 0. -1.
       -2    1    3    3    0  502  0.58963588649E+03  0.11817840649E+03  0.38291541618E+03  0.71292414067E+03  0.25500000920E-02 0.  1.
</event>
<event>
 5   0  0.2930868E-03  0.1052194E+04  0.7818609E-02  0.9253082E-01
        1   -1    0    0  501    0  0.00000000000E+00  0.00000000000E+00  0.89163883983E+03  0.89163883984E+03  0.50400001928E-02 0.  1.
       -1   -1    0    0    0  501  0.00000000000E+00  0.00000000000E+00 -0.31041514434E+03  0.31041514438E+03  0.50400001928E-02 0. -1.
    10030    2    1    2    0    0  0.00000000000E+00  0.00000000000E+00  0.58122369549E+03  0.12020539842E+04  0.10521942771E+04 0.  0.
        3    1    3    3  502    0 -0.37072311335E+03  0.21650428883E+03  0.63800786722E+03  0.76900180929E+03  0.10100000352E+00 0.  1.
       -3    1    3    3    0  502  0.37072311335E+03 -0.21650428883E+03 -0.56784171727E+02  0.43305217493E+03  0.10100000352E+00 0. -1.
</event>
<event>
 5   0  0.5467554E-03  0.1190156E+04  0.7818609E-02  0.9121517E-01
        2   -1    0    0  501    0  0.00000000000E+00  0.00000000000E+00  0.47339643647E+03  0.47339643648E+03  0.25500000920E-02 0.  1.
       -2   -1    0    0    0  501  0.00000000000E+00  0.00000000000E+00 -0.74803649418E+03  0.74803649418E+03  0.25500000920E-02 0. -1.
    10030    2    1    2    0    0  0.00000000000E+00  0.00000000000E+00 -0.27464005770E+03  0.12214329307E+04  0.11901559742E+04 0.  0.
        1    1    3    3  502    0  0.44523199684E+03  0.37105726387E+03 -0.27578333031E+03  0.64185003652E+03  0.50400001928E-02 0.  1.
       -1    1    3    3    0  502 -0.44523199684E+03 -0.37105726387E+03  0.11432726062E+01  0.57958289414E+03  0.50400001928E-02 0. -1.
</event>
<event>
 5   0  0.2930868E-03  0.8270617E+03  0.7818609E-02  0.9521652E-01
       -1   -1    0    0    0  501  0.00000000000E+00  0.00000000000E+00  0.21277862959E+03  0.21277862965E+03  0.50400001928E-02 0.  1.
        1   -1    0    0  501    0  0.00000000000E+00  0.00000000000E+00 -0.80368871304E+03  0.80368871306E+03  0.50400001928E-02 0. -1.
    10030    2    1    2    0    0  0.00000000000E+00  0.00000000000E+00 -0.59091008345E+03  0.10164673427E+04  0.82706174623E+03 0.  0.
        3    1    3    3  502    0 -0.70830974825E+00 -0.26934575715E+03 -0.68109826825E+03  0.73242235071E+03  0.10100000352E+00 0. -1.
       -3    1    3    3    0  502  0.70830974825E+00  0.26934575715E+03  0.90188184807E+02  0.28404499200E+03  0.10100000352E+00 0.  1.
</event>
<event>
 5   0  0.5108045E-03  0.1249545E+04  0.7818609E-02  0.9070562E-01
       -2   -1    0    0    0  501  0.00000000000E+00  0.00000000000E+00  0.45557728402E+03  0.45557728403E+03  0.25500000920E-02 0.  1.
        2   -1    0    0  501    0  0.00000000000E+00  0.00000000000E+00 -0.85680412299E+03  0.85680412300E+03  0.25500000920E-02 0. -1.
    10030    2    1    2    0    0  0.00000000000E+00  0.00000000000E+00 -0.40122683897E+03  0.13123814070E+04  0.12495447096E+04 0.  0.
        3    1    3    3  502    0 -0.87290292950E+02  0.47162213215E+03  0.21988673809E+03  0.52763360257E+03  0.10100000352E+00 0.  1.
       -3    1    3    3    0  502  0.87290292950E+02 -0.47162213215E+03 -0.62111357707E+03  0.78474780445E+03  0.10100000352E+00 0. -1.
</event>
<event>
 5   0  0.2875848E-03  0.1215571E+04  0.7818609E-02  0.9099335E-01
       -1   -1    0    0    0  501  0.00000000000E+00  0.00000000000E+00  0.49649435354E+03  0.49649435357E+03  0.50400001928E-02 0. -1.
        1   -1    0    0  501    0  0.00000000000E+00  0.00000000000E+00 -0.74402356131E+03  0.74402356132E+03  0.50400001928E-02 0.  1.
    10030    2    1    2    0    0  0.00000000000E+00  0.00000000000E+00 -0.24752920776E+03  0.12405179149E+04  0.12155714658E+04 0.  0.
        1    1    3    3  502    0  0.56853563793E+03  0.10131448339E+03 -0.31714242714E+03  0.65884498576E+03  0.50400001928E-02 0.  1.
       -1    1    3    3    0  502 -0.56853563793E+03 -0.10131448339E+03  0.69613219376E+02  0.58167292913E+03  0.50400001928E-02 0. -1.
</event>
<event>
 5   0  0.5189537E-03  0.1197139E+04  0.7818609E-02  0.9115365E-01
       -2   -1    0    0    0  501  0.00000000000E+00  0.00000000000E+00  0.49244122995E+03  0.49244122995E+03  0.25500000920E-02 0. -1.
        2   -1    0    0  501    0  0.00000000000E+00  0.00000000000E+00 -0.72756948875E+03  0.72756948875E+03  0.25500000920E-02 0.  1.
    10030    2    1    2    0    0  0.00000000000E+00  0.00000000000E+00 -0.23512825880E+03  0.12200107187E+04  0.11971386117E+04 0.  0.
        4    1    3    3  502    0  0.32403902223E+03  0.10982768770E+02 -0.63032892727E+03  0.70882866660E+03  0.12699999809E+01 0.  1.
       -4    1    3    3    0  502 -0.32403902223E+03 -0.10982768770E+02  0.39520066847E+03  0.51118205211E+03  0.12699999809E+01 0. -1.
</event>
<event>
 5   0  0.5189537E-03  0.1130687E+04  0.7818609E-02  0.9175788E-01
        2   -1    0    0  501    0  0.00000000000E+00  0.00000000000E+00  0.72452776853E+03  0.72452776853E+03  0.25500000920E-02 0.  1.
       -2   -1    0    0    0  501  0.00000000000E+00  0.00000000000E+00 -0.44113316512E+03  0.44113316512E+03  0.25500000920E-02 0. -1.
    10030    2    1    2    0    0  0.00000000000E+00  0.00000000000E+00  0.28339460341E+03  0.11656609337E+04  0.11306869200E+04 0.  0.
        4    1    3    3  502    0 -0.76404355377E+02 -0.54342319390E+03  0.28178730199E+03  0.61688904160E+03  0.12699999809E+01 0.  1.
       -4    1    3    3    0  502  0.76404355377E+02  0.54342319390E+03  0.16073014226E+01  0.54877189205E+03  0.12699999809E+01 0. -1.
</event>
<event>
 5   0  0.2926844E-03  0.1201184E+04  0.7818609E-02  0.9111821E-01
        1   -1    0    0  501    0  0.00000000000E+00  0.00000000000E+00  0.16445910849E+04  0.16445910850E+04  0.50400001928E-02 0. -1.
       -1   -1    0    0    0  501  0.00000000000E+00  0.00000000000E+00 -0.21933149228E+03  0.21933149234E+03  0.50400001928E-02 0.  1.
    10030    2    1    2    0    0  0.00000000000E+00  0.00000000000E+00  0.14252595927E+04  0.18639225773E+04  0.12011837776E+04 0.  0.
        5    1    3    3  502    0  0.40255303096E+03 -0.21971486961E+01  0.21044052912E+02  0.40313609657E+03  0.46999998093E+01 0.  1.
       -5    1    3    3    0  502 -0.40255303096E+03  0.21971486961E+01  0.14042155397E+04  0.14607864807E+04  0.46999998093E+01 0. -1.
</event>
<event>
 5   0  0.2930868E-03  0.1192017E+04  0.7818609E-02  0.9119873E-01
        1   -1    0    0  501    0  0.00000000000E+00  0.00000000000E+00  0.51578649175E+03  0.51578649178E+03  0.50400001928E-02 0.  1.
       -1   -1    0    0    0  501  0.00000000000E+00  0.00000000000E+00 -0.68870767787E+03  0.68870767789E+03  0.50400001928E-02 0. -1.
    10030    2    1    2    0    0  0.00000000000E+00  0.00000000000E+00 -0.17292118612E+03  0.12044941697E+04  0.11920169748E+04 0.  0.
        3    1    3    3  502    0  0.57726814986E+02 -0.39748206624E+03  0.35849134491E+03  0.53836830583E+03  0.10100000352E+00 0.  1.
       -3    1    3    3    0  502 -0.57726814986E+02  0.39748206624E+03 -0.53141253102E+03  0.66612586384E+03  0.10100000352E+00 0. -1.
</event>
<event>
 5   0  0.2792518E-03  0.1157376E+04  0.7818609E-02  0.9151006E-01
        1   -1    0    0  501    0  0.00000000000E+00  0.00000000000E+00  0.46435300293E+03  0.46435300296E+03  0.50400001928E-02 0.  1.
       -1   -1    0    0    0  501  0.00000000000E+00  0.00000000000E+00 -0.72117508962E+03  0.72117508963E+03  0.50400001928E-02 0. -1.
    10030    2    1    2    0    0  0.00000000000E+00  0.00000000000E+00 -0.25682208668E+03  0.11855280926E+04  0.11573760297E+04 0.  0.
        2    1    3    3  502    0  0.50107916235E+03 -0.13040653697E+03 -0.39314209116E+03  0.65011298685E+03  0.25500000920E-02 0. -1.
       -2    1    3    3    0  502 -0.50107916235E+03  0.13040653697E+03  0.13632000448E+03  0.53541510574E+03  0.25500000920E-02 0.  1.
</event>
<event>
 5   0  0.5189537E-03  0.1180831E+04  0.7818609E-02  0.9129802E-01
       -2   -1    0    0    0  501  0.00000000000E+00  0.00000000000E+00  0.72802995942E+03  0.72802995943E+03  0.25500000920E-02 0. -1.
        2   -1    0    0  501    0  0.00000000000E+00  0.00000000000E+00 -0.47881360831E+03  0.47881360832E+03  0.25500000920E-02 0.  1.
    10030    2    1    2    0    0  0.00000000000E+00  0.00000000000E+00  0.24921635111E+03  0.12068435677E+04  0.11808313204E+04 0.  0.
        4    1    3    3  502    0 -0.24299852167E+02  0.16541230705E+03  0.70333039153E+03  0.72292943410E+03  0.12699999809E+01 0. -1.
       -4    1    3    3    0  502  0.24299852167E+02 -0.16541230705E+03 -0.45411404042E+03  0.48391413365E+03  0.12699999809E+01 0.  1.
</event>
<event>
 5   0  0.2930868E-03  0.1196743E+04  0.7818609E-02  0.9115712E-01
        1   -1    0    0  501    0  0.00000000000E+00  0.00000000000E+00  0.79473693764E+03  0.79473693766E+03  0.50400001928E-02 0.  1.
       -1   -1    0    0    0  501  0.00000000000E+00  0.00000000000E+00 -0.45052462671E+03  0.45052462674E+03  0.50400001928E-02 0. -1.
    10030    2    1    2    0    0  0.00000000000E+00  0.00000000000E+00  0.34421231093E+03  0.12452615644E+04  0.11967431841E+04 0.  0.
        3    1    3    3  502    0  0.13271076754E+03  0.57036019712E+03  0.44133659583E+02  0.58725692196E+03  0.10100000352E+00 0. -1.
       -3    1    3    3    0  502 -0.13271076754E+03 -0.57036019712E+03  0.30007865135E+03  0.65800464244E+03  0.10100000352E+00 0.  1.
</event>
<event>
 5   0  0.5003526E-03  0.1212755E+04  0.7818609E-02  0.9101765E-01
       -2   -1    0    0    0  501  0.00000000000E+00  0.00000000000E+00  0.22827392747E+03  0.22827392748E+03  0.25500000920E-02 0.  1.
        2   -1    0    0  501    0  0.00000000000E+00  0.00000000000E+00 -0.16107567487E+04  0.16107567487E+04  0.25500000920E-02 0. -1.
    10030    2    1    2    0    0  0.00000000000E+00  0.00000000000E+00 -0.13824828212E+04  0.18390306762E+04  0.12127551595E+04 0.  0.
        2    1    3    3  502    0 -0.42535599565E+03  0.28408310853E+03 -0.19738868437E+03  0.54826383093E+03  0.25500000920E-02 0.  1.
       -2    1    3    3    0  502  0.42535599565E+03 -0.28408310853E+03 -0.11850941369E+04  0.12907668453E+04  0.25500000920E-02 0. -1.
</event>
<event>
 5   0  0.5189537E-03  0.1188384E+04  0.7818609E-02  0.9123085E-01
        2   -1    0    0  501    0  0.00000000000E+00  0.00000000000E+00  0.12676694903E+04  0.12676694903E+04  0.25500000920E-02 0.  1.
       -2   -1    0    0    0  501  0.00000000000E+00  0.00000000000E+00 -0.27851453200E+03  0.27851453201E+03  0.25500000920E-02 0. -1.
    10030    2    1    2    0    0  0.00000000000E+00  0.00000000000E+00  0.98915495833E+03  0.15461840223E+04  0.11883844072E+04 0.  0.
        4    1    3    3  502    0 -0.15451807351E+03  0.53912518513E+02 -0.24861226446E+03  0.29764419301E+03  0.12699999809E+01 0. -1.
       -4    1    3    3    0  502  0.15451807351E+03 -0.53912518513E+02  0.12377672228E+04  0.12485398293E+04  0.12699999809E+01 0.  1.
</event>
<event>
 5   0  0.2926844E-03  0.1196639E+04  0.7818609E-02  0.9115803E-01
       -1   -1    0    0    0  501  0.00000000000E+00  0.00000000000E+00  0.30042194858E+03  0.30042194863E+03  0.50400001928E-02 0. -1.
        1   -1    0    0  501    0  0.00000000000E+00  0.00000000000E+00 -0.11916121153E+04  0.11916121153E+04  0.50400001928E-02 0.  1.
    10030    2    1    2    0    0  0.00000000000E+00  0.00000000000E+00 -0.89119016672E+03  0.14920340639E+04  0.11966393503E+04 0.  0.
        5    1    3    3  502    0 -0.12895487939E+03  0.54827180008E+03 -0.69724033629E+03  0.89632444139E+03  0.46999998093E+01 0.  1.
       -5    1    3    3    0  502  0.12895487939E+03 -0.54827180008E+03 -0.19394983043E+03  0.59570962255E+03  0.46999998093E+01 0. -1.
</event>
<event>
 5   0  0.2792518E-03  0.1211860E+04  0.7818609E-02  0.9102538E-01
       -1   -1    0    0    0  501  0.00000000000E+00  0.00000000000E+00  0.36776704723E+03  0.36776704727E+03  0.50400001928E-02 0. -1.
        1   -1    0    0  501    0  0.00000000000E+00  0.00000000000E+00 -0.99832593262E+03  0.99832593264E+03  0.50400001928E-02 0.  1.
    10030    2    1    2    0    0  0.00000000000E+00  0.00000000000E+00 -0.63055888539E+03  0.13660929799E+04  0.12118603557E+04 0.  0.
        2    1    3    3  502    0 -0.46601607661E+03 -0.25251721137E+03  0.15714649927E+02  0.53026679692E+03  0.25500000920E-02 0.  1.
       -2    1    3    3    0  502  0.46601607661E+03  0.25251721137E+03 -0.64627353532E+03  0.83582618298E+03  0.25500000920E-02 0. -1.
</event>
<event>
 5   0  0.5003526E-03  0.1201372E+04  0.7818609E-02  0.9111656E-01
        2   -1    0    0  501    0  0.00000000000E+00  0.00000000000E+00  0.56260027618E+03  0.56260027619E+03  0.25500000920E-02 0. -1.
       -2   -1    0    0    0  501  0.00000000000E+00  0.00000000000E+00 -0.64135047079E+03  0.64135047079E+03  0.25500000920E-02 0.  1.
    10030    2    1    2    0    0  0.00000000000E+00  0.00000000000E+00 -0.78750194605E+02  0.12039507470E+04  0.12013724685E+04 0.  0.
        2    1    3    3  502    0  0.76840675554E+02  0.43725956183E+03  0.36612093223E+03  0.57545195356E+03  0.25500000920E-02 0. -1.
       -2    1    3    3    0  502 -0.76840675554E+02 -0.43725956183E+03 -0.44487112683E+03  0.62849879342E+03  0.25500000920E-02 0.  1.
</event>
<event>
 5   0  0.5108045E-03  0.1201255E+04  0.7818609E-02  0.9111759E-01
       -2   -1    0    0    0  501  0.00000000000E+00  0.00000000000E+00  0.78723876641E+03  0.78723876642E+03  0.25500000920E-02 0. -1.
        2   -1    0    0  501    0  0.00000000000E+00  0.00000000000E+00 -0.45825155210E+03  0.45825155211E+03  0.25500000920E-02 0.  1.
    10030    2    1    2    0    0  0.00000000000E+00  0.00000000000E+00  0.32898721431E+03  0.12454903185E+04  0.12012549881E+04 0.  0.
        3    1    3    3  502    0 -0.45859283562E+03 -0.28959815904E+03 -0.10303697803E+03  0.55207889984E+03  0.10100000352E+00 0.  1.
       -3    1    3    3    0  502  0.45859283562E+03  0.28959815904E+03  0.43202419234E+03  0.69341141869E+03  0.10100000352E+00 0. -1.
</event>
<event>
 5   0  0.5031575E-03  0.1195622E+04  0.7818609E-02  0.9116697E-01
       -2   -1    0    0    0  501  0.00000000000E+00  0.00000000000E+00  0.70851932692E+03  0.70851932693E+03  0.25500000920E-02 0.  1.
        2   -1    0    0  501    0  0.00000000000E+00  0.00000000000E+00 -0.50440135680E+03  0.50440135681E+03  0.25500000920E-02 0. -1.
    10030    2    1    2    0    0  0.00000000000E+00  0.00000000000E+00  0.20411797012E+03  0.12129206837E+04  0.11956221976E+04 0.  0.
        5    1    3    3  502    0  0.93348471940E+02 -0.57114879142E+03 -0.49878212662E+02  0.58089138851E+03  0.46999998093E+01 0. -1.
       -5    1    3    3    0  502 -0.93348471940E+02  0.57114879142E+03  0.25399618278E+03  0.63202929522E+03  0.46999998093E+01 0.  1.
</event>
<event>
 5   0  0.2792518E-03  0.1207142E+04  0.7818609E-02  0.9106628E-01
       -1   -1    0    0    0  501  0.00000000000E+00  0.00000000000E+00  0.76563119713E+03  0.76563119715E+03  0.50400001928E-02 0. -1.
        1   -1    0    0  501    0  0.00000000000E+00  0.00000000000E+00 -0.47581385178E+03  0.47581385181E+03  0.50400001928E-02 0.  1.
    10030    2    1    2    0    0  0.00000000000E+00  0.00000000000E+00  0.28981734535E+03  0.12414450490E+04  0.12071419618E+04 0.  0.
        2    1    3    3  502    0  0.47715303011E+03 -0.92253614293E+02  0.51300744921E+03  0.70665577648E+03  0.25500000920E-02 0. -1.
       -2    1    3    3    0  502 -0.47715303011E+03  0.92253614293E+02 -0.22319010386E+03  0.53478927248E+03  0.25500000920E-02 0.  1.
</event>
<event>
 5   0  0.5003526E-03  0.1202591E+04  0.7818609E-02  0.9110591E-01
       -2   -1    0    0    0  501  0.00000000000E+00  0.00000000000E+00  0.11576895059E+04  0.11576895059E+04  0.25500000920E-02 0.  1.
        2   -1    0    0  501    0  0.00000000000E+00  0.00000000000E+00 -0.31230875788E+03  0.31230875789E+03  0.25500000920E-02 0. -1.
    10030    2    1    2    0    0  0.00000000000E+00  0.00000000000E+00  0.84538074799E+03  0.14699982638E+04  0.12025914877E+04 0.  0.
        2    1    3    3  502    0 -0.10052467216E+03 -0.51085437884E+03  0.55007848947E+02  0.52354872700E+03  0.25500000920E-02 0. -1.
       -2    1    3    3    0  502  0.10052467216E+03  0.51085437884E+03  0.79037289905E+03  0.94644953677E+03  0.25500000920E-02 0.  1.
</event>
<event>
 5   0  0.2792518E-03  0.1169086E+04  0.7818609E-02  0.9140354E-01
       -1   -1    0    0    0  501  0.00000000000E+00  0.00000000000E+00  0.23949981379E+03  0.23949981385E+03  0.50400001928E-02 0.  1.
        1   -1    0    0  501    0  0.00000000000E+00  0.00000000000E+00 -0.14266835362E+04  0.14266835362E+04  0.50400001928E-02 0. -1.
    10030    2    1    2    0    0  0.00000000000E+00  0.00000000000E+00 -0.11871837224E+04  0.16661833500E+04  0.11690858674E+04 0.  0.
        2    1    3    3  502    0 -0.22517826973E+03 -0.45354969264E+03 -0.17739908510E+03  0.53654730663E+03  0.25500000920E-02 0.  1.
       -2    1    3    3    0  502  0.22517826973E+03  0.45354969264E+03 -0.10097846373E+04  0.11296360434E+04  0.25500000920E-02 0. -1.
</event>
<event>
 5   0  0.5031575E-03  0.1211044E+04  0.7818609E-02  0.9103244E-01
        2   -1    0    0  501    0  0.00000000000E+00  0.00000000000E+00  0.83256919871E+03  0.83256919872E+03  0.25500000920E-02 0. -1.
       -2   -1    0    0    0  501  0.00000000000E+00  0.00000000000E+00 -0.44039222288E+03  0.44039222289E+03  0.25500000920E-02 0.  1.
    10030    2    1    2    0    0  0.00000000000E+00  0.00000000000E+00  0.39217697583E+03  0.12729614216E+04  0.12110441778E+04 0.  0.
        5    1    3    3  502    0 -0.28195761096E+02 -0.60478117033E+03  0.20546918412E+03  0.63937073795E+03  0.46999998093E+01 0.  1.
       -5    1    3    3    0  502  0.28195761096E+02  0.60478117033E+03  0.18670779171E+03  0.63359068365E+03  0.46999998093E+01 0. -1.
</event>
<event>
 5   0  0.2875848E-03  0.1220207E+04  0.7818609E-02  0.9095351E-01
        1   -1    0    0  501    0  0.00000000000E+00  0.00000000000E+00  0.67358372253E+03  0.67358372255E+03  0.50400001928E-02 0.  1.
       -1   -1    0    0    0  501  0.00000000000E+00  0.00000000000E+00 -0.55260598082E+03  0.55260598085E+03  0.50400001928E-02 0. -1.
    10030    2    1    2    0    0  0.00000000000E+00  0.00000000000E+00  0.12097774170E+03  0.12261897034E+04  0.12202071852E+04 0.  0.
        1    1    3    3  502    0  0.11233168178E+03 -0.40925253085E+03  0.50095323228E+03  0.65655173573E+03  0.50400001928E-02 0.  1.
       -1    1    3    3    0  502 -0.11233168178E+03  0.40925253085E+03 -0.37997549057E+03  0.56963796766E+03  0.50400001928E-02 0. -1.
</event>
<event>
 5   0  0.2792518E-03  0.1221797E+04  0.7818609E-02  0.9093989E-01
        1   -1    0    0  501    0  0.00000000000E+00  0.00000000000E+00  0.10121453095E+04  0.10121453096E+04  0.50400001928E-02 0.  1.
       -1   -1    0    0    0  501  0.00000000000E+00  0.00000000000E+00 -0.36871856938E+03  0.36871856941E+03  0.50400001928E-02 0. -1.
    10030    2    1    2    0    0  0.00000000000E+00  0.00000000000E+00  0.64342674017E+03  0.13808638790E+04  0.12217966616E+04 0.  0.
        2    1    3    3  502    0  0.94805971852E+02 -0.32019157616E+03 -0.25643877390E+03  0.42103641470E+03  0.25500000920E-02 0. -1.
       -2    1    3    3    0  502 -0.94805971852E+02  0.32019157616E+03  0.89986551407E+03  0.95982746427E+03  0.25500000920E-02 0.  1.
</event>
<event>
 5   0  0.2875848E-03  0.1138934E+04  0.7818609E-02  0.9168054E-01
        1   -1    0    0  501    0  0.00000000000E+00  0.00000000000E+00  0.54508367347E+03  0.54508367349E+03  0.50400001928E-02 0.  1.
       -1   -1    0    0    0  501  0.00000000000E+00  0.00000000000E+00 -0.59494065958E+03  0.59494065960E+03  0.50400001928E-02 0. -1.
    10030    2    1    2    0    0  0.00000000000E+00  0.00000000000E+00 -0.49856986107E+02  0.11400243331E+04  0.11389336069E+04 0.  0.
        1    1    3    3  502    0  0.40473818920E+03  0.18714220361E+03 -0.37946712729E+03  0.58551729854E+03  0.50400001928E-02 0. -1.
       -1    1    3    3    0  502 -0.40473818920E+03 -0.18714220361E+03  0.32961014119E+03  0.55450703455E+03  0.50400001928E-02 0.  1.
</event>
<event>
 5   0  0.5031575E-03  0.1262052E+04  0.7818609E-02  0.9060212E-01
        2   -1    0    0  501    0  0.00000000000E+00  0.00000000000E+00  0.21185405067E+04  0.21185405067E+04  0.25500000920E-02 0. -1.
       -2   -1    0    0    0  501  0.00000000000E+00  0.00000000000E+00 -0.18795657618E+03  0.18795657620E+03  0.25500000920E-02 0.  1.
    10030    2    1    2    0    0  0.00000000000E+00  0.00000000000E+00  0.19305839305E+04  0.23064970829E+04  0.12620516949E+04 0.  0.
        5    1    3    3  502    0 -0.56511407664E+03  0.67922304795E+02  0.46745180906E+03  0.73654642956E+03  0.46999998093E+01 0. -1.
       -5    1    3    3    0  502  0.56511407664E+03 -0.67922304795E+02  0.14631321215E+04  0.15699506534E+04  0.46999998093E+01 0.  1.
</event>
<event>
 5   0  0.2926844E-03  0.1148402E+04  0.7818609E-02  0.9159259E-01
       -1   -1    0    0    0  501  0.00000000000E+00  0.00000000000E+00  0.52882007789E+03  0.52882007792E+03  0.50400001928E-02 0.  1.
        1   -1    0    0  501    0  0.00000000000E+00  0.00000000000E+00 -0.62347609440E+03  0.62347609442E+03  0.50400001928E-02 0. -1.
    10030    2    1    2    0    0  0.00000000000E+00  0.00000000000E+00 -0.94656016504E+02  0.11522961723E+04  0.11484018057E+04 0.  0.
        5    1    3    3  502    0 -0.44554812152E+03  0.34387179991E+03 -0.16139572193E+03  0.58551824260E+03  0.46999998093E+01 0. -1.
       -5    1    3    3    0  502  0.44554812152E+03 -0.34387179991E+03  0.66739705425E+02  0.56677792974E+03  0.46999998093E+01 0.  1.
</event>
<event>
 5   0  0.2930868E-03  0.1214461E+04  0.7818609E-02  0.9100292E-01
       -1   -1    0    0    0  501  0.00000000000E+00  0.00000000000E+00  0.13166948273E+03  0.13166948283E+03  0.50400001928E-02 0.  1.
        1   -1    0    0  501    0  0.00000000000E+00  0.00000000000E+00 -0.28004124807E+04  0.28004124807E+04  0.50400001928E-02 0. -1.
    10030    2    1    2    0    0  0.00000000000E+00  0.00000000000E+00 -0.26687429980E+04  0.29320819635E+04  0.12144609717E+04 0.  0.
        3    1    3    3  502    0  0.52843168240E+03 -0.27085587854E+03 -0.10277839151E+04  0.11869889369E+04  0.10100000352E+00 0.  1.
       -3    1    3    3    0  502 -0.52843168240E+03  0.27085587854E+03 -0.16409590828E+04  0.17450930266E+04  0.10100000352E+00 0. -1.
</event>
<event>
 5   0  0.5467554E-03  0.1153930E+04  0.7818609E-02  0.9154166E-01
       -2   -1    0    0    0  501  0.00000000000E+00  0.00000000000E+00  0.50449060628E+03  0.50449060629E+03  0.25500000920E-02 0.  1.
        2   -1    0    0  501    0  0.00000000000E+00  0.00000000000E+00 -0.65985097325E+03  0.65985097326E+03  0.25500000920E-02 0. -1.
    10030    2    1    2    0    0  0.00000000000E+00  0.00000000000E+00 -0.15536036697E+03  0.11643415795E+04  0.11539300110E+04 0.  0.
        1    1    3    3  502    0 -0.55219464035E+03 -0.11901726967E+03  0.40872840205E+02  0.56635202869E+03  0.50400001928E-02 0. -1.
       -1    1    3    3    0  502  0.55219464035E+03  0.11901726967E+03 -0.19623320717E+03  0.59798955086E+03  0.50400001928E-02 0.  1.
</event>
<event>
 5   0  0.2930868E-03  0.1232874E+04  0.7818609E-02  0.9084559E-01
       -1   -1    0    0    0  501  0.00000000000E+00  0.00000000000E+00  0.24699664271E+03  0.24699664277E+03  0.50400001928E-02 0. -1.
        1   -1    0    0  501    0  0.00000000000E+00  0.00000000000E+00 -0.15384605347E+04  0.15384605347E+04  0.50400001928E-02 0.  1.
    10030    2    1    2    0    0  0.00000000000E+00  0.00000000000E+00 -0.12914638920E+04  0.17854571775E+04  0.12328740196E+04 0.  0.
        3    1    3    3  502    0  0.24076204519E+02 -0.16032512847E+03  0.21556890709E+03  0.26972907583E+03  0.10100000352E+00 0. -1.
       -3    1    3    3    0  502 -0.24076204519E+02  0.16032512847E+03 -0.15070327991E+04  0.15157281017E+04  0.10100000352E+00 0.  1.
</event>
<event>
 5   0  0.5108045E-03  0.1194742E+04  0.7818609E-02  0.9117471E-01
        2   -1    0    0  501    0  0.00000000000E+00  0.00000000000E+00  0.10014280917E+04  0.10014280917E+04  0.25500000920E-02 0. -1.
       -2   -1    0    0    0  501  0.00000000000E+00  0.00000000000E+00 -0.35634322286E+03  0.35634322287E+03  0.25500000920E-02 0.  1.
    10030    2    1    2    0    0  0.00000000000E+00  0.00000000000E+00  0.64508486883E+03  0.13577713146E+04  0.11947420034E+04 0.  0.
        3    1    3    3  502    0  0.37193260121E+02  0.59286554052E+03  0.39423122248E+03  0.71294540795E+03  0.10100000352E+00 0. -1.
       -3    1    3    3    0  502 -0.37193260121E+02 -0.59286554052E+03  0.25085364635E+03  0.64482590660E+03  0.10100000352E+00 0.  1.
</event>
<event>
 5   0  0.2875848E-03  0.1193794E+04  0.7818609E-02  0.9118306E-01
        1   -1    0    0  501    0  0.00000000000E+00  0.00000000000E+00  0.26372981208E+04  0.26372981209E+04  0.50400001928E-02 0.  1.
       -1   -1    0    0    0  501  0.00000000000E+00  0.00000000000E+00 -0.13509510082E+03  0.13509510091E+03  0.50400001928E-02 0. -1.
    10030    2    1    2    0    0  0.00000000000E+00  0.00000000000E+00  0.25022030200E+04  0.27723932218E+04  0.11937940453E+04 0.  0.
        1    1    3    3  502    0 -0.36860021708E+03 -0.71962522444E+02  0.23285295021E+04  0.23586212852E+04  0.50400001928E-02 0.  1.
       -1    1    3    3    0  502  0.36860021708E+03  0.71962522444E+02  0.17367351794E+03  0.41377193661E+03  0.50400001928E-02 0. -1.
</event>
<event>
 5   0  0.2875848E-03  0.1193008E+04  0.7818609E-02  0.9118999E-01
       -1   -1    0    0    0  501  0.00000000000E+00  0.00000000000E+00  0.38505245817E+03  0.38505245821E+03  0.50400001928E-02 0.  1.
        1   -1    0    0  501    0  0.00000000000E+00  0.00000000000E+00 -0.92407426097E+03  0.92407426099E+03  0.50400001928E-02 0. -1.
    10030    2    1    2    0    0  0.00000000000E+00  0.00000000000E+00 -0.53902180280E+03  0.13091267192E+04  0.11930080733E+04 0.  0.
        1    1    3    3  502    0 -0.17375053849E+03 -0.37458941493E+03  0.20286574579E+03  0.46006628897E+03  0.50400001928E-02 0.  1.
       -1    1    3    3    0  502  0.17375053849E+03  0.37458941493E+03 -0.74188754859E+03  0.84906043023E+03  0.50400001928E-02 0. -1.
</event>
<event>
 5   0  0.5467554E-03  0.1129333E+04  0.7818609E-02  0.9177064E-01
        2   -1    0    0  501    0  0.00000000000E+00  0.00000000000E+00  0.95315625926E+03  0.95315625927E+03  0.25500000920E-02 0. -1.
       -2   -1    0    0    0  501  0.00000000000E+00  0.00000000000E+00 -0.33451850711E+03  0.33451850712E+03  0.25500000920E-02 0.  1.
    10030    2    1    2    0    0  0.00000000000E+00  0.00000000000E+00  0.61863775215E+03  0.12876747664E+04  0.11293332704E+04 0.  0.
        1    1    3    3  502    0 -0.45775483817E+03  0.14837585606E+03 -0.27561002159E+02  0.48199014035E+03  0.50400001928E-02 0.  1.
       -1    1    3    3    0  502  0.45775483817E+03 -0.14837585606E+03  0.64619875431E+03  0.80568462603E+03  0.50400001928E-02 0. -1.
</event>
<event>
 5   0  0.2930868E-03  0.1208432E+04  0.7818609E-02  0.9105508E-01
        1   -1    0    0  501    0  0.00000000000E+00  0.00000000000E+00  0.15886855466E+04  0.15886855466E+04  0.50400001928E-02 0. -1.
       -1   -1    0    0    0  501  0.00000000000E+00  0.00000000000E+00 -0.22979823247E+03  0.22979823253E+03  0.50400001928E-02 0.  1.
    10030    2    1    2    0    0  0.00000000000E+00  0.00000000000E+00  0.13588873141E+04  0.18184837791E+04  0.12084322581E+04 0.  0.
        3    1    3    3  502    0 -0.48155606836E+02  0.29417173789E+01 -0.22689506579E+03  0.23196766424E+03  0.10100000352E+00 0.  1.
       -3    1    3    3    0  502  0.48155606836E+02 -0.29417173789E+01  0.15857823799E+04  0.15865161149E+04  0.10100000352E+00 0. -1.
</event>
<event>
 5   0  0.2875848E-03  0.1206178E+04  0.7818609E-02  0.9107466E-01
       -1   -1    0    0    0  501  0.00000000000E+00  0.00000000000E+00  0.48749544430E+03  0.48749544433E+03  0.50400001928E-02 0. -1.
        1   -1    0    0  501    0  0.00000000000E+00  0.00000000000E+00 -0.74609172738E+03  0.74609172740E+03  0.50400001928E-02 0.  1.
    10030    2    1    2    0    0  0.00000000000E+00  0.00000000000E+00 -0.25859628308E+03  0.12335871717E+04  0.12061779606E+04 0.  0.
        1    1    3    3  502    0  0.20180388953E+02 -0.22778806436E+03 -0.70003098966E+03  0.73643603719E+03  0.50400001928E-02 0.  1.
       -1    1    3    3    0  502 -0.20180388953E+02  0.22778806436E+03  0.44143470659E+03  0.49715113453E+03  0.50400001928E-02 0. -1.
</event>
<event>
 5   0  0.5108045E-03  0.1346652E+04  0.7818609E-02  0.8993367E-01
       -2   -1    0    0    0  501  0.00000000000E+00  0.00000000000E+00  0.22457369877E+04  0.22457369877E+04  0.25500000920E-02 0. -1.
        2   -1    0    0  501    0  0.00000000000E+00  0.00000000000E+00 -0.20187923244E+03  0.20187923245E+03  0.25500000920E-02 0.  1.
    10030    2    1    2    0    0  0.00000000000E+00  0.00000000000E+00  0.20438577552E+04  0.24476162201E+04  0.13466516392E+04 0.  0.
        3    1    3    3  502    0 -0.24199966448E+03 -0.17119359300E+03 -0.76899099769E+02  0.30624265810E+03  0.10100000352E+00 0.  1.
       -3    1    3    3    0  502  0.24199966448E+03  0.17119359300E+03  0.21207568550E+04  0.21413735620E+04  0.10100000352E+00 0. -1.
</event>
<event>
 5   0  0.5031575E-03  0.1217553E+04  0.7818609E-02  0.9097630E-01
       -2   -1    0    0    0  501  0.00000000000E+00  0.00000000000E+00  0.55436119356E+03  0.55436119356E+03  0.25500000920E-02 0. -1.
        2   -1    0    0  501    0  0.00000000000E+00  0.00000000000E+00 -0.66853310980E+03  0.66853310981E+03  0.25500000920E-02 0.  1.
    10030    2    1    2    0    0  0.00000000000E+00  0.00000000000E+00 -0.11417191625E+03  0.12228943034E+04  0.12175529766E+04 0.  0.
        5    1    3    3  502    0 -0.28309388509E+03 -0.20495568628E+03  0.44353593880E+03  0.56470806628E+03  0.46999998093E+01 0. -1.
       -5    1    3    3    0  502  0.28309388509E+03  0.20495568628E+03 -0.55770785505E+03  0.65818623709E+03  0.46999998093E+01 0.  1.
</event>
<event>
 5   0  0.5003526E-03  0.7825840E+03  0.7818609E-02  0.9585574E-01
        2   -1    0    0  501    0  0.00000000000E+00  0.00000000000E+00  0.11548429557E+04  0.11548429557E+04  0.25500000920E-02 0.  1.
       -2   -1    0    0    0  501  0.00000000000E+00  0.00000000000E+00 -0.13258029681E+03  0.13258029684E+03  0.25500000920E-02 0. -1.
    10030    2    1    2    0    0  0.00000000000E+00  0.00000000000E+00  0.10222626588E+04  0.12874232525E+04  0.78258398105E+03 0.  0.
        2    1    3    3  502    0  0.14964933795E+03 -0.22042652909E+03  0.39684814424E+02  0.26936529765E+03  0.25500000920E-02 0. -1.
       -2    1    3    3    0  502 -0.14964933795E+03  0.22042652909E+03  0.98257784442E+03  0.10180579548E+04  0.25500000920E-02 0.  1.
</event>
<event>
 5   0  0.5003526E-03  0.1205949E+04  0.7818609E-02  0.9107665E-01
       -2   -1    0    0    0  501  0.00000000000E+00  0.00000000000E+00  0.21211695521E+03  0.21211695522E+03  0.25500000920E-02 0.  1.
        2   -1    0    0  501    0  0.00000000000E+00  0.00000000000E+00 -0.17140468721E+04  0.17140468721E+04  0.25500000920E-02 0. -1.
    10030    2    1    2    0    0  0.00000000000E+00  0.00000000000E+00 -0.15019299169E+04  0.19261638273E+04  0.12059492586E+04 0.  0.
        2    1    3    3  502    0 -0.22005081488E+03 -0.22262663105E+03 -0.15741033314E+04  0.16049256294E+04  0.25500000920E-02 0. -1.
       -2    1    3    3    0  502  0.22005081488E+03  0.22262663105E+03  0.72173414573E+02  0.32123819785E+03  0.25500000920E-02 0.  1.
</event>
<event>
 5   0  0.5108045E-03  0.1224368E+04  0.7818609E-02  0.9091791E-01
        2   -1    0    0  501    0  0.00000000000E+00  0.00000000000E+00  0.10829574782E+04  0.10829574782E+04  0.25500000920E-02 0.  1.
       -2   -1    0    0    0  501  0.00000000000E+00  0.00000000000E+00 -0.34606080875E+03  0.34606080875E+03  0.25500000920E-02 0. -1.
    10030    2    1    2    0    0  0.00000000000E+00  0.00000000000E+00  0.73689666948E+03  0.14290182870E+04  0.12243678218E+04 0.  0.
        3    1    3    3  502    0 -0.42133629007E+03  0.41467054310E+03  0.18282704551E+03  0.61879048750E+03  0.10100000352E+00 0. -1.
       -3    1    3    3    0  502  0.42133629007E+03 -0.41467054310E+03  0.55406962397E+03  0.81022779948E+03  0.10100000352E+00 0.  1.
</event>
<event>
 5   0  0.2792518E-03  0.1199558E+04  0.7818609E-02  0.9113243E-01
       -1   -1    0    0    0  501  0.00000000000E+00  0.00000000000E+00  0.41403604189E+03  0.41403604192E+03  0.50400001928E-02 0.  1.
        1   -1    0    0  501    0  0.00000000000E+00  0.00000000000E+00 -0.86884944864E+03  0.86884944866E+03  0.50400001928E-02 0. -1.
    10030    2    1    2    0    0  0.00000000000E+00  0.00000000000E+00 -0.45481340676E+03  0.12828854906E+04  0.11995582299E+04 0.  0.
        2    1    3    3  502    0  0.52101060593E+02  0.12352363163E+03  0.39780728386E+03  0.41978952248E+03  0.25500000920E-02 0.  1.
       -2    1    3    3    0  502 -0.52101060593E+02 -0.12352363163E+03 -0.85262069061E+03  0.86309596810E+03  0.25500000920E-02 0. -1.
</event>
<event>
 5   0  0.5467554E-03  0.1119148E+04  0.7818609E-02  0.9186727E-01
       -2   -1    0    0    0  501  0.00000000000E+00  0.00000000000E+00  0.31679856836E+03  0.31679856837E+03  0.25500000920E-02 0. -1.
        2   -1    0    0  501    0  0.00000000000E+00  0.00000000000E+00 -0.98839767337E+03  0.98839767337E+03  0.25500000920E-02 0.  1.
    10030    2    1    2    0    0  0.00000000000E+00  0.00000000000E+00 -0.67159910501E+03  0.13051962417E+04  0.11191478328E+04 0.  0.
        1    1    3    3  502    0 -0.32388393613E+03  0.32971247474E+03  0.32097028511E+02  0.46329400962E+03  0.50400001928E-02 0. -1.
       -1    1    3    3    0  502  0.32388393613E+03 -0.32971247474E+03 -0.70369613352E+03  0.84190223212E+03  0.50400001928E-02 0.  1.
</event>
<event>
 5   0  0.2930868E-03  0.1209993E+04  0.7818609E-02  0.9104155E-01
       -1   -1    0    0    0  501  0.00000000000E+00  0.00000000000E+00  0.32160257209E+03  0.32160257213E+03  0.50400001928E-02 0.  1.
        1   -1    0    0  501    0  0.00000000000E+00  0.00000000000E+00 -0.11381143619E+04  0.11381143619E+04  0.50400001928E-02 0. -1.
    10030    2    1    2    0    0  0.00000000000E+00  0.00000000000E+00 -0.81651178982E+03  0.14597169341E+04  0.12099925722E+04 0.  0.
        3    1    3    3  502    0 -0.37562746526E+03  0.99864564725E+02  0.15105883227E+03  0.41699844718E+03  0.10100000352E+00 0.  1.
       -3    1    3    3    0  502  0.37562746526E+03 -0.99864564725E+02 -0.96757062209E+03  0.10427184869E+04  0.10100000352E+00 0. -1.
</event>
<event>
 5   0  0.2930868E-03  0.1195602E+04  0.7818609E-02  0.9116715E-01
       -1   -1    0    0    0  501  0.00000000000E+00  0.00000000000E+00  0.18748352283E+03  0.18748352290E+03  0.50400001928E-02 0. -1.
        1   -1    0    0  501    0  0.00000000000E+00  0.00000000000E+00 -0.19061189588E+04  0.19061189588E+04  0.50400001928E-02 0.  1.
    10030    2    1    2    0    0  0.00000000000E+00  0.00000000000E+00 -0.17186354359E+04  0.20936024817E+04  0.11956017688E+04 0.  0.
        3    1    3    3  502    0  0.53623779906E+03 -0.32913138403E+02 -0.40024021122E+03  0.66994513857E+03  0.10100000352E+00 0. -1.
       -3    1    3    3    0  502 -0.53623779906E+03  0.32913138403E+02 -0.13183952247E+04  0.14236573431E+04  0.10100000352E+00 0.  1.
</event>
<event>
 5   0  0.2938349E-03  0.1193330E+04  0.7818609E-02  0.9118715E-01
       -1   -1    0    0    0  501  0.00000000000E+00  0.00000000000E+00  0.33619753139E+03  0.33619753143E+03  0.50400001928E-02 0. -1.
        1   -1    0    0  501    0  0.00000000000E+00  0.00000000000E+00 -0.10589288435E+04  0.10589288435E+04  0.50400001928E-02 0.  1.
    10030    2    1    2    0    0  0.00000000000E+00  0.00000000000E+00 -0.72273131214E+03  0.13951263750E+04  0.11933302362E+04 0.  0.
        4    1    3    3  502    0  0.45642001036E+03 -0.10869525573E+02 -0.81047526986E+03  0.93021994625E+03  0.12699999809E+01 0.  1.
       -4    1    3    3    0  502 -0.45642001036E+03  0.10869525573E+02  0.87743957721E+02  0.46490642872E+03  0.12699999809E+01 0. -1.
</event>
<event>
 5   0  0.5189537E-03  0.1200392E+04  0.7818609E-02  0.9112513E-01
        2   -1    0    0  501    0  0.00000000000E+00  0.00000000000E+00  0.11510180511E+04  0.11510180511E+04  0.25500000920E-02 0.  1.
       -2   -1    0    0    0  501  0.00000000000E+00  0.00000000000E+00 -0.31297100396E+03  0.31297100397E+03  0.25500000920E-02 0. -1.
    10030    2    1    2    0    0  0.00000000000E+00  0.00000000000E+00  0.83804704716E+03  0.14639890551E+04  0.12003920610E+04 0.  0.
        4    1    3    3  502    0  0.18656799411E+03  0.55820273807E+03  0.56247864311E+03  0.81411408910E+03  0.12699999809E+01 0.  1.
       -4    1    3    3    0  502 -0.18656799411E+03 -0.55820273807E+03  0.27556840405E+03  0.64987496599E+03  0.12699999809E+01 0. -1.
</event>
<event>
 5   0  0.2930868E-03  0.1210032E+04  0.7818609E-02  0.9104120E-01
        1   -1    0    0  501    0  0.00000000000E+00  0.00000000000E+00  0.70004092163E+03  0.70004092165E+03  0.50400001928E-02 0.  1.
       -1   -1    0    0    0  501  0.00000000000E+00  0.00000000000E+00 -0.52289019678E+03  0.52289019680E+03  0.50400001928E-02 0. -1.
    10030    2    1    2    0    0  0.00000000000E+00  0.00000000000E+00  0.17715072486E+03  0.12229311185E+04  0.12100322893E+04 0.  0.
        3    1    3    3  502    0  0.45124474975E+03  0.36912441697E+03 -0.74920129991E+02  0.58778201356E+03  0.10100000352E+00 0.  1.
       -3    1    3    3    0  502 -0.45124474975E+03 -0.36912441697E+03  0.25207085485E+03  0.63514910489E+03  0.10100000352E+00 0. -1.
</event>
<event>
 5   0  0.5031575E-03  0.1209036E+04  0.7818609E-02  0.9104984E-01
        2   -1    0    0  501    0  0.00000000000E+00  0.00000000000E+00  0.80048974256E+03  0.80048974256E+03  0.25500000920E-02 0. -1.
       -2   -1    0    0    0  501  0.00000000000E+00  0.00000000000E+00 -0.45652306143E+03  0.45652306143E+03  0.25500000920E-02 0.  1.
    10030    2    1    2    0    0  0.00000000000E+00  0.00000000000E+00  0.34396668113E+03  0.12570128040E+04  0.12090360258E+04 0.  0.
        5    1    3    3  502    0 -0.26115316455E+03  0.25006869483E+03 -0.33168281091E+03  0.49068411890E+03  0.46999998093E+01 0.  1.
       -5    1    3    3    0  502  0.26115316455E+03 -0.25006869483E+03  0.67564949205E+03  0.76632868509E+03  0.46999998093E+01 0. -1.
</event>
<event>
 5   0  0.2930868E-03  0.1146532E+04  0.7818609E-02  0.9160989E-01
       -1   -1    0    0    0  501  0.00000000000E+00  0.00000000000E+00  0.10047834038E+04  0.10047834038E+04  0.50400001928E-02 0. -1.
        1   -1    0    0  501    0  0.00000000000E+00  0.00000000000E+00 -0.32706931209E+03  0.32706931213E+03  0.50400001928E-02 0.  1.
    10030    2    1    2    0    0  0.00000000000E+00  0.00000000000E+00  0.67771409171E+03  0.13318527159E+04  0.11465318429E+04 0.  0.
        3    1    3    3  502    0 -0.78720117633E+02  0.46929516651E+03  0.71021556810E+03  0.85489237545E+03  0.10100000352E+00 0. -1.
       -3    1    3    3    0  502  0.78720117633E+02 -0.46929516651E+03 -0.32501476389E+02  0.47696034049E+03  0.10100000352E+00 0.  1.
</event>
<event>
 5   0  0.5467554E-03  0.1189775E+04  0.7818609E-02  0.9121854E-01
        2   -1    0    0  501    0  0.00000000000E+00  0.00000000000E+00  0.55361096871E+03  0.55361096872E+03  0.25500000920E-02 0.  1.
       -2   -1    0    0    0  501  0.00000000000E+00  0.00000000000E+00 -0.63924157881E+03  0.63924157882E+03  0.25500000920E-02 0. -1.
    10030    2    1    2    0    0  0.00000000000E+00  0.00000000000E+00 -0.85630610099E+02  0.11928525475E+04  0.11897750202E+04 0.  0.
        1    1    3    3  502    0 -0.39252490036E+02 -0.51656410772E+03 -0.33599590574E+03  0.61747265855E+03  0.50400001928E-02 0. -1.
       -1    1    3    3    0  502  0.39252490036E+02  0.51656410772E+03  0.25036529564E+03  0.57537988898E+03  0.50400001928E-02 0.  1.
</event>
<event>
 5   0  0.2930868E-03  0.1209579E+04  0.7818609E-02  0.9104513E-01
       -1   -1    0    0    0  501  0.00000000000E+00  0.00000000000E+00  0.27181418177E+03  0.27181418182E+03  0.50400001928E-02 0.  1.
        1   -1    0    0  501    0  0.00000000000E+00  0.00000000000E+00 -0.13456635754E+04  0.13456635754E+04  0.50400001928E-02 0. -1.
    10030    2    1    2    0    0  0.00000000000E+00  0.00000000000E+00 -0.10738493936E+04  0.16174777572E+04  0.12095791726E+04 0.  0.
        3    1    3    3  502    0  0.13258452664E+03 -0.15668737879E+03 -0.12976636913E+04  0.13137962769E+04  0.10100000352E+00 0. -1.
       -3    1    3    3    0  502 -0.13258452664E+03  0.15668737879E+03  0.22381429772E+03  0.30368148024E+03  0.10100000352E+00 0.  1.
</event>
<event>
 5   0  0.5031575E-03  0.1141961E+04  0.7818609E-02  0.9165232E-01
       -2   -1    0    0    0  501  0.00000000000E+00  0.00000000000E+00  0.20114996752E+03  0.20114996754E+03  0.25500000920E-02 0.  1.
        2   -1    0    0  501    0  0.00000000000E+00  0.00000000000E+00 -0.16207754527E+04  0.16207754527E+04  0.25500000920E-02 0. -1.
    10030    2    1    2    0    0  0.00000000000E+00  0.00000000000E+00 -0.14196254851E+04  0.18219254202E+04  0.11419613473E+04 0.  0.
        5    1    3    3  502    0 -0.48880805824E+02 -0.52099174946E+02  0.19396041032E+03  0.20675199631E+03  0.46999998093E+01 0.  1.
       -5    1    3    3    0  502  0.48880805824E+02  0.52099174946E+02 -0.16135858955E+04  0.16151734239E+04  0.46999998093E+01 0. -1.
</event>
<event>
 5   0  0.5108045E-03  0.1187386E+04  0.7818609E-02  0.9123970E-01
        2   -1    0    0  501    0  0.00000000000E+00  0.00000000000E+00  0.42772609023E+03  0.42772609024E+03  0.25500000920E-02 0. -1.
       -2   -1    0    0    0  501  0.00000000000E+00  0.00000000000E+00 -0.82405800766E+03  0.82405800766E+03  0.25500000920E-02 0.  1.
    10030    2    1    2    0    0  0.00000000000E+00  0.00000000000E+00 -0.39633191743E+03  0.12517840979E+04  0.11873855477E+04 0.  0.
        3    1    3    3  502    0 -0.44494984142E+03  0.17352090645E+03 -0.56997085162E+03  0.74361054878E+03  0.10100000352E+00 0.  1.
       -3    1    3    3    0  502  0.44494984142E+03 -0.17352090645E+03  0.17363893420E+03  0.50817354912E+03  0.10100000352E+00 0. -1.
</event>
<event>
 5   0  0.5108045E-03  0.1198973E+04  0.7818609E-02  0.9113756E-01
        2   -1    0    0  501    0  0.00000000000E+00  0.00000000000E+00  0.14725868473E+04  0.14725868473E+04  0.25500000920E-02 0.  1.
       -2   -1    0    0    0  501  0.00000000000E+00  0.00000000000E+00 -0.24404937968E+03  0.24404937969E+03  0.25500000920E-02 0. -1.
    10030    2    1    2    0    0  0.00000000000E+00  0.00000000000E+00  0.12285374677E+04  0.17166362270E+04  0.11989727380E+04 0.  0.
        3    1    3    3  502    0  0.46984704368E+03 -0.34398887513E+03  0.81825905311E+03  0.10043069645E+04  0.10100000352E+00 0. -1.
       -3    1    3    3    0  502 -0.46984704368E+03  0.34398887513E+03  0.41027841456E+03  0.71232926257E+03  0.10100000352E+00 0.  1.
</event>
<event>
 5   0  0.2875848E-03  0.1174314E+04  0.7818609E-02  0.9135641E-01
        1   -1    0    0  501    0  0.00000000000E+00  0.00000000000E+00  0.88028509145E+03  0.88028509146E+03  0.50400001928E-02 0.  1.
       -1   -1    0    0    0  501  0.00000000000E+00  0.00000000000E+00 -0.39163844328E+03  0.39163844332E+03  0.50400001928E-02 0. -1.
    10030    2    1    2    0    0  0.00000000000E+00  0.00000000000E+00  0.48864664816E+03  0.12719235348E+04  0.11743142388E+04 0.  0.
        1    1    3    3  502    0 -0.15291277863E+03  0.52262805010E+03  0.64530363190E+01  0.54457693518E+03  0.50400001928E-02 0. -1.
       -1    1    3    3    0  502  0.15291277863E+03 -0.52262805010E+03  0.48219361184E+03  0.72734659960E+03  0.50400001928E-02 0.  1.
</event>
<event>
 5   0  0.2938349E-03  0.1179194E+04  0.7818609E-02  0.9131266E-01
        1   -1    0    0  501    0  0.00000000000E+00  0.00000000000E+00  0.75060079187E+03  0.75060079189E+03  0.50400001928E-02 0.  1.
       -1   -1    0    0    0  501  0.00000000000E+00  0.00000000000E+00 -0.46312842166E+03  0.46312842169E+03  0.50400001928E-02 0. -1.
    10030    2    1    2    0    0  0.00000000000E+00  0.00000000000E+00  0.28747237021E+03  0.12137292136E+04  0.11791938943E+04 0.  0.
        4    1    3    3  502    0  0.56954017375E+03  0.12732845376E+03  0.23006388923E+03  0.62731136661E+03  0.12699999809E+01 0.  1.
       -4    1    3    3    0  502 -0.56954017375E+03 -0.12732845376E+03  0.57408480982E+02  0.58641784696E+03  0.12699999809E+01 0. -1.
</event>
<event>
 5   0  0.2875848E-03  0.1135689E+04  0.7818609E-02  0.9171089E-01
        1   -1    0    0  501    0  0.00000000000E+00  0.00000000000E+00  0.31916421097E+03  0.31916421101E+03  0.50400001928E-02 0. -1.
       -1   -1    0    0    0  501  0.00000000000E+00  0.00000000000E+00 -0.10102860899E+04  0.10102860899E+04  0.50400001928E-02 0.  1.
    10030    2    1    2    0    0  0.00000000000E+00  0.00000000000E+00 -0.69112187894E+03  0.13294503009E+04  0.11356886242E+04 0.  0.
        1    1    3    3  502    0  0.59979005311E+02 -0.44503234127E+03  0.61293371820E+02  0.45321975168E+03  0.50400001928E-02 0. -1.
       -1    1    3    3    0  502 -0.59979005311E+02  0.44503234127E+03 -0.75241525076E+03  0.87623054926E+03  0.50400001928E-02 0.  1.
</event>
<event>
 5   0  0.1922125E-03  0.1196093E+04  0.7818609E-02  0.9116283E-01
        3   -1    0    0  501    0  0.00000000000E+00  0.00000000000E+00  0.11198337340E+04  0.11198337385E+04  0.10100000352E+00 0.  1.
       -3   -1    0    0    0  501  0.00000000000E+00  0.00000000000E+00 -0.31938619938E+03  0.31938621535E+03  0.10100000352E+00 0. -1.
    10030    2    1    2    0    0  0.00000000000E+00  0.00000000000E+00  0.80044753457E+03  0.14392199539E+04  0.11960927305E+04 0.  0.
        4    1    3    3  502    0  0.28423001267E+03  0.42052702850E+03  0.78078405031E+03  0.93126528332E+03  0.12699999809E+01 0.  1.
       -4    1    3    3    0  502 -0.28423001267E+03 -0.42052702850E+03  0.19663484261E+02  0.50795467053E+03  0.12699999809E+01 0. -1.
</event>
<event>
 5   0  0.2926844E-03  0.1201070E+04  0.7818609E-02  0.9111921E-01
       -1   -1    0    0    0  501  0.00000000000E+00  0.00000000000E+00  0.10119764936E+04  0.10119764936E+04  0.50400001928E-02 0.  1.
        1   -1    0    0  501    0  0.00000000000E+00  0.00000000000E+00 -0.35637410692E+03  0.35637410696E+03  0.50400001928E-02 0. -1.
    10030    2    1    2    0    0  0.00000000000E+00  0.00000000000E+00  0.65560238668E+03  0.13683506006E+04  0.12010698883E+04 0.  0.
        5    1    3    3  502    0  0.41772967467E+03 -0.41764097503E+03  0.45102258387E+03  0.74321297505E+03  0.46999998093E+01 0. -1.
       -5    1    3    3    0  502 -0.41772967467E+03  0.41764097503E+03  0.20457980280E+03  0.62513762552E+03  0.46999998093E+01 0.  1.
</event>
<event>
 5   0  0.2938349E-03  0.1119267E+04  0.7818609E-02  0.9186614E-01
       -1   -1    0    0    0  501  0.00000000000E+00  0.00000000000E+00  0.22773834866E+03  0.22773834871E+03  0.50400001928E-02 0. -1.
        1   -1    0    0  501    0  0.00000000000E+00  0.00000000000E+00 -0.13752167527E+04  0.13752167527E+04  0.50400001928E-02 0.  1.
    10030    2    1    2    0    0  0.00000000000E+00  0.00000000000E+00 -0.11474784041E+04  0.16029551014E+04  0.11192668893E+04 0.  0.
        4    1    3    3  502    0 -0.41536672689E+03 -0.37333135362E+03 -0.52245788586E+03  0.76476772474E+03  0.12699999809E+01 0. -1.
       -4    1    3    3    0  502  0.41536672689E+03  0.37333135362E+03 -0.62502051820E+03  0.83818737671E+03  0.12699999809E+01 0.  1.
</event>
<event>
 5   0  0.2792518E-03  0.1197651E+04  0.7818609E-02  0.9114915E-01
        1   -1    0    0  501    0  0.00000000000E+00  0.00000000000E+00  0.10559277496E+04  0.10559277496E+04  0.50400001928E-02 0. -1.
       -1   -1    0    0    0  501  0.00000000000E+00  0.00000000000E+00 -0.33959893327E+03  0.33959893331E+03  0.50400001928E-02 0.  1.
    10030    2    1    2    0    0  0.00000000000E+00  0.00000000000E+00  0.71632881635E+03  0.13955266829E+04  0.11976509298E+04 0.  0.
        2    1    3    3  502    0  0.21966702453E+03  0.11466073267E+03  0.99338694761E+03  0.10238253332E+04  0.25500000920E-02 0. -1.
       -2    1    3    3    0  502 -0.21966702453E+03 -0.11466073267E+03 -0.27705813125E+03  0.37170134972E+03  0.25500000920E-02 0.  1.
</event>
<event>
 5   0  0.5003526E-03  0.1215643E+04  0.7818609E-02  0.9099273E-01
       -2   -1    0    0    0  501  0.00000000000E+00  0.00000000000E+00  0.55323408206E+03  0.55323408207E+03  0.25500000920E-02 0.  1.
        2   -1    0    0  501    0  0.00000000000E+00  0.00000000000E+00 -0.66779493080E+03  0.66779493080E+03  0.25500000920E-02 0. -1.
    10030    2    1    2    0    0  0.00000000000E+00  0.00000000000E+00 -0.11456084874E+03  0.12210290129E+04  0.12156429008E+04 0.  0.
        2    1    3    3  502    0 -0.51373788578E+03  0.12626030920E+03  0.24334256171E+03  0.58230909602E+03  0.25500000920E-02 0.  1.
       -2    1    3    3    0  502  0.51373788578E+03 -0.12626030920E+03 -0.35790341044E+03  0.63871991685E+03  0.25500000920E-02 0. -1.
</event>
<event>
 5   0  0.2926844E-03  0.1182723E+04  0.7818609E-02  0.9128115E-01
       -1   -1    0    0    0  501  0.00000000000E+00  0.00000000000E+00  0.58152921236E+03  0.58152921238E+03  0.50400001928E-02 0.  1.
        1   -1    0    0  501    0  0.00000000000E+00  0.00000000000E+00 -0.60136024210E+03  0.60136024212E+03  0.50400001928E-02 0. -1.
    10030    2    1    2    0    0  0.00000000000E+00  0.00000000000E+00 -0.19831029745E+02  0.11828894545E+04  0.11827232102E+04 0.  0.
        5    1    3    3  502    0  0.58088762600E+03  0.44279969653E+02 -0.11139557520E+03  0.59314603086E+03  0.46999998093E+01 0. -1.
       -5    1    3    3    0  502 -0.58088762600E+03 -0.44279969653E+02  0.91564545451E+02  0.58974342364E+03  0.46999998093E+01 0.  1.
</event>
<event>
 5   0  0.2930868E-03  0.1251932E+04  0.7818609E-02  0.9068577E-01
        1   -1    0    0  501    0  0.00000000000E+00  0.00000000000E+00  0.18042395034E+04  0.18042395034E+04  0.50400001928E-02 0.  1.
       -1   -1    0    0    0  501  0.00000000000E+00  0.00000000000E+00 -0.21717366096E+03  0.21717366102E+03  0.50400001928E-02 0. -1.
    10030    2    1    2    0    0  0.00000000000E+00  0.00000000000E+00  0.15870658424E+04  0.20214131644E+04  0.12519317845E+04 0.  0.
        3    1    3    3  502    0  0.90611644031E+02 -0.37251791170E+03 -0.54313103809E+01  0.38341827539E+03  0.10100000352E+00 0. -1.
       -3    1    3    3    0  502 -0.90611644031E+02  0.37251791170E+03  0.15924971528E+04  0.16379948890E+04  0.10100000352E+00 0.  1.
</event>
<event>
 5   0  0.5003526E-03  0.1176464E+04  0.7818609E-02  0.9133710E-01
       -2   -1    0    0    0  501  0.00000000000E+00  0.00000000000E+00  0.30876728921E+03  0.30876728922E+03  0.25500000920E-02 0.  1.
        2   -1    0    0  501    0  0.00000000000E+00  0.00000000000E+00 -0.11206406592E+04  0.11206406592E+04  0.25500000920E-02 0. -1.
    10030    2    1    2    0    0  0.00000000000E+00  0.00000000000E+00 -0.81187336997E+03  0.14294079484E+04  0.11764644976E+04 0.  0.
        2    1    3    3  502    0  0.45918172209E+03 -0.16066195404E+03 -0.41451506152E+01  0.48649491226E+03  0.25500000920E-02 0.  1.
       -2    1    3    3    0  502 -0.45918172209E+03  0.16066195404E+03 -0.80772821935E+03  0.94291303614E+03  0.25500000920E-02 0. -1.
</event>
<event>
 5   0  0.2792518E-03  0.1227565E+04  0.7818609E-02  0.9089065E-01
        1   -1    0    0  501    0  0.00000000000E+00  0.00000000000E+00  0.98476755741E+03  0.98476755742E+03  0.50400001928E-02 0. -1.
       -1   -1    0    0    0  501  0.00000000000E+00  0.00000000000E+00 -0.38255611510E+03  0.38255611513E+03  0.50400001928E-02 0.  1.
    10030    2    1    2    0    0  0.00000000000E+00  0.00000000000E+00  0.60221144231E+03  0.13673236726E+04  0.12275648269E+04 0.  0.
        2    1    3    3  502    0 -0.10768619976E+02 -0.18837080590E+03 -0.34945288367E+03  0.39713579743E+03  0.25500000920E-02 0.  1.
       -2    1    3    3    0  502  0.10768619976E+02  0.18837080590E+03  0.95166432598E+03  0.97018787512E+03  0.25500000920E-02 0. -1.
</event>
<event>
 5   0  0.2926844E-03  0.1222068E+04  0.7818609E-02  0.9093757E-01
       -1   -1    0    0    0  501  0.00000000000E+00  0.00000000000E+00  0.56059092986E+03  0.56059092989E+03  0.50400001928E-02 0. -1.
        1   -1    0    0  501    0  0.00000000000E+00  0.00000000000E+00 -0.66601625552E+03  0.66601625554E+03  0.50400001928E-02 0.  1.
    10030    2    1    2    0    0  0.00000000000E+00  0.00000000000E+00 -0.10542532566E+03  0.12266071854E+04  0.12220682011E+04 0.  0.
        5    1    3    3  502    0 -0.53391057537E+03  0.29695396423E+03 -0.42754996317E+02  0.61244774396E+03  0.46999998093E+01 0. -1.
       -5    1    3    3    0  502  0.53391057537E+03 -0.29695396423E+03 -0.62670329339E+02  0.61415944147E+03  0.46999998093E+01 0.  1.
</event>
<event>
 5   0  0.5467554E-03  0.1165936E+04  0.7818609E-02  0.9143206E-01
        2   -1    0    0  501    0  0.00000000000E+00  0.00000000000E+00  0.10053918382E+04  0.10053918382E+04  0.25500000920E-02 0. -1.
       -2   -1    0    0    0  501  0.00000000000E+00  0.00000000000E+00 -0.33802929761E+03  0.33802929762E+03  0.25500000920E-02 0.  1.
    10030    2    1    2    0    0  0.00000000000E+00  0.00000000000E+00  0.66736254063E+03  0.13434211359E+04  0.11659363566E+04 0.  0.
        1    1    3    3  502    0 -0.10051331854E+03  0.48738631423E+02 -0.32558233770E+03  0.34421249257E+03  0.50400001928E-02 0.  1.
       -1    1    3    3    0  502  0.10051331854E+03 -0.48738631423E+02  0.99294487833E+03  0.99920864329E+03  0.50400001928E-02 0. -1.
</event>
<event>
 5   0  0.5003526E-03  0.1182075E+04  0.7818609E-02  0.9128692E-01
        2   -1    0    0  501    0  0.00000000000E+00  0.00000000000E+00  0.66081863911E+03  0.66081863911E+03  0.25500000920E-02 0.  1.
       -2   -1    0    0    0  501  0.00000000000E+00  0.00000000000E+00 -0.52862530037E+03  0.52862530038E+03  0.25500000920E-02 0. -1.
    10030    2    1    2    0    0  0.00000000000E+00  0.00000000000E+00  0.13219333873E+03  0.11894439395E+04  0.11820752118E+04 0.  0.
        2    1    3    3  502    0 -0.29932120653E+03 -0.20164940099E+03  0.53706327005E+03  0.64706461937E+03  0.25500000920E-02 0.  1.
       -2    1    3    3    0  502  0.29932120653E+03  0.20164940099E+03 -0.40486993132E+03  0.54237932012E+03  0.25500000920E-02 0. -1.
</event>
<event>
 5   0  0.5189537E-03  0.1195173E+04  0.7818609E-02  0.9117092E-01
       -2   -1    0    0    0  501  0.00000000000E+00  0.00000000000E+00  0.50113496753E+03  0.50113496753E+03  0.25500000920E-02 0. -1.
        2   -1    0    0  501    0  0.00000000000E+00  0.00000000000E+00 -0.71260219659E+03  0.71260219659E+03  0.25500000920E-02 0.  1.
    10030    2    1    2    0    0  0.00000000000E+00  0.00000000000E+00 -0.21146722906E+03  0.12137371641E+04  0.11951734245E+04 0.  0.
        4    1    3    3  502    0  0.53580461232E+03 -0.16476612535E+03  0.10454240492E+03  0.57023257182E+03  0.12699999809E+01 0. -1.
       -4    1    3    3    0  502 -0.53580461232E+03  0.16476612535E+03 -0.31600963398E+03  0.64350459230E+03  0.12699999809E+01 0.  1.
</event>
<event>
 5   0  0.5031575E-03  0.1146786E+04  0.7818609E-02  0.9160754E-01
       -2   -1    0    0    0  501  0.00000000000E+00  0.00000000000E+00  0.79033222828E+03  0.79033222828E+03  0.25500000920E-02 0.  1.
        2   -1    0    0  501    0  0.00000000000E+00  0.00000000000E+00 -0.41600180891E+03  0.41600180892E+03  0.25500000920E-02 0. -1.
    10030    2    1    2    0    0  0.00000000000E+00  0.00000000000E+00  0.37433041936E+03  0.12063340372E+04  0.11467861817E+04 0.  0.
        5    1    3    3  502    0 -0.46104990136E+03 -0.40348846573E+02 -0.16888101280E+03  0.49268440958E+03  0.46999998093E+01 0. -1.
       -5    1    3    3    0  502  0.46104990136E+03  0.40348846573E+02  0.54321143216E+03  0.71364962762E+03  0.46999998093E+01 0.  1.
</event>
<event>
 5   0  0.5189537E-03  0.1195680E+04  0.7818609E-02  0.9116646E-01
       -2   -1    0    0    0  501  0.00000000000E+00  0.00000000000E+00  0.21297011817E+03  0.21297011819E+03  0.25500000920E-02 0. -1.
        2   -1    0    0  501    0  0.00000000000E+00  0.00000000000E+00 -0.16782298904E+04  0.16782298904E+04  0.25500000920E-02 0.  1.
    10030    2    1    2    0    0  0.00000000000E+00  0.00000000000E+00 -0.14652597722E+04  0.18912000086E+04  0.11956802551E+04 0.  0.
        4    1    3    3  502    0  0.43738060631E+03  0.35033149185E+03 -0.10620525255E+04  0.12008293504E+04  0.12699999809E+01 0.  1.
       -4    1    3    3    0  502 -0.43738060631E+03 -0.35033149185E+03 -0.40320724669E+03  0.69037065816E+03  0.12699999809E+01 0. -1.
</event>
<event>
 5   0  0.5467554E-03  0.1210466E+04  0.7818609E-02  0.9103744E-01
       -2   -1    0    0    0  501  0.00000000000E+00  0.00000000000E+00  0.34199149634E+03  0.34199149635E+03  0.25500000920E-02 0. -1.
        2   -1    0    0  501    0  0.00000000000E+00  0.00000000000E+00 -0.10711003060E+04  0.10711003060E+04  0.25500000920E-02 0.  1.
    10030    2    1    2    0    0  0.00000000000E+00  0.00000000000E+00 -0.72910880966E+03  0.14130918023E+04  0.12104663504E+04 0.  0.
        1    1    3    3  502    0  0.59416868002E+03 -0.33400473399E+02 -0.23584851190E+03  0.64013790119E+03  0.50400001928E-02 0. -1.
       -1    1    3    3    0  502 -0.59416868002E+03  0.33400473399E+02 -0.49326029776E+03  0.77295390116E+03  0.50400001928E-02 0.  1.
</event>
<event>
 5   0  0.2792518E-03  0.1188314E+04  0.7818609E-02  0.9123147E-01
       -1   -1    0    0    0  501  0.00000000000E+00  0.00000000000E+00  0.25677043914E+03  0.25677043919E+03  0.50400001928E-02 0. -1.
        1   -1    0    0  501    0  0.00000000000E+00  0.00000000000E+00 -0.13748561642E+04  0.13748561642E+04  0.50400001928E-02 0.  1.
    10030    2    1    2    0    0  0.00000000000E+00  0.00000000000E+00 -0.11180857251E+04  0.16316266034E+04  0.11883137988E+04 0.  0.
        2    1    3    3  502    0 -0.23225628183E+02  0.44289112239E+03 -0.16153390578E+02  0.44379376757E+03  0.25500000920E-02 0. -1.
       -2    1    3    3    0  502  0.23225628183E+02 -0.44289112239E+03 -0.11019323345E+04  0.11878328359E+04  0.25500000920E-02 0.  1.
</event>
<event>
 5   0  0.5003526E-03  0.1208038E+04  0.7818609E-02  0.9105850E-01
        2   -1    0    0  501    0  0.00000000000E+00  0.00000000000E+00  0.28451774214E+03  0.28451774216E+03  0.25500000920E-02 0. -1.
       -2   -1    0    0    0  501  0.00000000000E+00  0.00000000000E+00 -0.12823073054E+04  0.12823073054E+04  0.25500000920E-02 0.  1.
    10030    2    1    2    0    0  0.00000000000E+00  0.00000000000E+00 -0.99778956330E+03  0.15668250476E+04  0.12080383757E+04 0.  0.
        2    1    3    3  502    0  0.18610405886E+03  0.28667211952E+03  0.14703638266E+03  0.37206897568E+03  0.25500000920E-02 0. -1.
       -2    1    3    3    0  502 -0.18610405886E+03 -0.28667211952E+03 -0.11448259460E+04  0.11947560719E+04  0.25500000920E-02 0.  1.
</event>
<event>
 5   0  0.5108045E-03  0.1213509E+04  0.7818609E-02  0.9101113E-01
        2   -1    0    0  501    0  0.00000000000E+00  0.00000000000E+00  0.10822140525E+04  0.10822140525E+04  0.25500000920E-02 0.  1.
       -2   -1    0    0    0  501  0.00000000000E+00  0.00000000000E+00 -0.34018336823E+03  0.34018336824E+03  0.25500000920E-02 0. -1.
    10030    2    1    2    0    0  0.00000000000E+00  0.00000000000E+00  0.74203068430E+03  0.14223974208E+04  0.12135093268E+04 0.  0.
        3    1    3    3  502    0 -0.37680440945E+03 -0.30687320643E+03  0.79687088908E+03  0.93335735486E+03  0.10100000352E+00 0.  1.
       -3    1    3    3    0  502  0.37680440945E+03  0.30687320643E+03 -0.54840204784E+02  0.48904006591E+03  0.10100000352E+00 0. -1.
</event>
<event>
 5   0  0.1922125E-03  0.1032845E+04  0.7818609E-02  0.9273237E-01
       -4   -1    0    0    0  501  0.00000000000E+00  0.00000000000E+00  0.17471404526E+04  0.17471409142E+04  0.12699999809E+01 0. -1.
        4   -1    0    0  501    0  0.00000000000E+00  0.00000000000E+00 -0.15264193938E+03  0.15264722257E+03  0.12699999809E+01 0.  1.
    10030    2    1    2    0    0  0.00000000000E+00  0.00000000000E+00  0.15944985133E+04  0.18997881368E+04  0.10328453204E+04 0.  0.
        1    1    3    3  502    0  0.28309697966E+03  0.35478695277E+03  0.34417056220E+03  0.56962361052E+03  0.50400001928E-02 0.  1.
       -1    1    3    3    0  502 -0.28309697966E+03 -0.35478695277E+03  0.12503279511E+04  0.13301645263E+04  0.50400001928E-02 0. -1.
</event>
<event>
 5   0  0.5467554E-03  0.1195805E+04  0.7818609E-02  0.9116537E-01
        2   -1    0    0  501    0  0.00000000000E+00  0.00000000000E+00  0.14476010228E+04  0.14476010228E+04  0.25500000920E-02 0. -1.
       -2   -1    0    0    0  501  0.00000000000E+00  0.00000000000E+00 -0.24695143326E+03  0.24695143328E+03  0.25500000920E-02 0.  1.
    10030    2    1    2    0    0  0.00000000000E+00  0.00000000000E+00  0.12006495895E+04  0.16945524561E+04  0.11958045783E+04 0.  0.
        1    1    3    3  502    0 -0.38667923323E+03  0.42402201980E+03  0.36247602663E+03  0.67875207004E+03  0.50400001928E-02 0. -1.
       -1    1    3    3    0  502  0.38667923323E+03 -0.42402201980E+03  0.83817356289E+03  0.10158003860E+04  0.50400001928E-02 0.  1.
</event>
<event>
 5   0  0.2875848E-03  0.1159974E+04  0.7818609E-02  0.9148631E-01
       -1   -1    0    0    0  501  0.00000000000E+00  0.00000000000E+00  0.61846088463E+03  0.61846088465E+03  0.50400001928E-02 0. -1.
        1   -1    0    0  501    0  0.00000000000E+00  0.00000000000E+00 -0.54390633247E+03  0.54390633249E+03  0.50400001928E-02 0.  1.
    10030    2    1    2    0    0  0.00000000000E+00  0.00000000000E+00  0.74554552159E+02  0.11623672171E+04  0.11599737783E+04 0.  0.
        1    1    3    3  502    0 -0.24756162099E+03  0.20485265510E+03 -0.44655791498E+03  0.55015028669E+03  0.50400001928E-02 0.  1.
       -1    1    3    3    0  502  0.24756162099E+03 -0.20485265510E+03  0.52111246714E+03  0.61221693045E+03  0.50400001928E-02 0. -1.
</event>
<event>
 5   0  0.5003526E-03  0.1200617E+04  0.7818609E-02  0.9112317E-01
        2   -1    0    0  501    0  0.00000000000E+00  0.00000000000E+00  0.15976143370E+04  0.15976143370E+04  0.25500000920E-02 0.  1.
       -2   -1    0    0    0  501  0.00000000000E+00  0.00000000000E+00 -0.22556758241E+03  0.22556758242E+03  0.25500000920E-02 0. -1.
    10030    2    1    2    0    0  0.00000000000E+00  0.00000000000E+00  0.13720467546E+04  0.18231819194E+04  0.12006165144E+04 0.  0.
        2    1    3    3  502    0 -0.47713014314E+01  0.38430408567E+03  0.13862943989E+04  0.14385842193E+04  0.25500000920E-02 0.  1.
       -2    1    3    3    0  502  0.47713014314E+01 -0.38430408567E+03 -0.14247644293E+02  0.38459770014E+03  0.25500000920E-02 0. -1.
</event>
<event>
 5   0  0.2926844E-03  0.1138588E+04  0.7818609E-02  0.9168377E-01
        1   -1    0    0  501    0  0.00000000000E+00  0.00000000000E+00  0.20758084064E+04  0.20758084064E+04  0.50400001928E-02 0.  1.
       -1   -1    0    0    0  501  0.00000000000E+00  0.00000000000E+00 -0.15612983777E+03  0.15612983785E+03  0.50400001928E-02 0. -1.
    10030    2    1    2    0    0  0.00000000000E+00  0.00000000000E+00  0.19196785686E+04  0.22319382443E+04  0.11385879497E+04 0.  0.
        5    1    3    3  502    0 -0.48307222034E+03 -0.26090268397E+03  0.66485591836E+03  0.86225545098E+03  0.46999998093E+01 0. -1.
       -5    1    3    3    0  502  0.48307222034E+03  0.26090268397E+03  0.12548226503E+04  0.13696827933E+04  0.46999998093E+01 0.  1.
</event>
<event>
 5   0  0.5031575E-03  0.1196621E+04  0.7818609E-02  0.9115820E-01
       -2   -1    0    0    0  501  0.00000000000E+00  0.00000000000E+00  0.54375168196E+03  0.54375168197E+03  0.25500000920E-02 0.  1.
        2   -1    0    0  501    0  0.00000000000E+00  0.00000000000E+00 -0.65834312676E+03  0.65834312677E+03  0.25500000920E-02 0. -1.
    10030    2    1    2    0    0  0.00000000000E+00  0.00000000000E+00 -0.11459144480E+03  0.12020948087E+04  0.11966205455E+04 0.  0.
        5    1    3    3  502    0 -0.57326692684E+03  0.36975885404E+02 -0.22524580389E+03  0.61705749139E+03  0.46999998093E+01 0. -1.
       -5    1    3    3    0  502  0.57326692684E+03 -0.36975885404E+02  0.11065435909E+03  0.58503731735E+03  0.46999998093E+01 0.  1.
</event>
<event>
 5   0  0.2938349E-03  0.1186483E+04  0.7818609E-02  0.9124771E-01
        1   -1    0    0  501    0  0.00000000000E+00  0.00000000000E+00  0.58820650350E+03  0.58820650352E+03  0.50400001928E-02 0. -1.
       -1   -1    0    0    0  501  0.00000000000E+00  0.00000000000E+00 -0.59831985562E+03  0.59831985564E+03  0.50400001928E-02 0.  1.
    10030    2    1    2    0    0  0.00000000000E+00  0.00000000000E+00 -0.10113352114E+02  0.11865263592E+04  0.11864832578E+04 0.  0.
        4    1    3    3  502    0 -0.46800879326E+03 -0.18746782402E+02  0.35903119168E+03  0.59015987827E+03  0.12699999809E+01 0. -1.
       -4    1    3    3    0  502  0.46800879326E+03  0.18746782402E+02 -0.36914454379E+03  0.59636648089E+03  0.12699999809E+01 0.  1.
</event>
<event>
 5   0  0.5189537E-03  0.1137545E+04  0.7818609E-02  0.9169351E-01
       -2   -1    0    0    0  501  0.00000000000E+00  0.00000000000E+00  0.34278145469E+03  0.34278145470E+03  0.25500000920E-02 0.  1.
        2   -1    0    0  501    0  0.00000000000E+00  0.00000000000E+00 -0.94375597619E+03  0.94375597620E+03  0.25500000920E-02 0. -1.
    10030    2    1    2    0    0  0.00000000000E+00  0.00000000000E+00 -0.60097452151E+03  0.12865374309E+04  0.11375448060E+04 0.  0.
        4    1    3    3  502    0 -0.46850394196E+03  0.10784633209E+03  0.43251088229E+02  0.48269974571E+03  0.12699999809E+01 0.  1.
       -4    1    3    3    0  502  0.46850394196E+03 -0.10784633209E+03 -0.64422560974E+03  0.80383768518E+03  0.12699999809E+01 0. -1.
</event>
<event>
 5   0  0.2875848E-03  0.1212277E+04  0.7818609E-02  0.9102178E-01
       -1   -1    0    0    0  501  0.00000000000E+00  0.00000000000E+00  0.23431004734E+03  0.23431004740E+03  0.50400001928E-02 0. -1.
        1   -1    0    0  501    0  0.00000000000E+00  0.00000000000E+00 -0.15680240963E+04  0.15680240963E+04  0.50400001928E-02 0.  1.
    10030    2    1    2    0    0  0.00000000000E+00  0.00000000000E+00 -0.13337140489E+04  0.18023341437E+04  0.12122768665E+04 0.  0.
        1    1    3    3  502    0  0.18454588233E+02  0.49588734373E+03 -0.14935592113E+03  0.51822005046E+03  0.50400001928E-02 0. -1.
       -1    1    3    3    0  502 -0.18454588233E+02 -0.49588734373E+03 -0.11843581278E+04  0.12841140932E+04  0.50400001928E-02 0.  1.
</event>
<event>
 5   0  0.5467554E-03  0.1134623E+04  0.7818609E-02  0.9172088E-01
        2   -1    0    0  501    0  0.00000000000E+00  0.00000000000E+00  0.66289090488E+03  0.66289090489E+03  0.25500000920E-02 0.  1.
       -2   -1    0    0    0  501  0.00000000000E+00  0.00000000000E+00 -0.48551326672E+03  0.48551326673E+03  0.25500000920E-02 0. -1.
    10030    2    1    2    0    0  0.00000000000E+00  0.00000000000E+00  0.17737763816E+03  0.11484041716E+04  0.11346229836E+04 0.  0.
        1    1    3    3  502    0  0.33384569672E+03  0.27943702650E+03  0.45684340099E+03  0.63106568125E+03  0.50400001928E-02 0.  1.
       -1    1    3    3    0  502 -0.33384569672E+03 -0.27943702650E+03 -0.27946576283E+03  0.51733849037E+03  0.50400001928E-02 0. -1.
</event>
<event>
 5   0  0.2938349E-03  0.1196305E+04  0.7818609E-02  0.9116097E-01
       -1   -1    0    0    0  501  0.00000000000E+00  0.00000000000E+00  0.26470490076E+03  0.26470490081E+03  0.50400001928E-02 0.  1.
        1   -1    0    0  501    0  0.00000000000E+00  0.00000000000E+00 -0.13516431243E+04  0.13516431243E+04  0.50400001928E-02 0. -1.
    10030    2    1    2    0    0  0.00000000000E+00  0.00000000000E+00 -0.10869382235E+04  0.16163480251E+04  0.11963052438E+04 0.  0.
        4    1    3    3  502    0  0.54809214477E+03  0.69840977357E+02 -0.85305528734E+03  0.10163600235E+04  0.12699999809E+01 0. -1.
       -4    1    3    3    0  502 -0.54809214477E+03 -0.69840977357E+02 -0.23388293616E+03  0.59998800155E+03  0.12699999809E+01 0.  1.
</event>
<event>
 5   0  0.5108045E-03  0.1212981E+04  0.7818609E-02  0.9101569E-01
        2   -1    0    0  501    0  0.00000000000E+00  0.00000000000E+00  0.42292037413E+03  0.42292037414E+03  0.25500000920E-02 0.  1.
       -2   -1    0    0    0  501  0.00000000000E+00  0.00000000000E+00 -0.86974003394E+03  0.86974003395E+03  0.25500000920E-02 0. -1.
    10030    2    1    2    0    0  0.00000000000E+00  0.00000000000E+00 -0.44681965981E+03  0.12926604081E+04  0.12129810890E+04 0.  0.
        3    1    3    3  502    0  0.20491177028E+03 -0.51118460052E+03  0.47309203447E+02  0.55275374295E+03  0.10100000352E+00 0.  1.
       -3    1    3    3    0  502 -0.20491177028E+03  0.51118460052E+03 -0.49412886326E+03  0.73990666514E+03  0.10100000352E+00 0. -1.
</event>
<event>
 5   0  0.2930868E-03  0.1205270E+04  0.7818609E-02  0.9108256E-01
        1   -1    0    0  501    0  0.00000000000E+00  0.00000000000E+00  0.37650347040E+03  0.37650347044E+03  0.50400001928E-02 0. -1.
       -1   -1    0    0    0  501  0.00000000000E+00  0.00000000000E+00 -0.96458400283E+03  0.96458400284E+03  0.50400001928E-02 0.  1.
    10030    2    1    2    0    0  0.00000000000E+00  0.00000000000E+00 -0.58808053243E+03  0.13410874733E+04  0.12052704669E+04 0.  0.
        3    1    3    3  502    0  0.78391611035E+02 -0.55119567553E+03 -0.55070026576E+03  0.78309176367E+03  0.10100000352E+00 0.  1.
       -3    1    3    3    0  502 -0.78391611035E+02  0.55119567553E+03 -0.37380266664E+02  0.55799570961E+03  0.10100000352E+00 0. -1.
</event>
<event>
 5   0  0.5467554E-03  0.1162228E+04  0.7818609E-02  0.9146576E-01
       -2   -1    0    0    0  501  0.00000000000E+00  0.00000000000E+00  0.48421612067E+03  0.48421612068E+03  0.25500000920E-02 0.  1.
        2   -1    0    0  501    0  0.00000000000E+00  0.00000000000E+00 -0.69740225269E+03  0.69740225270E+03  0.25500000920E-02 0. -1.
    10030    2    1    2    0    0  0.00000000000E+00  0.00000000000E+00 -0.21318613202E+03  0.11816183734E+04  0.11622278836E+04 0.  0.
        1    1    3    3  502    0  0.12094392048E+03  0.62674696522E+02 -0.68094106405E+03  0.69443234531E+03  0.50400001928E-02 0. -1.
       -1    1    3    3    0  502 -0.12094392048E+03 -0.62674696522E+02  0.46775493202E+03  0.48718602806E+03  0.50400001928E-02 0.  1.
</event>
<event>
 5   0  0.2938349E-03  0.1169292E+04  0.7818609E-02  0.9140168E-01
       -1   -1    0    0    0  501  0.00000000000E+00  0.00000000000E+00  0.16811945004E+03  0.16811945011E+03  0.50400001928E-02 0. -1.
        1   -1    0    0  501    0  0.00000000000E+00  0.00000000000E+00 -0.20331427904E+04  0.20331427904E+04  0.50400001928E-02 0.  1.
    10030    2    1    2    0    0  0.00000000000E+00  0.00000000000E+00 -0.18650233404E+04  0.22012622405E+04  0.11692918333E+04 0.  0.
        4    1    3    3  502    0 -0.19349437136E+03 -0.48299614962E+03 -0.14344315972E+04  0.15258836693E+04  0.12699999809E+01 0.  1.
       -4    1    3    3    0  502  0.19349437136E+03  0.48299614962E+03 -0.43059174320E+03  0.67537857125E+03  0.12699999809E+01 0. -1.
</event>
<event>
 5   0  0.5108045E-03  0.1202302E+04  0.7818609E-02  0.9110844E-01
       -2   -1    0    0    0  501  0.00000000000E+00  0.00000000000E+00  0.84779375934E+03  0.84779375935E+03  0.25500000920E-02 0. -1.
        2   -1    0    0  501    0  0.00000000000E+00  0.00000000000E+00 -0.42626199947E+03  0.42626199948E+03  0.25500000920E-02 0.  1.
    10030    2    1    2    0    0  0.00000000000E+00  0.00000000000E+00  0.42153175987E+03  0.12740557588E+04  0.12023015645E+04 0.  0.
        3    1    3    3  502    0  0.54132668626E+03 -0.15033650666E+03 -0.15883462731E+02  0.56203909213E+03  0.10100000352E+00 0.  1.
       -3    1    3    3    0  502 -0.54132668626E+03  0.15033650666E+03  0.43741522261E+03  0.71201666670E+03  0.10100000352E+00 0. -1.
</event>
<event>
 5   0  0.2938349E-03  0.1224815E+04  0.7818609E-02  0.9091409E-01
       -1   -1    0    0    0  501  0.00000000000E+00  0.00000000000E+00  0.18391946285E+03  0.18391946292E+03  0.50400001928E-02 0.  1.
        1   -1    0    0  501    0  0.00000000000E+00  0.00000000000E+00 -0.20391685408E+04  0.20391685408E+04  0.50400001928E-02 0. -1.
    10030    2    1    2    0    0  0.00000000000E+00  0.00000000000E+00 -0.18552490780E+04  0.22230880037E+04  0.12248147334E+04 0.  0.
        4    1    3    3  502    0 -0.21704702690E+03 -0.56063044456E+03 -0.71575979437E+03  0.93473504449E+03  0.12699999809E+01 0.  1.
       -4    1    3    3    0  502  0.21704702690E+03  0.56063044456E+03 -0.11394892836E+04  0.12883529592E+04  0.12699999809E+01 0. -1.
</event>
<event>
 5   0  0.1922125E-03  0.1197930E+04  0.7818609E-02  0.9114670E-01
       -3   -1    0    0    0  501  0.00000000000E+00  0.00000000000E+00  0.12258272962E+04  0.12258273004E+04  0.10100000352E+00 0. -1.
        3   -1    0    0  501    0  0.00000000000E+00  0.00000000000E+00 -0.29266706312E+03  0.29266708055E+03  0.10100000352E+00 0.  1.
    10030    2    1    2    0    0  0.00000000000E+00  0.00000000000E+00  0.93316023312E+03  0.15184943810E+04  0.11979303671E+04 0.  0.
        4    1    3    3  502    0 -0.46927019903E+03  0.37106729740E+03  0.42957538195E+03  0.73650667381E+03  0.12699999809E+01 0.  1.
       -4    1    3    3    0  502  0.46927019903E+03 -0.37106729740E+03  0.50358485117E+03  0.78198770714E+03  0.12699999809E+01 0. -1.
</event>
<event>
 5   0  0.2938349E-03  0.1221490E+04  0.7818609E-02  0.9094251E-01
        1   -1    0    0  501    0  0.00000000000E+00  0.00000000000E+00  0.92663812343E+03  0.92663812344E+03  0.50400001928E-02 0. -1.
       -1   -1    0    0    0  501  0.00000000000E+00  0.00000000000E+00 -0.40254088279E+03  0.40254088282E+03  0.50400001928E-02 0.  1.
    10030    2    1    2    0    0  0.00000000000E+00  0.00000000000E+00  0.52409724064E+03  0.13291790063E+04  0.12214904474E+04 0.  0.
        4    1    3    3  502    0  0.11653806711E+03  0.55793571291E+03  0.50078724560E+03  0.75872449485E+03  0.12699999809E+01 0. -1.
       -4    1    3    3    0  502 -0.11653806711E+03 -0.55793571291E+03  0.23309995037E+02  0.57045451141E+03  0.12699999809E+01 0.  1.
</event>
<event>
 5   0  0.2926844E-03  0.1183162E+04  0.7818609E-02  0.9127724E-01
        1   -1    0    0  501    0  0.00000000000E+00  0.00000000000E+00  0.11098397999E+04  0.11098397999E+04  0.50400001928E-02 0.  1.
       -1   -1    0    0    0  501  0.00000000000E+00  0.00000000000E+00 -0.31533195687E+03  0.31533195691E+03  0.50400001928E-02 0. -1.
    10030    2    1    2    0    0  0.00000000000E+00  0.00000000000E+00  0.79450784301E+03  0.14251717568E+04  0.11831617910E+04 0.  0.
        5    1    3    3  502    0  0.48323351410E+03 -0.31153770727E+03  0.56492164208E+03  0.80605764304E+03  0.46999998093E+01 0. -1.
       -5    1    3    3    0  502 -0.48323351410E+03  0.31153770727E+03  0.22958620092E+03  0.61911411376E+03  0.46999998093E+01 0.  1.
</event>
<event>
 5   0  0.5003526E-03  0.1203409E+04  0.7818609E-02  0.9109878E-01
        2   -1    0    0  501    0  0.00000000000E+00  0.00000000000E+00  0.42130036349E+03  0.42130036350E+03  0.25500000920E-02 0.  1.
       -2   -1    0    0    0  501  0.00000000000E+00  0.00000000000E+00 -0.85935875372E+03  0.85935875372E+03  0.25500000920E-02 0. -1.
    10030    2    1    2    0    0  0.00000000000E+00  0.00000000000E+00 -0.43805839023E+03  0.12806591172E+04  0.12034087507E+04 0.  0.
        2    1    3    3  502    0  0.59962087275E+02 -0.29970639560E+02 -0.85537250538E+03  0.85799522965E+03  0.25500000920E-02 0. -1.
       -2    1    3    3    0  502 -0.59962087275E+02  0.29970639560E+02  0.41731411515E+03  0.42266388757E+03  0.25500000920E-02 0.  1.
</event>
<event>
 5   0  0.5189537E-03  0.1206493E+04  0.7818609E-02  0.9107192E-01
        2   -1    0    0  501    0  0.00000000000E+00  0.00000000000E+00  0.13594257783E+04  0.13594257783E+04  0.25500000920E-02 0. -1.
       -2   -1    0    0    0  501  0.00000000000E+00  0.00000000000E+00 -0.26769118723E+03  0.26769118724E+03  0.25500000920E-02 0.  1.
    10030    2    1    2    0    0  0.00000000000E+00  0.00000000000E+00  0.10917345911E+04  0.16271169655E+04  0.12064929350E+04 0.  0.
        4    1    3    3  502    0 -0.56943713104E+03  0.42709916256E+02  0.80814760480E+03  0.98953875477E+03  0.12699999809E+01 0.  1.
       -4    1    3    3    0  502  0.56943713104E+03 -0.42709916256E+02  0.28358698627E+03  0.63757821076E+03  0.12699999809E+01 0. -1.
</event>
<event>
 5   0  0.5031575E-03  0.1209180E+04  0.7818609E-02  0.9104859E-01
       -2   -1    0    0    0  501  0.00000000000E+00  0.00000000000E+00  0.93335773722E+03  0.93335773723E+03  0.25500000920E-02 0.  1.
        2   -1    0    0  501    0  0.00000000000E+00  0.00000000000E+00 -0.39162824660E+03  0.39162824661E+03  0.25500000920E-02 0. -1.
    10030    2    1    2    0    0  0.00000000000E+00  0.00000000000E+00  0.54172949062E+03  0.13249859838E+04  0.12091803076E+04 0.  0.
        5    1    3    3  502    0 -0.13228457722E+00  0.57548015796E+03  0.47389251325E+03  0.74550226949E+03  0.46999998093E+01 0. -1.
       -5    1    3    3    0  502  0.13228457722E+00 -0.57548015796E+03  0.67836977365E+02  0.57948371435E+03  0.46999998093E+01 0.  1.
</event>
<event>
 5   0  0.1922125E-03  0.9816912E+03  0.7818609E-02  0.9328857E-01
        4   -1    0    0  501    0  0.00000000000E+00  0.00000000000E+00  0.22621490007E+03  0.22621846501E+03  0.12699999809E+01 0.  1.
       -4   -1    0    0    0  501  0.00000000000E+00  0.00000000000E+00 -0.10650343273E+04  0.10650350845E+04  0.12699999809E+01 0. -1.
    10030    2    1    2    0    0  0.00000000000E+00  0.00000000000E+00 -0.83881942721E+03  0.12912535495E+04  0.98169124353E+03 0.  0.
        1    1    3    3  502    0  0.31377498034E+03 -0.18344012431E+02  0.76487869132E+02  0.32348359344E+03  0.50400001928E-02 0.  1.
       -1    1    3    3    0  502 -0.31377498034E+03  0.18344012431E+02 -0.91530729634E+03  0.96776995605E+03  0.50400001928E-02 0. -1.
</event>
<event>
 5   0  0.2938349E-03  0.1189680E+04  0.7818609E-02  0.9121938E-01
       -1   -1    0    0    0  501  0.00000000000E+00  0.00000000000E+00  0.56689551652E+03  0.56689551654E+03  0.50400001928E-02 0.  1.
        1   -1    0    0  501    0  0.00000000000E+00  0.00000000000E+00 -0.62416229101E+03  0.62416229103E+03  0.50400001928E-02 0. -1.
    10030    2    1    2    0    0  0.00000000000E+00  0.00000000000E+00 -0.57266774496E+02  0.11910578076E+04  0.11896803006E+04 0.  0.
        4    1    3    3  502    0 -0.57410667986E+01 -0.31171574676E+03 -0.53581005328E+03  0.61991426240E+03  0.12699999809E+01 0. -1.
       -4    1    3    3    0  502  0.57410667986E+01  0.31171574676E+03  0.47854327879E+03  0.57114354518E+03  0.12699999809E+01 0.  1.
</event>
<event>
 5   0  0.2875848E-03  0.1239849E+04  0.7818609E-02  0.9078675E-01
       -1   -1    0    0    0  501  0.00000000000E+00  0.00000000000E+00  0.32012735800E+03  0.32012735804E+03  0.50400001928E-02 0.  1.
        1   -1    0    0  501    0  0.00000000000E+00  0.00000000000E+00 -0.12004789962E+04  0.12004789962E+04  0.50400001928E-02 0. -1.
    10030    2    1    2    0    0  0.00000000000E+00  0.00000000000E+00 -0.88035163823E+03  0.15206063543E+04  0.12398486511E+04 0.  0.
        1    1    3    3  502    0 -0.74209991809E+01  0.38631523623E+03  0.15438024141E+03  0.41608627944E+03  0.50400001928E-02 0.  1.
       -1    1    3    3    0  502  0.74209991809E+01 -0.38631523623E+03 -0.10347318796E+04  0.11045200749E+04  0.50400001928E-02 0. -1.
</event>
<event>
 5   0  0.5108045E-03  0.1236290E+04  0.7818609E-02  0.9081671E-01
       -2   -1    0    0    0  501  0.00000000000E+00  0.00000000000E+00  0.23202639342E+03  0.23202639344E+03  0.25500000920E-02 0. -1.
        2   -1    0    0  501    0  0.00000000000E+00  0.00000000000E+00 -0.16468106251E+04  0.16468106251E+04  0.25500000920E-02 0.  1.
    10030    2    1    2    0    0  0.00000000000E+00  0.00000000000E+00 -0.14147842317E+04  0.18788370185E+04  0.12362904675E+04 0.  0.
        3    1    3    3  502    0 -0.30207569993E+03 -0.31758745761E+03 -0.44967835018E+02  0.44060598964E+03  0.10100000352E+00 0. -1.
       -3    1    3    3    0  502  0.30207569993E+03  0.31758745761E+03 -0.13698163967E+04  0.14382310289E+04  0.10100000352E+00 0.  1.
</event>
<event>
 5   0  0.5467554E-03  0.1129220E+04  0.7818609E-02  0.9177171E-01
        2   -1    0    0  501    0  0.00000000000E+00  0.00000000000E+00  0.11670761530E+04  0.11670761530E+04  0.25500000920E-02 0.  1.
       -2   -1    0    0    0  501  0.00000000000E+00  0.00000000000E+00 -0.27314803312E+03  0.27314803314E+03  0.25500000920E-02 0. -1.
    10030    2    1    2    0    0  0.00000000000E+00  0.00000000000E+00  0.89392811988E+03  0.14402241861E+04  0.11292201835E+04 0.  0.
        1    1    3    3  502    0 -0.39884200494E+03 -0.10579017752E+03 -0.44555817540E+02  0.41503220052E+03  0.50400001928E-02 0. -1.
       -1    1    3    3    0  502  0.39884200494E+03  0.10579017752E+03  0.93848393742E+03  0.10251919856E+04  0.50400001928E-02 0.  1.
</event>
<event>
 5   0  0.5031575E-03  0.1179438E+04  0.7818609E-02  0.9131047E-01
       -2   -1    0    0    0  501  0.00000000000E+00  0.00000000000E+00  0.89616310333E+03  0.89616310334E+03  0.25500000920E-02 0. -1.
        2   -1    0    0  501    0  0.00000000000E+00  0.00000000000E+00 -0.38806410188E+03  0.38806410189E+03  0.25500000920E-02 0.  1.
    10030    2    1    2    0    0  0.00000000000E+00  0.00000000000E+00  0.50809900145E+03  0.12842272052E+04  0.11794383915E+04 0.  0.
        5    1    3    3  502    0 -0.48711767319E+03  0.32994994064E+03  0.29754954641E+03  0.65932420965E+03  0.46999998093E+01 0.  1.
       -5    1    3    3    0  502  0.48711767319E+03 -0.32994994064E+03  0.21054945505E+03  0.62490299558E+03  0.46999998093E+01 0. -1.
</event>
<event>
 5   0  0.2930868E-03  0.1122752E+04  0.7818609E-02  0.9183296E-01
       -1   -1    0    0    0  501  0.00000000000E+00  0.00000000000E+00  0.74506349643E+03  0.74506349645E+03  0.50400001928E-02 0.  1.
        1   -1    0    0  501    0  0.00000000000E+00  0.00000000000E+00 -0.42297455611E+03  0.42297455614E+03  0.50400001928E-02 0. -1.
    10030    2    1    2    0    0  0.00000000000E+00  0.00000000000E+00  0.32208894032E+03  0.11680380526E+04  0.11227518011E+04 0.  0.
        3    1    3    3  502    0  0.28727486892E+03  0.28326494594E+03  0.56714443989E+03  0.69600194382E+03  0.10100000352E+00 0.  1.
       -3    1    3    3    0  502 -0.28727486892E+03 -0.28326494594E+03 -0.24505549957E+03  0.47203610877E+03  0.10100000352E+00 0. -1.
</event>
<event>
 5   0  0.5003526E-03  0.1206384E+04  0.7818609E-02  0.9107287E-01
       -2   -1    0    0    0  501  0.00000000000E+00  0.00000000000E+00  0.36257165592E+03  0.36257165593E+03  0.25500000920E-02 0. -1.
        2   -1    0    0  501    0  0.00000000000E+00  0.00000000000E+00 -0.10035005996E+04  0.10035005996E+04  0.25500000920E-02 0.  1.
    10030    2    1    2    0    0  0.00000000000E+00  0.00000000000E+00 -0.64092894369E+03  0.13660722555E+04  0.12063844729E+04 0.  0.
        2    1    3    3  502    0 -0.17135933109E+03  0.97721870181E+02  0.32501290633E+03  0.38019333707E+03  0.25500000920E-02 0. -1.
       -2    1    3    3    0  502  0.17135933109E+03 -0.97721870181E+02 -0.96594185002E+03  0.98587891848E+03  0.25500000920E-02 0.  1.
</event>
<event>
 5   0  0.2875848E-03  0.1200045E+04  0.7818609E-02  0.9112817E-01
        1   -1    0    0  501    0  0.00000000000E+00  0.00000000000E+00  0.32078673985E+03  0.32078673989E+03  0.50400001928E-02 0. -1.
       -1   -1    0    0    0  501  0.00000000000E+00  0.00000000000E+00 -0.11223249041E+04  0.11223249041E+04  0.50400001928E-02 0.  1.
    10030    2    1    2    0    0  0.00000000000E+00  0.00000000000E+00 -0.80153816422E+03  0.14431116440E+04  0.12000449109E+04 0.  0.
        1    1    3    3  502    0  0.40281664199E+03  0.10246054903E+03 -0.92116475806E+03  0.10105958256E+04  0.50400001928E-02 0.  1.
       -1    1    3    3    0  502 -0.40281664199E+03 -0.10246054903E+03  0.11962659385E+03  0.43251581839E+03  0.50400001928E-02 0. -1.
</event>
<event>
 5   0  0.5108045E-03  0.1140589E+04  0.7818609E-02  0.9166509E-01
        2   -1    0    0  501    0  0.00000000000E+00  0.00000000000E+00  0.12332055352E+04  0.12332055352E+04  0.25500000920E-02 0.  1.
       -2   -1    0    0    0  501  0.00000000000E+00  0.00000000000E+00 -0.26373226515E+03  0.26373226516E+03  0.25500000920E-02 0. -1.
    10030    2    1    2    0    0  0.00000000000E+00  0.00000000000E+00  0.96947327008E+03  0.14969378004E+04  0.11405894778E+04 0.  0.
        3    1    3    3  502    0 -0.51610681325E+03  0.18789772047E+03  0.68620251686E+03  0.87894578923E+03  0.10100000352E+00 0.  1.
       -3    1    3    3    0  502  0.51610681325E+03 -0.18789772047E+03  0.28327075322E+03  0.61799201118E+03  0.10100000352E+00 0. -1.
</event>
<event>
 5   0  0.5003526E-03  0.1178013E+04  0.7818609E-02  0.9132323E-01
       -2   -1    0    0    0  501  0.00000000000E+00  0.00000000000E+00  0.16552782977E+03  0.16552782979E+03  0.25500000920E-02 0.  1.
        2   -1    0    0  501    0  0.00000000000E+00  0.00000000000E+00 -0.20958927178E+04  0.20958927178E+04  0.25500000920E-02 0. -1.
    10030    2    1    2    0    0  0.00000000000E+00  0.00000000000E+00 -0.19303648880E+04  0.22614205476E+04  0.11780128574E+04 0.  0.
        2    1    3    3  502    0 -0.54053207270E+03 -0.23316087810E+03 -0.92728829395E+03  0.10983635540E+04  0.25500000920E-02 0. -1.
       -2    1    3    3    0  502  0.54053207270E+03  0.23316087810E+03 -0.10030765941E+04  0.11630569936E+04  0.25500000920E-02 0.  1.
</event>
<event>
 5   0  0.2875848E-03  0.1194190E+04  0.7818609E-02  0.9117957E-01
       -1   -1    0    0    0  501  0.00000000000E+00  0.00000000000E+00  0.99159946708E+03  0.99159946709E+03  0.50400001928E-02 0. -1.
        1   -1    0    0  501    0  0.00000000000E+00  0.00000000000E+00 -0.35954274750E+03  0.35954274753E+03  0.50400001928E-02 0.  1.
    10030    2    1    2    0    0  0.00000000000E+00  0.00000000000E+00  0.63205671959E+03  0.13511422146E+04  0.11941899294E+04 0.  0.
        1    1    3    3  502    0  0.25358681185E+02 -0.58237542582E+03  0.16973575103E+03  0.60713624872E+03  0.50400001928E-02 0. -1.
       -1    1    3    3    0  502 -0.25358681185E+02  0.58237542582E+03  0.46232096856E+03  0.74400596590E+03  0.50400001928E-02 0.  1.
</event>
<event>
 5   0  0.5031575E-03  0.1189042E+04  0.7818609E-02  0.9122502E-01
        2   -1    0    0  501    0  0.00000000000E+00  0.00000000000E+00  0.22602226107E+03  0.22602226108E+03  0.25500000920E-02 0.  1.
       -2   -1    0    0    0  501  0.00000000000E+00  0.00000000000E+00 -0.15638076752E+04  0.15638076752E+04  0.25500000920E-02 0. -1.
    10030    2    1    2    0    0  0.00000000000E+00  0.00000000000E+00 -0.13377854141E+04  0.17898299362E+04  0.11890422139E+04 0.  0.
        5    1    3    3  502    0  0.37024813611E+03 -0.41093989523E+03 -0.99688270224E+03  0.11400668804E+04  0.46999998093E+01 0. -1.
       -5    1    3    3    0  502 -0.37024813611E+03  0.41093989523E+03 -0.34090271185E+03  0.64976305583E+03  0.46999998093E+01 0.  1.
</event>
<event>
 5   0  0.5003526E-03  0.1244016E+04  0.7818609E-02  0.9075178E-01
       -2   -1    0    0    0  501  0.00000000000E+00  0.00000000000E+00  0.47314474862E+03  0.47314474863E+03  0.25500000920E-02 0. -1.
        2   -1    0    0  501    0  0.00000000000E+00  0.00000000000E+00 -0.81770798257E+03  0.81770798257E+03  0.25500000920E-02 0.  1.
    10030    2    1    2    0    0  0.00000000000E+00  0.00000000000E+00 -0.34456323394E+03  0.12908527312E+04  0.12440164595E+04 0.  0.
        2    1    3    3  502    0 -0.15488027699E+03  0.22092270261E+03 -0.75382777648E+03  0.80065664134E+03  0.25500000920E-02 0.  1.
       -2    1    3    3    0  502  0.15488027699E+03 -0.22092270261E+03  0.40926454254E+03  0.49019608986E+03  0.25500000920E-02 0. -1.
</event>
<event>
 5   0  0.1922125E-03  0.1276927E+04  0.7818609E-02  0.9048065E-01
        4   -1    0    0  501    0  0.00000000000E+00  0.00000000000E+00  0.63923088638E+03  0.63923214797E+03  0.12699999809E+01 0.  1.
       -4   -1    0    0    0  501  0.00000000000E+00  0.00000000000E+00 -0.63769421513E+03  0.63769547976E+03  0.12699999809E+01 0. -1.
    10030    2    1    2    0    0  0.00000000000E+00  0.00000000000E+00  0.15366712541E+01  0.12769276277E+04  0.12769267031E+04 0.  0.
        4    1    3    3  502    0  0.47947966511E+03 -0.42232029659E+00 -0.42081578192E+03  0.63795647408E+03  0.12699999809E+01 0. -1.
       -4    1    3    3    0  502 -0.47947966511E+03  0.42232029659E+00  0.42235245317E+03  0.63897115366E+03  0.12699999809E+01 0.  1.
</event>
<event>
 5   0  0.2875848E-03  0.1212632E+04  0.7818609E-02  0.9101871E-01
        1   -1    0    0  501    0  0.00000000000E+00  0.00000000000E+00  0.10132014554E+04  0.10132014554E+04  0.50400001928E-02 0. -1.
       -1   -1    0    0    0  501  0.00000000000E+00  0.00000000000E+00 -0.36282942219E+03  0.36282942222E+03  0.50400001928E-02 0.  1.
    10030    2    1    2    0    0  0.00000000000E+00  0.00000000000E+00  0.65037203324E+03  0.13760308777E+04  0.12126323411E+04 0.  0.
        1    1    3    3  502    0  0.51123488071E+03 -0.19276957443E+02  0.69443518229E+03  0.86253865233E+03  0.50400001928E-02 0. -1.
       -1    1    3    3    0  502 -0.51123488071E+03  0.19276957443E+02 -0.44063149051E+02  0.51349222533E+03  0.50400001928E-02 0.  1.
</event>
<event>
 5   0  0.5189537E-03  0.1247018E+04  0.7818609E-02  0.9072669E-01
        2   -1    0    0  501    0  0.00000000000E+00  0.00000000000E+00  0.16510930173E+04  0.16510930173E+04  0.25500000920E-02 0. -1.
       -2   -1    0    0    0  501  0.00000000000E+00  0.00000000000E+00 -0.23545829694E+03  0.23545829696E+03  0.25500000920E-02 0.  1.
    10030    2    1    2    0    0  0.00000000000E+00  0.00000000000E+00  0.14156347203E+04  0.18865513142E+04  0.12470181233E+04 0.  0.
        4    1    3    3  502    0  0.37327843800E+03 -0.57953772634E+02 -0.42633237258E+02  0.38015080936E+03  0.12699999809E+01 0.  1.
       -4    1    3    3    0  502 -0.37327843800E+03  0.57953772634E+02  0.14582679576E+04  0.15064005048E+04  0.12699999809E+01 0. -1.
</event>
<event>
 5   0  0.5108045E-03  0.1200057E+04  0.7818609E-02  0.9112806E-01
        2   -1    0    0  501    0  0.00000000000E+00  0.00000000000E+00  0.33169369358E+03  0.33169369359E+03  0.25500000920E-02 0.  1.
       -2   -1    0    0    0  501  0.00000000000E+00  0.00000000000E+00 -0.10854426432E+04  0.10854426432E+04  0.25500000920E-02 0. -1.
    10030    2    1    2    0    0  0.00000000000E+00  0.00000000000E+00 -0.75374894960E+03  0.14171363368E+04  0.12000574644E+04 0.  0.
        3    1    3    3  502    0 -0.69253617796E+02  0.50643479450E+03 -0.57624904499E+01  0.51118047806E+03  0.10100000352E+00 0.  1.
       -3    1    3    3    0  502  0.69253617796E+02 -0.50643479450E+03 -0.74798645915E+03  0.90595585871E+03  0.10100000352E+00 0. -1.
</event>
<event>
 5   0  0.1922125E-03  0.1050245E+04  0.7818609E-02  0.9255091E-01
       -4   -1    0    0    0  501  0.00000000000E+00  0.00000000000E+00  0.42986762542E+03  0.42986950146E+03  0.12699999809E+01 0.  1.
        4   -1    0    0  501    0  0.00000000000E+00  0.00000000000E+00 -0.64148137232E+03  0.64148262949E+03  0.12699999809E+01 0. -1.
    10030    2    1    2    0    0  0.00000000000E+00  0.00000000000E+00 -0.21161374690E+03  0.10713521309E+04  0.10502452145E+04 0.  0.
        4    1    3    3  502    0 -0.48300024210E+03  0.15166642325E+03  0.36496500717E+02  0.50756826661E+03  0.12699999809E+01 0.  1.
       -4    1    3    3    0  502  0.48300024210E+03 -0.15166642325E+03 -0.24811024762E+03  0.56378386433E+03  0.12699999809E+01 0. -1.
</event>
<event>
 5   0  0.5108045E-03  0.1174562E+04  0.7818609E-02  0.9135418E-01
       -2   -1    0    0    0  501  0.00000000000E+00  0.00000000000E+00  0.56771105777E+03  0.56771105778E+03  0.25500000920E-02 0. -1.
        2   -1    0    0  501    0  0.00000000000E+00  0.00000000000E+00 -0.60752585337E+03  0.60752585337E+03  0.25500000920E-02 0.  1.
    10030    2    1    2    0    0  0.00000000000E+00  0.00000000000E+00 -0.39814795597E+02  0.11752369111E+04  0.11745622927E+04 0.  0.
        3    1    3    3  502    0  0.22738334105E+03 -0.40176298081E+03 -0.38313443702E+03  0.59992389815E+03  0.10100000352E+00 0.  1.
       -3    1    3    3    0  502 -0.22738334105E+03  0.40176298081E+03  0.34331964142E+03  0.57531301300E+03  0.10100000352E+00 0. -1.
</event>
<event>
 5   0  0.2930868E-03  0.1120585E+04  0.7818609E-02  0.9185358E-01
        1   -1    0    0  501    0  0.00000000000E+00  0.00000000000E+00  0.40801546861E+03  0.40801546864E+03  0.50400001928E-02 0. -1.
       -1   -1    0    0    0  501  0.00000000000E+00  0.00000000000E+00 -0.76940079170E+03  0.76940079172E+03  0.50400001928E-02 0.  1.
    10030    2    1    2    0    0  0.00000000000E+00  0.00000000000E+00 -0.36138532309E+03  0.11774162604E+04  0.11205845343E+04 0.  0.
        3    1    3    3  502    0  0.15282449311E+03  0.19075582117E+03 -0.71042900655E+03  0.75130053411E+03  0.10100000352E+00 0.  1.
       -3    1    3    3    0  502 -0.15282449311E+03 -0.19075582117E+03  0.34904368345E+03  0.42611572626E+03  0.10100000352E+00 0. -1.
</event>
<event>
 5   0  0.2930868E-03  0.1141869E+04  0.7818609E-02  0.9165318E-01
       -1   -1    0    0    0  501  0.00000000000E+00  0.00000000000E+00  0.40118019020E+03  0.40118019023E+03  0.50400001928E-02 0.  1.
        1   -1    0    0  501    0  0.00000000000E+00  0.00000000000E+00 -0.81251767989E+03  0.81251767990E+03  0.50400001928E-02 0. -1.
    10030    2    1    2    0    0  0.00000000000E+00  0.00000000000E+00 -0.41133748969E+03  0.12136978701E+04  0.11418686394E+04 0.  0.
        3    1    3    3  502    0 -0.25081714809E+03  0.34094439503E+03  0.20159681363E+03  0.46882150947E+03  0.10100000352E+00 0.  1.
       -3    1    3    3    0  502  0.25081714809E+03 -0.34094439503E+03 -0.61293430332E+03  0.74487636066E+03  0.10100000352E+00 0. -1.
</event>
<event>
 5   0  0.5189537E-03  0.1188425E+04  0.7818609E-02  0.9123048E-01
       -2   -1    0    0    0  501  0.00000000000E+00  0.00000000000E+00  0.27301192735E+03  0.27301192736E+03  0.25500000920E-02 0.  1.
        2   -1    0    0  501    0  0.00000000000E+00  0.00000000000E+00 -0.12933088535E+04  0.12933088536E+04  0.25500000920E-02 0. -1.
    10030    2    1    2    0    0  0.00000000000E+00  0.00000000000E+00 -0.10202969262E+04  0.15663207809E+04  0.11884254167E+04 0.  0.
        4    1    3    3  502    0  0.51444624139E+02  0.11119634678E+03  0.25618169825E+03  0.28397509100E+03  0.12699999809E+01 0.  1.
       -4    1    3    3    0  502 -0.51444624139E+02 -0.11119634678E+03 -0.12764786244E+04  0.12823456899E+04  0.12699999809E+01 0. -1.
</event>
<event>
 5   0  0.2926844E-03  0.1201053E+04  0.7818609E-02  0.9111935E-01
       -1   -1    0    0    0  501  0.00000000000E+00  0.00000000000E+00  0.11244822858E+04  0.11244822858E+04  0.50400001928E-02 0. -1.
        1   -1    0    0  501    0  0.00000000000E+00  0.00000000000E+00 -0.32070955755E+03  0.32070955759E+03  0.50400001928E-02 0.  1.
    10030    2    1    2    0    0  0.00000000000E+00  0.00000000000E+00  0.80377272822E+03  0.14451918434E+04  0.12010532318E+04 0.  0.
        5    1    3    3  502    0  0.28349967921E+03 -0.52001249996E+03  0.28261647638E+03  0.65626155681E+03  0.46999998093E+01 0.  1.
       -5    1    3    3    0  502 -0.28349967921E+03  0.52001249996E+03  0.52115625184E+03  0.78893028656E+03  0.46999998093E+01 0. -1.
</event>
<event>
 5   0  0.1922125E-03  0.1204937E+04  0.7818609E-02  0.9108546E-01
       -3   -1    0    0    0  501  0.00000000000E+00  0.00000000000E+00  0.10261901083E+04  0.10261901132E+04  0.10100000352E+00 0.  1.
        3   -1    0    0  501    0  0.00000000000E+00  0.00000000000E+00 -0.35370473121E+03  0.35370474563E+03  0.10100000352E+00 0. -1.
    10030    2    1    2    0    0  0.00000000000E+00  0.00000000000E+00  0.67248537706E+03  0.13798948589E+04  0.12049370271E+04 0.  0.
        5    1    3    3  502    0  0.67545331688E+02  0.58239685583E+03  0.49491707049E+03  0.76727665557E+03  0.46999998093E+01 0.  1.
       -5    1    3    3    0  502 -0.67545331688E+02 -0.58239685583E+03  0.17756830656E+03  0.61261820330E+03  0.46999998093E+01 0. -1.
</event>
<event>
 5   0  0.2926844E-03  0.1194198E+04  0.7818609E-02  0.9117950E-01
        1   -1    0    0  501    0  0.00000000000E+00  0.00000000000E+00  0.23004013947E+04  0.23004013948E+04  0.50400001928E-02 0.  1.
       -1   -1    0    0    0  501  0.00000000000E+00  0.00000000000E+00 -0.15498487561E+03  0.15498487569E+03  0.50400001928E-02 0. -1.
    10030    2    1    2    0    0  0.00000000000E+00  0.00000000000E+00  0.21454165191E+04  0.24553862704E+04  0.11941983489E+04 0.  0.
        5    1    3    3  502    0  0.17065603619E+03  0.45763655261E+03  0.17788526319E+04  0.18446933276E+04  0.46999998093E+01 0.  1.
       -5    1    3    3    0  502 -0.17065603619E+03 -0.45763655261E+03  0.36656388723E+03  0.61069294281E+03  0.46999998093E+01 0. -1.
</event>
<event>
 5   0  0.1922125E-03  0.1190699E+04  0.7818609E-02  0.9121036E-01
        3   -1    0    0  501    0  0.00000000000E+00  0.00000000000E+00  0.43254997609E+03  0.43254998788E+03  0.10100000352E+00 0. -1.
       -3   -1    0    0    0  501  0.00000000000E+00  0.00000000000E+00 -0.81942279300E+03  0.81942279923E+03  0.10100000352E+00 0.  1.
    10030    2    1    2    0    0  0.00000000000E+00  0.00000000000E+00 -0.38687281691E+03  0.12519727871E+04  0.11906994932E+04 0.  0.
        1    1    3    3  502    0 -0.15944051398E+03 -0.12953435341E+02 -0.79640283398E+03  0.81230938871E+03  0.50400001928E-02 0.  1.
       -1    1    3    3    0  502  0.15944051398E+03  0.12953435341E+02  0.40953001707E+03  0.43966339840E+03  0.50400001928E-02 0. -1.
</event>
<event>
 5   0  0.2930868E-03  0.1183311E+04  0.7818609E-02  0.9127591E-01
        1   -1    0    0  501    0  0.00000000000E+00  0.00000000000E+00  0.15633992314E+04  0.15633992314E+04  0.50400001928E-02 0.  1.
       -1   -1    0    0    0  501  0.00000000000E+00  0.00000000000E+00 -0.22390710655E+03  0.22390710661E+03  0.50400001928E-02 0. -1.
    10030    2    1    2    0    0  0.00000000000E+00  0.00000000000E+00  0.13394921248E+04  0.17873063380E+04  0.11833109453E+04 0.  0.
        3    1    3    3  502    0 -0.10318451768E+03 -0.25630573894E+03 -0.12047865899E+03  0.30142128985E+03  0.10100000352E+00 0. -1.
       -3    1    3    3    0  502  0.10318451768E+03  0.25630573894E+03  0.14599707838E+04  0.14858850481E+04  0.10100000352E+00 0.  1.
</event>
<event>
 5   0  0.5108045E-03  0.1201408E+04  0.7818609E-02  0.9111625E-01
        2   -1    0    0  501    0  0.00000000000E+00  0.00000000000E+00  0.15231477387E+04  0.15231477387E+04  0.25500000920E-02 0. -1.
       -2   -1    0    0    0  501  0.00000000000E+00  0.00000000000E+00 -0.23690757510E+03  0.23690757512E+03  0.25500000920E-02 0.  1.
    10030    2    1    2    0    0  0.00000000000E+00  0.00000000000E+00  0.12862401636E+04  0.17600553138E+04  0.12014079030E+04 0.  0.
        3    1    3    3  502    0  0.35069923083E+03  0.24549797570E+03  0.12604825450E+04  0.13311932478E+04  0.10100000352E+00 0. -1.
       -3    1    3    3    0  502 -0.35069923083E+03 -0.24549797570E+03  0.25757618643E+02  0.42886206605E+03  0.10100000352E+00 0.  1.
</event>
<event>
 5   0  0.2792518E-03  0.1192718E+04  0.7818609E-02  0.9119254E-01
        1   -1    0    0  501    0  0.00000000000E+00  0.00000000000E+00  0.11225290021E+04  0.11225290021E+04  0.50400001928E-02 0.  1.
       -1   -1    0    0    0  501  0.00000000000E+00  0.00000000000E+00 -0.31682396457E+03  0.31682396461E+03  0.50400001928E-02 0. -1.
    10030    2    1    2    0    0  0.00000000000E+00  0.00000000000E+00  0.80570503754E+03  0.14393529667E+04  0.11927180536E+04 0.  0.
        2    1    3    3  502    0  0.10441246583E+03  0.57785942344E+03  0.52838480474E+03  0.78994555392E+03  0.25500000920E-02 0. -1.
       -2    1    3    3    0  502 -0.10441246583E+03 -0.57785942344E+03  0.27732023280E+03  0.64940741280E+03  0.25500000920E-02 0.  1.
</event>
<event>
 5   0  0.2930868E-03  0.1205926E+04  0.7818609E-02  0.9107685E-01
        1   -1    0    0  501    0  0.00000000000E+00  0.00000000000E+00  0.16619089543E+04  0.16619089544E+04  0.50400001928E-02 0. -1.
       -1   -1    0    0    0  501  0.00000000000E+00  0.00000000000E+00 -0.21876326091E+03  0.21876326096E+03  0.50400001928E-02 0.  1.
    10030    2    1    2    0    0  0.00000000000E+00  0.00000000000E+00  0.14431456934E+04  0.18806722153E+04  0.12059264028E+04 0.  0.
        3    1    3    3  502    0 -0.20020908287E+02 -0.15781342609E+03 -0.18544700185E+03  0.24432870261E+03  0.10100000352E+00 0.  1.
       -3    1    3    3    0  502  0.20020908287E+02  0.15781342609E+03  0.16285926953E+04  0.16363435127E+04  0.10100000352E+00 0. -1.
</event>
<event>
 5   0  0.2792518E-03  0.1208299E+04  0.7818609E-02  0.9105624E-01
       -1   -1    0    0    0  501  0.00000000000E+00  0.00000000000E+00  0.34956352034E+03  0.34956352038E+03  0.50400001928E-02 0.  1.
        1   -1    0    0  501    0  0.00000000000E+00  0.00000000000E+00 -0.10441487674E+04  0.10441487674E+04  0.50400001928E-02 0. -1.
    10030    2    1    2    0    0  0.00000000000E+00  0.00000000000E+00 -0.69458524708E+03  0.13937122878E+04  0.12082985044E+04 0.  0.
        2    1    3    3  502    0  0.44897573165E+03 -0.38944426755E+03 -0.47232511472E+03  0.75916866317E+03  0.25500000920E-02 0.  1.
       -2    1    3    3    0  502 -0.44897573165E+03  0.38944426755E+03 -0.22226013236E+03  0.63454362464E+03  0.25500000920E-02 0. -1.
</event>
<event>
 5   0  0.2930868E-03  0.1235014E+04  0.7818609E-02  0.9082749E-01
        1   -1    0    0  501    0  0.00000000000E+00  0.00000000000E+00  0.85140869131E+03  0.85140869133E+03  0.50400001928E-02 0.  1.
       -1   -1    0    0    0  501  0.00000000000E+00  0.00000000000E+00 -0.44786331963E+03  0.44786331966E+03  0.50400001928E-02 0. -1.
    10030    2    1    2    0    0  0.00000000000E+00  0.00000000000E+00  0.40354537168E+03  0.12992720110E+04  0.12350137212E+04 0.  0.
        3    1    3    3  502    0 -0.56305033175E+03 -0.25342101565E+03  0.19317267162E+03  0.64696489744E+03  0.10100000352E+00 0. -1.
       -3    1    3    3    0  502  0.56305033175E+03  0.25342101565E+03  0.21037270006E+03  0.65230711355E+03  0.10100000352E+00 0.  1.
</event>
<event>
 5   0  0.5031575E-03  0.1176083E+04  0.7818609E-02  0.9134052E-01
        2   -1    0    0  501    0  0.00000000000E+00  0.00000000000E+00  0.65196780223E+03  0.65196780224E+03  0.25500000920E-02 0.  1.
       -2   -1    0    0    0  501  0.00000000000E+00  0.00000000000E+00 -0.53038342799E+03  0.53038342799E+03  0.25500000920E-02 0. -1.
    10030    2    1    2    0    0  0.00000000000E+00  0.00000000000E+00  0.12158437424E+03  0.11823512302E+04  0.11760831908E+04 0.  0.
        5    1    3    3  502    0 -0.30657818342E+03 -0.28279300072E+03 -0.35591512535E+03  0.54832447534E+03  0.46999998093E+01 0. -1.
       -5    1    3    3    0  502  0.30657818342E+03  0.28279300072E+03  0.47749949960E+03  0.63402675489E+03  0.46999998093E+01 0.  1.
</event>
<event>
 5   0  0.5467554E-03  0.1194770E+04  0.7818609E-02  0.9117447E-01
       -2   -1    0    0    0  501  0.00000000000E+00  0.00000000000E+00  0.12426720187E+03  0.12426720189E+03  0.25500000920E-02 0.  1.
        2   -1    0    0  501    0  0.00000000000E+00  0.00000000000E+00 -0.28717848689E+04  0.28717848689E+04  0.25500000920E-02 0. -1.
    10030    2    1    2    0    0  0.00000000000E+00  0.00000000000E+00 -0.27475176670E+04  0.29960520708E+04  0.11947697185E+04 0.  0.
        1    1    3    3  502    0  0.37582771197E+03  0.36898106253E+03 -0.66682152750E+03  0.84973198313E+03  0.50400001928E-02 0.  1.
       -1    1    3    3    0  502 -0.37582771197E+03 -0.36898106253E+03 -0.20806961395E+04  0.21463200876E+04  0.50400001928E-02 0. -1.
</event>
<event>
 5   0  0.2875848E-03  0.1202606E+04  0.7818609E-02  0.9110578E-01
       -1   -1    0    0    0  501  0.00000000000E+00  0.00000000000E+00  0.43653921834E+03  0.43653921837E+03  0.50400001928E-02 0. -1.
        1   -1    0    0  501    0  0.00000000000E+00  0.00000000000E+00 -0.82825426033E+03  0.82825426035E+03  0.50400001928E-02 0.  1.
    10030    2    1    2    0    0  0.00000000000E+00  0.00000000000E+00 -0.39171504199E+03  0.12647934787E+04  0.12026062821E+04 0.  0.
        1    1    3    3  502    0  0.27750742148E+03  0.43425926228E+03  0.12995886964E+03  0.53148921313E+03  0.50400001928E-02 0. -1.
       -1    1    3    3    0  502 -0.27750742148E+03 -0.43425926228E+03 -0.52167391163E+03  0.73330426560E+03  0.50400001928E-02 0.  1.
</event>
<event>
 5   0  0.5003526E-03  0.1150607E+04  0.7818609E-02  0.9157224E-01
        2   -1    0    0  501    0  0.00000000000E+00  0.00000000000E+00  0.58014423463E+03  0.58014423463E+03  0.25500000920E-02 0.  1.
       -2   -1    0    0    0  501  0.00000000000E+00  0.00000000000E+00 -0.57050278709E+03  0.57050278709E+03  0.25500000920E-02 0. -1.
    10030    2    1    2    0    0  0.00000000000E+00  0.00000000000E+00  0.96414475397E+01  0.11506470217E+04  0.11506066274E+04 0.  0.
        2    1    3    3  502    0 -0.30137764962E+03  0.47006030462E+03  0.14334896073E+03  0.57648426017E+03  0.25500000920E-02 0.  1.
       -2    1    3    3    0  502  0.30137764962E+03 -0.47006030462E+03 -0.13370751319E+03  0.57416276156E+03  0.25500000920E-02 0. -1.
</event>
<event>
 5   0  0.5031575E-03  0.1220342E+04  0.7818609E-02  0.9095235E-01
        2   -1    0    0  501    0  0.00000000000E+00  0.00000000000E+00  0.89864834801E+03  0.89864834802E+03  0.25500000920E-02 0. -1.
       -2   -1    0    0    0  501  0.00000000000E+00  0.00000000000E+00 -0.41429847417E+03  0.41429847418E+03  0.25500000920E-02 0.  1.
    10030    2    1    2    0    0  0.00000000000E+00  0.00000000000E+00  0.48434987384E+03  0.13129468222E+04  0.12203419839E+04 0.  0.
        5    1    3    3  502    0  0.33679477475E+03 -0.17445418189E+03  0.75637738200E+03  0.84616417785E+03  0.46999998093E+01 0. -1.
       -5    1    3    3    0  502 -0.33679477475E+03  0.17445418189E+03 -0.27202750815E+03  0.46678264435E+03  0.46999998093E+01 0.  1.
</event>
<event>
 5   0  0.2792518E-03  0.1196958E+04  0.7818609E-02  0.9115523E-01
       -1   -1    0    0    0  501  0.00000000000E+00  0.00000000000E+00  0.34523030468E+03  0.34523030472E+03  0.50400001928E-02 0.  1.
        1   -1    0    0  501    0  0.00000000000E+00  0.00000000000E+00 -0.10375025880E+04  0.10375025880E+04  0.50400001928E-02 0. -1.
    10030    2    1    2    0    0  0.00000000000E+00  0.00000000000E+00 -0.69227228328E+03  0.13827328927E+04  0.11969583695E+04 0.  0.
        2    1    3    3  502    0 -0.43632778418E+03 -0.38662337831E+03 -0.18978701408E+03  0.61308945728E+03  0.25500000920E-02 0.  1.
       -2    1    3    3    0  502  0.43632778418E+03  0.38662337831E+03 -0.50248526920E+03  0.76964343541E+03  0.25500000920E-02 0. -1.
</event>
<event>
 5   0  0.5003526E-03  0.1202221E+04  0.7818609E-02  0.9110915E-01
       -2   -1    0    0    0  501  0.00000000000E+00  0.00000000000E+00  0.30216257661E+03  0.30216257662E+03  0.25500000920E-02 0. -1.
        2   -1    0    0  501    0  0.00000000000E+00  0.00000000000E+00 -0.11958256007E+04  0.11958256007E+04  0.25500000920E-02 0.  1.
    10030    2    1    2    0    0  0.00000000000E+00  0.00000000000E+00 -0.89366302413E+03  0.14979881774E+04  0.12022208528E+04 0.  0.
        2    1    3    3  502    0  0.45439990170E+03 -0.38853470846E+03 -0.52459792018E+03  0.79538762136E+03  0.25500000920E-02 0.  1.
       -2    1    3    3    0  502 -0.45439990170E+03  0.38853470846E+03 -0.36906510396E+03  0.70260055601E+03  0.25500000920E-02 0. -1.
</event>
<event>
 5   0  0.5108045E-03  0.1178894E+04  0.7818609E-02  0.9131533E-01
       -2   -1    0    0    0  501  0.00000000000E+00  0.00000000000E+00  0.58361484178E+03  0.58361484178E+03  0.25500000920E-02 0.  1.
        2   -1    0    0  501    0  0.00000000000E+00  0.00000000000E+00 -0.59533778316E+03  0.59533778316E+03  0.25500000920E-02 0. -1.
    10030    2    1    2    0    0  0.00000000000E+00  0.00000000000E+00 -0.11722941384E+02  0.11789526249E+04  0.11788943398E+04 0.  0.
        3    1    3    3  502    0 -0.12594518031E+03  0.84971722161E+02  0.56369769945E+03  0.58381288832E+03  0.10100000352E+00 0.  1.
       -3    1    3    3    0  502  0.12594518031E+03 -0.84971722161E+02 -0.57542064083E+03  0.59513973662E+03  0.10100000352E+00 0. -1.
</event>
<event>
 5   0  0.1922125E-03  0.1195239E+04  0.7818609E-02  0.9117034E-01
        3   -1    0    0  501    0  0.00000000000E+00  0.00000000000E+00  0.46785484637E+03  0.46785485727E+03  0.10100000352E+00 0. -1.
       -3   -1    0    0    0  501  0.00000000000E+00  0.00000000000E+00 -0.76337629485E+03  0.76337630154E+03  0.10100000352E+00 0.  1.
    10030    2    1    2    0    0  0.00000000000E+00  0.00000000000E+00 -0.29552144848E+03  0.12312311588E+04  0.11952394069E+04 0.  0.
        4    1    3    3  502    0  0.97845199750E+02  0.58800474557E+03 -0.19176031856E+03  0.62617641012E+03  0.12699999809E+01 0.  1.
       -4    1    3    3    0  502 -0.97845199750E+02 -0.58800474557E+03 -0.10376112993E+03  0.60505474868E+03  0.12699999809E+01 0. -1.
</event>
<event>
 5   0  0.2926844E-03  0.1234257E+04  0.7818609E-02  0.9083389E-01
       -1   -1    0    0    0  501  0.00000000000E+00  0.00000000000E+00  0.47869204164E+03  0.47869204167E+03  0.50400001928E-02 0. -1.
        1   -1    0    0  501    0  0.00000000000E+00  0.00000000000E+00 -0.79560050752E+03  0.79560050754E+03  0.50400001928E-02 0.  1.
    10030    2    1    2    0    0  0.00000000000E+00  0.00000000000E+00 -0.31690846588E+03  0.12742925492E+04  0.12342570742E+04 0.  0.
        5    1    3    3  502    0 -0.28652158373E+02 -0.59602687105E+03  0.39916480500E+01  0.59674701545E+03  0.46999998093E+01 0. -1.
       -5    1    3    3    0  502  0.28652158373E+02  0.59602687105E+03 -0.32090011393E+03  0.67754553376E+03  0.46999998093E+01 0.  1.
</event>
<event>
 5   0  0.5467554E-03  0.1223871E+04  0.7818609E-02  0.9092215E-01
       -2   -1    0    0    0  501  0.00000000000E+00  0.00000000000E+00  0.27160152111E+03  0.27160152112E+03  0.25500000920E-02 0. -1.
        2   -1    0    0  501    0  0.00000000000E+00  0.00000000000E+00 -0.13787302751E+04  0.13787302751E+04  0.25500000920E-02 0.  1.
    10030    2    1    2    0    0  0.00000000000E+00  0.00000000000E+00 -0.11071287540E+04  0.16503317962E+04  0.12238713003E+04 0.  0.
        1    1    3    3  502    0 -0.53029229864E+03  0.30537234912E+03 -0.55121083928E+03  0.82358702210E+03  0.50400001928E-02 0.  1.
       -1    1    3    3    0  502  0.53029229864E+03 -0.30537234912E+03 -0.55591791469E+03  0.82674477410E+03  0.50400001928E-02 0. -1.
</event>
<event>
 5   0  0.2938349E-03  0.1196178E+04  0.7818609E-02  0.9116208E-01
        1   -1    0    0  501    0  0.00000000000E+00  0.00000000000E+00  0.19176837970E+04  0.19176837971E+04  0.50400001928E-02 0.  1.
       -1   -1    0    0    0  501  0.00000000000E+00  0.00000000000E+00 -0.18653268973E+03  0.18653268980E+03  0.50400001928E-02 0. -1.
    10030    2    1    2    0    0  0.00000000000E+00  0.00000000000E+00  0.17311511073E+04  0.21042164869E+04  0.11961784429E+04 0.  0.
        4    1    3    3  502    0 -0.33949006413E+03 -0.83344456419E+02  0.11888923012E+02  0.34977530137E+03  0.12699999809E+01 0. -1.
       -4    1    3    3    0  502  0.33949006413E+03  0.83344456419E+02  0.17192621843E+04  0.17544411855E+04  0.12699999809E+01 0.  1.
</event>
<event>
 5   0  0.2792518E-03  0.1222042E+04  0.7818609E-02  0.9093779E-01
       -1   -1    0    0    0  501  0.00000000000E+00  0.00000000000E+00  0.56006450070E+03  0.56006450072E+03  0.50400001928E-02 0.  1.
        1   -1    0    0  501    0  0.00000000000E+00  0.00000000000E+00 -0.66661319936E+03  0.66661319938E+03  0.50400001928E-02 0. -1.
    10030    2    1    2    0    0  0.00000000000E+00  0.00000000000E+00 -0.10654869866E+03  0.12266777001E+04  0.12220415520E+04 0.  0.
        2    1    3    3  502    0  0.19158895866E+02 -0.19411531124E+02 -0.66600187384E+03  0.66656009991E+03  0.25500000920E-02 0. -1.
       -2    1    3    3    0  502 -0.19158895866E+02  0.19411531124E+02  0.55945317517E+03  0.56011760020E+03  0.25500000920E-02 0.  1.
</event>
<event>
 5   0  0.5189537E-03  0.1010632E+04  0.7818609E-02  0.9296960E-01
        2   -1    0    0  501    0  0.00000000000E+00  0.00000000000E+00  0.88304647417E+03  0.88304647418E+03  0.25500000920E-02 0.  1.
       -2   -1    0    0    0  501  0.00000000000E+00  0.00000000000E+00 -0.28916279834E+03  0.28916279835E+03  0.25500000920E-02 0. -1.
    10030    2    1    2    0    0  0.00000000000E+00  0.00000000000E+00  0.59388367584E+03  0.11722092725E+04  0.10106318609E+04 0.  0.
        4    1    3    3  502    0  0.23107488984E+03 -0.23810518676E+02  0.81744140034E+03  0.84980856751E+03  0.12699999809E+01 0.  1.
       -4    1    3    3    0  502 -0.23107488984E+03  0.23810518676E+02 -0.22355772451E+03  0.32240070502E+03  0.12699999809E+01 0. -1.
</event>
<event>
 5   0  0.5003526E-03  0.1247726E+04  0.7818609E-02  0.9072078E-01
        2   -1    0    0  501    0  0.00000000000E+00  0.00000000000E+00  0.13597319711E+04  0.13597319711E+04  0.25500000920E-02 0.  1.
       -2   -1    0    0    0  501  0.00000000000E+00  0.00000000000E+00 -0.28623651941E+03  0.28623651942E+03  0.25500000920E-02 0. -1.
    10030    2    1    2    0    0  0.00000000000E+00  0.00000000000E+00  0.10734954517E+04  0.16459684905E+04  0.12477258461E+04 0.  0.
        2    1    3    3  502    0 -0.49112002438E+03  0.34067926839E+03  0.30097422863E+03  0.66921351493E+03  0.25500000920E-02 0. -1.
       -2    1    3    3    0  502  0.49112002438E+03 -0.34067926839E+03  0.77252122303E+03  0.97675497557E+03  0.25500000920E-02 0.  1.
</event>
<event>
 5   0  0.5031575E-03  0.1212541E+04  0.7818609E-02  0.9101950E-01
        2   -1    0    0  501    0  0.00000000000E+00  0.00000000000E+00  0.23774317421E+04  0.23774317421E+04  0.25500000920E-02 0. -1.
       -2   -1    0    0    0  501  0.00000000000E+00  0.00000000000E+00 -0.15460535720E+03  0.15460535722E+03  0.25500000920E-02 0.  1.
    10030    2    1    2    0    0  0.00000000000E+00  0.00000000000E+00  0.22228263849E+04  0.25320370993E+04  0.12125406117E+04 0.  0.
        5    1    3    3  502    0  0.15561675556E+03 -0.18874415961E+03 -0.46931961615E+02  0.24912974816E+03  0.46999998093E+01 0.  1.
       -5    1    3    3    0  502 -0.15561675556E+03  0.18874415961E+03  0.22697583465E+04  0.22829073512E+04  0.46999998093E+01 0. -1.
</event>
<event>
 5   0  0.2792518E-03  0.1193033E+04  0.7818609E-02  0.9118976E-01
        1   -1    0    0  501    0  0.00000000000E+00  0.00000000000E+00  0.16199909313E+04  0.16199909313E+04  0.50400001928E-02 0. -1.
       -1   -1    0    0    0  501  0.00000000000E+00  0.00000000000E+00 -0.21965069995E+03  0.21965070000E+03  0.50400001928E-02 0.  1.
    10030    2    1    2    0    0  0.00000000000E+00  0.00000000000E+00  0.14003402314E+04  0.18396416313E+04  0.11930333474E+04 0.  0.
        2    1    3    3  502    0  0.17781938737E+03  0.50932220747E+03  0.30763438446E+03  0.62102154557E+03  0.25500000920E-02 0. -1.
       -2    1    3    3    0  502 -0.17781938737E+03 -0.50932220747E+03  0.10927058469E+04  0.12186200858E+04  0.25500000920E-02 0.  1.
</event>
<event>
 5   0  0.5189537E-03  0.1228708E+04  0.7818609E-02  0.9088093E-01
        2   -1    0    0  501    0  0.00000000000E+00  0.00000000000E+00  0.17266503757E+03  0.17266503759E+03  0.25500000920E-02 0.  1.
       -2   -1    0    0    0  501  0.00000000000E+00  0.00000000000E+00 -0.21859150599E+04  0.21859150599E+04  0.25500000920E-02 0. -1.
    10030    2    1    2    0    0  0.00000000000E+00  0.00000000000E+00 -0.20132500224E+04  0.23585800975E+04  0.12287084373E+04 0.  0.
        4    1    3    3  502    0  0.24757354553E+03 -0.51748908798E+02 -0.20813369660E+04  0.20966487042E+04  0.12699999809E+01 0. -1.
       -4    1    3    3    0  502 -0.24757354553E+03  0.51748908798E+02  0.68086943620E+02  0.26193139331E+03  0.12699999809E+01 0.  1.
</event>
<event>
 5   0  0.5108045E-03  0.1185908E+04  0.7818609E-02  0.9125282E-01
       -2   -1    0    0    0  501  0.00000000000E+00  0.00000000000E+00  0.10181961765E+04  0.10181961766E+04  0.25500000920E-02 0. -1.
        2   -1    0    0  501    0  0.00000000000E+00  0.00000000000E+00 -0.34531095315E+03  0.34531095316E+03  0.25500000920E-02 0.  1.
    10030    2    1    2    0    0  0.00000000000E+00  0.00000000000E+00  0.67288522340E+03  0.13635071297E+04  0.11859077405E+04 0.  0.
        3    1    3    3  502    0 -0.41367369117E+02  0.51328259348E+03  0.67444805640E+03  0.84855787722E+03  0.10100000352E+00 0. -1.
       -3    1    3    3    0  502  0.41367369117E+02 -0.51328259348E+03 -0.15628330011E+01  0.51494925250E+03  0.10100000352E+00 0.  1.
</event>
<event>
 5   0  0.2930868E-03  0.1177597E+04  0.7818609E-02  0.9132695E-01
        1   -1    0    0  501    0  0.00000000000E+00  0.00000000000E+00  0.44551700719E+03  0.44551700722E+03  0.50400001928E-02 0. -1.
       -1   -1    0    0    0  501  0.00000000000E+00  0.00000000000E+00 -0.77815983191E+03  0.77815983193E+03  0.50400001928E-02 0.  1.
    10030    2    1    2    0    0  0.00000000000E+00  0.00000000000E+00 -0.33264282472E+03  0.12236768392E+04  0.11775966023E+04 0.  0.
        3    1    3    3  502    0  0.13714867050E+03  0.13595008230E+03 -0.74431657975E+03  0.76895992339E+03  0.10100000352E+00 0.  1.
       -3    1    3    3    0  502 -0.13714867050E+03 -0.13595008230E+03  0.41167375503E+03  0.45471691576E+03  0.10100000352E+00 0. -1.
</event>
<event>
 5   0  0.5108045E-03  0.9758772E+03  0.7818609E-02  0.9335405E-01
        2   -1    0    0  501    0  0.00000000000E+00  0.00000000000E+00  0.89581958915E+03  0.89581958915E+03  0.25500000920E-02 0. -1.
       -2   -1    0    0    0  501  0.00000000000E+00  0.00000000000E+00 -0.26577235942E+03  0.26577235944E+03  0.25500000920E-02 0.  1.
    10030    2    1    2    0    0  0.00000000000E+00  0.00000000000E+00  0.63004722973E+03  0.11615919486E+04  0.97587721735E+03 0.  0.
        3    1    3    3  502    0 -0.44720805600E+03  0.99215085042E+02  0.51507071350E+03  0.68930147871E+03  0.10100000352E+00 0.  1.
       -3    1    3    3    0  502  0.44720805600E+03 -0.99215085042E+02  0.11497651623E+03  0.47229046988E+03  0.10100000352E+00 0. -1.
</event>
<event>
 5   0  0.2792518E-03  0.1191210E+04  0.7818609E-02  0.9120585E-01
        1   -1    0    0  501    0  0.00000000000E+00  0.00000000000E+00  0.70067838330E+03  0.70067838332E+03  0.50400001928E-02 0.  1.
       -1   -1    0    0    0  501  0.00000000000E+00  0.00000000000E+00 -0.50628838006E+03  0.50628838008E+03  0.50400001928E-02 0. -1.
    10030    2    1    2    0    0  0.00000000000E+00  0.00000000000E+00  0.19439000325E+03  0.12069667634E+04  0.11912100128E+04 0.  0.
        2    1    3    3  502    0 -0.38166492879E+03  0.43208414839E+03  0.24877497086E+03  0.62789634120E+03  0.25500000920E-02 0. -1.
       -2    1    3    3    0  502  0.38166492879E+03 -0.43208414839E+03 -0.54384967611E+02  0.57907042220E+03  0.25500000920E-02 0.  1.
</event>
<event>
 5   0  0.2875848E-03  0.9296220E+03  0.7818609E-02  0.9389292E-01
        1   -1    0    0  501    0  0.00000000000E+00  0.00000000000E+00  0.10296212557E+04  0.10296212557E+04  0.50400001928E-02 0.  1.
       -1   -1    0    0    0  501  0.00000000000E+00  0.00000000000E+00 -0.20983372043E+03  0.20983372049E+03  0.50400001928E-02 0. -1.
    10030    2    1    2    0    0  0.00000000000E+00  0.00000000000E+00  0.81978753523E+03  0.12394549762E+04  0.92962198502E+03 0.  0.
        1    1    3    3  502    0 -0.13997907050E+03 -0.32655298174E+03  0.80947649710E+03  0.88401537851E+03  0.50400001928E-02 0.  1.
       -1    1    3    3    0  502  0.13997907050E+03  0.32655298174E+03  0.10311038138E+02  0.35543959767E+03  0.50400001928E-02 0. -1.
</event>
<event>
 5   0  0.5189537E-03  0.1173560E+04  0.7818609E-02  0.9136319E-01
       -2   -1    0    0    0  501  0.00000000000E+00  0.00000000000E+00  0.48750599526E+03  0.48750599526E+03  0.25500000920E-02 0. -1.
        2   -1    0    0  501    0  0.00000000000E+00  0.00000000000E+00 -0.70627021004E+03  0.70627021005E+03  0.25500000920E-02 0.  1.
    10030    2    1    2    0    0  0.00000000000E+00  0.00000000000E+00 -0.21876421479E+03  0.11937762053E+04  0.11735603294E+04 0.  0.
        4    1    3    3  502    0 -0.11492852061E+03 -0.33390469002E+03 -0.58607866217E+03  0.68424463316E+03  0.12699999809E+01 0.  1.
       -4    1    3    3    0  502  0.11492852061E+03  0.33390469002E+03  0.36731444738E+03  0.50953157215E+03  0.12699999809E+01 0. -1.
</event>
<event>
 5   0  0.5189537E-03  0.1216348E+04  0.7818609E-02  0.9098666E-01
        2   -1    0    0  501    0  0.00000000000E+00  0.00000000000E+00  0.70279042340E+03  0.70279042341E+03  0.25500000920E-02 0. -1.
       -2   -1    0    0    0  501  0.00000000000E+00  0.00000000000E+00 -0.52629596877E+03  0.52629596877E+03  0.25500000920E-02 0.  1.
    10030    2    1    2    0    0  0.00000000000E+00  0.00000000000E+00  0.17649445464E+03  0.12290863922E+04  0.12163482507E+04 0.  0.
        4    1    3    3  502    0  0.54321646394E+03  0.69720147499E+02  0.35545773514E+03  0.65291411383E+03  0.12699999809E+01 0. -1.
       -4    1    3    3    0  502 -0.54321646394E+03 -0.69720147499E+02 -0.17896328051E+03  0.57617227835E+03  0.12699999809E+01 0.  1.
</event>
<event>
 5   0  0.5189537E-03  0.1216904E+04  0.7818609E-02  0.9098188E-01
        2   -1    0    0  501    0  0.00000000000E+00  0.00000000000E+00  0.16331132997E+04  0.16331132997E+04  0.25500000920E-02 0.  1.
       -2   -1    0    0    0  501  0.00000000000E+00  0.00000000000E+00 -0.22669190994E+03  0.22669190995E+03  0.25500000920E-02 0. -1.
    10030    2    1    2    0    0  0.00000000000E+00  0.00000000000E+00  0.14064213897E+04  0.18598052096E+04  0.12169035674E+04 0.  0.
        4    1    3    3  502    0 -0.34910874940E+03  0.15356089032E+03  0.14277552574E+04  0.14778174968E+04  0.12699999809E+01 0.  1.
       -4    1    3    3    0  502  0.34910874940E+03 -0.15356089032E+03 -0.21333867654E+02  0.38198771283E+03  0.12699999809E+01 0. -1.
</event>
<event>
 5   0  0.1922125E-03  0.1201007E+04  0.7818609E-02  0.9111976E-01
        3   -1    0    0  501    0  0.00000000000E+00  0.00000000000E+00  0.78622213618E+03  0.78622214267E+03  0.10100000352E+00 0. -1.
       -3   -1    0    0    0  501  0.00000000000E+00  0.00000000000E+00 -0.45865449208E+03  0.45865450320E+03  0.10100000352E+00 0.  1.
    10030    2    1    2    0    0  0.00000000000E+00  0.00000000000E+00  0.32756764410E+03  0.12448766459E+04  0.12010067868E+04 0.  0.
        5    1    3    3  502    0 -0.23699290574E+03 -0.53775527000E+03  0.29172621068E+03  0.65610413791E+03  0.46999998093E+01 0. -1.
       -5    1    3    3    0  502  0.23699290574E+03  0.53775527000E+03  0.35841433417E+02  0.58877250796E+03  0.46999998093E+01 0.  1.
</event>
<event>
 5   0  0.2875848E-03  0.1493335E+04  0.7818609E-02  0.8888897E-01
       -1   -1    0    0    0  501  0.00000000000E+00  0.00000000000E+00  0.60656017093E+03  0.60656017096E+03  0.50400001928E-02 0.  1.
        1   -1    0    0  501    0  0.00000000000E+00  0.00000000000E+00 -0.91913757890E+03  0.91913757891E+03  0.50400001928E-02 0. -1.
    10030    2    1    2    0    0  0.00000000000E+00  0.00000000000E+00 -0.31257740796E+03  0.15256977499E+04  0.14933348546E+04 0.  0.
        1    1    3    3  502    0  0.71411688241E+03 -0.67811387621E+02 -0.36802613777E+03  0.80622859299E+03  0.50400001928E-02 0. -1.
       -1    1    3    3    0  502 -0.71411688241E+03  0.67811387621E+02  0.55448729810E+02  0.71946915688E+03  0.50400001928E-02 0.  1.
</event>
<event>
 5   0  0.5031575E-03  0.1207578E+04  0.7818609E-02  0.9106249E-01
       -2   -1    0    0    0  501  0.00000000000E+00  0.00000000000E+00  0.59354449112E+03  0.59354449113E+03  0.25500000920E-02 0.  1.
        2   -1    0    0  501    0  0.00000000000E+00  0.00000000000E+00 -0.61421033412E+03  0.61421033412E+03  0.25500000920E-02 0. -1.
    10030    2    1    2    0    0  0.00000000000E+00  0.00000000000E+00 -0.20665842997E+02  0.12077548252E+04  0.12075780061E+04 0.  0.
        5    1    3    3  502    0 -0.21489125831E+03  0.39925970172E+03  0.38841394109E+03  0.59705447151E+03  0.46999998093E+01 0.  1.
       -5    1    3    3    0  502  0.21489125831E+03 -0.39925970172E+03 -0.40907978409E+03  0.61070035374E+03  0.46999998093E+01 0. -1.
</event>
<event>
 5   0  0.5108045E-03  0.1202749E+04  0.7818609E-02  0.9110454E-01
        2   -1    0    0  501    0  0.00000000000E+00  0.00000000000E+00  0.13441112953E+04  0.13441112953E+04  0.25500000920E-02 0. -1.
       -2   -1    0    0    0  501  0.00000000000E+00  0.00000000000E+00 -0.26906337230E+03  0.26906337231E+03  0.25500000920E-02 0.  1.
    10030    2    1    2    0    0  0.00000000000E+00  0.00000000000E+00  0.10750479230E+04  0.16131746676E+04  0.12027487150E+04 0.  0.
        3    1    3    3  502    0 -0.27044403080E+03 -0.52723477713E+03  0.67518657316E+03  0.89832811532E+03  0.10100000352E+00 0. -1.
       -3    1    3    3    0  502  0.27044403080E+03  0.52723477713E+03  0.39986134982E+03  0.71484655227E+03  0.10100000352E+00 0.  1.
</event>
<event>
 5   0  0.2792518E-03  0.1250776E+04  0.7818609E-02  0.9069537E-01
        1   -1    0    0  501    0  0.00000000000E+00  0.00000000000E+00  0.19398806969E+04  0.19398806969E+04  0.50400001928E-02 0.  1.
       -1   -1    0    0    0  501  0.00000000000E+00  0.00000000000E+00 -0.20161563092E+03  0.20161563099E+03  0.50400001928E-02 0. -1.
    10030    2    1    2    0    0  0.00000000000E+00  0.00000000000E+00  0.17382650660E+04  0.21414963279E+04  0.12507761921E+04 0.  0.
        2    1    3    3  502    0 -0.23897871076E+03 -0.39072455293E+03  0.14004936226E+03  0.47894709973E+03  0.25500000920E-02 0. -1.
       -2    1    3    3    0  502  0.23897871076E+03  0.39072455293E+03  0.15982157037E+04  0.16625492282E+04  0.25500000920E-02 0.  1.
</event>
<event>
 5   0  0.2875848E-03  0.1192692E+04  0.7818609E-02  0.9119277E-01
        1   -1    0    0  501    0  0.00000000000E+00  0.00000000000E+00  0.13825428476E+04  0.13825428476E+04  0.50400001928E-02 0. -1.
       -1   -1    0    0    0  501  0.00000000000E+00  0.00000000000E+00 -0.25722803886E+03  0.25722803891E+03  0.50400001928E-02 0.  1.
    10030    2    1    2    0    0  0.00000000000E+00  0.00000000000E+00  0.11253148087E+04  0.16397708865E+04  0.11926923918E+04 0.  0.
        1    1    3    3  502    0  0.12646875103E+03  0.37485145138E+03  0.11761552884E+04  0.12409066114E+04  0.50400001928E-02 0. -1.
       -1    1    3    3    0  502 -0.12646875103E+03 -0.37485145138E+03 -0.50840479712E+02  0.39886427515E+03  0.50400001928E-02 0.  1.
</event>
<event>
 5   0  0.2792518E-03  0.1041660E+04  0.7818609E-02  0.9263997E-01
       -1   -1    0    0    0  501  0.00000000000E+00  0.00000000000E+00  0.23288455422E+03  0.23288455427E+03  0.50400001928E-02 0. -1.
        1   -1    0    0  501    0  0.00000000000E+00  0.00000000000E+00 -0.11647992548E+04  0.11647992548E+04  0.50400001928E-02 0.  1.
    10030    2    1    2    0    0  0.00000000000E+00  0.00000000000E+00 -0.93191470059E+03  0.13976838091E+04  0.10416597434E+04 0.  0.
        2    1    3    3  502    0  0.32769961532E+02  0.63600117258E+02 -0.11581741515E+04  0.11603819245E+04  0.25500000920E-02 0.  1.
       -2    1    3    3    0  502 -0.32769961532E+02 -0.63600117258E+02  0.22625945096E+03  0.23730188463E+03  0.25500000920E-02 0. -1.
</event>
<event>
 5   0  0.5108045E-03  0.1182533E+04  0.7818609E-02  0.9128284E-01
        2   -1    0    0  501    0  0.00000000000E+00  0.00000000000E+00  0.14583064991E+04  0.14583064991E+04  0.25500000920E-02 0. -1.
       -2   -1    0    0    0  501  0.00000000000E+00  0.00000000000E+00 -0.23972752523E+03  0.23972752524E+03  0.25500000920E-02 0.  1.
    10030    2    1    2    0    0  0.00000000000E+00  0.00000000000E+00  0.12185789738E+04  0.16980340243E+04  0.11825332267E+04 0.  0.
        3    1    3    3  502    0  0.88331224286E+02  0.40661247350E+03  0.60965009138E+01  0.41614094525E+03  0.10100000352E+00 0.  1.
       -3    1    3    3    0  502 -0.88331224286E+02 -0.40661247350E+03  0.12124824729E+04  0.12818930791E+04  0.10100000352E+00 0. -1.
</event>
<event>
 5   0  0.2792518E-03  0.1510616E+04  0.7818609E-02  0.8877424E-01
        1   -1    0    0  501    0  0.00000000000E+00  0.00000000000E+00  0.17397771856E+04  0.17397771856E+04  0.50400001928E-02 0.  1.
       -1   -1    0    0    0  501  0.00000000000E+00  0.00000000000E+00 -0.32790986652E+03  0.32790986656E+03  0.50400001928E-02 0. -1.
    10030    2    1    2    0    0  0.00000000000E+00  0.00000000000E+00  0.14118673190E+04  0.20676870521E+04  0.15106159071E+04 0.  0.
        2    1    3    3  502    0 -0.28931254591E+03  0.48711658750E+03  0.13896422946E+04  0.15006965136E+04  0.25500000920E-02 0.  1.
       -2    1    3    3    0  502  0.28931254591E+03 -0.48711658750E+03  0.22225024447E+02  0.56699053851E+03  0.25500000920E-02 0. -1.
</event>
<event>
 5   0  0.5189537E-03  0.1201768E+04  0.7818609E-02  0.9111310E-01
        2   -1    0    0  501    0  0.00000000000E+00  0.00000000000E+00  0.90453680849E+03  0.90453680850E+03  0.25500000920E-02 0. -1.
       -2   -1    0    0    0  501  0.00000000000E+00  0.00000000000E+00 -0.39916758272E+03  0.39916758273E+03  0.25500000920E-02 0.  1.
    10030    2    1    2    0    0  0.00000000000E+00  0.00000000000E+00  0.50536922577E+03  0.13037043912E+04  0.12017683160E+04 0.  0.
        4    1    3    3  502    0 -0.32972016596E+03  0.79478778558E+02 -0.28539997549E+03  0.44326856756E+03  0.12699999809E+01 0.  1.
       -4    1    3    3    0  502  0.32972016596E+03 -0.79478778558E+02  0.79076920126E+03  0.86043582366E+03  0.12699999809E+01 0. -1.
</event>
<event>
 5   0  0.2930868E-03  0.1182311E+04  0.7818609E-02  0.9128482E-01
       -1   -1    0    0    0  501  0.00000000000E+00  0.00000000000E+00  0.56405208767E+03  0.56405208769E+03  0.50400001928E-02 0. -1.
        1   -1    0    0  501    0  0.00000000000E+00  0.00000000000E+00 -0.61956085168E+03  0.61956085170E+03  0.50400001928E-02 0.  1.
    10030    2    1    2    0    0  0.00000000000E+00  0.00000000000E+00 -0.55508764012E+02  0.11836129394E+04  0.11823106053E+04 0.  0.
        3    1    3    3  502    0 -0.30474705505E+03 -0.50563600839E+03  0.27100616077E+01  0.59037775634E+03  0.10100000352E+00 0.  1.
       -3    1    3    3    0  502  0.30474705505E+03  0.50563600839E+03 -0.58218825620E+02  0.59323518305E+03  0.10100000352E+00 0. -1.
</event>
<event>
 5   0  0.2875848E-03  0.1193403E+04  0.7818609E-02  0.9118651E-01
        1   -1    0    0  501    0  0.00000000000E+00  0.00000000000E+00  0.12783387235E+04  0.12783387235E+04  0.50400001928E-02 0. -1.
       -1   -1    0    0    0  501  0.00000000000E+00  0.00000000000E+00 -0.27852762270E+03  0.27852762275E+03  0.50400001928E-02 0.  1.
    10030    2    1    2    0    0  0.00000000000E+00  0.00000000000E+00  0.99981110077E+03  0.15568663462E+04  0.11934029423E+04 0.  0.
        1    1    3    3  502    0  0.33974331714E+03  0.29105407088E+03 -0.15213594823E+02  0.44762645946E+03  0.50400001928E-02 0.  1.
       -1    1    3    3    0  502 -0.33974331714E+03 -0.29105407088E+03  0.10150246956E+04  0.11092398868E+04  0.50400001928E-02 0. -1.
</event>
<event>
 5   0  0.5189537E-03  0.1192157E+04  0.7818609E-02  0.9119750E-01
       -2   -1    0    0    0  501  0.00000000000E+00  0.00000000000E+00  0.25137948275E+03  0.25137948277E+03  0.25500000920E-02 0.  1.
        2   -1    0    0  501    0  0.00000000000E+00  0.00000000000E+00 -0.14134385364E+04  0.14134385364E+04  0.25500000920E-02 0. -1.
    10030    2    1    2    0    0  0.00000000000E+00  0.00000000000E+00 -0.11620590536E+04  0.16648180192E+04  0.11921567820E+04 0.  0.
        4    1    3    3  502    0  0.47897181519E+03  0.32260083821E+03 -0.78732323895E+03  0.97640401272E+03  0.12699999809E+01 0. -1.
       -4    1    3    3    0  502 -0.47897181519E+03 -0.32260083821E+03 -0.37473581469E+03  0.68841400645E+03  0.12699999809E+01 0.  1.
</event>
<event>
 5   0  0.5031575E-03  0.1181726E+04  0.7818609E-02  0.9129004E-01
        2   -1    0    0  501    0  0.00000000000E+00  0.00000000000E+00  0.51882019632E+03  0.51882019633E+03  0.25500000920E-02 0.  1.
       -2   -1    0    0    0  501  0.00000000000E+00  0.00000000000E+00 -0.67290958293E+03  0.67290958293E+03  0.25500000920E-02 0. -1.
    10030    2    1    2    0    0  0.00000000000E+00  0.00000000000E+00 -0.15408938661E+03  0.11917297793E+04  0.11817259952E+04 0.  0.
        5    1    3    3  502    0  0.55107555363E+03  0.46565661402E+02 -0.28675789289E+03  0.62298058217E+03  0.46999998093E+01 0. -1.
       -5    1    3    3    0  502 -0.55107555363E+03 -0.46565661402E+02  0.13266850629E+03  0.56874919709E+03  0.46999998093E+01 0.  1.
</event>
<event>
 5   0  0.2792518E-03  0.1109664E+04  0.7818609E-02  0.9195824E-01
       -1   -1    0    0    0  501  0.00000000000E+00  0.00000000000E+00  0.55820869818E+03  0.55820869820E+03  0.50400001928E-02 0. -1.
        1   -1    0    0  501    0  0.00000000000E+00  0.00000000000E+00 -0.55147524322E+03  0.55147524325E+03  0.50400001928E-02 0.  1.
    10030    2    1    2    0    0  0.00000000000E+00  0.00000000000E+00  0.67334549548E+01  0.11096839414E+04  0.11096635123E+04 0.  0.
        2    1    3    3  502    0 -0.53078284542E+03 -0.11089635055E+03  0.12088420086E+03  0.55555505540E+03  0.25500000920E-02 0.  1.
       -2    1    3    3    0  502  0.53078284542E+03  0.11089635055E+03 -0.11415074590E+03  0.55412888605E+03  0.25500000920E-02 0. -1.
</event>
<event>
 5   0  0.2792518E-03  0.1189169E+04  0.7818609E-02  0.9122390E-01
        1   -1    0    0  501    0  0.00000000000E+00  0.00000000000E+00  0.10850162152E+04  0.10850162152E+04  0.50400001928E-02 0. -1.
       -1   -1    0    0    0  501  0.00000000000E+00  0.00000000000E+00 -0.32582990799E+03  0.32582990803E+03  0.50400001928E-02 0.  1.
    10030    2    1    2    0    0  0.00000000000E+00  0.00000000000E+00  0.75918630719E+03  0.14108461232E+04  0.11891690100E+04 0.  0.
        2    1    3    3  502    0  0.50547115864E+03 -0.64019096442E+02  0.15978820696E+02  0.50975960967E+03  0.25500000920E-02 0.  1.
       -2    1    3    3    0  502 -0.50547115864E+03  0.64019096442E+02  0.74320748650E+03  0.90108651356E+03  0.25500000920E-02 0. -1.
</event>
<event>
 5   0  0.2875848E-03  0.1112944E+04  0.7818609E-02  0.9192667E-01
       -1   -1    0    0    0  501  0.00000000000E+00  0.00000000000E+00  0.41842540244E+03  0.41842540247E+03  0.50400001928E-02 0.  1.
        1   -1    0    0  501    0  0.00000000000E+00  0.00000000000E+00 -0.74006236938E+03  0.74006236940E+03  0.50400001928E-02 0. -1.
    10030    2    1    2    0    0  0.00000000000E+00  0.00000000000E+00 -0.32163696694E+03  0.11584877719E+04  0.11129436549E+04 0.  0.
        1    1    3    3  502    0 -0.13224964417E+03  0.19868123996E+02 -0.72308626178E+03  0.73534920462E+03  0.50400001928E-02 0. -1.
       -1    1    3    3    0  502  0.13224964417E+03 -0.19868123996E+02  0.40144929485E+03  0.42313856725E+03  0.50400001928E-02 0.  1.
</event>
<event>
 5   0  0.2926844E-03  0.1203673E+04  0.7818609E-02  0.9109647E-01
        1   -1    0    0  501    0  0.00000000000E+00  0.00000000000E+00  0.10017928189E+04  0.10017928189E+04  0.50400001928E-02 0.  1.
       -1   -1    0    0    0  501  0.00000000000E+00  0.00000000000E+00 -0.36155906134E+03  0.36155906137E+03  0.50400001928E-02 0. -1.
    10030    2    1    2    0    0  0.00000000000E+00  0.00000000000E+00  0.64023375759E+03  0.13633518803E+04  0.12036731638E+04 0.  0.
        5    1    3    3  502    0  0.18488326041E+03  0.51950704738E+03  0.59316956469E+03  0.80990222541E+03  0.46999998093E+01 0. -1.
       -5    1    3    3    0  502 -0.18488326041E+03 -0.51950704738E+03  0.47064192897E+02  0.55344965490E+03  0.46999998093E+01 0.  1.
</event>
<event>
 5   0  0.2930868E-03  0.1212346E+04  0.7818609E-02  0.9102118E-01
       -1   -1    0    0    0  501  0.00000000000E+00  0.00000000000E+00  0.61381666168E+03  0.61381666170E+03  0.50400001928E-02 0.  1.
        1   -1    0    0  501    0  0.00000000000E+00  0.00000000000E+00 -0.59862501459E+03  0.59862501461E+03  0.50400001928E-02 0. -1.
    10030    2    1    2    0    0  0.00000000000E+00  0.00000000000E+00  0.15191647091E+02  0.12124416763E+04  0.12123464984E+04 0.  0.
        3    1    3    3  502    0  0.30021103431E+03  0.28079892787E+03  0.45313197125E+03  0.61180331528E+03  0.10100000352E+00 0.  1.
       -3    1    3    3    0  502 -0.30021103431E+03 -0.28079892787E+03 -0.43794032416E+03  0.60063836103E+03  0.10100000352E+00 0. -1.
</event>
<event>
 5   0  0.5467554E-03  0.1188576E+04  0.7818609E-02  0.9122915E-01
       -2   -1    0    0    0  501  0.00000000000E+00  0.00000000000E+00  0.80489954669E+03  0.80489954670E+03  0.25500000920E-02 0. -1.
        2   -1    0    0  501    0  0.00000000000E+00  0.00000000000E+00 -0.43878580895E+03  0.43878580896E+03  0.25500000920E-02 0.  1.
    10030    2    1    2    0    0  0.00000000000E+00  0.00000000000E+00  0.36611373774E+03  0.12436853557E+04  0.11885764573E+04 0.  0.
        1    1    3    3  502    0 -0.24045336364E+03  0.43346641915E+03  0.52607893215E+03  0.72282086266E+03  0.50400001928E-02 0. -1.
       -1    1    3    3    0  502  0.24045336364E+03 -0.43346641915E+03 -0.15996519442E+03  0.52086449300E+03  0.50400001928E-02 0.  1.
</event>
<event>
 5   0  0.2926844E-03  0.1205355E+04  0.7818609E-02  0.9108182E-01
       -1   -1    0    0    0  501  0.00000000000E+00  0.00000000000E+00  0.74686505764E+03  0.74686505766E+03  0.50400001928E-02 0. -1.
        1   -1    0    0  501    0  0.00000000000E+00  0.00000000000E+00 -0.48632673202E+03  0.48632673205E+03  0.50400001928E-02 0.  1.
    10030    2    1    2    0    0  0.00000000000E+00  0.00000000000E+00  0.26053832562E+03  0.12331917897E+04  0.12053554542E+04 0.  0.
        5    1    3    3  502    0  0.10973337540E+03  0.43419084169E+03  0.54286308939E+03  0.70376524814E+03  0.46999998093E+01 0. -1.
       -5    1    3    3    0  502 -0.10973337540E+03 -0.43419084169E+03 -0.28232476376E+03  0.52942654156E+03  0.46999998093E+01 0.  1.
</event>
<event>
 5   0  0.2875848E-03  0.1186056E+04  0.7818609E-02  0.9125150E-01
       -1   -1    0    0    0  501  0.00000000000E+00  0.00000000000E+00  0.26444480162E+03  0.26444480167E+03  0.50400001928E-02 0.  1.
        1   -1    0    0  501    0  0.00000000000E+00  0.00000000000E+00 -0.13298884376E+04  0.13298884376E+04  0.50400001928E-02 0. -1.
    10030    2    1    2    0    0  0.00000000000E+00  0.00000000000E+00 -0.10654436360E+04  0.15943332393E+04  0.11860557898E+04 0.  0.
        1    1    3    3  502    0  0.21610253535E+03  0.55218418457E+03 -0.54431690157E+03  0.80491525569E+03  0.50400001928E-02 0.  1.
       -1    1    3    3    0  502 -0.21610253535E+03 -0.55218418457E+03 -0.52112673440E+03  0.78941798359E+03  0.50400001928E-02 0. -1.
</event>
<event>
 5   0  0.2930868E-03  0.1194289E+04  0.7818609E-02  0.9117870E-01
       -1   -1    0    0    0  501  0.00000000000E+00  0.00000000000E+00  0.41523866694E+03  0.41523866697E+03  0.50400001928E-02 0.  1.
        1   -1    0    0  501    0  0.00000000000E+00  0.00000000000E+00 -0.85873881355E+03  0.85873881357E+03  0.50400001928E-02 0. -1.
    10030    2    1    2    0    0  0.00000000000E+00  0.00000000000E+00 -0.44350014661E+03  0.12739774805E+04  0.11942890106E+04 0.  0.
        3    1    3    3  502    0 -0.75607700379E+02 -0.16034533745E+03 -0.83002110167E+03  0.84874153369E+03  0.10100000352E+00 0. -1.
       -3    1    3    3    0  502  0.75607700379E+02  0.16034533745E+03  0.38652095505E+03  0.42523594685E+03  0.10100000352E+00 0.  1.
</event>
<event>
 5   0  0.2938349E-03  0.1186308E+04  0.7818609E-02  0.9124926E-01
       -1   -1    0    0    0  501  0.00000000000E+00  0.00000000000E+00  0.25775213228E+03  0.25775213233E+03  0.50400001928E-02 0. -1.
        1   -1    0    0  501    0  0.00000000000E+00  0.00000000000E+00 -0.13650005683E+04  0.13650005683E+04  0.50400001928E-02 0.  1.
    10030    2    1    2    0    0  0.00000000000E+00  0.00000000000E+00 -0.11072484360E+04  0.16227527007E+04  0.11863082350E+04 0.  0.
        4    1    3    3  502    0  0.42578347507E+03 -0.36746746618E+03 -0.29586902121E+03  0.63550294803E+03  0.12699999809E+01 0. -1.
       -4    1    3    3    0  502 -0.42578347507E+03  0.36746746618E+03 -0.81137941484E+03  0.98724975263E+03  0.12699999809E+01 0.  1.
</event>
<event>
 5   0  0.2930868E-03  0.1213927E+04  0.7818609E-02  0.9100753E-01
        1   -1    0    0  501    0  0.00000000000E+00  0.00000000000E+00  0.53595825440E+03  0.53595825442E+03  0.50400001928E-02 0. -1.
       -1   -1    0    0    0  501  0.00000000000E+00  0.00000000000E+00 -0.68737610133E+03  0.68737610135E+03  0.50400001928E-02 0.  1.
    10030    2    1    2    0    0  0.00000000000E+00  0.00000000000E+00 -0.15141784693E+03  0.12233343558E+04  0.12139273379E+04 0.  0.
        3    1    3    3  502    0 -0.23215407704E+03 -0.21878788820E+02 -0.64043588963E+03  0.68156609057E+03  0.10100000352E+00 0.  1.
       -3    1    3    3    0  502  0.23215407704E+03  0.21878788820E+02  0.48901804270E+03  0.54176826520E+03  0.10100000352E+00 0. -1.
</event>
<event>
 5   0  0.5467554E-03  0.1218438E+04  0.7818609E-02  0.9096869E-01
       -2   -1    0    0    0  501  0.00000000000E+00  0.00000000000E+00  0.31312071857E+03  0.31312071858E+03  0.25500000920E-02 0.  1.
        2   -1    0    0  501    0  0.00000000000E+00  0.00000000000E+00 -0.11853189658E+04  0.11853189658E+04  0.25500000920E-02 0. -1.
    10030    2    1    2    0    0  0.00000000000E+00  0.00000000000E+00 -0.87219824724E+03  0.14984396844E+04  0.12184382238E+04 0.  0.
        1    1    3    3  502    0  0.10490879850E+03  0.45394747549E+02 -0.11720123781E+04  0.11775735874E+04  0.50400001928E-02 0. -1.
       -1    1    3    3    0  502 -0.10490879850E+03 -0.45394747549E+02  0.29981413090E+03  0.32086609703E+03  0.50400001928E-02 0.  1.
</event>
<event>
 5   0  0.5031575E-03  0.1195198E+04  0.7818609E-02  0.9117070E-01
       -2   -1    0    0    0  501  0.00000000000E+00  0.00000000000E+00  0.32240348387E+03  0.32240348388E+03  0.25500000920E-02 0.  1.
        2   -1    0    0  501    0  0.00000000000E+00  0.00000000000E+00 -0.11076951495E+04  0.11076951495E+04  0.25500000920E-02 0. -1.
    10030    2    1    2    0    0  0.00000000000E+00  0.00000000000E+00 -0.78529166564E+03  0.14300986334E+04  0.11951983522E+04 0.  0.
        5    1    3    3  502    0 -0.20298201621E+03  0.91364267293E+02 -0.10562152823E+04  0.10794266723E+04  0.46999998093E+01 0. -1.
       -5    1    3    3    0  502  0.20298201621E+03 -0.91364267293E+02  0.27092361668E+03  0.35067196112E+03  0.46999998093E+01 0.  1.
</event>
<event>
 5   0  0.2930868E-03  0.9962457E+03  0.7818609E-02  0.9312672E-01
       -1   -1    0    0    0  501  0.00000000000E+00  0.00000000000E+00  0.32540375516E+03  0.32540375520E+03  0.50400001928E-02 0. -1.
        1   -1    0    0  501    0  0.00000000000E+00  0.00000000000E+00 -0.76251851905E+03  0.76251851906E+03  0.50400001928E-02 0.  1.
    10030    2    1    2    0    0  0.00000000000E+00  0.00000000000E+00 -0.43711476389E+03  0.10879222743E+04  0.99624573174E+03 0.  0.
        3    1    3    3  502    0  0.48004497389E+03  0.13159335400E+03 -0.23946016486E+03  0.55235963694E+03  0.10100000352E+00 0. -1.
       -3    1    3    3    0  502 -0.48004497389E+03 -0.13159335400E+03 -0.19765459903E+03  0.53556263732E+03  0.10100000352E+00 0.  1.
</event>
<event>
 5   0  0.1922125E-03  0.1210512E+04  0.7818609E-02  0.9103705E-01
        4   -1    0    0  501    0  0.00000000000E+00  0.00000000000E+00  0.11780450567E+04  0.11780457412E+04  0.12699999809E+01 0. -1.
       -4   -1    0    0    0  501  0.00000000000E+00  0.00000000000E+00 -0.31096611584E+03  0.31096870920E+03  0.12699999809E+01 0.  1.
    10030    2    1    2    0    0  0.00000000000E+00  0.00000000000E+00  0.86707894083E+03  0.14890144504E+04  0.12105115216E+04 0.  0.
        3    1    3    3  502    0 -0.27390512945E+03  0.92816689804E+02 -0.22047820389E+03  0.36366138980E+03  0.10100000352E+00 0.  1.
       -3    1    3    3    0  502  0.27390512945E+03 -0.92816689804E+02  0.10875571447E+04  0.11253530606E+04  0.10100000352E+00 0. -1.
</event>
<event>
 5   0  0.2938349E-03  0.1097204E+04  0.7818609E-02  0.9207921E-01
       -1   -1    0    0    0  501  0.00000000000E+00  0.00000000000E+00  0.56023866710E+03  0.56023866712E+03  0.50400001928E-02 0.  1.
        1   -1    0    0  501    0  0.00000000000E+00  0.00000000000E+00 -0.53720697974E+03  0.53720697976E+03  0.50400001928E-02 0. -1.
    10030    2    1    2    0    0  0.00000000000E+00  0.00000000000E+00  0.23031687361E+02  0.10974456469E+04  0.10972039415E+04 0.  0.
        4    1    3    3  502    0 -0.16943592420E+03  0.17966894750E+03 -0.47846250920E+03  0.53843982832E+03  0.12699999809E+01 0. -1.
       -4    1    3    3    0  502  0.16943592420E+03 -0.17966894750E+03  0.50149419656E+03  0.55900581857E+03  0.12699999809E+01 0.  1.
</event>
<event>
 5   0  0.2792518E-03  0.1202478E+04  0.7818609E-02  0.9110690E-01
       -1   -1    0    0    0  501  0.00000000000E+00  0.00000000000E+00  0.72060211491E+03  0.72060211493E+03  0.50400001928E-02 0. -1.
        1   -1    0    0  501    0  0.00000000000E+00  0.00000000000E+00 -0.50164786434E+03  0.50164786437E+03  0.50400001928E-02 0.  1.
    10030    2    1    2    0    0  0.00000000000E+00  0.00000000000E+00  0.21895425057E+03  0.12222499793E+04  0.12024782942E+04 0.  0.
        2    1    3    3  502    0 -0.22902814977E+03 -0.18102701022E+03  0.64372747492E+03  0.70683076743E+03  0.25500000920E-02 0. -1.
       -2    1    3    3    0  502  0.22902814977E+03  0.18102701022E+03 -0.42477322436E+03  0.51541921186E+03  0.25500000920E-02 0.  1.
</event>
<event>
 5   0  0.2875848E-03  0.1130511E+04  0.7818609E-02  0.9175954E-01
       -1   -1    0    0    0  501  0.00000000000E+00  0.00000000000E+00  0.20081268962E+03  0.20081268969E+03  0.50400001928E-02 0. -1.
        1   -1    0    0  501    0  0.00000000000E+00  0.00000000000E+00 -0.15911024849E+04  0.15911024849E+04  0.50400001928E-02 0.  1.
    10030    2    1    2    0    0  0.00000000000E+00  0.00000000000E+00 -0.13902897952E+04  0.17919151746E+04  0.11305106271E+04 0.  0.
        1    1    3    3  502    0  0.30135975774E+03  0.96225182979E+01  0.62706437607E+02  0.30796492298E+03  0.50400001928E-02 0. -1.
       -1    1    3    3    0  502 -0.30135975774E+03 -0.96225182979E+01 -0.14529962329E+04  0.14839502516E+04  0.50400001928E-02 0.  1.
</event>
<event>
 5   0  0.2926844E-03  0.1178761E+04  0.7818609E-02  0.9131653E-01
        1   -1    0    0  501    0  0.00000000000E+00  0.00000000000E+00  0.90591473966E+03  0.90591473967E+03  0.50400001928E-02 0. -1.
       -1   -1    0    0    0  501  0.00000000000E+00  0.00000000000E+00 -0.38344620262E+03  0.38344620265E+03  0.50400001928E-02 0.  1.
    10030    2    1    2    0    0  0.00000000000E+00  0.00000000000E+00  0.52246853704E+03  0.12893609423E+04  0.11787613276E+04 0.  0.
        5    1    3    3  502    0  0.32812945271E+02  0.15979639736E+02  0.90465695466E+03  0.90540506619E+03  0.46999998093E+01 0. -1.
       -5    1    3    3    0  502 -0.32812945271E+02 -0.15979639736E+02 -0.38218841762E+03  0.38395587614E+03  0.46999998093E+01 0.  1.
</event>
<event>
 5   0  0.5031575E-03  0.1167249E+04  0.7818609E-02  0.9142017E-01
       -2   -1    0    0    0  501  0.00000000000E+00  0.00000000000E+00  0.44160569959E+03  0.44160569959E+03  0.25500000920E-02 0. -1.
        2   -1    0    0  501    0  0.00000000000E+00  0.00000000000E+00 -0.77131578629E+03  0.77131578630E+03  0.25500000920E-02 0.  1.
    10030    2    1    2    0    0  0.00000000000E+00  0.00000000000E+00 -0.32971008671E+03  0.12129214859E+04  0.11672488122E+04 0.  0.
        5    1    3    3  502    0  0.34822359173E+03 -0.24894436745E+03 -0.57706617860E+03  0.71851265292E+03  0.46999998093E+01 0.  1.
       -5    1    3    3    0  502 -0.34822359173E+03  0.24894436745E+03  0.24735609190E+03  0.49440883297E+03  0.46999998093E+01 0. -1.
</event>
<event>
 5   0  0.5189537E-03  0.1089208E+04  0.7818609E-02  0.9215775E-01
        2   -1    0    0  501    0  0.00000000000E+00  0.00000000000E+00  0.17412226506E+03  0.17412226508E+03  0.25500000920E-02 0. -1.
       -2   -1    0    0    0  501  0.00000000000E+00  0.00000000000E+00 -0.17033636657E+04  0.17033636657E+04  0.25500000920E-02 0.  1.
    10030    2    1    2    0    0  0.00000000000E+00  0.00000000000E+00 -0.15292414007E+04  0.18774859308E+04  0.10892080421E+04 0.  0.
        4    1    3    3  502    0  0.19773156866E+02 -0.20779947949E+03 -0.16316695312E+04  0.16449676815E+04  0.12699999809E+01 0.  1.
       -4    1    3    3    0  502 -0.19773156866E+02  0.20779947949E+03  0.10242813054E+03  0.23251824925E+03  0.12699999809E+01 0. -1.
</event>
<event>
 5   0  0.2926844E-03  0.1216127E+04  0.7818609E-02  0.9098857E-01
       -1   -1    0    0    0  501  0.00000000000E+00  0.00000000000E+00  0.10310047426E+04  0.10310047426E+04  0.50400001928E-02 0. -1.
        1   -1    0    0  501    0  0.00000000000E+00  0.00000000000E+00 -0.35862224547E+03  0.35862224550E+03  0.50400001928E-02 0.  1.
    10030    2    1    2    0    0  0.00000000000E+00  0.00000000000E+00  0.67238249717E+03  0.13896269881E+04  0.12161270261E+04 0.  0.
        5    1    3    3  502    0 -0.15978637039E+03  0.57396791811E+03  0.19742298778E+03  0.62766932479E+03  0.46999998093E+01 0.  1.
       -5    1    3    3    0  502  0.15978637039E+03 -0.57396791811E+03  0.47495950939E+03  0.76195766335E+03  0.46999998093E+01 0. -1.
</event>
<event>
 5   0  0.1922125E-03  0.1164986E+04  0.7818609E-02  0.9144069E-01
       -3   -1    0    0    0  501  0.00000000000E+00  0.00000000000E+00  0.65280643413E+03  0.65280644194E+03  0.10100000352E+00 0.  1.
        3   -1    0    0  501    0  0.00000000000E+00  0.00000000000E+00 -0.51975257754E+03  0.51975258735E+03  0.10100000352E+00 0. -1.
    10030    2    1    2    0    0  0.00000000000E+00  0.00000000000E+00  0.13305385659E+03  0.11725590293E+04  0.11649855572E+04 0.  0.
        1    1    3    3  502    0  0.21557357429E+03  0.53045371094E+03 -0.41148592753E+02  0.57406124420E+03  0.50400001928E-02 0. -1.
       -1    1    3    3    0  502 -0.21557357429E+03 -0.53045371094E+03  0.17420244934E+03  0.59849778509E+03  0.50400001928E-02 0.  1.
</event>
<event>
 5   0  0.5108045E-03  0.1180489E+04  0.7818609E-02  0.9130108E-01
        2   -1    0    0  501    0  0.00000000000E+00  0.00000000000E+00  0.17586972700E+04  0.17586972700E+04  0.25500000920E-02 0. -1.
       -2   -1    0    0    0  501  0.00000000000E+00  0.00000000000E+00 -0.19809469282E+03  0.19809469284E+03  0.25500000920E-02 0.  1.
    10030    2    1    2    0    0  0.00000000000E+00  0.00000000000E+00  0.15606025772E+04  0.19567919628E+04  0.11804890435E+04 0.  0.
        3    1    3    3  502    0  0.28965501745E+02 -0.28874469061E+03 -0.71678806032E+02  0.29891530253E+03  0.10100000352E+00 0.  1.
       -3    1    3    3    0  502 -0.28965501745E+02  0.28874469061E+03  0.16322813832E+04  0.16578766603E+04  0.10100000352E+00 0. -1.
</event>
<event>
 5   0  0.5189537E-03  0.1209099E+04  0.7818609E-02  0.9104929E-01
       -2   -1    0    0    0  501  0.00000000000E+00  0.00000000000E+00  0.68328135932E+03  0.68328135932E+03  0.25500000920E-02 0.  1.
        2   -1    0    0  501    0  0.00000000000E+00  0.00000000000E+00 -0.53488953549E+03  0.53488953549E+03  0.25500000920E-02 0. -1.
    10030    2    1    2    0    0  0.00000000000E+00  0.00000000000E+00  0.14839182383E+03  0.12181708948E+04  0.12090989189E+04 0.  0.
        4    1    3    3  502    0 -0.20344589998E+03  0.34008300471E+03  0.53416466010E+03  0.66511666744E+03  0.12699999809E+01 0.  1.
       -4    1    3    3    0  502  0.20344589998E+03 -0.34008300471E+03 -0.38577283627E+03  0.55305422737E+03  0.12699999809E+01 0. -1.
</event>
<event>
 5   0  0.5189537E-03  0.1051087E+04  0.7818609E-02  0.9254222E-01
        2   -1    0    0  501    0  0.00000000000E+00  0.00000000000E+00  0.12370264482E+04  0.12370264482E+04  0.25500000920E-02 0.  1.
       -2   -1    0    0    0  501  0.00000000000E+00  0.00000000000E+00 -0.22327430335E+03  0.22327430336E+03  0.25500000920E-02 0. -1.
    10030    2    1    2    0    0  0.00000000000E+00  0.00000000000E+00  0.10137521449E+04  0.14603007516E+04  0.10510874720E+04 0.  0.
        4    1    3    3  502    0  0.25910199464E+03  0.31911559328E+03  0.96181542132E+03  0.10459728118E+04  0.12699999809E+01 0.  1.
       -4    1    3    3    0  502 -0.25910199464E+03 -0.31911559328E+03  0.51936723549E+02  0.41432793975E+03  0.12699999809E+01 0. -1.
</event>
<event>
 5   0  0.2875848E-03  0.1228935E+04  0.7818609E-02  0.9087900E-01
        1   -1    0    0  501    0  0.00000000000E+00  0.00000000000E+00  0.62336254976E+03  0.62336254978E+03  0.50400001928E-02 0. -1.
       -1   -1    0    0    0  501  0.00000000000E+00  0.00000000000E+00 -0.60569911108E+03  0.60569911110E+03  0.50400001928E-02 0.  1.
    10030    2    1    2    0    0  0.00000000000E+00  0.00000000000E+00  0.17663438684E+02  0.12290616609E+04  0.12289347294E+04 0.  0.
        1    1    3    3  502    0  0.46505522688E+03  0.28186457598E+03  0.29494891033E+03  0.61864275877E+03  0.50400001928E-02 0. -1.
       -1    1    3    3    0  502 -0.46505522688E+03 -0.28186457598E+03 -0.27728547165E+03  0.61041890211E+03  0.50400001928E-02 0.  1.
</event>
<event>
 5   0  0.2930868E-03  0.1131919E+04  0.7818609E-02  0.9174628E-01
        1   -1    0    0  501    0  0.00000000000E+00  0.00000000000E+00  0.15674548280E+04  0.15674548280E+04  0.50400001928E-02 0.  1.
       -1   -1    0    0    0  501  0.00000000000E+00  0.00000000000E+00 -0.20435050875E+03  0.20435050881E+03  0.50400001928E-02 0. -1.
    10030    2    1    2    0    0  0.00000000000E+00  0.00000000000E+00  0.13631043192E+04  0.17718053368E+04  0.11319190635E+04 0.  0.
        3    1    3    3  502    0  0.24151339358E+03  0.13081856806E+03  0.14561327616E+04  0.14818113398E+04  0.10100000352E+00 0.  1.
       -3    1    3    3    0  502 -0.24151339358E+03 -0.13081856806E+03 -0.93028442368E+02  0.28999399704E+03  0.10100000352E+00 0. -1.
</event>
<event>
 5   0  0.2930868E-03  0.1205467E+04  0.7818609E-02  0.9108084E-01
        1   -1    0    0  501    0  0.00000000000E+00  0.00000000000E+00  0.62538839195E+03  0.62538839197E+03  0.50400001928E-02 0. -1.
       -1   -1    0    0    0  501  0.00000000000E+00  0.00000000000E+00 -0.58089974729E+03  0.58089974731E+03  0.50400001928E-02 0.  1.
    10030    2    1    2    0    0  0.00000000000E+00  0.00000000000E+00  0.44488644658E+02  0.12062881393E+04  0.12054674759E+04 0.  0.
        3    1    3    3  502    0  0.11458436579E+03 -0.66571722098E+02 -0.56614115362E+03  0.58144405328E+03  0.10100000352E+00 0.  1.
       -3    1    3    3    0  502 -0.11458436579E+03  0.66571722098E+02  0.61062979828E+03  0.62484408600E+03  0.10100000352E+00 0. -1.
</event>
<event>
 5   0  0.5467554E-03  0.1215609E+04  0.7818609E-02  0.9099303E-01
       -2   -1    0    0    0  501  0.00000000000E+00  0.00000000000E+00  0.23300521289E+03  0.23300521290E+03  0.25500000920E-02 0. -1.
        2   -1    0    0  501    0  0.00000000000E+00  0.00000000000E+00 -0.15854845252E+04  0.15854845252E+04  0.25500000920E-02 0.  1.
    10030    2    1    2    0    0  0.00000000000E+00  0.00000000000E+00 -0.13524793123E+04  0.18184897381E+04  0.12156087517E+04 0.  0.
        1    1    3    3  502    0  0.50183582884E+03 -0.34254795963E+03 -0.65268827611E+03  0.89172882063E+03  0.50400001928E-02 0. -1.
       -1    1    3    3    0  502 -0.50183582884E+03  0.34254795963E+03 -0.69979103616E+03  0.92676091742E+03  0.50400001928E-02 0.  1.
</event>
<event>
 5   0  0.2938349E-03  0.1207645E+04  0.7818609E-02  0.9106191E-01
       -1   -1    0    0    0  501  0.00000000000E+00  0.00000000000E+00  0.24050814963E+03  0.24050814968E+03  0.50400001928E-02 0. -1.
        1   -1    0    0  501    0  0.00000000000E+00  0.00000000000E+00 -0.15159648858E+04  0.15159648858E+04  0.50400001928E-02 0.  1.
    10030    2    1    2    0    0  0.00000000000E+00  0.00000000000E+00 -0.12754567362E+04  0.17564730355E+04  0.12076454938E+04 0.  0.
        4    1    3    3  502    0  0.24098111833E+03 -0.12871793831E+03 -0.14209255835E+04  0.14469524296E+04  0.12699999809E+01 0.  1.
       -4    1    3    3    0  502 -0.24098111833E+03  0.12871793831E+03  0.14546884726E+03  0.30952060587E+03  0.12699999809E+01 0. -1.
</event>
<event>
 5   0  0.5108045E-03  0.1026646E+04  0.7818609E-02  0.9279793E-01
       -2   -1    0    0    0  501  0.00000000000E+00  0.00000000000E+00  0.23214903027E+03  0.23214903029E+03  0.25500000920E-02 0.  1.
        2   -1    0    0  501    0  0.00000000000E+00  0.00000000000E+00 -0.11350498083E+04  0.11350498083E+04  0.25500000920E-02 0. -1.
    10030    2    1    2    0    0  0.00000000000E+00  0.00000000000E+00 -0.90290077806E+03  0.13671988386E+04  0.10266464091E+04 0.  0.
        3    1    3    3  502    0 -0.18403101742E+03 -0.11343187176E+03 -0.10714720586E+04  0.10930629385E+04  0.10100000352E+00 0. -1.
       -3    1    3    3    0  502  0.18403101742E+03  0.11343187176E+03  0.16857128057E+03  0.27413590012E+03  0.10100000352E+00 0.  1.
</event>
<event>
 5   0  0.2926844E-03  0.1200327E+04  0.7818609E-02  0.9112571E-01
       -1   -1    0    0    0  501  0.00000000000E+00  0.00000000000E+00  0.68285155169E+03  0.68285155171E+03  0.50400001928E-02 0. -1.
        1   -1    0    0  501    0  0.00000000000E+00  0.00000000000E+00 -0.52748792112E+03  0.52748792115E+03  0.50400001928E-02 0.  1.
    10030    2    1    2    0    0  0.00000000000E+00  0.00000000000E+00  0.15536363057E+03  0.12103394729E+04  0.12003265313E+04 0.  0.
        5    1    3    3  502    0  0.49124342756E+03 -0.22827877395E+03 -0.18281906481E+03  0.57173088443E+03  0.46999998093E+01 0.  1.
       -5    1    3    3    0  502 -0.49124342756E+03  0.22827877395E+03  0.33818269538E+03  0.63860858843E+03  0.46999998093E+01 0. -1.
</event>
<event>
 5   0  0.5108045E-03  0.1200434E+04  0.7818609E-02  0.9112477E-01
        2   -1    0    0  501    0  0.00000000000E+00  0.00000000000E+00  0.43026846742E+03  0.43026846743E+03  0.25500000920E-02 0.  1.
       -2   -1    0    0    0  501  0.00000000000E+00  0.00000000000E+00 -0.83729234135E+03  0.83729234136E+03  0.25500000920E-02 0. -1.
    10030    2    1    2    0    0  0.00000000000E+00  0.00000000000E+00 -0.40702387393E+03  0.12675608088E+04  0.12004340757E+04 0.  0.
        3    1    3    3  502    0  0.21778980572E+03  0.19695461517E+03  0.34924609324E+03  0.45628539726E+03  0.10100000352E+00 0.  1.
       -3    1    3    3    0  502 -0.21778980572E+03 -0.19695461517E+03 -0.75626996716E+03  0.81127541153E+03  0.10100000352E+00 0. -1.
</event>
<event>
 5   0  0.5467554E-03  0.1192835E+04  0.7818609E-02  0.9119151E-01
       -2   -1    0    0    0  501  0.00000000000E+00  0.00000000000E+00  0.19575568597E+03  0.19575568598E+03  0.25500000920E-02 0. -1.
        2   -1    0    0  501    0  0.00000000000E+00  0.00000000000E+00 -0.18171325254E+04  0.18171325254E+04  0.25500000920E-02 0.  1.
    10030    2    1    2    0    0  0.00000000000E+00  0.00000000000E+00 -0.16213768395E+04  0.20128882114E+04  0.11928353181E+04 0.  0.
        1    1    3    3  502    0  0.24915904756E+03 -0.32103950721E+03 -0.74034501786E+02  0.41307106369E+03  0.50400001928E-02 0. -1.
       -1    1    3    3    0  502 -0.24915904756E+03  0.32103950721E+03 -0.15473423377E+04  0.15998171477E+04  0.50400001928E-02 0.  1.
</event>
<event>
 5   0  0.2926844E-03  0.9186865E+03  0.7818609E-02  0.9402519E-01
        1   -1    0    0  501    0  0.00000000000E+00  0.00000000000E+00  0.11093439754E+04  0.11093439754E+04  0.50400001928E-02 0.  1.
       -1   -1    0    0    0  501  0.00000000000E+00  0.00000000000E+00 -0.19019908345E+03  0.19019908352E+03  0.50400001928E-02 0. -1.
    10030    2    1    2    0    0  0.00000000000E+00  0.00000000000E+00  0.91914489197E+03  0.12995430590E+04  0.91868646971E+03 0.  0.
        5    1    3    3  502    0  0.18909828533E+02 -0.15685473876E+03  0.10696641931E+04  0.10812791345E+04  0.46999998093E+01 0.  1.
       -5    1    3    3    0  502 -0.18909828533E+02  0.15685473876E+03 -0.15051930116E+03  0.21826392443E+03  0.46999998093E+01 0. -1.
</event>
<event>
 5   0  0.2792518E-03  0.1180603E+04  0.7818609E-02  0.9130006E-01
       -1   -1    0    0    0  501  0.00000000000E+00  0.00000000000E+00  0.68155761420E+03  0.68155761422E+03  0.50400001928E-02 0. -1.
        1   -1    0    0  501    0  0.00000000000E+00  0.00000000000E+00 -0.51126421346E+03  0.51126421348E+03  0.50400001928E-02 0.  1.
    10030    2    1    2    0    0  0.00000000000E+00  0.00000000000E+00  0.17029340074E+03  0.11928218277E+04  0.11806032654E+04 0.  0.
        2    1    3    3  502    0 -0.33379428453E+03  0.37538856207E+03  0.39838894885E+03  0.64113099401E+03  0.25500000920E-02 0. -1.
       -2    1    3    3    0  502  0.33379428453E+03 -0.37538856207E+03 -0.22809554810E+03  0.55169083370E+03  0.25500000920E-02 0.  1.
</event>
<event>
 5   0  0.5003526E-03  0.1226290E+04  0.7818609E-02  0.9090151E-01
        2   -1    0    0  501    0  0.00000000000E+00  0.00000000000E+00  0.48203449122E+03  0.48203449123E+03  0.25500000920E-02 0.  1.
       -2   -1    0    0    0  501  0.00000000000E+00  0.00000000000E+00 -0.77991630645E+03  0.77991630645E+03  0.25500000920E-02 0. -1.
    10030    2    1    2    0    0  0.00000000000E+00  0.00000000000E+00 -0.29788181522E+03  0.12619507977E+04  0.12262896232E+04 0.  0.
        2    1    3    3  502    0 -0.39619254164E+03  0.43482230464E+03 -0.32690816284E+03  0.67298433385E+03  0.25500000920E-02 0. -1.
       -2    1    3    3    0  502  0.39619254164E+03 -0.43482230464E+03  0.29026347619E+02  0.58896646384E+03  0.25500000920E-02 0.  1.
</event>
<event>
 5   0  0.5003526E-03  0.1200052E+04  0.7818609E-02  0.9112811E-01
       -2   -1    0    0    0  501  0.00000000000E+00  0.00000000000E+00  0.11393028723E+04  0.11393028723E+04  0.25500000920E-02 0.  1.
        2   -1    0    0  501    0  0.00000000000E+00  0.00000000000E+00 -0.31601032500E+03  0.31601032501E+03  0.25500000920E-02 0. -1.
    10030    2    1    2    0    0  0.00000000000E+00  0.00000000000E+00  0.82329254733E+03  0.14553131973E+04  0.12000524505E+04 0.  0.
        2    1    3    3  502    0  0.41546350323E+03 -0.28709939621E+03  0.80460012706E+03  0.94995649916E+03  0.25500000920E-02 0.  1.
       -2    1    3    3    0  502 -0.41546350323E+03  0.28709939621E+03  0.18692420269E+02  0.50535669818E+03  0.25500000920E-02 0. -1.
</event>
<event>
 5   0  0.2930868E-03  0.1279878E+04  0.7818609E-02  0.9045676E-01
        1   -1    0    0  501    0  0.00000000000E+00  0.00000000000E+00  0.27113146585E+03  0.27113146590E+03  0.50400001928E-02 0.  1.
       -1   -1    0    0    0  501  0.00000000000E+00  0.00000000000E+00 -0.15104189757E+04  0.15104189757E+04  0.50400001928E-02 0. -1.
    10030    2    1    2    0    0  0.00000000000E+00  0.00000000000E+00 -0.12392875099E+04  0.17815504416E+04  0.12798782926E+04 0.  0.
        3    1    3    3  502    0  0.48882457947E+03 -0.37480491262E+03 -0.37817065916E+03  0.72280097515E+03  0.10100000352E+00 0.  1.
       -3    1    3    3    0  502 -0.48882457947E+03  0.37480491262E+03 -0.86111685072E+03  0.10587494665E+04  0.10100000352E+00 0. -1.
</event>
<event>
 5   0  0.2792518E-03  0.1206596E+04  0.7818609E-02  0.9107102E-01
        1   -1    0    0  501    0  0.00000000000E+00  0.00000000000E+00  0.96552835815E+03  0.96552835816E+03  0.50400001928E-02 0. -1.
       -1   -1    0    0    0  501  0.00000000000E+00  0.00000000000E+00 -0.37696331801E+03  0.37696331805E+03  0.50400001928E-02 0.  1.
    10030    2    1    2    0    0  0.00000000000E+00  0.00000000000E+00  0.58856504013E+03  0.13424916762E+04  0.12065964919E+04 0.  0.
        2    1    3    3  502    0 -0.28140746086E+03 -0.39462962485E+03  0.69397128543E+03  0.84647436160E+03  0.25500000920E-02 0. -1.
       -2    1    3    3    0  502  0.28140746086E+03  0.39462962485E+03 -0.10540624530E+03  0.49601731461E+03  0.25500000920E-02 0.  1.
</event>
<event>
 5   0  0.5467554E-03  0.1083935E+04  0.7818609E-02  0.9220993E-01
        2   -1    0    0  501    0  0.00000000000E+00  0.00000000000E+00  0.17093737294E+04  0.17093737294E+04  0.25500000920E-02 0. -1.
       -2   -1    0    0    0  501  0.00000000000E+00  0.00000000000E+00 -0.17183424387E+03  0.17183424389E+03  0.25500000920E-02 0.  1.
    10030    2    1    2    0    0  0.00000000000E+00  0.00000000000E+00  0.15375394856E+04  0.18812079733E+04  0.10839353160E+04 0.  0.
        1    1    3    3  502    0 -0.30947066401E+03  0.21430228921E+03  0.14454757973E+04  0.14936859923E+04  0.50400001928E-02 0. -1.
       -1    1    3    3    0  502  0.30947066401E+03 -0.21430228921E+03  0.92063688258E+02  0.38752198101E+03  0.50400001928E-02 0.  1.
</event>
<event>
 5   0  0.2938349E-03  0.1163037E+04  0.7818609E-02  0.9145839E-01
       -1   -1    0    0    0  501  0.00000000000E+00  0.00000000000E+00  0.56760459849E+03  0.56760459852E+03  0.50400001928E-02 0. -1.
        1   -1    0    0  501    0  0.00000000000E+00  0.00000000000E+00 -0.59577398413E+03  0.59577398415E+03  0.50400001928E-02 0.  1.
    10030    2    1    2    0    0  0.00000000000E+00  0.00000000000E+00 -0.28169385633E+02  0.11633785827E+04  0.11630374939E+04 0.  0.
        4    1    3    3  502    0  0.41036509863E+03  0.40605185121E+03 -0.83996678434E+02  0.58338210029E+03  0.12699999809E+01 0. -1.
       -4    1    3    3    0  502 -0.41036509863E+03 -0.40605185121E+03  0.55827292800E+02  0.57999648238E+03  0.12699999809E+01 0.  1.
</event>
<event>
 5   0  0.5467554E-03  0.1226165E+04  0.7818609E-02  0.9090257E-01
       -2   -1    0    0    0  501  0.00000000000E+00  0.00000000000E+00  0.64194291107E+03  0.64194291108E+03  0.25500000920E-02 0. -1.
        2   -1    0    0  501    0  0.00000000000E+00  0.00000000000E+00 -0.58552006544E+03  0.58552006545E+03  0.25500000920E-02 0.  1.
    10030    2    1    2    0    0  0.00000000000E+00  0.00000000000E+00  0.56422845628E+02  0.12274629765E+04  0.12261654950E+04 0.  0.
        1    1    3    3  502    0  0.22578775217E+03  0.44543442368E+03  0.38422593312E+03  0.63009642321E+03  0.50400001928E-02 0. -1.
       -1    1    3    3    0  502 -0.22578775217E+03 -0.44543442368E+03 -0.32780308750E+03  0.59736655332E+03  0.50400001928E-02 0.  1.
</event>
<event>
 5   0  0.2875848E-03  0.1197156E+04  0.7818609E-02  0.9115350E-01
       -1   -1    0    0    0  501  0.00000000000E+00  0.00000000000E+00  0.24209961553E+03  0.24209961558E+03  0.50400001928E-02 0. -1.
        1   -1    0    0  501    0  0.00000000000E+00  0.00000000000E+00 -0.14799509523E+04  0.14799509523E+04  0.50400001928E-02 0.  1.
    10030    2    1    2    0    0  0.00000000000E+00  0.00000000000E+00 -0.12378513367E+04  0.17220505679E+04  0.11971558906E+04 0.  0.
        1    1    3    3  502    0 -0.13885616581E+03  0.62030286829E+02  0.21384547432E+03  0.26240937136E+03  0.50400001928E-02 0. -1.
       -1    1    3    3    0  502  0.13885616581E+03 -0.62030286829E+02 -0.14516968111E+04  0.14596411965E+04  0.50400001928E-02 0.  1.
</event>
<event>
 5   0  0.5189537E-03  0.1152279E+04  0.7818609E-02  0.9155684E-01
       -2   -1    0    0    0  501  0.00000000000E+00  0.00000000000E+00  0.13573006471E+04  0.13573006471E+04  0.25500000920E-02 0.  1.
        2   -1    0    0  501    0  0.00000000000E+00  0.00000000000E+00 -0.24455635272E+03  0.24455635273E+03  0.25500000920E-02 0. -1.
    10030    2    1    2    0    0  0.00000000000E+00  0.00000000000E+00  0.11127442944E+04  0.16018569998E+04  0.11522786049E+04 0.  0.
        4    1    3    3  502    0  0.55886881032E+03 -0.69646540198E+02  0.72520645927E+03  0.91821076511E+03  0.12699999809E+01 0.  1.
       -4    1    3    3    0  502 -0.55886881032E+03  0.69646540198E+02  0.38753783510E+03  0.68364623471E+03  0.12699999809E+01 0. -1.
</event>
<event>
 5   0  0.1922125E-03  0.1198093E+04  0.7818609E-02  0.9114527E-01
       -3   -1    0    0    0  501  0.00000000000E+00  0.00000000000E+00  0.31942926312E+03  0.31942927909E+03  0.10100000352E+00 0. -1.
        3   -1    0    0  501    0  0.00000000000E+00  0.00000000000E+00 -0.11234310590E+04  0.11234310636E+04  0.10100000352E+00 0.  1.
    10030    2    1    2    0    0  0.00000000000E+00  0.00000000000E+00 -0.80400179591E+03  0.14428603427E+04  0.11980931018E+04 0.  0.
        1    1    3    3  502    0 -0.19245151933E+03  0.50884620878E+02 -0.10824341613E+04  0.11005864552E+04  0.50400001928E-02 0.  1.
       -1    1    3    3    0  502  0.19245151933E+03 -0.50884620878E+02  0.27843236534E+03  0.34227388745E+03  0.50400001928E-02 0. -1.
</event>
<event>
 5   0  0.5108045E-03  0.1210113E+04  0.7818609E-02  0.9104050E-01
       -2   -1    0    0    0  501  0.00000000000E+00  0.00000000000E+00  0.40788480621E+03  0.40788480622E+03  0.25500000920E-02 0. -1.
        2   -1    0    0  501    0  0.00000000000E+00  0.00000000000E+00 -0.89754099429E+03  0.89754099429E+03  0.25500000920E-02 0.  1.
    10030    2    1    2    0    0  0.00000000000E+00  0.00000000000E+00 -0.48965618808E+03  0.13054258005E+04  0.12101129444E+04 0.  0.
        3    1    3    3  502    0  0.26869711444E+03 -0.51419649024E+03 -0.59553296919E+02  0.58321760541E+03  0.10100000352E+00 0. -1.
       -3    1    3    3    0  502 -0.26869711444E+03  0.51419649024E+03 -0.43010289116E+03  0.72220819510E+03  0.10100000352E+00 0.  1.
</event>
<event>
 5   0  0.5003526E-03  0.1196908E+04  0.7818609E-02  0.9115567E-01
        2   -1    0    0  501    0  0.00000000000E+00  0.00000000000E+00  0.14113086033E+04  0.14113086033E+04  0.25500000920E-02 0. -1.
       -2   -1    0    0    0  501  0.00000000000E+00  0.00000000000E+00 -0.25376973628E+03  0.25376973629E+03  0.25500000920E-02 0.  1.
    10030    2    1    2    0    0  0.00000000000E+00  0.00000000000E+00  0.11575388670E+04  0.16650783396E+04  0.11969083709E+04 0.  0.
        2    1    3    3  502    0 -0.48864392698E+03  0.24976981798E+03  0.24666748071E+03  0.60166659820E+03  0.25500000920E-02 0. -1.
       -2    1    3    3    0  502  0.48864392698E+03 -0.24976981798E+03  0.91087138633E+03  0.10634117414E+04  0.25500000920E-02 0.  1.
</event>
<event>
 5   0  0.5467554E-03  0.1283855E+04  0.7818609E-02  0.9042467E-01
        2   -1    0    0  501    0  0.00000000000E+00  0.00000000000E+00  0.13730673855E+04  0.13730673855E+04  0.25500000920E-02 0.  1.
       -2   -1    0    0    0  501  0.00000000000E+00  0.00000000000E+00 -0.30010998315E+03  0.30010998316E+03  0.25500000920E-02 0. -1.
    10030    2    1    2    0    0  0.00000000000E+00  0.00000000000E+00  0.10729574023E+04  0.16731773686E+04  0.12838554902E+04 0.  0.
        1    1    3    3  502    0 -0.16312254208E+03 -0.61227078401E+03  0.67057204899E+03  0.92257864142E+03  0.50400001928E-02 0.  1.
       -1    1    3    3    0  502  0.16312254208E+03  0.61227078401E+03  0.40238535333E+03  0.75059872721E+03  0.50400001928E-02 0. -1.
</event>
<event>
 5   0  0.2938349E-03  0.1173709E+04  0.7818609E-02  0.9136186E-01
       -1   -1    0    0    0  501  0.00000000000E+00  0.00000000000E+00  0.55750854636E+03  0.55750854639E+03  0.50400001928E-02 0. -1.
        1   -1    0    0  501    0  0.00000000000E+00  0.00000000000E+00 -0.61774468909E+03  0.61774468911E+03  0.50400001928E-02 0.  1.
    10030    2    1    2    0    0  0.00000000000E+00  0.00000000000E+00 -0.60236142727E+02  0.11752532355E+04  0.11737085561E+04 0.  0.
        4    1    3    3  502    0  0.43732426323E+02  0.12386793406E+03 -0.60283282156E+03  0.61698039989E+03  0.12699999809E+01 0.  1.
       -4    1    3    3    0  502 -0.43732426323E+02 -0.12386793406E+03  0.54259667883E+03  0.55827283561E+03  0.12699999809E+01 0. -1.
</event>
<event>
 5   0  0.5003526E-03  0.1191398E+04  0.7818609E-02  0.9120419E-01
        2   -1    0    0  501    0  0.00000000000E+00  0.00000000000E+00  0.13661632122E+04  0.13661632122E+04  0.25500000920E-02 0. -1.
       -2   -1    0    0    0  501  0.00000000000E+00  0.00000000000E+00 -0.25974745847E+03  0.25974745848E+03  0.25500000920E-02 0.  1.
    10030    2    1    2    0    0  0.00000000000E+00  0.00000000000E+00  0.11064157538E+04  0.16259106707E+04  0.11913982076E+04 0.  0.
        2    1    3    3  502    0 -0.39599169088E+02 -0.58987585090E+03  0.65289518275E+03  0.88079153795E+03  0.25500000920E-02 0.  1.
       -2    1    3    3    0  502  0.39599169088E+02  0.58987585090E+03  0.45352057100E+03  0.74511913275E+03  0.25500000920E-02 0. -1.
</event>
<event>
 5   0  0.2926844E-03  0.1156110E+04  0.7818609E-02  0.9152165E-01
        1   -1    0    0  501    0  0.00000000000E+00  0.00000000000E+00  0.10569817189E+04  0.10569817189E+04  0.50400001928E-02 0.  1.
       -1   -1    0    0    0  501  0.00000000000E+00  0.00000000000E+00 -0.31613395187E+03  0.31613395191E+03  0.50400001928E-02 0. -1.
    10030    2    1    2    0    0  0.00000000000E+00  0.00000000000E+00  0.74084776699E+03  0.13731156708E+04  0.11561103890E+04 0.  0.
        5    1    3    3  502    0  0.15771872780E+03  0.51482689976E+03  0.62013480890E+03  0.82128631123E+03  0.46999998093E+01 0. -1.
       -5    1    3    3    0  502 -0.15771872780E+03 -0.51482689976E+03  0.12071295809E+03  0.55182935955E+03  0.46999998093E+01 0.  1.
</event>
<event>
 5   0  0.2938349E-03  0.1179785E+04  0.7818609E-02  0.9130737E-01
        1   -1    0    0  501    0  0.00000000000E+00  0.00000000000E+00  0.61279610066E+03  0.61279610068E+03  0.50400001928E-02 0.  1.
       -1   -1    0    0    0  501  0.00000000000E+00  0.00000000000E+00 -0.56784527749E+03  0.56784527752E+03  0.50400001928E-02 0. -1.
    10030    2    1    2    0    0  0.00000000000E+00  0.00000000000E+00  0.44950823162E+02  0.11806413782E+04  0.11797853565E+04 0.  0.
        4    1    3    3  502    0  0.53613397049E+03  0.89335882413E+02 -0.20693145848E+03  0.58158643004E+03  0.12699999809E+01 0.  1.
       -4    1    3    3    0  502 -0.53613397049E+03 -0.89335882413E+02  0.25188228164E+03  0.59905494815E+03  0.12699999809E+01 0. -1.
</event>
<event>
 5   0  0.2792518E-03  0.9296249E+03  0.7818609E-02  0.9389288E-01
       -1   -1    0    0    0  501  0.00000000000E+00  0.00000000000E+00  0.24047300506E+03  0.24047300511E+03  0.50400001928E-02 0.  1.
        1   -1    0    0  501    0  0.00000000000E+00  0.00000000000E+00 -0.89844014970E+03  0.89844014971E+03  0.50400001928E-02 0. -1.
    10030    2    1    2    0    0  0.00000000000E+00  0.00000000000E+00 -0.65796714464E+03  0.11389131548E+04  0.92962487640E+03 0.  0.
        2    1    3    3  502    0  0.10569181067E+02 -0.42152722597E+03 -0.56860163681E+03  0.70788751311E+03  0.25500000920E-02 0. -1.
       -2    1    3    3    0  502 -0.10569181067E+02  0.42152722597E+03 -0.89365507826E+02  0.43102564172E+03  0.25500000920E-02 0.  1.
</event>
<event>
 5   0  0.2926844E-03  0.1231782E+04  0.7818609E-02  0.9085484E-01
       -1   -1    0    0    0  501  0.00000000000E+00  0.00000000000E+00  0.62916344187E+03  0.62916344189E+03  0.50400001928E-02 0.  1.
        1   -1    0    0  501    0  0.00000000000E+00  0.00000000000E+00 -0.60289888253E+03  0.60289888255E+03  0.50400001928E-02 0. -1.
    10030    2    1    2    0    0  0.00000000000E+00  0.00000000000E+00  0.26264559333E+02  0.12320623244E+04  0.12317823445E+04 0.  0.
        5    1    3    3  502    0 -0.30130774751E+03 -0.53041862986E+03 -0.71560246891E+02  0.61422572442E+03  0.46999998093E+01 0. -1.
       -5    1    3    3    0  502  0.30130774751E+03  0.53041862986E+03  0.97824806224E+02  0.61783660002E+03  0.46999998093E+01 0.  1.
</event>
<event>
 5   0  0.5108045E-03  0.1208688E+04  0.7818609E-02  0.9105286E-01
        2   -1    0    0  501    0  0.00000000000E+00  0.00000000000E+00  0.13834020997E+04  0.13834020997E+04  0.25500000920E-02 0.  1.
       -2   -1    0    0    0  501  0.00000000000E+00  0.00000000000E+00 -0.26400977718E+03  0.26400977719E+03  0.25500000920E-02 0. -1.
    10030    2    1    2    0    0  0.00000000000E+00  0.00000000000E+00  0.11193923225E+04  0.16474118769E+04  0.12086880162E+04 0.  0.
        3    1    3    3  502    0  0.41297855515E+02  0.15987355025E+03 -0.23266808553E+03  0.28530599917E+03  0.10100000352E+00 0. -1.
       -3    1    3    3    0  502 -0.41297855515E+02 -0.15987355025E+03  0.13520604080E+04  0.13621058777E+04  0.10100000352E+00 0.  1.
</event>
<event>
 5   0  0.5189537E-03  0.1211027E+04  0.7818609E-02  0.9103259E-01
        2   -1    0    0  501    0  0.00000000000E+00  0.00000000000E+00  0.76334401626E+03  0.76334401626E+03  0.25500000920E-02 0. -1.
       -2   -1    0    0    0  501  0.00000000000E+00  0.00000000000E+00 -0.48031597316E+03  0.48031597317E+03  0.25500000920E-02 0.  1.
    10030    2    1    2    0    0  0.00000000000E+00  0.00000000000E+00  0.28302804310E+03  0.12436599894E+04  0.12110265464E+04 0.  0.
        4    1    3    3  502    0  0.12568683573E+03 -0.73223154209E+02 -0.46210534222E+03  0.48446028856E+03  0.12699999809E+01 0.  1.
       -4    1    3    3    0  502 -0.12568683573E+03  0.73223154209E+02  0.74513338532E+03  0.75919970087E+03  0.12699999809E+01 0. -1.
</event>
<event>
 5   0  0.5031575E-03  0.1198605E+04  0.7818609E-02  0.9114078E-01
        2   -1    0    0  501    0  0.00000000000E+00  0.00000000000E+00  0.10432380095E+04  0.10432380095E+04  0.25500000920E-02 0.  1.
       -2   -1    0    0    0  501  0.00000000000E+00  0.00000000000E+00 -0.34427765187E+03  0.34427765188E+03  0.25500000920E-02 0. -1.
    10030    2    1    2    0    0  0.00000000000E+00  0.00000000000E+00  0.69896035761E+03  0.13875156614E+04  0.11986050763E+04 0.  0.
        5    1    3    3  502    0  0.24191275006E+03  0.37176877874E+03  0.81599452888E+03  0.92876421370E+03  0.46999998093E+01 0.  1.
       -5    1    3    3    0  502 -0.24191275006E+03 -0.37176877874E+03 -0.11703417128E+03  0.45875144766E+03  0.46999998093E+01 0. -1.
</event>
<event>
 5   0  0.2792518E-03  0.1202332E+04  0.7818609E-02  0.9110818E-01
        1   -1    0    0  501    0  0.00000000000E+00  0.00000000000E+00  0.42053896897E+03  0.42053896900E+03  0.50400001928E-02 0. -1.
       -1   -1    0    0    0  501  0.00000000000E+00  0.00000000000E+00 -0.85937423970E+03  0.85937423971E+03  0.50400001928E-02 0.  1.
    10030    2    1    2    0    0  0.00000000000E+00  0.00000000000E+00 -0.43883527073E+03  0.12799132087E+04  0.12023316626E+04 0.  0.
        2    1    3    3  502    0 -0.47295036447E+03  0.21133685895E+03 -0.54415046027E+03  0.75129557341E+03  0.25500000920E-02 0.  1.
       -2    1    3    3    0  502  0.47295036447E+03 -0.21133685895E+03  0.10531518954E+03  0.52861763530E+03  0.25500000920E-02 0. -1.
</event>
<event>
 5   0  0.2792518E-03  0.1185921E+04  0.7818609E-02  0.9125270E-01
       -1   -1    0    0    0  501  0.00000000000E+00  0.00000000000E+00  0.90883143342E+03  0.90883143344E+03  0.50400001928E-02 0. -1.
        1   -1    0    0  501    0  0.00000000000E+00  0.00000000000E+00 -0.38687300780E+03  0.38687300784E+03  0.50400001928E-02 0.  1.
    10030    2    1    2    0    0  0.00000000000E+00  0.00000000000E+00  0.52195842562E+03  0.12957044413E+04  0.11859213300E+04 0.  0.
        2    1    3    3  502    0 -0.36368545590E+03  0.39014279503E+03  0.54404570316E+03  0.76188203711E+03  0.25500000920E-02 0. -1.
       -2    1    3    3    0  502  0.36368545590E+03 -0.39014279503E+03 -0.22087277537E+02  0.53382240416E+03  0.25500000920E-02 0.  1.
</event>
<event>
 5   0  0.1922125E-03  0.1182215E+04  0.7818609E-02  0.9128568E-01
        3   -1    0    0  501    0  0.00000000000E+00  0.00000000000E+00  0.49907594349E+03  0.49907595371E+03  0.10100000352E+00 0. -1.
       -3   -1    0    0    0  501  0.00000000000E+00  0.00000000000E+00 -0.70010988873E+03  0.70010989602E+03  0.10100000352E+00 0.  1.
    10030    2    1    2    0    0  0.00000000000E+00  0.00000000000E+00 -0.20103394524E+03  0.11991858497E+04  0.11822148938E+04 0.  0.
        3    1    3    3  502    0 -0.58391634555E+03  0.39633287534E+02 -0.18464676230E+03  0.61369661324E+03  0.10100000352E+00 0. -1.
       -3    1    3    3    0  502  0.58391634555E+03 -0.39633287534E+02 -0.16387182944E+02  0.58548923649E+03  0.10100000352E+00 0.  1.
</event>
<event>
 5   0  0.1922125E-03  0.1190395E+04  0.7818609E-02  0.9121306E-01
        3   -1    0    0  501    0  0.00000000000E+00  0.00000000000E+00  0.64179843554E+03  0.64179844349E+03  0.10100000352E+00 0.  1.
       -3   -1    0    0    0  501  0.00000000000E+00  0.00000000000E+00 -0.55197998183E+03  0.55197999107E+03  0.10100000352E+00 0. -1.
    10030    2    1    2    0    0  0.00000000000E+00  0.00000000000E+00  0.89818453715E+02  0.11937784346E+04  0.11903947229E+04 0.  0.
        1    1    3    3  502    0  0.44474642505E+02 -0.11286267743E+03  0.62926954404E+03  0.64085578476E+03  0.50400001928E-02 0.  1.
       -1    1    3    3    0  502 -0.44474642505E+02  0.11286267743E+03 -0.53945109033E+03  0.55292264980E+03  0.50400001928E-02 0. -1.
</event>
<event>
 5   0  0.2938349E-03  0.1226495E+04  0.7818609E-02  0.9089976E-01
        1   -1    0    0  501    0  0.00000000000E+00  0.00000000000E+00  0.10524157791E+04  0.10524157791E+04  0.50400001928E-02 0.  1.
       -1   -1    0    0    0  501  0.00000000000E+00  0.00000000000E+00 -0.35734224344E+03  0.35734224348E+03  0.50400001928E-02 0. -1.
    10030    2    1    2    0    0  0.00000000000E+00  0.00000000000E+00  0.69507353569E+03  0.14097580226E+04  0.12264951946E+04 0.  0.
        4    1    3    3  502    0  0.37623952824E+03  0.10510794927E+03 -0.19582059732E+03  0.43697961376E+03  0.12699999809E+01 0. -1.
       -4    1    3    3    0  502 -0.37623952824E+03 -0.10510794927E+03  0.89089413301E+03  0.97277840886E+03  0.12699999809E+01 0.  1.
</event>
<event>
 5   0  0.2875848E-03  0.1186417E+04  0.7818609E-02  0.9124829E-01
       -1   -1    0    0    0  501  0.00000000000E+00  0.00000000000E+00  0.24823090983E+03  0.24823090988E+03  0.50400001928E-02 0. -1.
        1   -1    0    0  501    0  0.00000000000E+00  0.00000000000E+00 -0.14176176850E+04  0.14176176850E+04  0.50400001928E-02 0.  1.
    10030    2    1    2    0    0  0.00000000000E+00  0.00000000000E+00 -0.11693867751E+04  0.16658485949E+04  0.11864173427E+04 0.  0.
        1    1    3    3  502    0  0.54906559173E+02 -0.20141989516E+03 -0.13643316236E+04  0.13802121154E+04  0.50400001928E-02 0.  1.
       -1    1    3    3    0  502 -0.54906559173E+02  0.20141989516E+03  0.19494484846E+03  0.28563647942E+03  0.50400001928E-02 0. -1.
</event>
<event>
 5   0  0.5189537E-03  0.1202250E+04  0.7818609E-02  0.9110889E-01
        2   -1    0    0  501    0  0.00000000000E+00  0.00000000000E+00  0.95116876699E+03  0.95116876699E+03  0.25500000920E-02 0.  1.
       -2   -1    0    0    0  501  0.00000000000E+00  0.00000000000E+00 -0.37990263015E+03  0.37990263016E+03  0.25500000920E-02 0. -1.
    10030    2    1    2    0    0  0.00000000000E+00  0.00000000000E+00  0.57126613684E+03  0.13310713972E+04  0.12022504170E+04 0.  0.
        4    1    3    3  502    0  0.49851000503E+02 -0.36458287692E+03 -0.24063488409E+03  0.43967323859E+03  0.12699999809E+01 0. -1.
       -4    1    3    3    0  502 -0.49851000503E+02  0.36458287692E+03  0.81190102093E+03  0.89139815856E+03  0.12699999809E+01 0.  1.
</event>
<event>
 5   0  0.5031575E-03  0.1239087E+04  0.7818609E-02  0.9079315E-01
       -2   -1    0    0    0  501  0.00000000000E+00  0.00000000000E+00  0.33555851178E+03  0.33555851179E+03  0.25500000920E-02 0. -1.
        2   -1    0    0  501    0  0.00000000000E+00  0.00000000000E+00 -0.11438672192E+04  0.11438672192E+04  0.25500000920E-02 0.  1.
    10030    2    1    2    0    0  0.00000000000E+00  0.00000000000E+00 -0.80830870745E+03  0.14794257310E+04  0.12390873767E+04 0.  0.
        5    1    3    3  502    0  0.40533908329E+03 -0.37011833004E+03 -0.74714624018E+03  0.92711215335E+03  0.46999998093E+01 0.  1.
       -5    1    3    3    0  502 -0.40533908329E+03  0.37011833004E+03 -0.61162467269E+02  0.55231357767E+03  0.46999998093E+01 0. -1.
</event>
<event>
 5   0  0.2926844E-03  0.1387145E+04  0.7818609E-02  0.8963177E-01
        1   -1    0    0  501    0  0.00000000000E+00  0.00000000000E+00  0.12423037114E+04  0.12423037114E+04  0.50400001928E-02 0. -1.
       -1   -1    0    0    0  501  0.00000000000E+00  0.00000000000E+00 -0.38721812081E+03  0.38721812085E+03  0.50400001928E-02 0.  1.
    10030    2    1    2    0    0  0.00000000000E+00  0.00000000000E+00  0.85508559057E+03  0.16295218322E+04  0.13871445615E+04 0.  0.
        5    1    3    3  502    0  0.22787844490E+03 -0.54488607758E+03  0.43313287106E+00  0.59063669103E+03  0.46999998093E+01 0.  1.
       -5    1    3    3    0  502 -0.22787844490E+03  0.54488607758E+03  0.85465245770E+03  0.10388851412E+04  0.46999998093E+01 0. -1.
</event>
<event>
 5   0  0.5467554E-03  0.7716864E+03  0.7818609E-02  0.9601929E-01
       -2   -1    0    0    0  501  0.00000000000E+00  0.00000000000E+00  0.45146367549E+03  0.45146367550E+03  0.25500000920E-02 0. -1.
        2   -1    0    0  501    0  0.00000000000E+00  0.00000000000E+00 -0.32976065864E+03  0.32976065865E+03  0.25500000920E-02 0.  1.
    10030    2    1    2    0    0  0.00000000000E+00  0.00000000000E+00  0.12170301685E+03  0.78122433415E+03  0.77168635854E+03 0.  0.
        1    1    3    3  502    0  0.12765595170E+03 -0.25655410589E+03  0.32242248305E+03  0.43136099598E+03  0.50400001928E-02 0. -1.
       -1    1    3    3    0  502 -0.12765595170E+03  0.25655410589E+03 -0.20071946620E+03  0.34986333816E+03  0.50400001928E-02 0.  1.
</event>
<event>
 5   0  0.5003526E-03  0.1169080E+04  0.7818609E-02  0.9140359E-01
        2   -1    0    0  501    0  0.00000000000E+00  0.00000000000E+00  0.77226256831E+03  0.77226256831E+03  0.25500000920E-02 0.  1.
       -2   -1    0    0    0  501  0.00000000000E+00  0.00000000000E+00 -0.44244958990E+03  0.44244958991E+03  0.25500000920E-02 0. -1.
    10030    2    1    2    0    0  0.00000000000E+00  0.00000000000E+00  0.32981297841E+03  0.12147121582E+04  0.11690804192E+04 0.  0.
        2    1    3    3  502    0  0.28727289526E+03  0.50493039719E+03  0.23229823302E+03  0.62565397100E+03  0.25500000920E-02 0.  1.
       -2    1    3    3    0  502 -0.28727289526E+03 -0.50493039719E+03  0.97514745386E+02  0.58905818722E+03  0.25500000920E-02 0. -1.
</event>
<event>
 5   0  0.5003526E-03  0.1206941E+04  0.7818609E-02  0.9106802E-01
        2   -1    0    0  501    0  0.00000000000E+00  0.00000000000E+00  0.57072167355E+03  0.57072167356E+03  0.25500000920E-02 0. -1.
       -2   -1    0    0    0  501  0.00000000000E+00  0.00000000000E+00 -0.63809879216E+03  0.63809879216E+03  0.25500000920E-02 0.  1.
    10030    2    1    2    0    0  0.00000000000E+00  0.00000000000E+00 -0.67377118605E+02  0.12088204657E+04  0.12069412754E+04 0.  0.
        2    1    3    3  502    0 -0.59718763561E+03 -0.19698480244E+02  0.51034568108E+02  0.59968794335E+03  0.25500000920E-02 0. -1.
       -2    1    3    3    0  502  0.59718763561E+03  0.19698480244E+02 -0.11841168671E+03  0.60913252237E+03  0.25500000920E-02 0.  1.
</event>
<event>
 5   0  0.2938349E-03  0.1218304E+04  0.7818609E-02  0.9096984E-01
        1   -1    0    0  501    0  0.00000000000E+00  0.00000000000E+00  0.68893354873E+03  0.68893354874E+03  0.50400001928E-02 0.  1.
       -1   -1    0    0    0  501  0.00000000000E+00  0.00000000000E+00 -0.53860935434E+03  0.53860935436E+03  0.50400001928E-02 0. -1.
    10030    2    1    2    0    0  0.00000000000E+00  0.00000000000E+00  0.15032419439E+03  0.12275429031E+04  0.12183038273E+04 0.  0.
        4    1    3    3  502    0 -0.38366945672E+03 -0.37600065503E+03  0.36454335095E+03  0.64920891262E+03  0.12699999809E+01 0.  1.
       -4    1    3    3    0  502  0.38366945672E+03  0.37600065503E+03 -0.21421915656E+03  0.57833399048E+03  0.12699999809E+01 0. -1.
</event>
<event>
 5   0  0.2875848E-03  0.1097508E+04  0.7818609E-02  0.9207624E-01
       -1   -1    0    0    0  501  0.00000000000E+00  0.00000000000E+00  0.23700796937E+03  0.23700796942E+03  0.50400001928E-02 0.  1.
        1   -1    0    0  501    0  0.00000000000E+00  0.00000000000E+00 -0.12705513888E+04  0.12705513888E+04  0.50400001928E-02 0. -1.
    10030    2    1    2    0    0  0.00000000000E+00  0.00000000000E+00 -0.10335434195E+04  0.15075593583E+04  0.10975077306E+04 0.  0.
        1    1    3    3  502    0 -0.21692078611E+03  0.22875011114E+02  0.17490178482E+03  0.27958635149E+03  0.50400001928E-02 0.  1.
       -1    1    3    3    0  502  0.21692078611E+03 -0.22875011114E+02 -0.12084452043E+04  0.12279730068E+04  0.50400001928E-02 0. -1.
</event>
<event>
 5   0  0.5031575E-03  0.1197616E+04  0.7818609E-02  0.9114946E-01
       -2   -1    0    0    0  501  0.00000000000E+00  0.00000000000E+00  0.29234909576E+03  0.29234909577E+03  0.25500000920E-02 0.  1.
        2   -1    0    0  501    0  0.00000000000E+00  0.00000000000E+00 -0.12265159373E+04  0.12265159373E+04  0.25500000920E-02 0. -1.
    10030    2    1    2    0    0  0.00000000000E+00  0.00000000000E+00 -0.93416684155E+03  0.15188650331E+04  0.11976156733E+04 0.  0.
        5    1    3    3  502    0 -0.50115650219E+03 -0.23140647813E+03 -0.17280253648E+03  0.57843720871E+03  0.46999998093E+01 0.  1.
       -5    1    3    3    0  502  0.50115650219E+03  0.23140647813E+03 -0.76136430508E+03  0.94042782437E+03  0.46999998093E+01 0. -1.
</event>
<event>
 5   0  0.2926844E-03  0.1189961E+04  0.7818609E-02  0.9121689E-01
       -1   -1    0    0    0  501  0.00000000000E+00  0.00000000000E+00  0.64512673246E+03  0.64512673248E+03  0.50400001928E-02 0. -1.
        1   -1    0    0  501    0  0.00000000000E+00  0.00000000000E+00 -0.54873249738E+03  0.54873249741E+03  0.50400001928E-02 0.  1.
    10030    2    1    2    0    0  0.00000000000E+00  0.00000000000E+00  0.96394235081E+02  0.11938592299E+04  0.11899613491E+04 0.  0.
        5    1    3    3  502    0  0.55850250191E+03  0.15906133617E+03 -0.81665509566E+02  0.58644428444E+03  0.46999998093E+01 0.  1.
       -5    1    3    3    0  502 -0.55850250191E+03 -0.15906133617E+03  0.17805974465E+03  0.60741494545E+03  0.46999998093E+01 0. -1.
</event>
<event>
 5   0  0.5003526E-03  0.1200007E+04  0.7818609E-02  0.9112850E-01
        2   -1    0    0  501    0  0.00000000000E+00  0.00000000000E+00  0.72293359329E+03  0.72293359329E+03  0.25500000920E-02 0.  1.
       -2   -1    0    0    0  501  0.00000000000E+00  0.00000000000E+00 -0.49797710626E+03  0.49797710627E+03  0.25500000920E-02 0. -1.
    10030    2    1    2    0    0  0.00000000000E+00  0.00000000000E+00  0.22495648702E+03  0.12209106996E+04  0.12000072980E+04 0.  0.
        2    1    3    3  502    0 -0.56151979669E+03 -0.14221335930E+03  0.27164913338E+03  0.63978306739E+03  0.25500000920E-02 0.  1.
       -2    1    3    3    0  502  0.56151979669E+03  0.14221335930E+03 -0.46692646357E+02  0.58112763217E+03  0.25500000920E-02 0. -1.
</event>
<event>
 5   0  0.5189537E-03  0.1222144E+04  0.7818609E-02  0.9093692E-01
        2   -1    0    0  501    0  0.00000000000E+00  0.00000000000E+00  0.43302975863E+03  0.43302975864E+03  0.25500000920E-02 0.  1.
       -2   -1    0    0    0  501  0.00000000000E+00  0.00000000000E+00 -0.86231684309E+03  0.86231684309E+03  0.25500000920E-02 0. -1.
    10030    2    1    2    0    0  0.00000000000E+00  0.00000000000E+00 -0.42928708446E+03  0.12953466017E+04  0.12221437795E+04 0.  0.
        4    1    3    3  502    0  0.11713870176E+03  0.16276980089E+03  0.39715834659E+03  0.44491779993E+03  0.12699999809E+01 0.  1.
       -4    1    3    3    0  502 -0.11713870176E+03 -0.16276980089E+03 -0.82644543105E+03  0.85042880180E+03  0.12699999809E+01 0. -1.
</event>
<event>
 5   0  0.2938349E-03  0.1184546E+04  0.7818609E-02  0.9126492E-01
       -1   -1    0    0    0  501  0.00000000000E+00  0.00000000000E+00  0.69825802126E+03  0.69825802128E+03  0.50400001928E-02 0.  1.
        1   -1    0    0  501    0  0.00000000000E+00  0.00000000000E+00 -0.50237511523E+03  0.50237511525E+03  0.50400001928E-02 0. -1.
    10030    2    1    2    0    0  0.00000000000E+00  0.00000000000E+00  0.19588290603E+03  0.12006331365E+04  0.11845462488E+04 0.  0.
        4    1    3    3  502    0  0.34999783920E+02 -0.16371395439E+03 -0.47789242652E+03  0.50636945796E+03  0.12699999809E+01 0. -1.
       -4    1    3    3    0  502 -0.34999783920E+02  0.16371395439E+03  0.67377533254E+03  0.69426367857E+03  0.12699999809E+01 0.  1.
</event>
<event>
 5   0  0.1922125E-03  0.1248405E+04  0.7818609E-02  0.9071512E-01
       -4   -1    0    0    0  501  0.00000000000E+00  0.00000000000E+00  0.69551420262E+03  0.69551536212E+03  0.12699999809E+01 0.  1.
        4   -1    0    0  501    0  0.00000000000E+00  0.00000000000E+00 -0.56019999932E+03  0.56020143889E+03  0.12699999809E+01 0. -1.
    10030    2    1    2    0    0  0.00000000000E+00  0.00000000000E+00  0.13531420330E+03  0.12557168010E+04  0.12484048825E+04 0.  0.
        2    1    3    3  502    0  0.26632717492E+03 -0.48601161055E+03  0.35655218925E+03  0.65898931202E+03  0.25500000920E-02 0.  1.
       -2    1    3    3    0  502 -0.26632717492E+03  0.48601161055E+03 -0.22123798595E+03  0.59672748900E+03  0.25500000920E-02 0. -1.
</event>
<event>
 5   0  0.5031575E-03  0.1256268E+04  0.7818609E-02  0.9064983E-01
        2   -1    0    0  501    0  0.00000000000E+00  0.00000000000E+00  0.40453338670E+03  0.40453338671E+03  0.25500000920E-02 0. -1.
       -2   -1    0    0    0  501  0.00000000000E+00  0.00000000000E+00 -0.97532694040E+03  0.97532694040E+03  0.25500000920E-02 0.  1.
    10030    2    1    2    0    0  0.00000000000E+00  0.00000000000E+00 -0.57079355370E+03  0.13798603271E+04  0.12562679815E+04 0.  0.
        5    1    3    3  502    0  0.29171962755E+03 -0.30695752719E+03 -0.79493995233E+03  0.90070798953E+03  0.46999998093E+01 0.  1.
       -5    1    3    3    0  502 -0.29171962755E+03  0.30695752719E+03  0.22414639863E+03  0.47915233758E+03  0.46999998093E+01 0. -1.
</event>
<event>
 5   0  0.5189537E-03  0.1187940E+04  0.7818609E-02  0.9123479E-01
        2   -1    0    0  501    0  0.00000000000E+00  0.00000000000E+00  0.81002278798E+03  0.81002278799E+03  0.25500000920E-02 0.  1.
       -2   -1    0    0    0  501  0.00000000000E+00  0.00000000000E+00 -0.43554353598E+03  0.43554353599E+03  0.25500000920E-02 0. -1.
    10030    2    1    2    0    0  0.00000000000E+00  0.00000000000E+00  0.37447925200E+03  0.12455663240E+04  0.11879397111E+04 0.  0.
        4    1    3    3  502    0 -0.52300685759E+03 -0.70453855340E+02 -0.98560845524E+02  0.53685731064E+03  0.12699999809E+01 0. -1.
       -4    1    3    3    0  502  0.52300685759E+03  0.70453855340E+02  0.47304009752E+03  0.70870901334E+03  0.12699999809E+01 0.  1.
</event>
<event>
 5   0  0.2792518E-03  0.1252757E+04  0.7818609E-02  0.9067892E-01
       -1   -1    0    0    0  501  0.00000000000E+00  0.00000000000E+00  0.71571194444E+03  0.71571194445E+03  0.50400001928E-02 0.  1.
        1   -1    0    0  501    0  0.00000000000E+00  0.00000000000E+00 -0.54819518095E+03  0.54819518098E+03  0.50400001928E-02 0. -1.
    10030    2    1    2    0    0  0.00000000000E+00  0.00000000000E+00  0.16751676348E+03  0.12639071254E+04  0.12527567025E+04 0.  0.
        2    1    3    3  502    0  0.24910105499E+03  0.32728237952E+03  0.56038762303E+03  0.69512544163E+03  0.25500000920E-02 0.  1.
       -2    1    3    3    0  502 -0.24910105499E+03 -0.32728237952E+03 -0.39287085955E+03  0.56878168380E+03  0.25500000920E-02 0. -1.
</event>
<event>
 5   0  0.5031575E-03  0.1187990E+04  0.7818609E-02  0.9123435E-01
        2   -1    0    0  501    0  0.00000000000E+00  0.00000000000E+00  0.22270910509E+03  0.22270910510E+03  0.25500000920E-02 0.  1.
       -2   -1    0    0    0  501  0.00000000000E+00  0.00000000000E+00 -0.15842634342E+04  0.15842634342E+04  0.25500000920E-02 0. -1.
    10030    2    1    2    0    0  0.00000000000E+00  0.00000000000E+00 -0.13615543291E+04  0.18069725393E+04  0.11879897166E+04 0.  0.
        5    1    3    3  502    0  0.23212549875E+03  0.16383106371E+03  0.11262087125E+03  0.30566062102E+03  0.46999998093E+01 0.  1.
       -5    1    3    3    0  502 -0.23212549875E+03 -0.16383106371E+03 -0.14741752004E+04  0.15013119183E+04  0.46999998093E+01 0. -1.
</event>
<event>
 5   0  0.2926844E-03  0.1262723E+04  0.7818609E-02  0.9059660E-01
        1   -1    0    0  501    0  0.00000000000E+00  0.00000000000E+00  0.17476156474E+04  0.17476156474E+04  0.50400001928E-02 0.  1.
       -1   -1    0    0    0  501  0.00000000000E+00  0.00000000000E+00 -0.22809210545E+03  0.22809210551E+03  0.50400001928E-02 0. -1.
    10030    2    1    2    0    0  0.00000000000E+00  0.00000000000E+00  0.15195235420E+04  0.19757077530E+04  0.12627229825E+04 0.  0.
        5    1    3    3  502    0 -0.42129653282E+03  0.49853628734E+02  0.28187101238E+02  0.42519731365E+03  0.46999998093E+01 0. -1.
       -5    1    3    3    0  502  0.42129653282E+03 -0.49853628734E+02  0.14913364408E+04  0.15505104393E+04  0.46999998093E+01 0.  1.
</event>
<event>
 5   0  0.5189537E-03  0.1170123E+04  0.7818609E-02  0.9139417E-01
       -2   -1    0    0    0  501  0.00000000000E+00  0.00000000000E+00  0.46117382311E+03  0.46117382312E+03  0.25500000920E-02 0.  1.
        2   -1    0    0  501    0  0.00000000000E+00  0.00000000000E+00 -0.74223022329E+03  0.74223022329E+03  0.25500000920E-02 0. -1.
    10030    2    1    2    0    0  0.00000000000E+00  0.00000000000E+00 -0.28105640017E+03  0.12034040464E+04  0.11701233263E+04 0.  0.
        4    1    3    3  502    0  0.35991808321E+02 -0.46954347260E+03  0.21651905951E+03  0.51831322476E+03  0.12699999809E+01 0.  1.
       -4    1    3    3    0  502 -0.35991808321E+02  0.46954347260E+03 -0.49757545969E+03  0.68509082165E+03  0.12699999809E+01 0. -1.
</event>
<event>
 5   0  0.2875848E-03  0.1189552E+04  0.7818609E-02  0.9122051E-01
        1   -1    0    0  501    0  0.00000000000E+00  0.00000000000E+00  0.47750976902E+03  0.47750976905E+03  0.50400001928E-02 0. -1.
       -1   -1    0    0    0  501  0.00000000000E+00  0.00000000000E+00 -0.74084078353E+03  0.74084078354E+03  0.50400001928E-02 0.  1.
    10030    2    1    2    0    0  0.00000000000E+00  0.00000000000E+00 -0.26333101451E+03  0.12183505526E+04  0.11895523720E+04 0.  0.
        1    1    3    3  502    0 -0.40614777908E+03  0.25008164199E+03  0.23227030865E+03  0.53051516701E+03  0.50400001928E-02 0. -1.
       -1    1    3    3    0  502  0.40614777908E+03 -0.25008164199E+03 -0.49560132316E+03  0.68783538558E+03  0.50400001928E-02 0.  1.
</event>
<event>
 5   0  0.5031575E-03  0.1166260E+04  0.7818609E-02  0.9142913E-01
       -2   -1    0    0    0  501  0.00000000000E+00  0.00000000000E+00  0.36287552348E+03  0.36287552349E+03  0.25500000920E-02 0.  1.
        2   -1    0    0  501    0  0.00000000000E+00  0.00000000000E+00 -0.93707174341E+03  0.93707174342E+03  0.25500000920E-02 0. -1.
    10030    2    1    2    0    0  0.00000000000E+00  0.00000000000E+00 -0.57419621994E+03  0.12999472669E+04  0.11662596614E+04 0.  0.
        5    1    3    3  502    0 -0.13981538046E+03 -0.12758681274E+02 -0.91793026322E+03  0.92861681155E+03  0.46999998093E+01 0. -1.
       -5    1    3    3    0  502  0.13981538046E+03  0.12758681274E+02  0.34373404328E+03  0.37133045535E+03  0.46999998093E+01 0.  1.
</event>
<event>
 5   0  0.2926844E-03  0.1199855E+04  0.7818609E-02  0.9112983E-01
        1   -1    0    0  501    0  0.00000000000E+00  0.00000000000E+00  0.31597282377E+03  0.31597282381E+03  0.50400001928E-02 0.  1.
       -1   -1    0    0    0  501  0.00000000000E+00  0.00000000000E+00 -0.11390635516E+04  0.11390635516E+04  0.50400001928E-02 0. -1.
    10030    2    1    2    0    0  0.00000000000E+00  0.00000000000E+00 -0.82309072779E+03  0.14550363754E+04  0.11998552027E+04 0.  0.
        5    1    3    3  502    0 -0.26152865318E+03  0.49701870388E+03 -0.15582809269E+03  0.58286303101E+03  0.46999998093E+01 0.  1.
       -5    1    3    3    0  502  0.26152865318E+03 -0.49701870388E+03 -0.66726263511E+03  0.87217334438E+03  0.46999998093E+01 0. -1.
</event>
<event>
 5   0  0.2926844E-03  0.1222116E+04  0.7818609E-02  0.9093716E-01
       -1   -1    0    0    0  501  0.00000000000E+00  0.00000000000E+00  0.38960724993E+03  0.38960724997E+03  0.50400001928E-02 0.  1.
        1   -1    0    0  501    0  0.00000000000E+00  0.00000000000E+00 -0.95837966886E+03  0.95837966887E+03  0.50400001928E-02 0. -1.
    10030    2    1    2    0    0  0.00000000000E+00  0.00000000000E+00 -0.56877241893E+03  0.13479869188E+04  0.12221156528E+04 0.  0.
        5    1    3    3  502    0  0.28240191629E+03 -0.27931111679E+03 -0.79654167684E+03  0.89009340814E+03  0.46999998093E+01 0. -1.
       -5    1    3    3    0  502 -0.28240191629E+03  0.27931111679E+03  0.22776925791E+03  0.45789351069E+03  0.46999998093E+01 0.  1.
</event>
<event>
 5   0  0.5031575E-03  0.1070127E+04  0.7818609E-02  0.9234807E-01
        2   -1    0    0  501    0  0.00000000000E+00  0.00000000000E+00  0.24179585708E+04  0.24179585708E+04  0.25500000920E-02 0. -1.
       -2   -1    0    0    0  501  0.00000000000E+00  0.00000000000E+00 -0.11840284023E+03  0.11840284026E+03  0.25500000920E-02 0.  1.
    10030    2    1    2    0    0  0.00000000000E+00  0.00000000000E+00  0.22995557306E+04  0.25363614110E+04  0.10701273987E+04 0.  0.
        5    1    3    3  502    0  0.32049542899E+03 -0.42677004563E+03  0.12391258985E+04  0.13491868196E+04  0.46999998093E+01 0. -1.
       -5    1    3    3    0  502 -0.32049542899E+03  0.42677004563E+03  0.10604298320E+04  0.11871745914E+04  0.46999998093E+01 0.  1.
</event>
<event>
 5   0  0.2938349E-03  0.1207189E+04  0.7818609E-02  0.9106587E-01
       -1   -1    0    0    0  501  0.00000000000E+00  0.00000000000E+00  0.87306359109E+03  0.87306359110E+03  0.50400001928E-02 0. -1.
        1   -1    0    0  501    0  0.00000000000E+00  0.00000000000E+00 -0.41729628361E+03  0.41729628364E+03  0.50400001928E-02 0.  1.
    10030    2    1    2    0    0  0.00000000000E+00  0.00000000000E+00  0.45576730748E+03  0.12903598747E+04  0.12071887871E+04 0.  0.
        4    1    3    3  502    0 -0.48272537801E+03 -0.20622102762E+03  0.54636042325E+03  0.75766894340E+03  0.12699999809E+01 0. -1.
       -4    1    3    3    0  502  0.48272537801E+03  0.20622102762E+03 -0.90593115768E+02  0.53269093134E+03  0.12699999809E+01 0.  1.
</event>
<event>
 5   0  0.2938349E-03  0.1212479E+04  0.7818609E-02  0.9102003E-01
       -1   -1    0    0    0  501  0.00000000000E+00  0.00000000000E+00  0.72497398899E+03  0.72497398901E+03  0.50400001928E-02 0. -1.
        1   -1    0    0  501    0  0.00000000000E+00  0.00000000000E+00 -0.50695094294E+03  0.50695094296E+03  0.50400001928E-02 0.  1.
    10030    2    1    2    0    0  0.00000000000E+00  0.00000000000E+00  0.21802304606E+03  0.12319249320E+04  0.12124788614E+04 0.  0.
        4    1    3    3  502    0  0.38965333179E+03 -0.26659177071E+03  0.49540507278E+03  0.68434544656E+03  0.12699999809E+01 0. -1.
       -4    1    3    3    0  502 -0.38965333179E+03  0.26659177071E+03 -0.27738202673E+03  0.54757948541E+03  0.12699999809E+01 0.  1.
</event>
<event>
 5   0  0.2926844E-03  0.1185346E+04  0.7818609E-02  0.9125781E-01
        1   -1    0    0  501    0  0.00000000000E+00  0.00000000000E+00  0.92937090576E+03  0.92937090577E+03  0.50400001928E-02 0.  1.
       -1   -1    0    0    0  501  0.00000000000E+00  0.00000000000E+00 -0.37795569251E+03  0.37795569254E+03  0.50400001928E-02 0. -1.
    10030    2    1    2    0    0  0.00000000000E+00  0.00000000000E+00  0.55141521325E+03  0.13073265983E+04  0.11853455603E+04 0.  0.
        5    1    3    3  502    0  0.11752908494E+03 -0.39763619217E+03 -0.19132043563E+03  0.45667628164E+03  0.46999998093E+01 0. -1.
       -5    1    3    3    0  502 -0.11752908494E+03  0.39763619217E+03  0.74273564888E+03  0.85065031667E+03  0.46999998093E+01 0.  1.
</event>
<event>
 5   0  0.2938349E-03  0.1042549E+04  0.7818609E-02  0.9263071E-01
        1   -1    0    0  501    0  0.00000000000E+00  0.00000000000E+00  0.10065189207E+04  0.10065189208E+04  0.50400001928E-02 0.  1.
       -1   -1    0    0    0  501  0.00000000000E+00  0.00000000000E+00 -0.26996695759E+03  0.26996695764E+03  0.50400001928E-02 0. -1.
    10030    2    1    2    0    0  0.00000000000E+00  0.00000000000E+00  0.73655196315E+03  0.12764858784E+04  0.10425485136E+04 0.  0.
        4    1    3    3  502    0 -0.27676238389E+03  0.19110202361E+03 -0.11934463908E+03  0.35687834950E+03  0.12699999809E+01 0. -1.
       -4    1    3    3    0  502  0.27676238389E+03 -0.19110202361E+03  0.85589660223E+03  0.91960752889E+03  0.12699999809E+01 0.  1.
</event>
<event>
 5   0  0.2938349E-03  0.1123235E+04  0.7818609E-02  0.9182837E-01
        1   -1    0    0  501    0  0.00000000000E+00  0.00000000000E+00  0.99333694565E+03  0.99333694566E+03  0.50400001928E-02 0.  1.
       -1   -1    0    0    0  501  0.00000000000E+00  0.00000000000E+00 -0.31752975528E+03  0.31752975532E+03  0.50400001928E-02 0. -1.
    10030    2    1    2    0    0  0.00000000000E+00  0.00000000000E+00  0.67580719037E+03  0.13108667010E+04  0.11232346813E+04 0.  0.
        4    1    3    3  502    0 -0.20625894391E+03 -0.77347994613E+02  0.94081250887E+03  0.96625837847E+03  0.12699999809E+01 0.  1.
       -4    1    3    3    0  502  0.20625894391E+03  0.77347994613E+02 -0.26500531850E+03  0.34460832252E+03  0.12699999809E+01 0. -1.
</event>
<event>
 5   0  0.2938349E-03  0.1194489E+04  0.7818609E-02  0.9117694E-01
       -1   -1    0    0    0  501  0.00000000000E+00  0.00000000000E+00  0.52210549698E+03  0.52210549700E+03  0.50400001928E-02 0.  1.
        1   -1    0    0  501    0  0.00000000000E+00  0.00000000000E+00 -0.68319712173E+03  0.68319712175E+03  0.50400001928E-02 0. -1.
    10030    2    1    2    0    0  0.00000000000E+00  0.00000000000E+00 -0.16109162475E+03  0.12053026188E+04  0.11944889665E+04 0.  0.
        4    1    3    3  502    0 -0.22259457137E+03  0.22438941788E+00 -0.63977509056E+03  0.67739366174E+03  0.12699999809E+01 0. -1.
       -4    1    3    3    0  502  0.22259457137E+03 -0.22438941788E+00  0.47868346581E+03  0.52790895701E+03  0.12699999809E+01 0.  1.
</event>
<event>
 5   0  0.2875848E-03  0.1189366E+04  0.7818609E-02  0.9122216E-01
       -1   -1    0    0    0  501  0.00000000000E+00  0.00000000000E+00  0.65882213398E+03  0.65882213399E+03  0.50400001928E-02 0.  1.
        1   -1    0    0  501    0  0.00000000000E+00  0.00000000000E+00 -0.53678803069E+03  0.53678803072E+03  0.50400001928E-02 0. -1.
    10030    2    1    2    0    0  0.00000000000E+00  0.00000000000E+00  0.12203410328E+03  0.11956101647E+04  0.11893659418E+04 0.  0.
        1    1    3    3  502    0  0.11892532723E+03 -0.21862783836E+03 -0.48191706434E+03  0.54238862644E+03  0.50400001928E-02 0. -1.
       -1    1    3    3    0  502 -0.11892532723E+03  0.21862783836E+03  0.60395116762E+03  0.65322153827E+03  0.50400001928E-02 0.  1.
</event>
<event>
 5   0  0.5003526E-03  0.1200187E+04  0.7818609E-02  0.9112693E-01
       -2   -1    0    0    0  501  0.00000000000E+00  0.00000000000E+00  0.36059834476E+03  0.36059834477E+03  0.25500000920E-02 0.  1.
        2   -1    0    0  501    0  0.00000000000E+00  0.00000000000E+00 -0.99865220541E+03  0.99865220541E+03  0.25500000920E-02 0. -1.
    10030    2    1    2    0    0  0.00000000000E+00  0.00000000000E+00 -0.63805386064E+03  0.13592505502E+04  0.12001872059E+04 0.  0.
        2    1    3    3  502    0 -0.53497245510E+03 -0.25057530149E+03 -0.19955245305E+03  0.62354205227E+03  0.25500000920E-02 0.  1.
       -2    1    3    3    0  502  0.53497245510E+03  0.25057530149E+03 -0.43850140759E+03  0.73570849791E+03  0.25500000920E-02 0. -1.
</event>
<event>
 5   0  0.2875848E-03  0.1206046E+04  0.7818609E-02  0.9107581E-01
        1   -1    0    0  501    0  0.00000000000E+00  0.00000000000E+00  0.15262741719E+04  0.15262741720E+04  0.50400001928E-02 0.  1.
       -1   -1    0    0    0  501  0.00000000000E+00  0.00000000000E+00 -0.23825135265E+03  0.23825135270E+03  0.50400001928E-02 0. -1.
    10030    2    1    2    0    0  0.00000000000E+00  0.00000000000E+00  0.12880228193E+04  0.17645255247E+04  0.12060462446E+04 0.  0.
        1    1    3    3  502    0  0.45253498188E+03 -0.39843893291E+03  0.62972174416E+03  0.87183196097E+03  0.50400001928E-02 0.  1.
       -1    1    3    3    0  502 -0.45253498188E+03  0.39843893291E+03  0.65830107514E+03  0.89269356368E+03  0.50400001928E-02 0. -1.
</event>
<event>
 5   0  0.2875848E-03  0.1196225E+04  0.7818609E-02  0.9116167E-01
        1   -1    0    0  501    0  0.00000000000E+00  0.00000000000E+00  0.60701542803E+03  0.60701542805E+03  0.50400001928E-02 0.  1.
       -1   -1    0    0    0  501  0.00000000000E+00  0.00000000000E+00 -0.58934033965E+03  0.58934033967E+03  0.50400001928E-02 0. -1.
    10030    2    1    2    0    0  0.00000000000E+00  0.00000000000E+00  0.17675088385E+02  0.11963557677E+04  0.11962251938E+04 0.  0.
        1    1    3    3  502    0  0.27754799818E+03  0.17728865379E+03 -0.49049094744E+03  0.59080075119E+03  0.50400001928E-02 0. -1.
       -1    1    3    3    0  502 -0.27754799818E+03 -0.17728865379E+03  0.50816603582E+03  0.60555501653E+03  0.50400001928E-02 0.  1.
</event>
<event>
 5   0  0.1922125E-03  0.1229727E+04  0.7818609E-02  0.9087227E-01
       -4   -1    0    0    0  501  0.00000000000E+00  0.00000000000E+00  0.42225374085E+03  0.42225565071E+03  0.12699999809E+01 0. -1.
        4   -1    0    0  501    0  0.00000000000E+00  0.00000000000E+00 -0.89532717866E+03  0.89532807939E+03  0.12699999809E+01 0.  1.
    10030    2    1    2    0    0  0.00000000000E+00  0.00000000000E+00 -0.47307343781E+03  0.13175837301E+04  0.12297269649E+04 0.  0.
        2    1    3    3  502    0  0.27699425504E+03 -0.33711235109E+03 -0.70071637238E+03  0.82545380798E+03  0.25500000920E-02 0.  1.
       -2    1    3    3    0  502 -0.27699425504E+03  0.33711235109E+03  0.22764293457E+03  0.49212992212E+03  0.25500000920E-02 0. -1.
</event>
<event>
 5   0  0.1922125E-03  0.1209304E+04  0.7818609E-02  0.9104751E-01
       -4   -1    0    0    0  501  0.00000000000E+00  0.00000000000E+00  0.13457747992E+04  0.13457753984E+04  0.12699999809E+01 0.  1.
        4   -1    0    0  501    0  0.00000000000E+00  0.00000000000E+00 -0.27166605948E+03  0.27166902800E+03  0.12699999809E+01 0. -1.
    10030    2    1    2    0    0  0.00000000000E+00  0.00000000000E+00  0.10741087397E+04  0.16174444264E+04  0.12093042991E+04 0.  0.
        5    1    3    3  502    0 -0.13422010392E+03  0.27637236752E+03 -0.15945494878E+03  0.34618592189E+03  0.46999998093E+01 0. -1.
       -5    1    3    3    0  502  0.13422010392E+03 -0.27637236752E+03  0.12335636885E+04  0.12712585045E+04  0.46999998093E+01 0.  1.
</event>
<event>
 5   0  0.2930868E-03  0.1175823E+04  0.7818609E-02  0.9134286E-01
        1   -1    0    0  501    0  0.00000000000E+00  0.00000000000E+00  0.16964489673E+04  0.16964489673E+04  0.50400001928E-02 0. -1.
       -1   -1    0    0    0  501  0.00000000000E+00  0.00000000000E+00 -0.20374307054E+03  0.20374307060E+03  0.50400001928E-02 0.  1.
    10030    2    1    2    0    0  0.00000000000E+00  0.00000000000E+00  0.14927058967E+04  0.19001920379E+04  0.11758226425E+04 0.  0.
        3    1    3    3  502    0 -0.70485562861E+02  0.47454140391E+03  0.12955304471E+04  0.13815053051E+04  0.10100000352E+00 0. -1.
       -3    1    3    3    0  502  0.70485562861E+02 -0.47454140391E+03  0.19717544966E+03  0.51868673276E+03  0.10100000352E+00 0.  1.
</event>
<event>
 5   0  0.2938349E-03  0.1229554E+04  0.7818609E-02  0.9087374E-01
       -1   -1    0    0    0  501  0.00000000000E+00  0.00000000000E+00  0.58902343757E+03  0.58902343759E+03  0.50400001928E-02 0. -1.
        1   -1    0    0  501    0  0.00000000000E+00  0.00000000000E+00 -0.64165690198E+03  0.64165690200E+03  0.50400001928E-02 0.  1.
    10030    2    1    2    0    0  0.00000000000E+00  0.00000000000E+00 -0.52633464409E+02  0.12306803396E+04  0.12295543163E+04 0.  0.
        4    1    3    3  502    0 -0.50805333218E+03  0.30367480410E+03  0.14000634159E+03  0.60822690138E+03  0.12699999809E+01 0. -1.
       -4    1    3    3    0  502  0.50805333218E+03 -0.30367480410E+03 -0.19263980600E+03  0.62245343821E+03  0.12699999809E+01 0.  1.
</event>
<event>
 5   0  0.2938349E-03  0.1188585E+04  0.7818609E-02  0.9122907E-01
        1   -1    0    0  501    0  0.00000000000E+00  0.00000000000E+00  0.52042184517E+03  0.52042184520E+03  0.50400001928E-02 0.  1.
       -1   -1    0    0    0  501  0.00000000000E+00  0.00000000000E+00 -0.67864825424E+03  0.67864825426E+03  0.50400001928E-02 0. -1.
    10030    2    1    2    0    0  0.00000000000E+00  0.00000000000E+00 -0.15822640907E+03  0.11990700995E+04  0.11885846654E+04 0.  0.
        4    1    3    3  502    0 -0.18752431499E+03  0.45573685187E+03 -0.41418833929E+03  0.64375075936E+03  0.12699999809E+01 0. -1.
       -4    1    3    3    0  502  0.18752431499E+03 -0.45573685187E+03  0.25596193022E+03  0.55531934010E+03  0.12699999809E+01 0.  1.
</event>
<event>
 5   0  0.5189537E-03  0.1192467E+04  0.7818609E-02  0.9119476E-01
        2   -1    0    0  501    0  0.00000000000E+00  0.00000000000E+00  0.11154050327E+04  0.11154050327E+04  0.25500000920E-02 0.  1.
       -2   -1    0    0    0  501  0.00000000000E+00  0.00000000000E+00 -0.31871345328E+03  0.31871345329E+03  0.25500000920E-02 0. -1.
    10030    2    1    2    0    0  0.00000000000E+00  0.00000000000E+00  0.79669157944E+03  0.14341184860E+04  0.11924673409E+04 0.  0.
        4    1    3    3  502    0  0.41619395681E+03 -0.39746114279E+03  0.21087071790E+03  0.61291177365E+03  0.12699999809E+01 0. -1.
       -4    1    3    3    0  502 -0.41619395681E+03  0.39746114279E+03  0.58582086154E+03  0.82120671236E+03  0.12699999809E+01 0.  1.
</event>
<event>
 5   0  0.1922125E-03  0.1171336E+04  0.7818609E-02  0.9138323E-01
       -3   -1    0    0    0  501  0.00000000000E+00  0.00000000000E+00  0.89114250299E+03  0.89114250872E+03  0.10100000352E+00 0. -1.
        3   -1    0    0  501    0  0.00000000000E+00  0.00000000000E+00 -0.38490709466E+03  0.38490710791E+03  0.10100000352E+00 0.  1.
    10030    2    1    2    0    0  0.00000000000E+00  0.00000000000E+00  0.50623540833E+03  0.12760496166E+04  0.11713361326E+04 0.  0.
        1    1    3    3  502    0 -0.19736877334E+03 -0.52904303429E+03  0.83766037105E+02  0.57083948166E+03  0.50400001928E-02 0.  1.
       -1    1    3    3    0  502  0.19736877334E+03  0.52904303429E+03  0.42246937123E+03  0.70521013497E+03  0.50400001928E-02 0. -1.
</event>
<event>
 5   0  0.2930868E-03  0.1243221E+04  0.7818609E-02  0.9075844E-01
        1   -1    0    0  501    0  0.00000000000E+00  0.00000000000E+00  0.28331496809E+03  0.28331496814E+03  0.50400001928E-02 0.  1.
       -1   -1    0    0    0  501  0.00000000000E+00  0.00000000000E+00 -0.13638515391E+04  0.13638515391E+04  0.50400001928E-02 0. -1.
    10030    2    1    2    0    0  0.00000000000E+00  0.00000000000E+00 -0.10805365710E+04  0.16471665072E+04  0.12432209061E+04 0.  0.
        3    1    3    3  502    0  0.39062699273E+03  0.81002429513E+02 -0.11718650636E+04  0.12379089541E+04  0.10100000352E+00 0. -1.
       -3    1    3    3    0  502 -0.39062699273E+03 -0.81002429513E+02  0.91328492648E+02  0.40925755314E+03  0.10100000352E+00 0.  1.
</event>
<event>
 5   0  0.5003526E-03  0.1205335E+04  0.7818609E-02  0.9108200E-01
       -2   -1    0    0    0  501  0.00000000000E+00  0.00000000000E+00  0.59411464997E+03  0.59411464998E+03  0.25500000920E-02 0.  1.
        2   -1    0    0  501    0  0.00000000000E+00  0.00000000000E+00 -0.61134359022E+03  0.61134359022E+03  0.25500000920E-02 0. -1.
    10030    2    1    2    0    0  0.00000000000E+00  0.00000000000E+00 -0.17228940243E+02  0.12054582402E+04  0.12053351121E+04 0.  0.
        2    1    3    3  502    0 -0.16656535226E+03 -0.22856511318E+03  0.52362609793E+03  0.59512210342E+03  0.25500000920E-02 0.  1.
       -2    1    3    3    0  502  0.16656535226E+03  0.22856511318E+03 -0.54085503817E+03  0.61033613678E+03  0.25500000920E-02 0. -1.
</event>
<event>
 5   0  0.5031575E-03  0.1211896E+04  0.7818609E-02  0.9102508E-01
       -2   -1    0    0    0  501  0.00000000000E+00  0.00000000000E+00  0.42473499350E+03  0.42473499351E+03  0.25500000920E-02 0. -1.
        2   -1    0    0  501    0  0.00000000000E+00  0.00000000000E+00 -0.86447503641E+03  0.86447503642E+03  0.25500000920E-02 0.  1.
    10030    2    1    2    0    0  0.00000000000E+00  0.00000000000E+00 -0.43974004291E+03  0.12892100299E+04  0.12118957034E+04 0.  0.
        5    1    3    3  502    0 -0.25289266878E+03  0.37311366342E+03 -0.65065126522E+03  0.79154132341E+03  0.46999998093E+01 0.  1.
       -5    1    3    3    0  502  0.25289266878E+03 -0.37311366342E+03  0.21091122231E+03  0.49766870651E+03  0.46999998093E+01 0. -1.
</event>
<event>
 5   0  0.5108045E-03  0.1209412E+04  0.7818609E-02  0.9104658E-01
       -2   -1    0    0    0  501  0.00000000000E+00  0.00000000000E+00  0.33082363288E+03  0.33082363289E+03  0.25500000920E-02 0.  1.
        2   -1    0    0  501    0  0.00000000000E+00  0.00000000000E+00 -0.11053302711E+04  0.11053302711E+04  0.25500000920E-02 0. -1.
    10030    2    1    2    0    0  0.00000000000E+00  0.00000000000E+00 -0.77450663820E+03  0.14361539040E+04  0.12094120486E+04 0.  0.
        3    1    3    3  502    0 -0.25514052935E+03  0.40105153003E+03  0.56633306381E+02  0.47869234489E+03  0.10100000352E+00 0.  1.
       -3    1    3    3    0  502  0.25514052935E+03 -0.40105153003E+03 -0.83113994458E+03  0.95746155909E+03  0.10100000352E+00 0. -1.
</event>
<event>
 5   0  0.2792518E-03  0.1257523E+04  0.7818609E-02  0.9063945E-01
        1   -1    0    0  501    0  0.00000000000E+00  0.00000000000E+00  0.55906676289E+03  0.55906676291E+03  0.50400001928E-02 0.  1.
       -1   -1    0    0    0  501  0.00000000000E+00  0.00000000000E+00 -0.70714499116E+03  0.70714499118E+03  0.50400001928E-02 0. -1.
    10030    2    1    2    0    0  0.00000000000E+00  0.00000000000E+00 -0.14807822827E+03  0.12662117541E+04  0.12575233773E+04 0.  0.
        2    1    3    3  502    0 -0.19337885524E+03  0.52780731613E+03 -0.35770404619E+03  0.66627931777E+03  0.25500000920E-02 0. -1.
       -2    1    3    3    0  502  0.19337885524E+03 -0.52780731613E+03  0.20962581791E+03  0.59993243633E+03  0.25500000920E-02 0.  1.
</event>
<event>
 5   0  0.5108045E-03  0.1174259E+04  0.7818609E-02  0.9135691E-01
        2   -1    0    0  501    0  0.00000000000E+00  0.00000000000E+00  0.79349759453E+03  0.79349759454E+03  0.25500000920E-02 0.  1.
       -2   -1    0    0    0  501  0.00000000000E+00  0.00000000000E+00 -0.43443245370E+03  0.43443245371E+03  0.25500000920E-02 0. -1.
    10030    2    1    2    0    0  0.00000000000E+00  0.00000000000E+00  0.35906514083E+03  0.12279300482E+04  0.11742590975E+04 0.  0.
        3    1    3    3  502    0  0.56365965172E+03 -0.45343482340E+02  0.14347847324E+02  0.56566253658E+03  0.10100000352E+00 0.  1.
       -3    1    3    3    0  502 -0.56365965172E+03  0.45343482340E+02  0.34471729350E+03  0.66226751167E+03  0.10100000352E+00 0. -1.
</event>
<event>
 5   0  0.2926844E-03  0.1216898E+04  0.7818609E-02  0.9098193E-01
       -1   -1    0    0    0  501  0.00000000000E+00  0.00000000000E+00  0.65086485233E+03  0.65086485235E+03  0.50400001928E-02 0. -1.
        1   -1    0    0  501    0  0.00000000000E+00  0.00000000000E+00 -0.56879696336E+03  0.56879696338E+03  0.50400001928E-02 0.  1.
    10030    2    1    2    0    0  0.00000000000E+00  0.00000000000E+00  0.82067888972E+02  0.12196618157E+04  0.12168976154E+04 0.  0.
        5    1    3    3  502    0  0.15309261106E+02  0.22550027038E+03  0.60720923295E+03  0.64792737864E+03  0.46999998093E+01 0. -1.
       -5    1    3    3    0  502 -0.15309261106E+02 -0.22550027038E+03 -0.52514134397E+03  0.57173443710E+03  0.46999998093E+01 0.  1.
</event>
<event>
 5   0  0.2930868E-03  0.1189328E+04  0.7818609E-02  0.9122249E-01
        1   -1    0    0  501    0  0.00000000000E+00  0.00000000000E+00  0.17522580516E+04  0.17522580516E+04  0.50400001928E-02 0. -1.
       -1   -1    0    0    0  501  0.00000000000E+00  0.00000000000E+00 -0.20181132621E+03  0.20181132627E+03  0.50400001928E-02 0.  1.
    10030    2    1    2    0    0  0.00000000000E+00  0.00000000000E+00  0.15504467254E+04  0.19540693779E+04  0.11893284177E+04 0.  0.
        3    1    3    3  502    0  0.18595375388E+03 -0.55572170548E+03  0.60912485695E+03  0.84524464747E+03  0.10100000352E+00 0. -1.
       -3    1    3    3    0  502 -0.18595375388E+03  0.55572170548E+03  0.94132186843E+03  0.11088247304E+04  0.10100000352E+00 0.  1.
</event>
<event>
 5   0  0.2938349E-03  0.1033247E+04  0.7818609E-02  0.9272813E-01
       -1   -1    0    0    0  501  0.00000000000E+00  0.00000000000E+00  0.37056717054E+03  0.37056717058E+03  0.50400001928E-02 0. -1.
        1   -1    0    0  501    0  0.00000000000E+00  0.00000000000E+00 -0.72024751116E+03  0.72024751118E+03  0.50400001928E-02 0.  1.
    10030    2    1    2    0    0  0.00000000000E+00  0.00000000000E+00 -0.34968034061E+03  0.10908146818E+04  0.10332474676E+04 0.  0.
        4    1    3    3  502    0 -0.38362275308E+03  0.50496417909E+02 -0.53623121212E+03  0.66125776415E+03  0.12699999809E+01 0.  1.
       -4    1    3    3    0  502  0.38362275308E+03 -0.50496417909E+02  0.18655087151E+03  0.42955691760E+03  0.12699999809E+01 0. -1.
</event>
<event>
 5   0  0.5189537E-03  0.1188819E+04  0.7818609E-02  0.9122700E-01
       -2   -1    0    0    0  501  0.00000000000E+00  0.00000000000E+00  0.34756625766E+03  0.34756625767E+03  0.25500000920E-02 0.  1.
        2   -1    0    0  501    0  0.00000000000E+00  0.00000000000E+00 -0.10165616955E+04  0.10165616955E+04  0.25500000920E-02 0. -1.
    10030    2    1    2    0    0  0.00000000000E+00  0.00000000000E+00 -0.66899543786E+03  0.13641279532E+04  0.11888188158E+04 0.  0.
        4    1    3    3  502    0  0.16382403935E+02  0.19998278484E+03 -0.97652404425E+03  0.99692643625E+03  0.12699999809E+01 0. -1.
       -4    1    3    3    0  502 -0.16382403935E+02 -0.19998278484E+03  0.30752860639E+03  0.36720151694E+03  0.12699999809E+01 0.  1.
</event>
<event>
 5   0  0.2938349E-03  0.1249991E+04  0.7818609E-02  0.9070191E-01
        1   -1    0    0  501    0  0.00000000000E+00  0.00000000000E+00  0.74670319422E+03  0.74670319424E+03  0.50400001928E-02 0.  1.
       -1   -1    0    0    0  501  0.00000000000E+00  0.00000000000E+00 -0.52312496606E+03  0.52312496608E+03  0.50400001928E-02 0. -1.
    10030    2    1    2    0    0  0.00000000000E+00  0.00000000000E+00  0.22357822817E+03  0.12698281603E+04  0.12499905330E+04 0.  0.
        4    1    3    3  502    0 -0.13254534426E+03 -0.22629719319E+03  0.68810078999E+03  0.73638508813E+03  0.12699999809E+01 0.  1.
       -4    1    3    3    0  502  0.13254534426E+03  0.22629719319E+03 -0.46452256182E+03  0.53344307220E+03  0.12699999809E+01 0. -1.
</event>
<event>
 5   0  0.1922125E-03  0.1196927E+04  0.7818609E-02  0.9115550E-01
        4   -1    0    0  501    0  0.00000000000E+00  0.00000000000E+00  0.18300882617E+03  0.18301323273E+03  0.12699999809E+01 0. -1.
       -4   -1    0    0    0  501  0.00000000000E+00  0.00000000000E+00 -0.19570290439E+04  0.19570294560E+04  0.12699999809E+01 0.  1.
    10030    2    1    2    0    0  0.00000000000E+00  0.00000000000E+00 -0.17740202177E+04  0.21400426887E+04  0.11969273063E+04 0.  0.
        1    1    3    3  502    0  0.39979888463E+03 -0.98130280790E+01 -0.90975383971E+02  0.41013651896E+03  0.50400001928E-02 0. -1.
       -1    1    3    3    0  502 -0.39979888463E+03  0.98130280790E+01 -0.16830448338E+04  0.17299061697E+04  0.50400001928E-02 0.  1.
</event>
<event>
 5   0  0.2930868E-03  0.1191071E+04  0.7818609E-02  0.9120708E-01
       -1   -1    0    0    0  501  0.00000000000E+00  0.00000000000E+00  0.34881340870E+03  0.34881340874E+03  0.50400001928E-02 0. -1.
        1   -1    0    0  501    0  0.00000000000E+00  0.00000000000E+00 -0.10167693549E+04  0.10167693549E+04  0.50400001928E-02 0.  1.
    10030    2    1    2    0    0  0.00000000000E+00  0.00000000000E+00 -0.66795594620E+03  0.13655827637E+04  0.11910714245E+04 0.  0.
        3    1    3    3  502    0 -0.26805102243E+02 -0.58897654483E+03 -0.23770548262E+03  0.63570102291E+03  0.10100000352E+00 0. -1.
       -3    1    3    3    0  502  0.26805102243E+02  0.58897654483E+03 -0.43025046358E+03  0.72988174075E+03  0.10100000352E+00 0.  1.
</event>
<event>
 5   0  0.5003526E-03  0.1197453E+04  0.7818609E-02  0.9115089E-01
        2   -1    0    0  501    0  0.00000000000E+00  0.00000000000E+00  0.71247903108E+03  0.71247903109E+03  0.25500000920E-02 0.  1.
       -2   -1    0    0    0  501  0.00000000000E+00  0.00000000000E+00 -0.50313504618E+03  0.50313504618E+03  0.25500000920E-02 0. -1.
    10030    2    1    2    0    0  0.00000000000E+00  0.00000000000E+00  0.20934398491E+03  0.12156140773E+04  0.11974525798E+04 0.  0.
        2    1    3    3  502    0  0.39090460914E+03  0.39945663741E+03 -0.11329628082E+03  0.57027016919E+03  0.25500000920E-02 0. -1.
       -2    1    3    3    0  502 -0.39090460914E+03 -0.39945663741E+03  0.32264026573E+03  0.64534390808E+03  0.25500000920E-02 0.  1.
</event>
<event>
 5   0  0.5189537E-03  0.1244362E+04  0.7818609E-02  0.9074889E-01
        2   -1    0    0  501    0  0.00000000000E+00  0.00000000000E+00  0.61929019452E+03  0.61929019452E+03  0.25500000920E-02 0.  1.
       -2   -1    0    0    0  501  0.00000000000E+00  0.00000000000E+00 -0.62508564791E+03  0.62508564791E+03  0.25500000920E-02 0. -1.
    10030    2    1    2    0    0  0.00000000000E+00  0.00000000000E+00 -0.57954533865E+01  0.12443758424E+04  0.12443623467E+04 0.  0.
        4    1    3    3  502    0 -0.38291028384E+03 -0.36350556023E+03 -0.33206876439E+03  0.62372097525E+03  0.12699999809E+01 0. -1.
       -4    1    3    3    0  502  0.38291028384E+03  0.36350556023E+03  0.32627331100E+03  0.62065486718E+03  0.12699999809E+01 0.  1.
</event>
<event>
 5   0  0.5003526E-03  0.1207671E+04  0.7818609E-02  0.9106168E-01
       -2   -1    0    0    0  501  0.00000000000E+00  0.00000000000E+00  0.57213830472E+03  0.57213830473E+03  0.25500000920E-02 0.  1.
        2   -1    0    0  501    0  0.00000000000E+00  0.00000000000E+00 -0.63728889280E+03  0.63728889281E+03  0.25500000920E-02 0. -1.
    10030    2    1    2    0    0  0.00000000000E+00  0.00000000000E+00 -0.65150588082E+02  0.12094271975E+04  0.12076711254E+04 0.  0.
        2    1    3    3  502    0 -0.75142902495E+02  0.28096342857E+03 -0.56252383719E+03  0.63326137685E+03  0.25500000920E-02 0. -1.
       -2    1    3    3    0  502  0.75142902495E+02 -0.28096342857E+03  0.49737324911E+03  0.57616582069E+03  0.25500000920E-02 0.  1.
</event>
<event>
 5   0  0.2938349E-03  0.1224109E+04  0.7818609E-02  0.9092012E-01
        1   -1    0    0  501    0  0.00000000000E+00  0.00000000000E+00  0.87791871908E+03  0.87791871910E+03  0.50400001928E-02 0. -1.
       -1   -1    0    0    0  501  0.00000000000E+00  0.00000000000E+00 -0.42670339498E+03  0.42670339501E+03  0.50400001928E-02 0.  1.
    10030    2    1    2    0    0  0.00000000000E+00  0.00000000000E+00  0.45121532411E+03  0.13046221141E+04  0.12241093055E+04 0.  0.
        4    1    3    3  502    0  0.22271053132E+03 -0.45858953171E+03 -0.13534945414E+03  0.52747078307E+03  0.12699999809E+01 0.  1.
       -4    1    3    3    0  502 -0.22271053132E+03  0.45858953171E+03  0.58656477824E+03  0.77715133103E+03  0.12699999809E+01 0. -1.
</event>
<event>
 5   0  0.5031575E-03  0.1177753E+04  0.7818609E-02  0.9132555E-01
       -2   -1    0    0    0  501  0.00000000000E+00  0.00000000000E+00  0.36499777851E+03  0.36499777852E+03  0.25500000920E-02 0.  1.
        2   -1    0    0  501    0  0.00000000000E+00  0.00000000000E+00 -0.95007598614E+03  0.95007598615E+03  0.25500000920E-02 0. -1.
    10030    2    1    2    0    0  0.00000000000E+00  0.00000000000E+00 -0.58507820764E+03  0.13150737647E+04  0.11777531564E+04 0.  0.
        5    1    3    3  502    0 -0.35304641055E+03  0.29889359615E+03  0.11432838217E+03  0.47652095315E+03  0.46999998093E+01 0.  1.
       -5    1    3    3    0  502  0.35304641055E+03 -0.29889359615E+03 -0.69940658981E+03  0.83855281151E+03  0.46999998093E+01 0. -1.
</event>
<event>
 5   0  0.2792518E-03  0.1169327E+04  0.7818609E-02  0.9140137E-01
       -1   -1    0    0    0  501  0.00000000000E+00  0.00000000000E+00  0.30399628014E+03  0.30399628018E+03  0.50400001928E-02 0. -1.
        1   -1    0    0  501    0  0.00000000000E+00  0.00000000000E+00 -0.11244586429E+04  0.11244586429E+04  0.50400001928E-02 0.  1.
    10030    2    1    2    0    0  0.00000000000E+00  0.00000000000E+00 -0.82046236278E+03  0.14284549231E+04  0.11693267202E+04 0.  0.
        2    1    3    3  502    0 -0.23714337506E+03  0.13221853702E+03  0.22231059792E+03  0.35091412599E+03  0.25500000920E-02 0. -1.
       -2    1    3    3    0  502  0.23714337506E+03 -0.13221853702E+03 -0.10427729607E+04  0.10775407971E+04  0.25500000920E-02 0.  1.
</event>
<event>
 5   0  0.2875848E-03  0.1248983E+04  0.7818609E-02  0.9071030E-01
        1   -1    0    0  501    0  0.00000000000E+00  0.00000000000E+00  0.76510882311E+03  0.76510882312E+03  0.50400001928E-02 0. -1.
       -1   -1    0    0    0  501  0.00000000000E+00  0.00000000000E+00 -0.50971802587E+03  0.50971802589E+03  0.50400001928E-02 0.  1.
    10030    2    1    2    0    0  0.00000000000E+00  0.00000000000E+00  0.25539079724E+03  0.12748268490E+04  0.12489832007E+04 0.  0.
        1    1    3    3  502    0  0.34687750531E+03 -0.51845897923E+03  0.97657877073E+02  0.63139589626E+03  0.50400001928E-02 0.  1.
       -1    1    3    3    0  502 -0.34687750531E+03  0.51845897923E+03  0.15773292017E+03  0.64343095275E+03  0.50400001928E-02 0. -1.
</event>
<event>
 5   0  0.2926844E-03  0.9724157E+03  0.7818609E-02  0.9339327E-01
       -1   -1    0    0    0  501  0.00000000000E+00  0.00000000000E+00  0.40936247428E+03  0.40936247431E+03  0.50400001928E-02 0. -1.
        1   -1    0    0  501    0  0.00000000000E+00  0.00000000000E+00 -0.57747855661E+03  0.57747855663E+03  0.50400001928E-02 0.  1.
    10030    2    1    2    0    0  0.00000000000E+00  0.00000000000E+00 -0.16811608233E+03  0.98684103094E+03  0.97241565352E+03 0.  0.
        5    1    3    3  502    0 -0.20788109356E+02  0.15362733710E+03  0.38358413813E+03  0.41375401535E+03  0.46999998093E+01 0. -1.
       -5    1    3    3    0  502  0.20788109356E+02 -0.15362733710E+03 -0.55170022046E+03  0.57308701560E+03  0.46999998093E+01 0.  1.
</event>
<event>
 5   0  0.2938349E-03  0.1222803E+04  0.7818609E-02  0.9093128E-01
        1   -1    0    0  501    0  0.00000000000E+00  0.00000000000E+00  0.61322781379E+03  0.61322781381E+03  0.50400001928E-02 0. -1.
       -1   -1    0    0    0  501  0.00000000000E+00  0.00000000000E+00 -0.60958013450E+03  0.60958013452E+03  0.50400001928E-02 0.  1.
    10030    2    1    2    0    0  0.00000000000E+00  0.00000000000E+00  0.36476792895E+01  0.12228079483E+04  0.12228025077E+04 0.  0.
        4    1    3    3  502    0 -0.92656266303E+02 -0.38779788991E+03 -0.46168387872E+03  0.61002131428E+03  0.12699999809E+01 0.  1.
       -4    1    3    3    0  502  0.92656266303E+02  0.38779788991E+03  0.46533155801E+03  0.61278663406E+03  0.12699999809E+01 0. -1.
</event>
<event>
 5   0  0.5467554E-03  0.1201333E+04  0.7818609E-02  0.9111691E-01
       -2   -1    0    0    0  501  0.00000000000E+00  0.00000000000E+00  0.19357892042E+03  0.19357892043E+03  0.25500000920E-02 0. -1.
        2   -1    0    0  501    0  0.00000000000E+00  0.00000000000E+00 -0.18638394875E+04  0.18638394875E+04  0.25500000920E-02 0.  1.
    10030    2    1    2    0    0  0.00000000000E+00  0.00000000000E+00 -0.16702605671E+04  0.20574184080E+04  0.12013326531E+04 0.  0.
        1    1    3    3  502    0 -0.58125659377E+03 -0.14798836286E+03 -0.77989345710E+03  0.98386665143E+03  0.50400001928E-02 0.  1.
       -1    1    3    3    0  502  0.58125659377E+03  0.14798836286E+03 -0.89036711001E+03  0.10735517565E+04  0.50400001928E-02 0. -1.
</event>
<event>
 5   0  0.2875848E-03  0.1167664E+04  0.7818609E-02  0.9141641E-01
       -1   -1    0    0    0  501  0.00000000000E+00  0.00000000000E+00  0.11774800560E+04  0.11774800560E+04  0.50400001928E-02 0. -1.
        1   -1    0    0  501    0  0.00000000000E+00  0.00000000000E+00 -0.28948229992E+03  0.28948229997E+03  0.50400001928E-02 0.  1.
    10030    2    1    2    0    0  0.00000000000E+00  0.00000000000E+00  0.88799775607E+03  0.14669623560E+04  0.11676637097E+04 0.  0.
        1    1    3    3  502    0 -0.46682667990E+03 -0.10341898276E+03  0.23108293120E+02  0.47870306903E+03  0.50400001928E-02 0.  1.
       -1    1    3    3    0  502  0.46682667990E+03  0.10341898276E+03  0.86488946295E+03  0.98825928694E+03  0.50400001928E-02 0. -1.
</event>
<event>
 5   0  0.5108045E-03  0.1253600E+04  0.7818609E-02  0.9067193E-01
        2   -1    0    0  501    0  0.00000000000E+00  0.00000000000E+00  0.52525537258E+03  0.52525537258E+03  0.25500000920E-02 0.  1.
       -2   -1    0    0    0  501  0.00000000000E+00  0.00000000000E+00 -0.74797526794E+03  0.74797526794E+03  0.25500000920E-02 0. -1.
    10030    2    1    2    0    0  0.00000000000E+00  0.00000000000E+00 -0.22271989536E+03  0.12732306405E+04  0.12535996618E+04 0.  0.
        3    1    3    3  502    0 -0.50270444816E+03  0.12590319795E+03  0.24674420244E+03  0.57397394461E+03  0.10100000352E+00 0.  1.
       -3    1    3    3    0  502  0.50270444816E+03 -0.12590319795E+03 -0.46946409780E+03  0.69925669591E+03  0.10100000352E+00 0. -1.
</event>
<event>
 5   0  0.5108045E-03  0.1196801E+04  0.7818609E-02  0.9115661E-01
        2   -1    0    0  501    0  0.00000000000E+00  0.00000000000E+00  0.88976012745E+03  0.88976012745E+03  0.25500000920E-02 0. -1.
       -2   -1    0    0    0  501  0.00000000000E+00  0.00000000000E+00 -0.40244898008E+03  0.40244898009E+03  0.25500000920E-02 0.  1.
    10030    2    1    2    0    0  0.00000000000E+00  0.00000000000E+00  0.48731114736E+03  0.12922091075E+04  0.11968008286E+04 0.  0.
        3    1    3    3  502    0  0.56890460991E+03  0.66243712644E+02  0.43080045217E+03  0.71667965259E+03  0.10100000352E+00 0. -1.
       -3    1    3    3    0  502 -0.56890460991E+03 -0.66243712644E+02  0.56510695192E+02  0.57552945495E+03  0.10100000352E+00 0.  1.
</event>
<event>
 5   0  0.5467554E-03  0.1077460E+04  0.7818609E-02  0.9227444E-01
        2   -1    0    0  501    0  0.00000000000E+00  0.00000000000E+00  0.11181653299E+04  0.11181653299E+04  0.25500000920E-02 0. -1.
       -2   -1    0    0    0  501  0.00000000000E+00  0.00000000000E+00 -0.25955911046E+03  0.25955911048E+03  0.25500000920E-02 0.  1.
    10030    2    1    2    0    0  0.00000000000E+00  0.00000000000E+00  0.85860621943E+03  0.13777244404E+04  0.10774599731E+04 0.  0.
        1    1    3    3  502    0  0.35857107944E+03  0.19590159485E+03 -0.19655573487E+02  0.40906844839E+03  0.50400001928E-02 0.  1.
       -1    1    3    3    0  502 -0.35857107944E+03 -0.19590159485E+03  0.87826179291E+03  0.96865599198E+03  0.50400001928E-02 0. -1.
</event>
<event>
 5   0  0.5031575E-03  0.1206472E+04  0.7818609E-02  0.9107210E-01
       -2   -1    0    0    0  501  0.00000000000E+00  0.00000000000E+00  0.81846578105E+03  0.81846578105E+03  0.25500000920E-02 0.  1.
        2   -1    0    0  501    0  0.00000000000E+00  0.00000000000E+00 -0.44460486308E+03  0.44460486309E+03  0.25500000920E-02 0. -1.
    10030    2    1    2    0    0  0.00000000000E+00  0.00000000000E+00  0.37386091797E+03  0.12630706441E+04  0.12064723230E+04 0.  0.
        5    1    3    3  502    0  0.48320017289E+03  0.35305006715E+03  0.10757879597E+03  0.60804773196E+03  0.46999998093E+01 0. -1.
       -5    1    3    3    0  502 -0.48320017289E+03 -0.35305006715E+03  0.26628212200E+03  0.65502291219E+03  0.46999998093E+01 0.  1.
</event>
<event>
 5   0  0.2926844E-03  0.1154218E+04  0.7818609E-02  0.9153901E-01
        1   -1    0    0  501    0  0.00000000000E+00  0.00000000000E+00  0.76205387206E+03  0.76205387208E+03  0.50400001928E-02 0. -1.
       -1   -1    0    0    0  501  0.00000000000E+00  0.00000000000E+00 -0.43704858038E+03  0.43704858041E+03  0.50400001928E-02 0.  1.
    10030    2    1    2    0    0  0.00000000000E+00  0.00000000000E+00  0.32500529168E+03  0.11991024525E+04  0.11542175930E+04 0.  0.
        5    1    3    3  502    0 -0.33407297827E+02  0.12937312105E+03  0.74574258049E+03  0.75763285195E+03  0.46999998093E+01 0. -1.
       -5    1    3    3    0  502  0.33407297827E+02 -0.12937312105E+03 -0.42073728881E+03  0.44146960053E+03  0.46999998093E+01 0.  1.
</event>
<event>
 5   0  0.5108045E-03  0.1159302E+04  0.7818609E-02  0.9149245E-01
       -2   -1    0    0    0  501  0.00000000000E+00  0.00000000000E+00  0.17557079789E+03  0.17557079791E+03  0.25500000920E-02 0. -1.
        2   -1    0    0  501    0  0.00000000000E+00  0.00000000000E+00 -0.19137311079E+04  0.19137311079E+04  0.25500000920E-02 0.  1.
    10030    2    1    2    0    0  0.00000000000E+00  0.00000000000E+00 -0.17381603100E+04  0.20893019058E+04  0.11593020272E+04 0.  0.
        3    1    3    3  502    0  0.35059418297E+03  0.17850888073E+02 -0.17003651765E+04  0.17362248354E+04  0.10100000352E+00 0.  1.
       -3    1    3    3    0  502 -0.35059418297E+03 -0.17850888073E+02 -0.37795133483E+02  0.35307707041E+03  0.10100000352E+00 0. -1.
</event>
<event>
 5   0  0.2792518E-03  0.1205638E+04  0.7818609E-02  0.9107936E-01
       -1   -1    0    0    0  501  0.00000000000E+00  0.00000000000E+00  0.28813117632E+03  0.28813117636E+03  0.50400001928E-02 0. -1.
        1   -1    0    0  501    0  0.00000000000E+00  0.00000000000E+00 -0.12611998174E+04  0.12611998174E+04  0.50400001928E-02 0.  1.
    10030    2    1    2    0    0  0.00000000000E+00  0.00000000000E+00 -0.97306864106E+03  0.15493309937E+04  0.12056383985E+04 0.  0.
        2    1    3    3  502    0 -0.38512303539E+03 -0.16798135132E+03  0.68957612291E+02  0.42578473326E+03  0.25500000920E-02 0. -1.
       -2    1    3    3    0  502  0.38512303539E+03  0.16798135132E+03 -0.10420262533E+04  0.11235462605E+04  0.25500000920E-02 0.  1.
</event>
<event>
 5   0  0.2875848E-03  0.1222188E+04  0.7818609E-02  0.9093654E-01
        1   -1    0    0  501    0  0.00000000000E+00  0.00000000000E+00  0.41502015023E+03  0.41502015026E+03  0.50400001928E-02 0. -1.
       -1   -1    0    0    0  501  0.00000000000E+00  0.00000000000E+00 -0.89980217121E+03  0.89980217122E+03  0.50400001928E-02 0.  1.
    10030    2    1    2    0    0  0.00000000000E+00  0.00000000000E+00 -0.48478202097E+03  0.13148223215E+04  0.12221882544E+04 0.  0.
        1    1    3    3  502    0  0.41051082466E+03  0.14331226411E+03 -0.70432943599E+03  0.82773032845E+03  0.50400001928E-02 0.  1.
       -1    1    3    3    0  502 -0.41051082466E+03 -0.14331226411E+03  0.21954741502E+03  0.48709199303E+03  0.50400001928E-02 0. -1.
</event>
<event>
 5   0  0.2930868E-03  0.1179431E+04  0.7818609E-02  0.9131053E-01
        1   -1    0    0  501    0  0.00000000000E+00  0.00000000000E+00  0.57617378808E+03  0.57617378810E+03  0.50400001928E-02 0. -1.
       -1   -1    0    0    0  501  0.00000000000E+00  0.00000000000E+00 -0.60357548934E+03  0.60357548936E+03  0.50400001928E-02 0.  1.
    10030    2    1    2    0    0  0.00000000000E+00  0.00000000000E+00 -0.27401701259E+02  0.11797492775E+04  0.11794310088E+04 0.  0.
        3    1    3    3  502    0  0.45704488555E+03  0.32194724213E+03 -0.20143290667E+03  0.59423503785E+03  0.10100000352E+00 0.  1.
       -3    1    3    3    0  502 -0.45704488555E+03 -0.32194724213E+03  0.17403120541E+03  0.58551423961E+03  0.10100000352E+00 0. -1.
</event>
<event>
 5   0  0.2930868E-03  0.1192866E+04  0.7818609E-02  0.9119124E-01
       -1   -1    0    0    0  501  0.00000000000E+00  0.00000000000E+00  0.31219651598E+03  0.31219651602E+03  0.50400001928E-02 0. -1.
        1   -1    0    0  501    0  0.00000000000E+00  0.00000000000E+00 -0.11394497925E+04  0.11394497925E+04  0.50400001928E-02 0.  1.
    10030    2    1    2    0    0  0.00000000000E+00  0.00000000000E+00 -0.82725327655E+03  0.14516463086E+04  0.11928658858E+04 0.  0.
        3    1    3    3  502    0 -0.53051076468E+03 -0.17026622198E+03 -0.15461562189E+03  0.57821990499E+03  0.10100000352E+00 0.  1.
       -3    1    3    3    0  502  0.53051076468E+03  0.17026622198E+03 -0.67263765466E+03  0.87342640357E+03  0.10100000352E+00 0. -1.
</event>
<event>
 5   0  0.5003526E-03  0.1218138E+04  0.7818609E-02  0.9097127E-01
        2   -1    0    0  501    0  0.00000000000E+00  0.00000000000E+00  0.17795235816E+04  0.17795235816E+04  0.25500000920E-02 0. -1.
       -2   -1    0    0    0  501  0.00000000000E+00  0.00000000000E+00 -0.20846320307E+03  0.20846320308E+03  0.25500000920E-02 0.  1.
    10030    2    1    2    0    0  0.00000000000E+00  0.00000000000E+00  0.15710603785E+04  0.19879867847E+04  0.12181382282E+04 0.  0.
        2    1    3    3  502    0  0.79409430568E+02 -0.48121214833E+03  0.13809132572E+04  0.14645109809E+04  0.25500000920E-02 0. -1.
       -2    1    3    3    0  502 -0.79409430568E+02  0.48121214833E+03  0.19014712134E+03  0.52347580376E+03  0.25500000920E-02 0.  1.
</event>
<event>
 5   0  0.2926844E-03  0.1178516E+04  0.7818609E-02  0.9131872E-01
        1   -1    0    0  501    0  0.00000000000E+00  0.00000000000E+00  0.14406863857E+03  0.14406863866E+03  0.50400001928E-02 0.  1.
       -1   -1    0    0    0  501  0.00000000000E+00  0.00000000000E+00 -0.24101344325E+04  0.24101344325E+04  0.50400001928E-02 0. -1.
    10030    2    1    2    0    0  0.00000000000E+00  0.00000000000E+00 -0.22660657939E+04  0.25542030712E+04  0.11785156538E+04 0.  0.
        5    1    3    3  502    0 -0.47077878389E+03 -0.32815029057E+03 -0.84316913810E+03  0.10199370383E+04  0.46999998093E+01 0.  1.
       -5    1    3    3    0  502  0.47077878389E+03  0.32815029057E+03 -0.14228966558E+04  0.15342660329E+04  0.46999998093E+01 0. -1.
</event>
<event>
 5   0  0.5031575E-03  0.1182929E+04  0.7818609E-02  0.9127931E-01
        2   -1    0    0  501    0  0.00000000000E+00  0.00000000000E+00  0.27549461917E+03  0.27549461918E+03  0.25500000920E-02 0. -1.
       -2   -1    0    0    0  501  0.00000000000E+00  0.00000000000E+00 -0.12698265491E+04  0.12698265491E+04  0.25500000920E-02 0.  1.
    10030    2    1    2    0    0  0.00000000000E+00  0.00000000000E+00 -0.99433192994E+03  0.15453211683E+04  0.11829292144E+04 0.  0.
        5    1    3    3  502    0 -0.23095485874E+03  0.37395468012E+03 -0.10141676789E+04  0.11053236723E+04  0.46999998093E+01 0.  1.
       -5    1    3    3    0  502  0.23095485874E+03 -0.37395468012E+03  0.19835748969E+02  0.43999749601E+03  0.46999998093E+01 0. -1.
</event>
<event>
 5   0  0.2792518E-03  0.1199031E+04  0.7818609E-02  0.9113705E-01
        1   -1    0    0  501    0  0.00000000000E+00  0.00000000000E+00  0.93912322774E+03  0.93912322775E+03  0.50400001928E-02 0. -1.
       -1   -1    0    0    0  501  0.00000000000E+00  0.00000000000E+00 -0.38271728726E+03  0.38271728729E+03  0.50400001928E-02 0.  1.
    10030    2    1    2    0    0  0.00000000000E+00  0.00000000000E+00  0.55640594048E+03  0.13218405150E+04  0.11990307655E+04 0.  0.
        2    1    3    3  502    0 -0.40421781758E+03 -0.17130274855E+03  0.72828648664E+03  0.85037514212E+03  0.25500000920E-02 0. -1.
       -2    1    3    3    0  502  0.40421781758E+03  0.17130274855E+03 -0.17188054616E+03  0.47146537292E+03  0.25500000920E-02 0.  1.
</event>
<event>
 5   0  0.1922125E-03  0.1191643E+04  0.7818609E-02  0.9120203E-01
       -4   -1    0    0    0  501  0.00000000000E+00  0.00000000000E+00  0.60042976978E+03  0.60043111290E+03  0.12699999809E+01 0.  1.
        4   -1    0    0  501    0  0.00000000000E+00  0.00000000000E+00 -0.59124605643E+03  0.59124742041E+03  0.12699999809E+01 0. -1.
    10030    2    1    2    0    0  0.00000000000E+00  0.00000000000E+00  0.91837133469E+01  0.11916785333E+04  0.11916431455E+04 0.  0.
        5    1    3    3  502    0  0.20182923264E+03 -0.14291014234E+03 -0.53747858155E+03  0.59166178139E+03  0.46999998093E+01 0. -1.
       -5    1    3    3    0  502 -0.20182923264E+03  0.14291014234E+03  0.54666229490E+03  0.60001675193E+03  0.46999998093E+01 0.  1.
</event>
<event>
 5   0  0.2875848E-03  0.1140405E+04  0.7818609E-02  0.9166681E-01
        1   -1    0    0  501    0  0.00000000000E+00  0.00000000000E+00  0.76621702160E+03  0.76621702161E+03  0.50400001928E-02 0. -1.
       -1   -1    0    0    0  501  0.00000000000E+00  0.00000000000E+00 -0.42433266868E+03  0.42433266871E+03  0.50400001928E-02 0.  1.
    10030    2    1    2    0    0  0.00000000000E+00  0.00000000000E+00  0.34188435291E+03  0.11905496903E+04  0.11404050396E+04 0.  0.
        1    1    3    3  502    0  0.42662121352E+03 -0.12776645803E+03 -0.20080674206E+03  0.48852151980E+03  0.50400001928E-02 0.  1.
       -1    1    3    3    0  502 -0.42662121352E+03  0.12776645803E+03  0.54269109497E+03  0.70202817052E+03  0.50400001928E-02 0. -1.
</event>
<event>
 5   0  0.2792518E-03  0.1099135E+04  0.7818609E-02  0.9206035E-01
       -1   -1    0    0    0  501  0.00000000000E+00  0.00000000000E+00  0.15623784374E+04  0.15623784374E+04  0.50400001928E-02 0. -1.
        1   -1    0    0  501    0  0.00000000000E+00  0.00000000000E+00 -0.19331066181E+03  0.19331066188E+03  0.50400001928E-02 0.  1.
    10030    2    1    2    0    0  0.00000000000E+00  0.00000000000E+00  0.13690677756E+04  0.17556890993E+04  0.10991349504E+04 0.  0.
        2    1    3    3  502    0 -0.36679918073E+03  0.23482150177E+02  0.13371616735E+04  0.13867567888E+04  0.25500000920E-02 0. -1.
       -2    1    3    3    0  502  0.36679918073E+03 -0.23482150177E+02  0.31906102143E+02  0.36893231048E+03  0.25500000920E-02 0.  1.
</event>
<event>
 5   0  0.5467554E-03  0.1168159E+04  0.7818609E-02  0.9141192E-01
        2   -1    0    0  501    0  0.00000000000E+00  0.00000000000E+00  0.87231154125E+03  0.87231154126E+03  0.25500000920E-02 0. -1.
       -2   -1    0    0    0  501  0.00000000000E+00  0.00000000000E+00 -0.39108630346E+03  0.39108630347E+03  0.25500000920E-02 0.  1.
    10030    2    1    2    0    0  0.00000000000E+00  0.00000000000E+00  0.48122523779E+03  0.12633978447E+04  0.11681594003E+04 0.  0.
        1    1    3    3  502    0  0.26527677465E+03  0.35734951123E+03  0.64970882240E+03  0.78752269445E+03  0.50400001928E-02 0. -1.
       -1    1    3    3    0  502 -0.26527677465E+03 -0.35734951123E+03 -0.16848358460E+03  0.47587515028E+03  0.50400001928E-02 0.  1.
</event>
<event>
 5   0  0.5467554E-03  0.1194568E+04  0.7818609E-02  0.9117624E-01
       -2   -1    0    0    0  501  0.00000000000E+00  0.00000000000E+00  0.28038833181E+03  0.28038833182E+03  0.25500000920E-02 0. -1.
        2   -1    0    0  501    0  0.00000000000E+00  0.00000000000E+00 -0.12723360113E+04  0.12723360113E+04  0.25500000920E-02 0.  1.
    10030    2    1    2    0    0  0.00000000000E+00  0.00000000000E+00 -0.99194767952E+03  0.15527243432E+04  0.11945679918E+04 0.  0.
        1    1    3    3  502    0 -0.12063680627E+03 -0.30187407625E+03 -0.11472696477E+04  0.11924381919E+04  0.50400001928E-02 0.  1.
       -1    1    3    3    0  502  0.12063680627E+03  0.30187407625E+03  0.15532196821E+03  0.36028615124E+03  0.50400001928E-02 0. -1.
</event>
<event>
 5   0  0.1922125E-03  0.1205077E+04  0.7818609E-02  0.9108424E-01
        3   -1    0    0  501    0  0.00000000000E+00  0.00000000000E+00  0.46139033004E+03  0.46139034109E+03  0.10100000352E+00 0. -1.
       -3   -1    0    0    0  501  0.00000000000E+00  0.00000000000E+00 -0.78686640800E+03  0.78686641448E+03  0.10100000352E+00 0.  1.
    10030    2    1    2    0    0  0.00000000000E+00  0.00000000000E+00 -0.32547607796E+03  0.12482567556E+04  0.12050768650E+04 0.  0.
        3    1    3    3  502    0  0.13779134692E+03  0.26011606956E+03  0.38184322444E+03  0.48213181100E+03  0.10100000352E+00 0. -1.
       -3    1    3    3    0  502 -0.13779134692E+03 -0.26011606956E+03 -0.70731930241E+03  0.76612494457E+03  0.10100000352E+00 0.  1.
</event>
<event>
 5   0  0.2938349E-03  0.1197088E+04  0.7818609E-02  0.9115409E-01
        1   -1    0    0  501    0  0.00000000000E+00  0.00000000000E+00  0.17078712629E+04  0.17078712629E+04  0.50400001928E-02 0.  1.
       -1   -1    0    0    0  501  0.00000000000E+00  0.00000000000E+00 -0.20976700100E+03  0.20976700106E+03  0.50400001928E-02 0. -1.
    10030    2    1    2    0    0  0.00000000000E+00  0.00000000000E+00  0.14981042619E+04  0.19176382640E+04  0.11970881889E+04 0.  0.
        4    1    3    3  502    0  0.55648332723E+03 -0.13643107958E+03  0.10263566897E+04  0.11754559968E+04  0.12699999809E+01 0.  1.
       -4    1    3    3    0  502 -0.55648332723E+03  0.13643107958E+03  0.47174757223E+03  0.74218226721E+03  0.12699999809E+01 0. -1.
</event>
<event>
 5   0  0.5031575E-03  0.1210809E+04  0.7818609E-02  0.9103448E-01
        2   -1    0    0  501    0  0.00000000000E+00  0.00000000000E+00  0.42767869349E+03  0.42767869349E+03  0.25500000920E-02 0.  1.
       -2   -1    0    0    0  501  0.00000000000E+00  0.00000000000E+00 -0.85698573600E+03  0.85698573601E+03  0.25500000920E-02 0. -1.
    10030    2    1    2    0    0  0.00000000000E+00  0.00000000000E+00 -0.42930704252E+03  0.12846644295E+04  0.12108088865E+04 0.  0.
        5    1    3    3  502    0 -0.53223831242E+02 -0.54943306844E+03  0.49069786991E+02  0.55420159409E+03  0.46999998093E+01 0.  1.
       -5    1    3    3    0  502  0.53223831242E+02  0.54943306844E+03 -0.47837682951E+03  0.73046283541E+03  0.46999998093E+01 0. -1.
</event>
<event>
 5   0  0.2926844E-03  0.1204340E+04  0.7818609E-02  0.9109066E-01
        1   -1    0    0  501    0  0.00000000000E+00  0.00000000000E+00  0.65996204180E+03  0.65996204182E+03  0.50400001928E-02 0.  1.
       -1   -1    0    0    0  501  0.00000000000E+00  0.00000000000E+00 -0.54943906870E+03  0.54943906872E+03  0.50400001928E-02 0. -1.
    10030    2    1    2    0    0  0.00000000000E+00  0.00000000000E+00  0.11052297310E+03  0.12094011105E+04  0.12043403666E+04 0.  0.
        5    1    3    3  502    0 -0.41988595387E+03 -0.28955599616E+03 -0.26614586036E+03  0.57532825253E+03  0.46999998093E+01 0. -1.
       -5    1    3    3    0  502  0.41988595387E+03  0.28955599616E+03  0.37666883346E+03  0.63407285801E+03  0.46999998093E+01 0.  1.
</event>
<event>
 5   0  0.2792518E-03  0.1200539E+04  0.7818609E-02  0.9112384E-01
       -1   -1    0    0    0  501  0.00000000000E+00  0.00000000000E+00  0.50470288282E+03  0.50470288284E+03  0.50400001928E-02 0. -1.
        1   -1    0    0  501    0  0.00000000000E+00  0.00000000000E+00 -0.71393246370E+03  0.71393246372E+03  0.50400001928E-02 0.  1.
    10030    2    1    2    0    0  0.00000000000E+00  0.00000000000E+00 -0.20922958088E+03  0.12186353466E+04  0.12005394997E+04 0.  0.
        2    1    3    3  502    0  0.40626558701E+03  0.42002987176E+03  0.34738709902E+02  0.58539183316E+03  0.25500000920E-02 0. -1.
       -2    1    3    3    0  502 -0.40626558701E+03 -0.42002987176E+03 -0.24396829079E+03  0.63324351341E+03  0.25500000920E-02 0.  1.
</event>
<event>
 5   0  0.5031575E-03  0.1207543E+04  0.7818609E-02  0.9106280E-01
        2   -1    0    0  501    0  0.00000000000E+00  0.00000000000E+00  0.18511829747E+04  0.18511829747E+04  0.25500000920E-02 0. -1.
       -2   -1    0    0    0  501  0.00000000000E+00  0.00000000000E+00 -0.19692268918E+03  0.19692268920E+03  0.25500000920E-02 0.  1.
    10030    2    1    2    0    0  0.00000000000E+00  0.00000000000E+00  0.16542602855E+04  0.20481056639E+04  0.12075428432E+04 0.  0.
        5    1    3    3  502    0  0.57404783973E+03  0.13593127082E+03  0.10450607235E+04  0.12000759303E+04  0.46999998093E+01 0. -1.
       -5    1    3    3    0  502 -0.57404783973E+03 -0.13593127082E+03  0.60919956198E+03  0.84802973356E+03  0.46999998093E+01 0.  1.
</event>
<event>
 5   0  0.5467554E-03  0.1225085E+04  0.7818609E-02  0.9091179E-01
        2   -1    0    0  501    0  0.00000000000E+00  0.00000000000E+00  0.91099012758E+03  0.91099012759E+03  0.25500000920E-02 0.  1.
       -2   -1    0    0    0  501  0.00000000000E+00  0.00000000000E+00 -0.41186840266E+03  0.41186840267E+03  0.25500000920E-02 0. -1.
    10030    2    1    2    0    0  0.00000000000E+00  0.00000000000E+00  0.49912172492E+03  0.13228585303E+04  0.12250845664E+04 0.  0.
        1    1    3    3  502    0 -0.99988586491E+02 -0.19532028605E+03  0.86709541188E+03  0.89442841240E+03  0.50400001928E-02 0.  1.
       -1    1    3    3    0  502  0.99988586491E+02  0.19532028605E+03 -0.36797368696E+03  0.42843011786E+03  0.50400001928E-02 0. -1.
</event>
<event>
 5   0  0.2792518E-03  0.1185709E+04  0.7818609E-02  0.9125458E-01
        1   -1    0    0  501    0  0.00000000000E+00  0.00000000000E+00  0.42293699286E+03  0.42293699289E+03  0.50400001928E-02 0. -1.
       -1   -1    0    0    0  501  0.00000000000E+00  0.00000000000E+00 -0.83103753282E+03  0.83103753283E+03  0.50400001928E-02 0.  1.
    10030    2    1    2    0    0  0.00000000000E+00  0.00000000000E+00 -0.40810053996E+03  0.12539745257E+04  0.11857090960E+04 0.  0.
        2    1    3    3  502    0 -0.50218597017E+02 -0.46772041531E+03 -0.58564562526E+03  0.75117580684E+03  0.25500000920E-02 0. -1.
       -2    1    3    3    0  502  0.50218597017E+02  0.46772041531E+03  0.17754508530E+03  0.50279871888E+03  0.25500000920E-02 0.  1.
</event>
<event>
 5   0  0.1922125E-03  0.1207548E+04  0.7818609E-02  0.9106276E-01
       -3   -1    0    0    0  501  0.00000000000E+00  0.00000000000E+00  0.54171443536E+03  0.54171444478E+03  0.10100000352E+00 0. -1.
        3   -1    0    0  501    0  0.00000000000E+00  0.00000000000E+00 -0.67294272839E+03  0.67294273597E+03  0.10100000352E+00 0.  1.
    10030    2    1    2    0    0  0.00000000000E+00  0.00000000000E+00 -0.13122829302E+03  0.12146571807E+04  0.12075475982E+04 0.  0.
        2    1    3    3  502    0 -0.36738803927E+03  0.47219459421E+03 -0.14733961719E+03  0.61615799029E+03  0.25500000920E-02 0. -1.
       -2    1    3    3    0  502  0.36738803927E+03 -0.47219459421E+03  0.16111324171E+02  0.59849919045E+03  0.25500000920E-02 0.  1.
</event>
<event>
 5   0  0.2930868E-03  0.1193362E+04  0.7818609E-02  0.9118687E-01
       -1   -1    0    0    0  501  0.00000000000E+00  0.00000000000E+00  0.42109646309E+03  0.42109646312E+03  0.50400001928E-02 0.  1.
        1   -1    0    0  501    0  0.00000000000E+00  0.00000000000E+00 -0.84547832466E+03  0.84547832467E+03  0.50400001928E-02 0. -1.
    10030    2    1    2    0    0  0.00000000000E+00  0.00000000000E+00 -0.42438186156E+03  0.12665747878E+04  0.11933615247E+04 0.  0.
        3    1    3    3  502    0 -0.65894759896E+02  0.29307426892E+03 -0.75937166997E+03  0.81662720371E+03  0.10100000352E+00 0. -1.
       -3    1    3    3    0  502  0.65894759896E+02 -0.29307426892E+03  0.33498980841E+03  0.44994758408E+03  0.10100000352E+00 0.  1.
</event>
<event>
 5   0  0.2930868E-03  0.1194359E+04  0.7818609E-02  0.9117809E-01
        1   -1    0    0  501    0  0.00000000000E+00  0.00000000000E+00  0.61389448105E+03  0.61389448107E+03  0.50400001928E-02 0.  1.
       -1   -1    0    0    0  501  0.00000000000E+00  0.00000000000E+00 -0.58091915703E+03  0.58091915705E+03  0.50400001928E-02 0. -1.
    10030    2    1    2    0    0  0.00000000000E+00  0.00000000000E+00  0.32975324024E+02  0.11948136381E+04  0.11943585131E+04 0.  0.
        3    1    3    3  502    0 -0.12913601748E+03  0.58111205992E+03 -0.31024826200E+02  0.59609553532E+03  0.10100000352E+00 0.  1.
       -3    1    3    3    0  502  0.12913601748E+03 -0.58111205992E+03  0.64000150225E+02  0.59871810280E+03  0.10100000352E+00 0. -1.
</event>
<event>
 5   0  0.2926844E-03  0.1183144E+04  0.7818609E-02  0.9127740E-01
        1   -1    0    0  501    0  0.00000000000E+00  0.00000000000E+00  0.54189630594E+03  0.54189630596E+03  0.50400001928E-02 0.  1.
       -1   -1    0    0    0  501  0.00000000000E+00  0.00000000000E+00 -0.64580155663E+03  0.64580155665E+03  0.50400001928E-02 0. -1.
    10030    2    1    2    0    0  0.00000000000E+00  0.00000000000E+00 -0.10390525070E+03  0.11876978626E+04  0.11831440790E+04 0.  0.
        5    1    3    3  502    0  0.95260600644E+02 -0.79507865790E+02  0.52866727317E+03  0.54305364236E+03  0.46999998093E+01 0.  1.
       -5    1    3    3    0  502 -0.95260600644E+02  0.79507865790E+02 -0.63257252387E+03  0.64464422025E+03  0.46999998093E+01 0. -1.
</event>
<event>
 5   0  0.2938349E-03  0.1112476E+04  0.7818609E-02  0.9193117E-01
        1   -1    0    0  501    0  0.00000000000E+00  0.00000000000E+00  0.92636921347E+03  0.92636921348E+03  0.50400001928E-02 0.  1.
       -1   -1    0    0    0  501  0.00000000000E+00  0.00000000000E+00 -0.33399286142E+03  0.33399286145E+03  0.50400001928E-02 0. -1.
    10030    2    1    2    0    0  0.00000000000E+00  0.00000000000E+00  0.59237635205E+03  0.12603620749E+04  0.11124759851E+04 0.  0.
        4    1    3    3  502    0  0.28806766038E+02 -0.50646597609E+03  0.37686761831E+02  0.50868410592E+03  0.12699999809E+01 0. -1.
       -4    1    3    3    0  502 -0.28806766038E+02  0.50646597609E+03  0.55468959022E+03  0.75167796901E+03  0.12699999809E+01 0.  1.
</event>
<event>
 5   0  0.2926844E-03  0.1119102E+04  0.7818609E-02  0.9186771E-01
       -1   -1    0    0    0  501  0.00000000000E+00  0.00000000000E+00  0.56857925300E+03  0.56857925302E+03  0.50400001928E-02 0.  1.
        1   -1    0    0  501    0  0.00000000000E+00  0.00000000000E+00 -0.55066632635E+03  0.55066632637E+03  0.50400001928E-02 0. -1.
    10030    2    1    2    0    0  0.00000000000E+00  0.00000000000E+00  0.17912926645E+02  0.11192455794E+04  0.11191022268E+04 0.  0.
        5    1    3    3  502    0 -0.45923245115E+03  0.12172548796E+03  0.30456803830E+03  0.56435389479E+03  0.46999998093E+01 0.  1.
       -5    1    3    3    0  502  0.45923245115E+03 -0.12172548796E+03 -0.28665511165E+03  0.55489168461E+03  0.46999998093E+01 0. -1.
</event>
<event>
 5   0  0.5189537E-03  0.1146592E+04  0.7818609E-02  0.9160933E-01
       -2   -1    0    0    0  501  0.00000000000E+00  0.00000000000E+00  0.47214374959E+03  0.47214374960E+03  0.25500000920E-02 0. -1.
        2   -1    0    0  501    0  0.00000000000E+00  0.00000000000E+00 -0.69611912105E+03  0.69611912106E+03  0.25500000920E-02 0.  1.
    10030    2    1    2    0    0  0.00000000000E+00  0.00000000000E+00 -0.22397537146E+03  0.11682628707E+04  0.11465919797E+04 0.  0.
        4    1    3    3  502    0  0.26730169706E+03 -0.32031720966E+03  0.28865313205E+03  0.50732194472E+03  0.12699999809E+01 0. -1.
       -4    1    3    3    0  502 -0.26730169706E+03  0.32031720966E+03 -0.51262850351E+03  0.66094092593E+03  0.12699999809E+01 0.  1.
</event>
<event>
 5   0  0.2926844E-03  0.1190977E+04  0.7818609E-02  0.9120792E-01
       -1   -1    0    0    0  501  0.00000000000E+00  0.00000000000E+00  0.63655357897E+03  0.63655357899E+03  0.50400001928E-02 0.  1.
        1   -1    0    0  501    0  0.00000000000E+00  0.00000000000E+00 -0.55707218413E+03  0.55707218416E+03  0.50400001928E-02 0. -1.
    10030    2    1    2    0    0  0.00000000000E+00  0.00000000000E+00  0.79481394842E+02  0.11936257632E+04  0.11909765616E+04 0.  0.
        5    1    3    3  502    0  0.27835019295E+03 -0.43619335376E+02  0.56550528991E+03  0.63182260109E+03  0.46999998093E+01 0.  1.
       -5    1    3    3    0  502 -0.27835019295E+03  0.43619335376E+02 -0.48602389507E+03  0.56180316206E+03  0.46999998093E+01 0. -1.
</event>
<event>
 5   0  0.5108045E-03  0.1200898E+04  0.7818609E-02  0.9112071E-01
        2   -1    0    0  501    0  0.00000000000E+00  0.00000000000E+00  0.92382615811E+03  0.92382615811E+03  0.25500000920E-02 0. -1.
       -2   -1    0    0    0  501  0.00000000000E+00  0.00000000000E+00 -0.39026705571E+03  0.39026705571E+03  0.25500000920E-02 0.  1.
    10030    2    1    2    0    0  0.00000000000E+00  0.00000000000E+00  0.53355910240E+03  0.13140932138E+04  0.12008978553E+04 0.  0.
        3    1    3    3  502    0  0.11590927751E+03 -0.48197767634E+03 -0.10398125294E+03  0.50650720850E+03  0.10100000352E+00 0.  1.
       -3    1    3    3    0  502 -0.11590927751E+03  0.48197767634E+03  0.63754035534E+03  0.80758600532E+03  0.10100000352E+00 0. -1.
</event>
<event>
 5   0  0.5031575E-03  0.1102815E+04  0.7818609E-02  0.9202452E-01
       -2   -1    0    0    0  501  0.00000000000E+00  0.00000000000E+00  0.35924148628E+03  0.35924148629E+03  0.25500000920E-02 0.  1.
        2   -1    0    0  501    0  0.00000000000E+00  0.00000000000E+00 -0.84636752462E+03  0.84636752463E+03  0.25500000920E-02 0. -1.
    10030    2    1    2    0    0  0.00000000000E+00  0.00000000000E+00 -0.48712603834E+03  0.12056090109E+04  0.11028151749E+04 0.  0.
        5    1    3    3  502    0  0.22353501334E+03  0.24725418382E+03  0.23661115553E+03  0.40879024269E+03  0.46999998093E+01 0.  1.
       -5    1    3    3    0  502 -0.22353501334E+03 -0.24725418382E+03 -0.72373719387E+03  0.79681876822E+03  0.46999998093E+01 0. -1.
</event>
<event>
 5   0  0.2792518E-03  0.1207421E+04  0.7818609E-02  0.9106386E-01
        1   -1    0    0  501    0  0.00000000000E+00  0.00000000000E+00  0.22441550697E+04  0.22441550697E+04  0.50400001928E-02 0. -1.
       -1   -1    0    0    0  501  0.00000000000E+00  0.00000000000E+00 -0.16240688912E+03  0.16240688920E+03  0.50400001928E-02 0.  1.
    10030    2    1    2    0    0  0.00000000000E+00  0.00000000000E+00  0.20817481806E+04  0.24065619589E+04  0.12074207944E+04 0.  0.
        2    1    3    3  502    0 -0.29795280916E+03  0.27571231892E+03  0.15024236800E+03  0.43285786170E+03  0.25500000920E-02 0.  1.
       -2    1    3    3    0  502  0.29795280916E+03 -0.27571231892E+03  0.19315058126E+04  0.19737040972E+04  0.25500000920E-02 0. -1.
</event>
<event>
 5   0  0.5031575E-03  0.1198653E+04  0.7818609E-02  0.9114036E-01
        2   -1    0    0  501    0  0.00000000000E+00  0.00000000000E+00  0.16098858672E+04  0.16098858672E+04  0.25500000920E-02 0. -1.
       -2   -1    0    0    0  501  0.00000000000E+00  0.00000000000E+00 -0.22311654912E+03  0.22311654913E+03  0.25500000920E-02 0.  1.
    10030    2    1    2    0    0  0.00000000000E+00  0.00000000000E+00  0.13867693181E+04  0.18330024164E+04  0.11986528758E+04 0.  0.
        5    1    3    3  502    0 -0.77445611818E+02  0.32661522716E+03  0.14526148181E+04  0.14909014820E+04  0.46999998093E+01 0. -1.
       -5    1    3    3    0  502  0.77445611818E+02 -0.32661522716E+03 -0.65845499982E+02  0.34210093433E+03  0.46999998093E+01 0.  1.
</event>
<event>
 5   0  0.2926844E-03  0.1251426E+04  0.7818609E-02  0.9068998E-01
        1   -1    0    0  501    0  0.00000000000E+00  0.00000000000E+00  0.79020244432E+03  0.79020244434E+03  0.50400001928E-02 0.  1.
       -1   -1    0    0    0  501  0.00000000000E+00  0.00000000000E+00 -0.49546357240E+03  0.49546357243E+03  0.50400001928E-02 0. -1.
    10030    2    1    2    0    0  0.00000000000E+00  0.00000000000E+00  0.29473887192E+03  0.12856660168E+04  0.12514256287E+04 0.  0.
        5    1    3    3  502    0  0.26861894203E+02 -0.30930360884E+03  0.70546783901E+03  0.77077704018E+03  0.46999998093E+01 0.  1.
       -5    1    3    3    0  502 -0.26861894203E+02  0.30930360884E+03 -0.41072896709E+03  0.51488897658E+03  0.46999998093E+01 0. -1.
</event>
<event>
 5   0  0.2792518E-03  0.1199204E+04  0.7818609E-02  0.9113553E-01
       -1   -1    0    0    0  501  0.00000000000E+00  0.00000000000E+00  0.20805873053E+03  0.20805873059E+03  0.50400001928E-02 0. -1.
        1   -1    0    0  501    0  0.00000000000E+00  0.00000000000E+00 -0.17279870237E+04  0.17279870237E+04  0.50400001928E-02 0.  1.
    10030    2    1    2    0    0  0.00000000000E+00  0.00000000000E+00 -0.15199282932E+04  0.19360457543E+04  0.11992043806E+04 0.  0.
        2    1    3    3  502    0  0.37302133448E+03  0.22818609994E+03 -0.97631675141E+02  0.44804660045E+03  0.25500000920E-02 0. -1.
       -2    1    3    3    0  502 -0.37302133448E+03 -0.22818609994E+03 -0.14222966180E+04  0.14879991538E+04  0.25500000920E-02 0.  1.
</event>
<event>
 5   0  0.5031575E-03  0.1181031E+04  0.7818609E-02  0.9129624E-01
       -2   -1    0    0    0  501  0.00000000000E+00  0.00000000000E+00  0.27917319000E+03  0.27917319002E+03  0.25500000920E-02 0.  1.
        2   -1    0    0  501    0  0.00000000000E+00  0.00000000000E+00 -0.12490755749E+04  0.12490755749E+04  0.25500000920E-02 0. -1.
    10030    2    1    2    0    0  0.00000000000E+00  0.00000000000E+00 -0.96990238492E+03  0.15282487649E+04  0.11810307580E+04 0.  0.
        5    1    3    3  502    0  0.47572301255E+03  0.13063624793E+03 -0.65033907133E+02  0.49762406796E+03  0.46999998093E+01 0.  1.
       -5    1    3    3    0  502 -0.47572301255E+03 -0.13063624793E+03 -0.90486847779E+03  0.10306246970E+04  0.46999998093E+01 0. -1.
</event>
<event>
 5   0  0.5467554E-03  0.1225542E+04  0.7818609E-02  0.9090789E-01
        2   -1    0    0  501    0  0.00000000000E+00  0.00000000000E+00  0.95138954418E+03  0.95138954418E+03  0.25500000920E-02 0. -1.
       -2   -1    0    0    0  501  0.00000000000E+00  0.00000000000E+00 -0.39467344186E+03  0.39467344187E+03  0.25500000920E-02 0.  1.
    10030    2    1    2    0    0  0.00000000000E+00  0.00000000000E+00  0.55671610232E+03  0.13460629861E+04  0.12255418164E+04 0.  0.
        1    1    3    3  502    0 -0.35778000529E+03  0.11930398644E+03 -0.25209433833E+03  0.45364251213E+03  0.50400001928E-02 0.  1.
       -1    1    3    3    0  502  0.35778000529E+03 -0.11930398644E+03  0.80881044064E+03  0.89242047393E+03  0.50400001928E-02 0. -1.
</event>
<event>
 5   0  0.2792518E-03  0.1218867E+04  0.7818609E-02  0.9096501E-01
       -1   -1    0    0    0  501  0.00000000000E+00  0.00000000000E+00  0.30680004546E+03  0.30680004551E+03  0.50400001928E-02 0. -1.
        1   -1    0    0  501    0  0.00000000000E+00  0.00000000000E+00 -0.12105895851E+04  0.12105895851E+04  0.50400001928E-02 0.  1.
    10030    2    1    2    0    0  0.00000000000E+00  0.00000000000E+00 -0.90378953963E+03  0.15173896306E+04  0.12188665879E+04 0.  0.
        2    1    3    3  502    0 -0.69671631059E+02  0.49702642980E+03 -0.21506544621E+02  0.50234643381E+03  0.25500000920E-02 0. -1.
       -2    1    3    3    0  502  0.69671631059E+02 -0.49702642980E+03 -0.88228299501E+03  0.10150431968E+04  0.25500000920E-02 0.  1.
</event>
<event>
 5   0  0.5108045E-03  0.1217055E+04  0.7818609E-02  0.9098058E-01
       -2   -1    0    0    0  501  0.00000000000E+00  0.00000000000E+00  0.36978672604E+03  0.36978672605E+03  0.25500000920E-02 0.  1.
        2   -1    0    0  501    0  0.00000000000E+00  0.00000000000E+00 -0.10014029483E+04  0.10014029483E+04  0.25500000920E-02 0. -1.
    10030    2    1    2    0    0  0.00000000000E+00  0.00000000000E+00 -0.63161622223E+03  0.13711896743E+04  0.12170546704E+04 0.  0.
        3    1    3    3  502    0 -0.33648287888E+03  0.14984144495E+03 -0.86154255535E+03  0.93697853299E+03  0.10100000352E+00 0. -1.
       -3    1    3    3    0  502  0.33648287888E+03 -0.14984144495E+03  0.22992633312E+03  0.43421114134E+03  0.10100000352E+00 0.  1.
</event>
<event>
 5   0  0.2938349E-03  0.1208147E+04  0.7818609E-02  0.9105755E-01
       -1   -1    0    0    0  501  0.00000000000E+00  0.00000000000E+00  0.23423308930E+03  0.23423308936E+03  0.50400001928E-02 0.  1.
        1   -1    0    0  501    0  0.00000000000E+00  0.00000000000E+00 -0.15578696645E+04  0.15578696645E+04  0.50400001928E-02 0. -1.
    10030    2    1    2    0    0  0.00000000000E+00  0.00000000000E+00 -0.13236365752E+04  0.17921027538E+04  0.12081467201E+04 0.  0.
        4    1    3    3  502    0  0.35510409942E+03  0.62962474346E+02  0.57016513385E+02  0.36512421215E+03  0.12699999809E+01 0.  1.
       -4    1    3    3    0  502 -0.35510409942E+03 -0.62962474346E+02 -0.13806530886E+04  0.14269785417E+04  0.12699999809E+01 0. -1.
</event>
<event>
 5   0  0.5108045E-03  0.1016215E+04  0.7818609E-02  0.9290937E-01
        2   -1    0    0  501    0  0.00000000000E+00  0.00000000000E+00  0.29711367950E+03  0.29711367951E+03  0.25500000920E-02 0.  1.
       -2   -1    0    0    0  501  0.00000000000E+00  0.00000000000E+00 -0.86893786998E+03  0.86893786998E+03  0.25500000920E-02 0. -1.
    10030    2    1    2    0    0  0.00000000000E+00  0.00000000000E+00 -0.57182419048E+03  0.11660515495E+04  0.10162151895E+04 0.  0.
        3    1    3    3  502    0  0.69623252599E+02  0.98591356728E+02 -0.85225016962E+03  0.86075432891E+03  0.10100000352E+00 0. -1.
       -3    1    3    3    0  502 -0.69623252599E+02 -0.98591356728E+02  0.28042597914E+03  0.30529722059E+03  0.10100000352E+00 0.  1.
</event>
<event>
 5   0  0.2938349E-03  0.1200202E+04  0.7818609E-02  0.9112679E-01
       -1   -1    0    0    0  501  0.00000000000E+00  0.00000000000E+00  0.18582949424E+03  0.18582949431E+03  0.50400001928E-02 0. -1.
        1   -1    0    0  501    0  0.00000000000E+00  0.00000000000E+00 -0.19379129407E+04  0.19379129407E+04  0.50400001928E-02 0.  1.
    10030    2    1    2    0    0  0.00000000000E+00  0.00000000000E+00 -0.17520834465E+04  0.21237424350E+04  0.12002022858E+04 0.  0.
        4    1    3    3  502    0  0.30970264346E+02 -0.74524173729E+02  0.17618099487E+03  0.19378948784E+03  0.12699999809E+01 0. -1.
       -4    1    3    3    0  502 -0.30970264346E+02  0.74524173729E+02 -0.19282644413E+04  0.19299529472E+04  0.12699999809E+01 0.  1.
</event>
<event>
 5   0  0.5031575E-03  0.1197254E+04  0.7818609E-02  0.9115264E-01
        2   -1    0    0  501    0  0.00000000000E+00  0.00000000000E+00  0.16611223559E+04  0.16611223559E+04  0.25500000920E-02 0. -1.
       -2   -1    0    0    0  501  0.00000000000E+00  0.00000000000E+00 -0.21573015283E+03  0.21573015284E+03  0.25500000920E-02 0.  1.
    10030    2    1    2    0    0  0.00000000000E+00  0.00000000000E+00  0.14453922031E+04  0.18768525087E+04  0.11972538239E+04 0.  0.
        5    1    3    3  502    0  0.24401077569E+03  0.37675051192E+03  0.10184706470E+03  0.46030112044E+03  0.46999998093E+01 0.  1.
       -5    1    3    3    0  502 -0.24401077569E+03 -0.37675051192E+03  0.13435451384E+04  0.14165513883E+04  0.46999998093E+01 0. -1.
</event>
<event>
 5   0  0.5189537E-03  0.1192153E+04  0.7818609E-02  0.9119753E-01
        2   -1    0    0  501    0  0.00000000000E+00  0.00000000000E+00  0.37585375026E+03  0.37585375027E+03  0.25500000920E-02 0. -1.
       -2   -1    0    0    0  501  0.00000000000E+00  0.00000000000E+00 -0.94533354882E+03  0.94533354883E+03  0.25500000920E-02 0.  1.
    10030    2    1    2    0    0  0.00000000000E+00  0.00000000000E+00 -0.56947979856E+03  0.13211872991E+04  0.11921529425E+04 0.  0.
        4    1    3    3  502    0  0.26978247970E+03 -0.24327446834E+03  0.23900059121E+03  0.43484244135E+03  0.12699999809E+01 0. -1.
       -4    1    3    3    0  502 -0.26978247970E+03  0.24327446834E+03 -0.80848038978E+03  0.88634485775E+03  0.12699999809E+01 0.  1.
</event>
<event>
 5   0  0.5003526E-03  0.1211060E+04  0.7818609E-02  0.9103231E-01
       -2   -1    0    0    0  501  0.00000000000E+00  0.00000000000E+00  0.51240571390E+03  0.51240571390E+03  0.25500000920E-02 0.  1.
        2   -1    0    0  501    0  0.00000000000E+00  0.00000000000E+00 -0.71557854944E+03  0.71557854945E+03  0.25500000920E-02 0. -1.
    10030    2    1    2    0    0  0.00000000000E+00  0.00000000000E+00 -0.20317283555E+03  0.12279842634E+04  0.12110599283E+04 0.  0.
        2    1    3    3  502    0 -0.49792858649E+03 -0.19488824878E+03 -0.38972700114E+03  0.66166565739E+03  0.25500000920E-02 0. -1.
       -2    1    3    3    0  502  0.49792858649E+03  0.19488824878E+03  0.18655416559E+03  0.56631860596E+03  0.25500000920E-02 0.  1.
</event>
<event>
 5   0  0.5003526E-03  0.1162427E+04  0.7818609E-02  0.9146395E-01
        2   -1    0    0  501    0  0.00000000000E+00  0.00000000000E+00  0.11067297535E+04  0.11067297535E+04  0.25500000920E-02 0. -1.
       -2   -1    0    0    0  501  0.00000000000E+00  0.00000000000E+00 -0.30523205716E+03  0.30523205717E+03  0.25500000920E-02 0.  1.
    10030    2    1    2    0    0  0.00000000000E+00  0.00000000000E+00  0.80149769633E+03  0.14119618107E+04  0.11624274590E+04 0.  0.
        2    1    3    3  502    0 -0.36291158142E+03  0.14941994157E+03 -0.11997103743E+03  0.41039515677E+03  0.25500000920E-02 0.  1.
       -2    1    3    3    0  502  0.36291158142E+03 -0.14941994157E+03  0.92146873377E+03  0.10015666539E+04  0.25500000920E-02 0. -1.
</event>
<event>
 5   0  0.2938349E-03  0.1203695E+04  0.7818609E-02  0.9109628E-01
        1   -1    0    0  501    0  0.00000000000E+00  0.00000000000E+00  0.10550198515E+04  0.10550198515E+04  0.50400001928E-02 0.  1.
       -1   -1    0    0    0  501  0.00000000000E+00  0.00000000000E+00 -0.34333048118E+03  0.34333048122E+03  0.50400001928E-02 0. -1.
    10030    2    1    2    0    0  0.00000000000E+00  0.00000000000E+00  0.71168937031E+03  0.13983503327E+04  0.12036950998E+04 0.  0.
        4    1    3    3  502    0 -0.38787897986E+02 -0.32345474539E+03  0.94373591814E+03  0.99838197572E+03  0.12699999809E+01 0.  1.
       -4    1    3    3    0  502  0.38787897986E+02  0.32345474539E+03 -0.23204654783E+03  0.39996835701E+03  0.12699999809E+01 0. -1.
</event>
<event>
 5   0  0.5003526E-03  0.1209364E+04  0.7818609E-02  0.9104699E-01
       -2   -1    0    0    0  501  0.00000000000E+00  0.00000000000E+00  0.34995658898E+03  0.34995658899E+03  0.25500000920E-02 0. -1.
        2   -1    0    0  501    0  0.00000000000E+00  0.00000000000E+00 -0.10448169914E+04  0.10448169914E+04  0.25500000920E-02 0.  1.
    10030    2    1    2    0    0  0.00000000000E+00  0.00000000000E+00 -0.69486040241E+03  0.13947735804E+04  0.12093644454E+04 0.  0.
        2    1    3    3  502    0 -0.43558856477E+03  0.41798712632E+03 -0.38721450519E+03  0.71720687989E+03  0.25500000920E-02 0.  1.
       -2    1    3    3    0  502  0.43558856477E+03 -0.41798712632E+03 -0.30764589722E+03  0.67756670049E+03  0.25500000920E-02 0. -1.
</event>
<event>
 5   0  0.1922125E-03  0.1204633E+04  0.7818609E-02  0.9108811E-01
        4   -1    0    0  501    0  0.00000000000E+00  0.00000000000E+00  0.64991060918E+03  0.64991185004E+03  0.12699999809E+01 0. -1.
       -4   -1    0    0    0  501  0.00000000000E+00  0.00000000000E+00 -0.55820533921E+03  0.55820678392E+03  0.12699999809E+01 0.  1.
    10030    2    1    2    0    0  0.00000000000E+00  0.00000000000E+00  0.91705269973E+02  0.12081186340E+04  0.12046330467E+04 0.  0.
        4    1    3    3  502    0 -0.50898572582E+03  0.36012791811E+02 -0.27510491848E+03  0.57969623023E+03  0.12699999809E+01 0.  1.
       -4    1    3    3    0  502  0.50898572582E+03 -0.36012791811E+02  0.36681018845E+03  0.62842240374E+03  0.12699999809E+01 0. -1.
</event>
<event>
 5   0  0.5031575E-03  0.1153930E+04  0.7818609E-02  0.9154165E-01
        2   -1    0    0  501    0  0.00000000000E+00  0.00000000000E+00  0.12073324754E+04  0.12073324754E+04  0.25500000920E-02 0.  1.
       -2   -1    0    0    0  501  0.00000000000E+00  0.00000000000E+00 -0.27572251296E+03  0.27572251297E+03  0.25500000920E-02 0. -1.
    10030    2    1    2    0    0  0.00000000000E+00  0.00000000000E+00  0.93160996242E+03  0.14830549884E+04  0.11539302303E+04 0.  0.
        5    1    3    3  502    0  0.56677188186E+03 -0.10785253976E+03  0.46319699483E+03  0.73988923659E+03  0.46999998093E+01 0. -1.
       -5    1    3    3    0  502 -0.56677188186E+03  0.10785253976E+03  0.46841296759E+03  0.74316575177E+03  0.46999998093E+01 0.  1.
</event>
<event>
 5   0  0.5108045E-03  0.1178099E+04  0.7818609E-02  0.9132246E-01
        2   -1    0    0  501    0  0.00000000000E+00  0.00000000000E+00  0.17101709128E+04  0.17101709128E+04  0.25500000920E-02 0. -1.
       -2   -1    0    0    0  501  0.00000000000E+00  0.00000000000E+00 -0.20289148841E+03  0.20289148843E+03  0.25500000920E-02 0.  1.
    10030    2    1    2    0    0  0.00000000000E+00  0.00000000000E+00  0.15072794244E+04  0.19130624013E+04  0.11780986749E+04 0.  0.
        3    1    3    3  502    0  0.41964074793E+03  0.41316946964E+03  0.77492051437E+03  0.97329809501E+03  0.10100000352E+00 0.  1.
       -3    1    3    3    0  502 -0.41964074793E+03 -0.41316946964E+03  0.73235891006E+03  0.93976430625E+03  0.10100000352E+00 0. -1.
</event>
<event>
 5   0  0.2926844E-03  0.1205149E+04  0.7818609E-02  0.9108361E-01
        1   -1    0    0  501    0  0.00000000000E+00  0.00000000000E+00  0.24630586132E+03  0.24630586137E+03  0.50400001928E-02 0.  1.
       -1   -1    0    0    0  501  0.00000000000E+00  0.00000000000E+00 -0.14741673934E+04  0.14741673934E+04  0.50400001928E-02 0. -1.
    10030    2    1    2    0    0  0.00000000000E+00  0.00000000000E+00 -0.12278615321E+04  0.17204732548E+04  0.12051490690E+04 0.  0.
        5    1    3    3  502    0  0.14110974727E+03 -0.27836313603E+03 -0.13497706175E+04  0.13853883232E+04  0.46999998093E+01 0. -1.
       -5    1    3    3    0  502 -0.14110974727E+03  0.27836313603E+03  0.12190908538E+03  0.33508493158E+03  0.46999998093E+01 0.  1.
</event>
<event>
 5   0  0.2875848E-03  0.1221014E+04  0.7818609E-02  0.9094659E-01
       -1   -1    0    0    0  501  0.00000000000E+00  0.00000000000E+00  0.24261615183E+03  0.24261615189E+03  0.50400001928E-02 0.  1.
        1   -1    0    0  501    0  0.00000000000E+00  0.00000000000E+00 -0.15362485191E+04  0.15362485191E+04  0.50400001928E-02 0. -1.
    10030    2    1    2    0    0  0.00000000000E+00  0.00000000000E+00 -0.12936323672E+04  0.17788646710E+04  0.12210138476E+04 0.  0.
        1    1    3    3  502    0 -0.17617166425E+03  0.57396480859E+03 -0.80804064105E+03  0.10066785656E+04  0.50400001928E-02 0. -1.
       -1    1    3    3    0  502  0.17617166425E+03 -0.57396480859E+03 -0.48559172618E+03  0.77218610538E+03  0.50400001928E-02 0.  1.
</event>
<event>
 5   0  0.5108045E-03  0.1196348E+04  0.7818609E-02  0.9116059E-01
        2   -1    0    0  501    0  0.00000000000E+00  0.00000000000E+00  0.15073620327E+04  0.15073620327E+04  0.25500000920E-02 0.  1.
       -2   -1    0    0    0  501  0.00000000000E+00  0.00000000000E+00 -0.23737647668E+03  0.23737647670E+03  0.25500000920E-02 0. -1.
    10030    2    1    2    0    0  0.00000000000E+00  0.00000000000E+00  0.12699855560E+04  0.17447385094E+04  0.11963482577E+04 0.  0.
        3    1    3    3  502    0 -0.17561351897E+03 -0.42144232026E+03  0.71371011896E+02  0.46211207395E+03  0.10100000352E+00 0. -1.
       -3    1    3    3    0  502  0.17561351897E+03  0.42144232026E+03  0.11986145441E+04  0.12826264355E+04  0.10100000352E+00 0.  1.
</event>
<event>
 5   0  0.2792518E-03  0.1204967E+04  0.7818609E-02  0.9108520E-01
        1   -1    0    0  501    0  0.00000000000E+00  0.00000000000E+00  0.24308773597E+04  0.24308773597E+04  0.50400001928E-02 0.  1.
       -1   -1    0    0    0  501  0.00000000000E+00  0.00000000000E+00 -0.14932308213E+03  0.14932308222E+03  0.50400001928E-02 0. -1.
    10030    2    1    2    0    0  0.00000000000E+00  0.00000000000E+00  0.22815542775E+04  0.25802004419E+04  0.12049665551E+04 0.  0.
        2    1    3    3  502    0 -0.32510629834E+03  0.37736223485E+03  0.41497361498E+03  0.64830506912E+03  0.25500000920E-02 0. -1.
       -2    1    3    3    0  502  0.32510629834E+03 -0.37736223485E+03  0.18665806625E+04  0.19318953728E+04  0.25500000920E-02 0.  1.
</event>
<event>
 5   0  0.5189537E-03  0.1156055E+04  0.7818609E-02  0.9152216E-01
        2   -1    0    0  501    0  0.00000000000E+00  0.00000000000E+00  0.13393207388E+04  0.13393207388E+04  0.25500000920E-02 0.  1.
       -2   -1    0    0    0  501  0.00000000000E+00  0.00000000000E+00 -0.24946651302E+03  0.24946651303E+03  0.25500000920E-02 0. -1.
    10030    2    1    2    0    0  0.00000000000E+00  0.00000000000E+00  0.10898542258E+04  0.15887872519E+04  0.11560547989E+04 0.  0.
        4    1    3    3  502    0  0.38701746319E+03  0.42608917536E+03  0.47247095340E+03  0.74469115537E+03  0.12699999809E+01 0. -1.
       -4    1    3    3    0  502 -0.38701746319E+03 -0.42608917536E+03  0.61738327240E+03  0.84409609649E+03  0.12699999809E+01 0.  1.
</event>
<event>
 5   0  0.2938349E-03  0.1210503E+04  0.7818609E-02  0.9103713E-01
       -1   -1    0    0    0  501  0.00000000000E+00  0.00000000000E+00  0.88807773866E+03  0.88807773868E+03  0.50400001928E-02 0. -1.
        1   -1    0    0  501    0  0.00000000000E+00  0.00000000000E+00 -0.41249665092E+03  0.41249665095E+03  0.50400001928E-02 0.  1.
    10030    2    1    2    0    0  0.00000000000E+00  0.00000000000E+00  0.47558108774E+03  0.13005743896E+04  0.12105025287E+04 0.  0.
        4    1    3    3  502    0 -0.46266269076E+03  0.27245781123E+03  0.53792858770E+03  0.76003868500E+03  0.12699999809E+01 0. -1.
       -4    1    3    3    0  502  0.46266269076E+03 -0.27245781123E+03 -0.62347499962E+02  0.54053570463E+03  0.12699999809E+01 0.  1.
</event>
<event>
 5   0  0.5189537E-03  0.1199665E+04  0.7818609E-02  0.9113150E-01
        2   -1    0    0  501    0  0.00000000000E+00  0.00000000000E+00  0.57180181036E+03  0.57180181036E+03  0.25500000920E-02 0.  1.
       -2   -1    0    0    0  501  0.00000000000E+00  0.00000000000E+00 -0.62923704851E+03  0.62923704852E+03  0.25500000920E-02 0. -1.
    10030    2    1    2    0    0  0.00000000000E+00  0.00000000000E+00 -0.57435238156E+02  0.12010388589E+04  0.11996647590E+04 0.  0.
        4    1    3    3  502    0  0.47358969142E+03 -0.32056571479E+03  0.15245290523E+03  0.59185561966E+03  0.12699999809E+01 0.  1.
       -4    1    3    3    0  502 -0.47358969142E+03  0.32056571479E+03 -0.20988814339E+03  0.60918323922E+03  0.12699999809E+01 0. -1.
</event>
<event>
 5   0  0.5467554E-03  0.1179551E+04  0.7818609E-02  0.9130946E-01
       -2   -1    0    0    0  501  0.00000000000E+00  0.00000000000E+00  0.54952717309E+03  0.54952717309E+03  0.25500000920E-02 0.  1.
        2   -1    0    0  501    0  0.00000000000E+00  0.00000000000E+00 -0.63297167820E+03  0.63297167820E+03  0.25500000920E-02 0. -1.
    10030    2    1    2    0    0  0.00000000000E+00  0.00000000000E+00 -0.83444505111E+02  0.11824988513E+04  0.11795509942E+04 0.  0.
        1    1    3    3  502    0 -0.10897583724E+03 -0.17914350827E+03  0.51089670700E+03  0.55225318008E+03  0.50400001928E-02 0.  1.
       -1    1    3    3    0  502  0.10897583724E+03  0.17914350827E+03 -0.59434121211E+03  0.63024567122E+03  0.50400001928E-02 0. -1.
</event>
<event>
 5   0  0.5003526E-03  0.1205098E+04  0.7818609E-02  0.9108406E-01
        2   -1    0    0  501    0  0.00000000000E+00  0.00000000000E+00  0.13916769610E+04  0.13916769610E+04  0.25500000920E-02 0.  1.
       -2   -1    0    0    0  501  0.00000000000E+00  0.00000000000E+00 -0.26088339030E+03  0.26088339031E+03  0.25500000920E-02 0. -1.
    10030    2    1    2    0    0  0.00000000000E+00  0.00000000000E+00  0.11307935707E+04  0.16525603513E+04  0.12050981766E+04 0.  0.
        2    1    3    3  502    0  0.90028075472E+02  0.50706331719E+03  0.13644451432E+03  0.53276201771E+03  0.25500000920E-02 0. -1.
       -2    1    3    3    0  502 -0.90028075472E+02 -0.50706331719E+03  0.99434905637E+03  0.11197983336E+04  0.25500000920E-02 0.  1.
</event>
<event>
 5   0  0.2930868E-03  0.1196836E+04  0.7818609E-02  0.9115631E-01
       -1   -1    0    0    0  501  0.00000000000E+00  0.00000000000E+00  0.58449084528E+03  0.58449084531E+03  0.50400001928E-02 0.  1.
        1   -1    0    0  501    0  0.00000000000E+00  0.00000000000E+00 -0.61267657480E+03  0.61267657482E+03  0.50400001928E-02 0. -1.
    10030    2    1    2    0    0  0.00000000000E+00  0.00000000000E+00 -0.28185729513E+02  0.11971674201E+04  0.11968355762E+04 0.  0.
        3    1    3    3  502    0  0.42836992328E+03  0.32383300130E+03  0.25005465280E+03  0.59236470480E+03  0.10100000352E+00 0.  1.
       -3    1    3    3    0  502 -0.42836992328E+03 -0.32383300130E+03 -0.27824038232E+03  0.60480271532E+03  0.10100000352E+00 0. -1.
</event>
<event>
 5   0  0.2875848E-03  0.1190156E+04  0.7818609E-02  0.9121517E-01
        1   -1    0    0  501    0  0.00000000000E+00  0.00000000000E+00  0.46519608803E+03  0.46519608806E+03  0.50400001928E-02 0. -1.
       -1   -1    0    0    0  501  0.00000000000E+00  0.00000000000E+00 -0.76122272044E+03  0.76122272046E+03  0.50400001928E-02 0.  1.
    10030    2    1    2    0    0  0.00000000000E+00  0.00000000000E+00 -0.29602663241E+03  0.12264188085E+04  0.11901560094E+04 0.  0.
        1    1    3    3  502    0 -0.16556046028E+03  0.27147802541E+03 -0.66633740075E+03  0.73831979247E+03  0.50400001928E-02 0.  1.
       -1    1    3    3    0  502  0.16556046028E+03 -0.27147802541E+03  0.37031076834E+03  0.48809901605E+03  0.50400001928E-02 0. -1.
</event>
<event>
 5   0  0.2792518E-03  0.1190043E+04  0.7818609E-02  0.9121617E-01
       -1   -1    0    0    0  501  0.00000000000E+00  0.00000000000E+00  0.10959170616E+04  0.10959170616E+04  0.50400001928E-02 0.  1.
        1   -1    0    0  501    0  0.00000000000E+00  0.00000000000E+00 -0.32306330452E+03  0.32306330456E+03  0.50400001928E-02 0. -1.
    10030    2    1    2    0    0  0.00000000000E+00  0.00000000000E+00  0.77285375707E+03  0.14189803662E+04  0.11900430033E+04 0.  0.
        2    1    3    3  502    0  0.26317557021E+03  0.17941781555E+03  0.98570590044E+03  0.10358900789E+04  0.25500000920E-02 0.  1.
       -2    1    3    3    0  502 -0.26317557021E+03 -0.17941781555E+03 -0.21285214337E+03  0.38309028731E+03  0.25500000920E-02 0. -1.
</event>
<event>
 5   0  0.5003526E-03  0.1202432E+04  0.7818609E-02  0.9110730E-01
       -2   -1    0    0    0  501  0.00000000000E+00  0.00000000000E+00  0.41650916780E+03  0.41650916781E+03  0.25500000920E-02 0.  1.
        2   -1    0    0  501    0  0.00000000000E+00  0.00000000000E+00 -0.86783373842E+03  0.86783373843E+03  0.25500000920E-02 0. -1.
    10030    2    1    2    0    0  0.00000000000E+00  0.00000000000E+00 -0.45132457062E+03  0.12843429062E+04  0.12024320491E+04 0.  0.
        2    1    3    3  502    0 -0.98388372492E+02 -0.49296720009E+03 -0.57792168159E+03  0.76595718043E+03  0.25500000920E-02 0. -1.
       -2    1    3    3    0  502  0.98388372492E+02  0.49296720009E+03  0.12659711097E+03  0.51838572580E+03  0.25500000920E-02 0.  1.
</event>
<event>
 5   0  0.5031575E-03  0.1246103E+04  0.7818609E-02  0.9073433E-01
       -2   -1    0    0    0  501  0.00000000000E+00  0.00000000000E+00  0.52187715818E+03  0.52187715818E+03  0.25500000920E-02 0. -1.
        2   -1    0    0  501    0  0.00000000000E+00  0.00000000000E+00 -0.74384016566E+03  0.74384016566E+03  0.25500000920E-02 0.  1.
    10030    2    1    2    0    0  0.00000000000E+00  0.00000000000E+00 -0.22196300748E+03  0.12657173238E+04  0.12461030323E+04 0.  0.
        5    1    3    3  502    0  0.32417363636E+03  0.23821877087E+03  0.37225310255E+03  0.54811603850E+03  0.46999998093E+01 0. -1.
       -5    1    3    3    0  502 -0.32417363636E+03 -0.23821877087E+03 -0.59421611003E+03  0.71760128534E+03  0.46999998093E+01 0.  1.
</event>
<event>
 5   0  0.2875848E-03  0.1327577E+04  0.7818609E-02  0.9007978E-01
        1   -1    0    0  501    0  0.00000000000E+00  0.00000000000E+00  0.57043836206E+03  0.57043836208E+03  0.50400001928E-02 0.  1.
       -1   -1    0    0    0  501  0.00000000000E+00  0.00000000000E+00 -0.77241499362E+03  0.77241499364E+03  0.50400001928E-02 0. -1.
    10030    2    1    2    0    0  0.00000000000E+00  0.00000000000E+00 -0.20197663156E+03  0.13428533557E+04  0.13275769564E+04 0.  0.
        1    1    3    3  502    0  0.43574841979E+03  0.43520573889E+03  0.14951935351E+03  0.63374818154E+03  0.50400001928E-02 0. -1.
       -1    1    3    3    0  502 -0.43574841979E+03 -0.43520573889E+03 -0.35149598507E+03  0.70910517418E+03  0.50400001928E-02 0.  1.
</event>
<event>
 5   0  0.5467554E-03  0.1227822E+04  0.7818609E-02  0.9088847E-01
        2   -1    0    0  501    0  0.00000000000E+00  0.00000000000E+00  0.53458445582E+03  0.53458445582E+03  0.25500000920E-02 0.  1.
       -2   -1    0    0    0  501  0.00000000000E+00  0.00000000000E+00 -0.70500842785E+03  0.70500842786E+03  0.25500000920E-02 0. -1.
    10030    2    1    2    0    0  0.00000000000E+00  0.00000000000E+00 -0.17042397203E+03  0.12395928837E+04  0.12278217244E+04 0.  0.
        1    1    3    3  502    0 -0.34869618580E+01  0.14971683652E+03 -0.68628457389E+03  0.70243420078E+03  0.50400001928E-02 0. -1.
       -1    1    3    3    0  502  0.34869618580E+01 -0.14971683652E+03  0.51586060186E+03  0.53715868290E+03  0.50400001928E-02 0.  1.
</event>
<event>
 5   0  0.2875848E-03  0.1201569E+04  0.7818609E-02  0.9111484E-01
       -1   -1    0    0    0  501  0.00000000000E+00  0.00000000000E+00  0.39886044158E+03  0.39886044161E+03  0.50400001928E-02 0.  1.
        1   -1    0    0  501    0  0.00000000000E+00  0.00000000000E+00 -0.90493316407E+03  0.90493316409E+03  0.50400001928E-02 0. -1.
    10030    2    1    2    0    0  0.00000000000E+00  0.00000000000E+00 -0.50607272249E+03  0.13037936057E+04  0.12015690433E+04 0.  0.
        1    1    3    3  502    0  0.21024539687E+03  0.25191473591E+03 -0.79911947518E+03  0.86386115592E+03  0.50400001928E-02 0. -1.
       -1    1    3    3    0  502 -0.21024539687E+03 -0.25191473591E+03  0.29304675269E+03  0.43993244977E+03  0.50400001928E-02 0.  1.
</event>
<event>
 5   0  0.5031575E-03  0.1203626E+04  0.7818609E-02  0.9109688E-01
       -2   -1    0    0    0  501  0.00000000000E+00  0.00000000000E+00  0.21452809076E+03  0.21452809078E+03  0.25500000920E-02 0.  1.
        2   -1    0    0  501    0  0.00000000000E+00  0.00000000000E+00 -0.16882596884E+04  0.16882596884E+04  0.25500000920E-02 0. -1.
    10030    2    1    2    0    0  0.00000000000E+00  0.00000000000E+00 -0.14737315977E+04  0.19027877792E+04  0.12036264000E+04 0.  0.
        5    1    3    3  502    0 -0.12775147042E+03  0.39618940155E+03 -0.14239038326E+04  0.14835129573E+04  0.46999998093E+01 0. -1.
       -5    1    3    3    0  502  0.12775147042E+03 -0.39618940155E+03 -0.49827765073E+02  0.41927482188E+03  0.46999998093E+01 0.  1.
</event>
<event>
 5   0  0.5467554E-03  0.1198749E+04  0.7818609E-02  0.9113952E-01
       -2   -1    0    0    0  501  0.00000000000E+00  0.00000000000E+00  0.24117262488E+03  0.24117262490E+03  0.25500000920E-02 0.  1.
        2   -1    0    0  501    0  0.00000000000E+00  0.00000000000E+00 -0.14895961131E+04  0.14895961131E+04  0.25500000920E-02 0. -1.
    10030    2    1    2    0    0  0.00000000000E+00  0.00000000000E+00 -0.12484234882E+04  0.17307687380E+04  0.11987490223E+04 0.  0.
        1    1    3    3  502    0 -0.19753813775E+03 -0.52943589256E+03 -0.33571603777E+03  0.65728908270E+03  0.50400001928E-02 0. -1.
       -1    1    3    3    0  502  0.19753813775E+03  0.52943589256E+03 -0.91270745042E+03  0.10734796553E+04  0.50400001928E-02 0.  1.
</event>
<event>
 5   0  0.5031575E-03  0.1243066E+04  0.7818609E-02  0.9075974E-01
        2   -1    0    0  501    0  0.00000000000E+00  0.00000000000E+00  0.11561675014E+04  0.11561675014E+04  0.25500000920E-02 0. -1.
       -2   -1    0    0    0  501  0.00000000000E+00  0.00000000000E+00 -0.33412414240E+03  0.33412414241E+03  0.25500000920E-02 0.  1.
    10030    2    1    2    0    0  0.00000000000E+00  0.00000000000E+00  0.82204335904E+03  0.14902916438E+04  0.12430663295E+04 0.  0.
        5    1    3    3  502    0 -0.90224300142E+02 -0.58456939480E+03  0.18222777542E+03  0.61894333650E+03  0.46999998093E+01 0.  1.
       -5    1    3    3    0  502  0.90224300142E+02  0.58456939480E+03  0.63981558362E+03  0.87134830734E+03  0.46999998093E+01 0. -1.
</event>
<event>
 5   0  0.5031575E-03  0.1169357E+04  0.7818609E-02  0.9140109E-01
        2   -1    0    0  501    0  0.00000000000E+00  0.00000000000E+00  0.57076021180E+03  0.57076021180E+03  0.25500000920E-02 0. -1.
       -2   -1    0    0    0  501  0.00000000000E+00  0.00000000000E+00 -0.59893642675E+03  0.59893642675E+03  0.25500000920E-02 0.  1.
    10030    2    1    2    0    0  0.00000000000E+00  0.00000000000E+00 -0.28176214948E+02  0.11696966386E+04  0.11693572282E+04 0.  0.
        5    1    3    3  502    0  0.26649003049E+03  0.32587793804E+03 -0.41993191765E+03  0.59462448008E+03  0.46999998093E+01 0.  1.
       -5    1    3    3    0  502 -0.26649003049E+03 -0.32587793804E+03  0.39175570270E+03  0.57507215847E+03  0.46999998093E+01 0. -1.
</event>
<event>
 5   0  0.2792518E-03  0.1221561E+04  0.7818609E-02  0.9094191E-01
        1   -1    0    0  501    0  0.00000000000E+00  0.00000000000E+00  0.89173912601E+03  0.89173912602E+03  0.50400001928E-02 0. -1.
       -1   -1    0    0    0  501  0.00000000000E+00  0.00000000000E+00 -0.41834281534E+03  0.41834281537E+03  0.50400001928E-02 0.  1.
    10030    2    1    2    0    0  0.00000000000E+00  0.00000000000E+00  0.47339631066E+03  0.13100819414E+04  0.12215607337E+04 0.  0.
        2    1    3    3  502    0 -0.47009907238E+03 -0.21151322552E+03  0.58803776574E+03  0.78199705649E+03  0.25500000920E-02 0.  1.
       -2    1    3    3    0  502  0.47009907238E+03  0.21151322552E+03 -0.11464145507E+03  0.52808488490E+03  0.25500000920E-02 0. -1.
</event>
<event>
 5   0  0.5108045E-03  0.1263867E+04  0.7818609E-02  0.9058720E-01
       -2   -1    0    0    0  501  0.00000000000E+00  0.00000000000E+00  0.25629365403E+03  0.25629365404E+03  0.25500000920E-02 0. -1.
        2   -1    0    0  501    0  0.00000000000E+00  0.00000000000E+00 -0.15581350522E+04  0.15581350522E+04  0.25500000920E-02 0.  1.
    10030    2    1    2    0    0  0.00000000000E+00  0.00000000000E+00 -0.13018413982E+04  0.18144287063E+04  0.12638672810E+04 0.  0.
        3    1    3    3  502    0 -0.86540435854E+02  0.20844502870E+03 -0.14983012065E+04  0.15152046372E+04  0.10100000352E+00 0.  1.
       -3    1    3    3    0  502  0.86540435854E+02 -0.20844502870E+03  0.19645980830E+03  0.29922406906E+03  0.10100000352E+00 0. -1.
</event>
<event>
 5   0  0.2792518E-03  0.1185195E+04  0.7818609E-02  0.9125915E-01
       -1   -1    0    0    0  501  0.00000000000E+00  0.00000000000E+00  0.10876196945E+04  0.10876196945E+04  0.50400001928E-02 0.  1.
        1   -1    0    0  501    0  0.00000000000E+00  0.00000000000E+00 -0.32288088689E+03  0.32288088693E+03  0.50400001928E-02 0. -1.
    10030    2    1    2    0    0  0.00000000000E+00  0.00000000000E+00  0.76473880760E+03  0.14105005814E+04  0.11851946871E+04 0.  0.
        2    1    3    3  502    0 -0.58248440039E+03 -0.10192358785E+03  0.42838670883E+03  0.73019974443E+03  0.25500000920E-02 0.  1.
       -2    1    3    3    0  502  0.58248440039E+03  0.10192358785E+03  0.33635209877E+03  0.68030083699E+03  0.25500000920E-02 0. -1.
</event>
<event>
 5   0  0.5189537E-03  0.1157079E+04  0.7818609E-02  0.9151278E-01
        2   -1    0    0  501    0  0.00000000000E+00  0.00000000000E+00  0.11304954177E+04  0.11304954177E+04  0.25500000920E-02 0.  1.
       -2   -1    0    0    0  501  0.00000000000E+00  0.00000000000E+00 -0.29607170146E+03  0.29607170147E+03  0.25500000920E-02 0. -1.
    10030    2    1    2    0    0  0.00000000000E+00  0.00000000000E+00  0.83442371625E+03  0.14265671192E+04  0.11570785657E+04 0.  0.
        4    1    3    3  502    0  0.40200017633E+03 -0.40569412781E+03  0.53097506908E+03  0.77982562409E+03  0.12699999809E+01 0.  1.
       -4    1    3    3    0  502 -0.40200017633E+03  0.40569412781E+03  0.30344864718E+03  0.64674149510E+03  0.12699999809E+01 0. -1.
</event>
<event>
 5   0  0.2930868E-03  0.1164836E+04  0.7818609E-02  0.9144205E-01
       -1   -1    0    0    0  501  0.00000000000E+00  0.00000000000E+00  0.19346567634E+03  0.19346567641E+03  0.50400001928E-02 0.  1.
        1   -1    0    0  501    0  0.00000000000E+00  0.00000000000E+00 -0.17533388480E+04  0.17533388480E+04  0.50400001928E-02 0. -1.
    10030    2    1    2    0    0  0.00000000000E+00  0.00000000000E+00 -0.15598731716E+04  0.19468045244E+04  0.11648362737E+04 0.  0.
        3    1    3    3  502    0  0.89802249921E+02  0.37803649122E+03 -0.54820618186E+02  0.39240456568E+03  0.10100000352E+00 0.  1.
       -3    1    3    3    0  502 -0.89802249921E+02 -0.37803649122E+03 -0.15050525534E+04  0.15543999587E+04  0.10100000352E+00 0. -1.
</event>
<event>
 5   0  0.5108045E-03  0.1190985E+04  0.7818609E-02  0.9120784E-01
        2   -1    0    0  501    0  0.00000000000E+00  0.00000000000E+00  0.10377259656E+04  0.10377259656E+04  0.25500000920E-02 0.  1.
       -2   -1    0    0    0  501  0.00000000000E+00  0.00000000000E+00 -0.34171970973E+03  0.34171970974E+03  0.25500000920E-02 0. -1.
    10030    2    1    2    0    0  0.00000000000E+00  0.00000000000E+00  0.69600625588E+03  0.13794456753E+04  0.11909851649E+04 0.  0.
        3    1    3    3  502    0 -0.18166724159E+03 -0.56292874758E+03  0.26843248406E+03  0.64957506896E+03  0.10100000352E+00 0. -1.
       -3    1    3    3    0  502  0.18166724159E+03  0.56292874758E+03  0.42757377182E+03  0.72987060638E+03  0.10100000352E+00 0.  1.
</event>
<event>
 5   0  0.2938349E-03  0.1200381E+04  0.7818609E-02  0.9112524E-01
        1   -1    0    0  501    0  0.00000000000E+00  0.00000000000E+00  0.17196908151E+04  0.17196908151E+04  0.50400001928E-02 0.  1.
       -1   -1    0    0    0  501  0.00000000000E+00  0.00000000000E+00 -0.20947273710E+03  0.20947273716E+03  0.50400001928E-02 0. -1.
    10030    2    1    2    0    0  0.00000000000E+00  0.00000000000E+00  0.15102180780E+04  0.19291635522E+04  0.12003805098E+04 0.  0.
        4    1    3    3  502    0  0.57286794687E+03  0.17546135821E+03  0.69800838242E+03  0.91988134431E+03  0.12699999809E+01 0.  1.
       -4    1    3    3    0  502 -0.57286794687E+03 -0.17546135821E+03  0.81220969555E+03  0.10092822079E+04  0.12699999809E+01 0. -1.
</event>
<event>
 5   0  0.5467554E-03  0.1198615E+04  0.7818609E-02  0.9114070E-01
       -2   -1    0    0    0  501  0.00000000000E+00  0.00000000000E+00  0.38875439347E+03  0.38875439348E+03  0.25500000920E-02 0.  1.
        2   -1    0    0  501    0  0.00000000000E+00  0.00000000000E+00 -0.92389788383E+03  0.92389788384E+03  0.25500000920E-02 0. -1.
    10030    2    1    2    0    0  0.00000000000E+00  0.00000000000E+00 -0.53514349036E+03  0.13126522773E+04  0.11986148030E+04 0.  0.
        1    1    3    3  502    0  0.54011023256E+03 -0.93451454505E+02 -0.53294212514E+03  0.76451262020E+03  0.50400001928E-02 0. -1.
       -1    1    3    3    0  502 -0.54011023256E+03  0.93451454505E+02 -0.22013652228E+01  0.54813965712E+03  0.50400001928E-02 0.  1.
</event>
<event>
 5   0  0.2926844E-03  0.1255266E+04  0.7818609E-02  0.9065811E-01
        1   -1    0    0  501    0  0.00000000000E+00  0.00000000000E+00  0.10041755835E+04  0.10041755836E+04  0.50400001928E-02 0. -1.
       -1   -1    0    0    0  501  0.00000000000E+00  0.00000000000E+00 -0.39228547037E+03  0.39228547040E+03  0.50400001928E-02 0.  1.
    10030    2    1    2    0    0  0.00000000000E+00  0.00000000000E+00  0.61189011317E+03  0.13964610540E+04  0.12552664915E+04 0.  0.
        5    1    3    3  502    0  0.25833343248E+03  0.37822085340E+03 -0.17140454486E+03  0.48906930417E+03  0.46999998093E+01 0.  1.
       -5    1    3    3    0  502 -0.25833343248E+03 -0.37822085340E+03  0.78329465803E+03  0.90739174979E+03  0.46999998093E+01 0. -1.
</event>
<event>
 5   0  0.2938349E-03  0.1194200E+04  0.7818609E-02  0.9117948E-01
        1   -1    0    0  501    0  0.00000000000E+00  0.00000000000E+00  0.10677704948E+04  0.10677704948E+04  0.50400001928E-02 0. -1.
       -1   -1    0    0    0  501  0.00000000000E+00  0.00000000000E+00 -0.33389984381E+03  0.33389984385E+03  0.50400001928E-02 0.  1.
    10030    2    1    2    0    0  0.00000000000E+00  0.00000000000E+00  0.73387065097E+03  0.14016703386E+04  0.11941999857E+04 0.  0.
        4    1    3    3  502    0  0.59378702094E+03  0.37093077121E+02  0.42641313924E+03  0.73197588815E+03  0.12699999809E+01 0.  1.
       -4    1    3    3    0  502 -0.59378702094E+03 -0.37093077121E+02  0.30745751173E+03  0.66969445050E+03  0.12699999809E+01 0. -1.
</event>
<event>
 5   0  0.5108045E-03  0.1112880E+04  0.7818609E-02  0.9192728E-01
        2   -1    0    0  501    0  0.00000000000E+00  0.00000000000E+00  0.81001283794E+03  0.81001283794E+03  0.25500000920E-02 0. -1.
       -2   -1    0    0    0  501  0.00000000000E+00  0.00000000000E+00 -0.38224753161E+03  0.38224753161E+03  0.25500000920E-02 0.  1.
    10030    2    1    2    0    0  0.00000000000E+00  0.00000000000E+00  0.42776530633E+03  0.11922603696E+04  0.11128798819E+04 0.  0.
        3    1    3    3  502    0  0.13323936722E+03 -0.68779758005E+02 -0.36019572171E+03  0.39015939336E+03  0.10100000352E+00 0.  1.
       -3    1    3    3    0  502 -0.13323936722E+03  0.68779758005E+02  0.78796102804E+03  0.80210097619E+03  0.10100000352E+00 0. -1.
</event>
<event>
 5   0  0.2926844E-03  0.1155976E+04  0.7818609E-02  0.9152288E-01
        1   -1    0    0  501    0  0.00000000000E+00  0.00000000000E+00  0.94543392473E+03  0.94543392474E+03  0.50400001928E-02 0.  1.
       -1   -1    0    0    0  501  0.00000000000E+00  0.00000000000E+00 -0.35335095789E+03  0.35335095793E+03  0.50400001928E-02 0. -1.
    10030    2    1    2    0    0  0.00000000000E+00  0.00000000000E+00  0.59208296684E+03  0.12987848827E+04  0.11559757488E+04 0.  0.
        5    1    3    3  502    0 -0.26573847856E+03  0.36066762634E+03  0.70632560942E+03  0.83643053041E+03  0.46999998093E+01 0.  1.
       -5    1    3    3    0  502  0.26573847856E+03 -0.36066762634E+03 -0.11424264259E+03  0.46235435226E+03  0.46999998093E+01 0. -1.
</event>
<event>
 5   0  0.2930868E-03  0.1206778E+04  0.7818609E-02  0.9106944E-01
       -1   -1    0    0    0  501  0.00000000000E+00  0.00000000000E+00  0.63610368368E+03  0.63610368370E+03  0.50400001928E-02 0. -1.
        1   -1    0    0  501    0  0.00000000000E+00  0.00000000000E+00 -0.57235726929E+03  0.57235726931E+03  0.50400001928E-02 0.  1.
    10030    2    1    2    0    0  0.00000000000E+00  0.00000000000E+00  0.63746414393E+02  0.12084609530E+04  0.12067784675E+04 0.  0.
        3    1    3    3  502    0 -0.87814813631E+02  0.59691951869E+03  0.39245802699E+02  0.60461938153E+03  0.10100000352E+00 0. -1.
       -3    1    3    3    0  502  0.87814813631E+02 -0.59691951869E+03  0.24500611695E+02  0.60384157149E+03  0.10100000352E+00 0.  1.
</event>
<event>
 5   0  0.2792518E-03  0.1174221E+04  0.7818609E-02  0.9135725E-01
       -1   -1    0    0    0  501  0.00000000000E+00  0.00000000000E+00  0.93594267839E+03  0.93594267840E+03  0.50400001928E-02 0.  1.
        1   -1    0    0  501    0  0.00000000000E+00  0.00000000000E+00 -0.36829031326E+03  0.36829031329E+03  0.50400001928E-02 0. -1.
    10030    2    1    2    0    0  0.00000000000E+00  0.00000000000E+00  0.56765236513E+03  0.13042329917E+04  0.11742208008E+04 0.  0.
        2    1    3    3  502    0  0.43537524027E+03  0.30266325802E+03  0.56381182787E+03  0.77397701829E+03  0.25500000920E-02 0.  1.
       -2    1    3    3    0  502 -0.43537524027E+03 -0.30266325802E+03  0.38405372646E+01  0.53025597340E+03  0.25500000920E-02 0. -1.
</event>
<event>
 5   0  0.5003526E-03  0.1190500E+04  0.7818609E-02  0.9121213E-01
        2   -1    0    0  501    0  0.00000000000E+00  0.00000000000E+00  0.21019134659E+04  0.21019134659E+04  0.25500000920E-02 0.  1.
       -2   -1    0    0    0  501  0.00000000000E+00  0.00000000000E+00 -0.16857135575E+03  0.16857135577E+03  0.25500000920E-02 0. -1.
    10030    2    1    2    0    0  0.00000000000E+00  0.00000000000E+00  0.19333421102E+04  0.22704848217E+04  0.11904997314E+04 0.  0.
        2    1    3    3  502    0 -0.43136716863E+03  0.31480495865E+03  0.46518117356E+03  0.70821841292E+03  0.25500000920E-02 0.  1.
       -2    1    3    3    0  502  0.43136716863E+03 -0.31480495865E+03  0.14681609366E+04  0.15622664088E+04  0.25500000920E-02 0. -1.
</event>
<event>
 5   0  0.2792518E-03  0.1256047E+04  0.7818609E-02  0.9065166E-01
        1   -1    0    0  501    0  0.00000000000E+00  0.00000000000E+00  0.65880162872E+03  0.65880162874E+03  0.50400001928E-02 0. -1.
       -1   -1    0    0    0  501  0.00000000000E+00  0.00000000000E+00 -0.59868295705E+03  0.59868295707E+03  0.50400001928E-02 0.  1.
    10030    2    1    2    0    0  0.00000000000E+00  0.00000000000E+00  0.60118671676E+02  0.12574845858E+04  0.12560466667E+04 0.  0.
        2    1    3    3  502    0  0.46114576430E+03 -0.27339331762E+03 -0.29744508261E+03  0.61308474066E+03  0.25500000920E-02 0.  1.
       -2    1    3    3    0  502 -0.46114576430E+03  0.27339331762E+03  0.35756375429E+03  0.64439984516E+03  0.25500000920E-02 0. -1.
</event>
<event>
 5   0  0.2792518E-03  0.1162430E+04  0.7818609E-02  0.9146392E-01
        1   -1    0    0  501    0  0.00000000000E+00  0.00000000000E+00  0.61501224670E+03  0.61501224672E+03  0.50400001928E-02 0. -1.
       -1   -1    0    0    0  501  0.00000000000E+00  0.00000000000E+00 -0.54927530071E+03  0.54927530073E+03  0.50400001928E-02 0.  1.
    10030    2    1    2    0    0  0.00000000000E+00  0.00000000000E+00  0.65736945991E+02  0.11642875475E+04  0.11624302762E+04 0.  0.
        2    1    3    3  502    0  0.38661791837E+03  0.69380983436E+02  0.46194984019E+03  0.60637017615E+03  0.25500000920E-02 0. -1.
       -2    1    3    3    0  502 -0.38661791837E+03 -0.69380983436E+02 -0.39621289420E+03  0.55791737130E+03  0.25500000920E-02 0.  1.
</event>
<event>
 5   0  0.2930868E-03  0.1193592E+04  0.7818609E-02  0.9118484E-01
       -1   -1    0    0    0  501  0.00000000000E+00  0.00000000000E+00  0.44716967356E+03  0.44716967358E+03  0.50400001928E-02 0.  1.
        1   -1    0    0  501    0  0.00000000000E+00  0.00000000000E+00 -0.79648827584E+03  0.79648827586E+03  0.50400001928E-02 0. -1.
    10030    2    1    2    0    0  0.00000000000E+00  0.00000000000E+00 -0.34931860229E+03  0.12436579494E+04  0.11935918940E+04 0.  0.
        3    1    3    3  502    0  0.53515025817E+03  0.10916442730E+03  0.75977313698E+02  0.55143017092E+03  0.10100000352E+00 0.  1.
       -3    1    3    3    0  502 -0.53515025817E+03 -0.10916442730E+03 -0.42529591599E+03  0.69222777852E+03  0.10100000352E+00 0. -1.
</event>
<event>
 5   0  0.5467554E-03  0.1171873E+04  0.7818609E-02  0.9137838E-01
        2   -1    0    0  501    0  0.00000000000E+00  0.00000000000E+00  0.15721210482E+04  0.15721210482E+04  0.25500000920E-02 0. -1.
       -2   -1    0    0    0  501  0.00000000000E+00  0.00000000000E+00 -0.21838127842E+03  0.21838127843E+03  0.25500000920E-02 0.  1.
    10030    2    1    2    0    0  0.00000000000E+00  0.00000000000E+00  0.13537397698E+04  0.17905023266E+04  0.11718733794E+04 0.  0.
        1    1    3    3  502    0  0.27317397822E+03  0.27111470067E+03  0.13519076986E+04  0.14056249958E+04  0.50400001928E-02 0. -1.
       -1    1    3    3    0  502 -0.27317397822E+03 -0.27111470067E+03  0.18320712196E+01  0.38487733085E+03  0.50400001928E-02 0.  1.
</event>
<event>
 5   0  0.5189537E-03  0.1199842E+04  0.7818609E-02  0.9112995E-01
       -2   -1    0    0    0  501  0.00000000000E+00  0.00000000000E+00  0.13455567891E+04  0.13455567891E+04  0.25500000920E-02 0. -1.
        2   -1    0    0  501    0  0.00000000000E+00  0.00000000000E+00 -0.26747677154E+03  0.26747677156E+03  0.25500000920E-02 0.  1.
    10030    2    1    2    0    0  0.00000000000E+00  0.00000000000E+00  0.10780800176E+04  0.16130335607E+04  0.11998419661E+04 0.  0.
        4    1    3    3  502    0 -0.30571647644E+03 -0.51613297007E+03  0.52974863561E+03  0.80030683903E+03  0.12699999809E+01 0. -1.
       -4    1    3    3    0  502  0.30571647644E+03  0.51613297007E+03  0.54833138199E+03  0.81272672168E+03  0.12699999809E+01 0.  1.
</event>
<event>
 5   0  0.2875848E-03  0.1206227E+04  0.7818609E-02  0.9107423E-01
       -1   -1    0    0    0  501  0.00000000000E+00  0.00000000000E+00  0.56140878378E+03  0.56140878381E+03  0.50400001928E-02 0. -1.
        1   -1    0    0  501    0  0.00000000000E+00  0.00000000000E+00 -0.64791646104E+03  0.64791646106E+03  0.50400001928E-02 0.  1.
    10030    2    1    2    0    0  0.00000000000E+00  0.00000000000E+00 -0.86507677253E+02  0.12093252449E+04  0.12062271634E+04 0.  0.
        1    1    3    3  502    0  0.38191826131E+03 -0.45862136761E+03 -0.13037279448E+03  0.61089457578E+03  0.50400001928E-02 0.  1.
       -1    1    3    3    0  502 -0.38191826131E+03  0.45862136761E+03  0.43865117231E+02  0.59843066908E+03  0.50400001928E-02 0. -1.
</event>
<event>
 5   0  0.5467554E-03  0.1193178E+04  0.7818609E-02  0.9118849E-01
       -2   -1    0    0    0  501  0.00000000000E+00  0.00000000000E+00  0.48704539935E+03  0.48704539936E+03  0.25500000920E-02 0. -1.
        2   -1    0    0  501    0  0.00000000000E+00  0.00000000000E+00 -0.73077083440E+03  0.73077083440E+03  0.25500000920E-02 0.  1.
    10030    2    1    2    0    0  0.00000000000E+00  0.00000000000E+00 -0.24372543505E+03  0.12178162338E+04  0.11931782312E+04 0.  0.
        1    1    3    3  502    0  0.43651941939E+03  0.27192912598E+02 -0.53598711254E+03  0.69178814881E+03  0.50400001928E-02 0. -1.
       -1    1    3    3    0  502 -0.43651941939E+03 -0.27192912598E+02  0.29226167750E+03  0.52602808495E+03  0.50400001928E-02 0.  1.
</event>
<event>
 5   0  0.5189537E-03  0.1222548E+04  0.7818609E-02  0.9093346E-01
        2   -1    0    0  501    0  0.00000000000E+00  0.00000000000E+00  0.92496756290E+03  0.92496756290E+03  0.25500000920E-02 0.  1.
       -2   -1    0    0    0  501  0.00000000000E+00  0.00000000000E+00 -0.40396670261E+03  0.40396670262E+03  0.25500000920E-02 0. -1.
    10030    2    1    2    0    0  0.00000000000E+00  0.00000000000E+00  0.52100086028E+03  0.13289342655E+04  0.12225483163E+04 0.  0.
        4    1    3    3  502    0 -0.53963079578E+03  0.28065066665E+03  0.32651656013E+03  0.69034836813E+03  0.12699999809E+01 0.  1.
       -4    1    3    3    0  502  0.53963079578E+03 -0.28065066665E+03  0.19448430015E+03  0.63858589739E+03  0.12699999809E+01 0. -1.
</event>
<event>
 5   0  0.5031575E-03  0.1200186E+04  0.7818609E-02  0.9112693E-01
       -2   -1    0    0    0  501  0.00000000000E+00  0.00000000000E+00  0.66502865756E+03  0.66502865757E+03  0.25500000920E-02 0. -1.
        2   -1    0    0  501    0  0.00000000000E+00  0.00000000000E+00 -0.54149820768E+03  0.54149820768E+03  0.25500000920E-02 0.  1.
    10030    2    1    2    0    0  0.00000000000E+00  0.00000000000E+00  0.12353044989E+03  0.12065268653E+04  0.12001863624E+04 0.  0.
        5    1    3    3  502    0 -0.12115886029E+03  0.55339612525E+03  0.26070712389E+03  0.62363213140E+03  0.46999998093E+01 0. -1.
       -5    1    3    3    0  502  0.12115886029E+03 -0.55339612525E+03 -0.13717667400E+03  0.58289473385E+03  0.46999998093E+01 0.  1.
</event>
<event>
 5   0  0.5467554E-03  0.1206578E+04  0.7818609E-02  0.9107118E-01
        2   -1    0    0  501    0  0.00000000000E+00  0.00000000000E+00  0.12878460174E+04  0.12878460174E+04  0.25500000920E-02 0.  1.
       -2   -1    0    0    0  501  0.00000000000E+00  0.00000000000E+00 -0.28260967187E+03  0.28260967188E+03  0.25500000920E-02 0. -1.
    10030    2    1    2    0    0  0.00000000000E+00  0.00000000000E+00  0.10052363455E+04  0.15704556893E+04  0.12065782037E+04 0.  0.
        1    1    3    3  502    0 -0.25662344764E+03  0.46129398596E+03  0.12245486718E+03  0.54188830019E+03  0.50400001928E-02 0. -1.
       -1    1    3    3    0  502  0.25662344764E+03 -0.46129398596E+03  0.88278147835E+03  0.10285673891E+04  0.50400001928E-02 0.  1.
</event>
<event>
 5   0  0.5031575E-03  0.1189650E+04  0.7818609E-02  0.9121965E-01
        2   -1    0    0  501    0  0.00000000000E+00  0.00000000000E+00  0.51559596976E+03  0.51559596977E+03  0.25500000920E-02 0.  1.
       -2   -1    0    0    0  501  0.00000000000E+00  0.00000000000E+00 -0.68622831313E+03  0.68622831313E+03  0.25500000920E-02 0. -1.
    10030    2    1    2    0    0  0.00000000000E+00  0.00000000000E+00 -0.17063234336E+03  0.12018242829E+04  0.11896496166E+04 0.  0.
        5    1    3    3  502    0  0.56319463966E+01  0.59327673062E+03 -0.42628984674E+02  0.59485150941E+03  0.46999998093E+01 0.  1.
       -5    1    3    3    0  502 -0.56319463966E+01 -0.59327673062E+03 -0.12800335869E+03  0.60697277349E+03  0.46999998093E+01 0. -1.
</event>
<event>
 5   0  0.5467554E-03  0.1159323E+04  0.7818609E-02  0.9149226E-01
       -2   -1    0    0    0  501  0.00000000000E+00  0.00000000000E+00  0.25027197869E+03  0.25027197871E+03  0.25500000920E-02 0.  1.
        2   -1    0    0  501    0  0.00000000000E+00  0.00000000000E+00 -0.13425690785E+04  0.13425690785E+04  0.25500000920E-02 0. -1.
    10030    2    1    2    0    0  0.00000000000E+00  0.00000000000E+00 -0.10922970998E+04  0.15928410572E+04  0.11593229400E+04 0.  0.
        1    1    3    3  502    0 -0.41623866871E+03  0.30068404498E+03 -0.91568982596E+03  0.10498349307E+04  0.50400001928E-02 0.  1.
       -1    1    3    3    0  502  0.41623866871E+03 -0.30068404498E+03 -0.17660727381E+03  0.54300612651E+03  0.50400001928E-02 0. -1.
</event>
<event>
 5   0  0.2938349E-03  0.1189725E+04  0.7818609E-02  0.9121898E-01
       -1   -1    0    0    0  501  0.00000000000E+00  0.00000000000E+00  0.23051148739E+03  0.23051148745E+03  0.50400001928E-02 0. -1.
        1   -1    0    0  501    0  0.00000000000E+00  0.00000000000E+00 -0.15351151784E+04  0.15351151784E+04  0.50400001928E-02 0.  1.
    10030    2    1    2    0    0  0.00000000000E+00  0.00000000000E+00 -0.13046036910E+04  0.17656266658E+04  0.11897254862E+04 0.  0.
        4    1    3    3  502    0 -0.42621466058E+02  0.17270300215E+03  0.19011383635E+03  0.26036090334E+03  0.12699999809E+01 0. -1.
       -4    1    3    3    0  502  0.42621466058E+02 -0.17270300215E+03 -0.14947175273E+04  0.15052657625E+04  0.12699999809E+01 0.  1.
</event>
<event>
 5   0  0.2930868E-03  0.1196754E+04  0.7818609E-02  0.9115703E-01
       -1   -1    0    0    0  501  0.00000000000E+00  0.00000000000E+00  0.11309346219E+04  0.11309346219E+04  0.50400001928E-02 0. -1.
        1   -1    0    0  501    0  0.00000000000E+00  0.00000000000E+00 -0.31660092857E+03  0.31660092861E+03  0.50400001928E-02 0.  1.
    10030    2    1    2    0    0  0.00000000000E+00  0.00000000000E+00  0.81433369329E+03  0.14475355505E+04  0.11967538619E+04 0.  0.
        3    1    3    3  502    0  0.40141844911E+02 -0.27800881639E+02  0.11285208333E+04  0.11295767075E+04  0.10100000352E+00 0. -1.
       -3    1    3    3    0  502 -0.40141844911E+02  0.27800881639E+02 -0.31418713997E+03  0.31795884302E+03  0.10100000352E+00 0.  1.
</event>
<event>
 5   0  0.5467554E-03  0.1202480E+04  0.7818609E-02  0.9110688E-01
        2   -1    0    0  501    0  0.00000000000E+00  0.00000000000E+00  0.31551058375E+03  0.31551058376E+03  0.25500000920E-02 0.  1.
       -2   -1    0    0    0  501  0.00000000000E+00  0.00000000000E+00 -0.11457293574E+04  0.11457293574E+04  0.25500000920E-02 0. -1.
    10030    2    1    2    0    0  0.00000000000E+00  0.00000000000E+00 -0.83021877367E+03  0.14612399412E+04  0.12024803339E+04 0.  0.
        1    1    3    3  502    0 -0.13828791751E+03  0.46016609446E+03  0.24065346203E+02  0.48109824728E+03  0.50400001928E-02 0.  1.
       -1    1    3    3    0  502  0.13828791751E+03 -0.46016609446E+03 -0.85428411987E+03  0.98014169390E+03  0.50400001928E-02 0. -1.
</event>
<event>
 5   0  0.2792518E-03  0.1191393E+04  0.7818609E-02  0.9120424E-01
       -1   -1    0    0    0  501  0.00000000000E+00  0.00000000000E+00  0.32734058844E+03  0.32734058848E+03  0.50400001928E-02 0. -1.
        1   -1    0    0  501    0  0.00000000000E+00  0.00000000000E+00 -0.10840525462E+04  0.10840525462E+04  0.50400001928E-02 0.  1.
    10030    2    1    2    0    0  0.00000000000E+00  0.00000000000E+00 -0.75671195777E+03  0.14113931347E+04  0.11913931314E+04 0.  0.
        2    1    3    3  502    0 -0.55362720142E+03  0.19516061611E+03 -0.25833866187E+03  0.64134983313E+03  0.25500000920E-02 0. -1.
       -2    1    3    3    0  502  0.55362720142E+03 -0.19516061611E+03 -0.49837329590E+03  0.77004330158E+03  0.25500000920E-02 0.  1.
</event>
<event>
 5   0  0.5003526E-03  0.1190206E+04  0.7818609E-02  0.9121473E-01
        2   -1    0    0  501    0  0.00000000000E+00  0.00000000000E+00  0.12028636416E+04  0.12028636416E+04  0.25500000920E-02 0.  1.
       -2   -1    0    0    0  501  0.00000000000E+00  0.00000000000E+00 -0.29442017093E+03  0.29442017094E+03  0.25500000920E-02 0. -1.
    10030    2    1    2    0    0  0.00000000000E+00  0.00000000000E+00  0.90844347069E+03  0.14972838126E+04  0.11902055604E+04 0.  0.
        2    1    3    3  502    0  0.31142338016E+03  0.11448348238E+03  0.10757017857E+04  0.11257110291E+04  0.25500000920E-02 0.  1.
       -2    1    3    3    0  502 -0.31142338016E+03 -0.11448348238E+03 -0.16725831496E+03  0.37157278342E+03  0.25500000920E-02 0. -1.
</event>
<event>
 5   0  0.2938349E-03  0.1151257E+04  0.7818609E-02  0.9156625E-01
        1   -1    0    0  501    0  0.00000000000E+00  0.00000000000E+00  0.71181417172E+03  0.71181417173E+03  0.50400001928E-02 0. -1.
       -1   -1    0    0    0  501  0.00000000000E+00  0.00000000000E+00 -0.46549797231E+03  0.46549797234E+03  0.50400001928E-02 0.  1.
    10030    2    1    2    0    0  0.00000000000E+00  0.00000000000E+00  0.24631619940E+03  0.11773121441E+04  0.11512567978E+04 0.  0.
        4    1    3    3  502    0 -0.38552865595E+03 -0.12918007525E+03  0.53984347599E+03  0.67583461577E+03  0.12699999809E+01 0. -1.
       -4    1    3    3    0  502  0.38552865595E+03  0.12918007525E+03 -0.29352727659E+03  0.50147752831E+03  0.12699999809E+01 0.  1.
</event>
<event>
 5   0  0.5031575E-03  0.1203368E+04  0.7818609E-02  0.9109913E-01
        2   -1    0    0  501    0  0.00000000000E+00  0.00000000000E+00  0.15133227199E+04  0.15133227199E+04  0.25500000920E-02 0.  1.
       -2   -1    0    0    0  501  0.00000000000E+00  0.00000000000E+00 -0.23922442622E+03  0.23922442624E+03  0.25500000920E-02 0. -1.
    10030    2    1    2    0    0  0.00000000000E+00  0.00000000000E+00  0.12740982937E+04  0.17525471461E+04  0.12033682053E+04 0.  0.
        5    1    3    3  502    0 -0.31940957647E+03  0.17252385492E+03 -0.61726424072E+02  0.36826512119E+03  0.46999998093E+01 0. -1.
       -5    1    3    3    0  502  0.31940957647E+03 -0.17252385492E+03  0.13358247177E+04  0.13842820249E+04  0.46999998093E+01 0.  1.
</event>
<event>
 5   0  0.2875848E-03  0.1198222E+04  0.7818609E-02  0.9114415E-01
        1   -1    0    0  501    0  0.00000000000E+00  0.00000000000E+00  0.41022517314E+03  0.41022517317E+03  0.50400001928E-02 0.  1.
       -1   -1    0    0    0  501  0.00000000000E+00  0.00000000000E+00 -0.87496775646E+03  0.87496775647E+03  0.50400001928E-02 0. -1.
    10030    2    1    2    0    0  0.00000000000E+00  0.00000000000E+00 -0.46474258332E+03  0.12851929296E+04  0.11982216814E+04 0.  0.
        1    1    3    3  502    0 -0.28416015869E+02  0.38501894472E+03 -0.72375828482E+03  0.82028843258E+03  0.50400001928E-02 0. -1.
       -1    1    3    3    0  502  0.28416015869E+02 -0.38501894472E+03  0.25901570150E+03  0.46490449707E+03  0.50400001928E-02 0.  1.
</event>
<event>
 5   0  0.5467554E-03  0.1166057E+04  0.7818609E-02  0.9143097E-01
        2   -1    0    0  501    0  0.00000000000E+00  0.00000000000E+00  0.18831251253E+04  0.18831251253E+04  0.25500000920E-02 0. -1.
       -2   -1    0    0    0  501  0.00000000000E+00  0.00000000000E+00 -0.18050966886E+03  0.18050966888E+03  0.25500000920E-02 0.  1.
    10030    2    1    2    0    0  0.00000000000E+00  0.00000000000E+00  0.17026154565E+04  0.20636347942E+04  0.11660571046E+04 0.  0.
        1    1    3    3  502    0 -0.34707115881E+03 -0.34032490622E+03  0.14210556115E+04  0.15018916346E+04  0.50400001928E-02 0. -1.
       -1    1    3    3    0  502  0.34707115881E+03  0.34032490622E+03  0.28155984499E+03  0.56174315964E+03  0.50400001928E-02 0.  1.
</event>
<event>
 5   0  0.2792518E-03  0.1224312E+04  0.7818609E-02  0.9091838E-01
       -1   -1    0    0    0  501  0.00000000000E+00  0.00000000000E+00  0.11164718187E+04  0.11164718187E+04  0.50400001928E-02 0.  1.
        1   -1    0    0  501    0  0.00000000000E+00  0.00000000000E+00 -0.33564229572E+03  0.33564229576E+03  0.50400001928E-02 0. -1.
    10030    2    1    2    0    0  0.00000000000E+00  0.00000000000E+00  0.78082952298E+03  0.14521141145E+04  0.12243123202E+04 0.  0.
        2    1    3    3  502    0  0.42201567844E+03  0.11216741700E+03 -0.11842845716E+03  0.45244232976E+03  0.25500000920E-02 0. -1.
       -2    1    3    3    0  502 -0.42201567844E+03 -0.11216741700E+03  0.89925798014E+03  0.99967178471E+03  0.25500000920E-02 0.  1.
</event>
<event>
 5   0  0.2792518E-03  0.1267813E+04  0.7818609E-02  0.9055487E-01
        1   -1    0    0  501    0  0.00000000000E+00  0.00000000000E+00  0.69756341111E+03  0.69756341113E+03  0.50400001928E-02 0.  1.
       -1   -1    0    0    0  501  0.00000000000E+00  0.00000000000E+00 -0.57605843939E+03  0.57605843941E+03  0.50400001928E-02 0. -1.
    10030    2    1    2    0    0  0.00000000000E+00  0.00000000000E+00  0.12150497173E+03  0.12736218505E+04  0.12678127464E+04 0.  0.
        2    1    3    3  502    0 -0.58967945340E+03 -0.11331828230E+03  0.26484438517E+03  0.65628152437E+03  0.25500000920E-02 0.  1.
       -2    1    3    3    0  502  0.58967945340E+03  0.11331828230E+03 -0.14333941344E+03  0.61734032617E+03  0.25500000920E-02 0. -1.
</event>
<event>
 5   0  0.2926844E-03  0.1180206E+04  0.7818609E-02  0.9130360E-01
       -1   -1    0    0    0  501  0.00000000000E+00  0.00000000000E+00  0.93350419210E+03  0.93350419211E+03  0.50400001928E-02 0.  1.
        1   -1    0    0  501    0  0.00000000000E+00  0.00000000000E+00 -0.37302651175E+03  0.37302651178E+03  0.50400001928E-02 0. -1.
    10030    2    1    2    0    0  0.00000000000E+00  0.00000000000E+00  0.56047768036E+03  0.13065307039E+04  0.11802064438E+04 0.  0.
        5    1    3    3  502    0 -0.15620915942E+03  0.23637369830E+03  0.85325779004E+03  0.89907995918E+03  0.46999998093E+01 0.  1.
       -5    1    3    3    0  502  0.15620915942E+03 -0.23637369830E+03 -0.29278010969E+03  0.40745074471E+03  0.46999998093E+01 0. -1.
</event>
<event>
 5   0  0.2926844E-03  0.1135939E+04  0.7818609E-02  0.9170854E-01
        1   -1    0    0  501    0  0.00000000000E+00  0.00000000000E+00  0.10896679980E+04  0.10896679980E+04  0.50400001928E-02 0. -1.
       -1   -1    0    0    0  501  0.00000000000E+00  0.00000000000E+00 -0.29604389618E+03  0.29604389622E+03  0.50400001928E-02 0.  1.
    10030    2    1    2    0    0  0.00000000000E+00  0.00000000000E+00  0.79362410178E+03  0.13857118942E+04  0.11359393640E+04 0.  0.
        5    1    3    3  502    0  0.41529197021E+02  0.40563289937E+03  0.87909718814E+03  0.96907000751E+03  0.46999998093E+01 0. -1.
       -5    1    3    3    0  502 -0.41529197021E+02 -0.40563289937E+03 -0.85473086361E+02  0.41664188669E+03  0.46999998093E+01 0.  1.
</event>
<event>
 5   0  0.2938349E-03  0.1195845E+04  0.7818609E-02  0.9116501E-01
        1   -1    0    0  501    0  0.00000000000E+00  0.00000000000E+00  0.44860767656E+03  0.44860767659E+03  0.50400001928E-02 0.  1.
       -1   -1    0    0    0  501  0.00000000000E+00  0.00000000000E+00 -0.79693503655E+03  0.79693503657E+03  0.50400001928E-02 0. -1.
    10030    2    1    2    0    0  0.00000000000E+00  0.00000000000E+00 -0.34832735999E+03  0.12455427132E+04  0.11958447644E+04 0.  0.
        4    1    3    3  502    0 -0.16491303567E+03  0.10310804737E+03  0.41473814395E+03  0.45807959975E+03  0.12699999809E+01 0.  1.
       -4    1    3    3    0  502  0.16491303567E+03 -0.10310804737E+03 -0.76306550394E+03  0.78746311340E+03  0.12699999809E+01 0. -1.
</event>
<event>
 5   0  0.5189537E-03  0.1197748E+04  0.7818609E-02  0.9114830E-01
       -2   -1    0    0    0  501  0.00000000000E+00  0.00000000000E+00  0.39135658648E+03  0.39135658649E+03  0.25500000920E-02 0. -1.
        2   -1    0    0  501    0  0.00000000000E+00  0.00000000000E+00 -0.91642805434E+03  0.91642805434E+03  0.25500000920E-02 0.  1.
    10030    2    1    2    0    0  0.00000000000E+00  0.00000000000E+00 -0.52507146786E+03  0.13077846408E+04  0.11977481457E+04 0.  0.
        4    1    3    3  502    0 -0.53541776898E+03  0.17720408476E+03 -0.48247377334E+03  0.74219675953E+03  0.12699999809E+01 0. -1.
       -4    1    3    3    0  502  0.53541776898E+03 -0.17720408476E+03 -0.42597694520E+02  0.56558788130E+03  0.12699999809E+01 0.  1.
</event>
<event>
 5   0  0.5467554E-03  0.1200511E+04  0.7818609E-02  0.9112409E-01
        2   -1    0    0  501    0  0.00000000000E+00  0.00000000000E+00  0.15385849814E+04  0.15385849814E+04  0.25500000920E-02 0.  1.
       -2   -1    0    0    0  501  0.00000000000E+00  0.00000000000E+00 -0.23418063265E+03  0.23418063266E+03  0.25500000920E-02 0. -1.
    10030    2    1    2    0    0  0.00000000000E+00  0.00000000000E+00  0.13044043488E+04  0.17727656141E+04  0.12005112317E+04 0.  0.
        1    1    3    3  502    0 -0.75305499425E+02  0.42655364056E+03  0.12658455042E+04  0.13379027494E+04  0.50400001928E-02 0.  1.
       -1    1    3    3    0  502  0.75305499425E+02 -0.42655364056E+03  0.38558844610E+02  0.43486286464E+03  0.50400001928E-02 0. -1.
</event>
<event>
 5   0  0.5031575E-03  0.1205470E+04  0.7818609E-02  0.9108082E-01
        2   -1    0    0  501    0  0.00000000000E+00  0.00000000000E+00  0.95252570119E+03  0.95252570119E+03  0.25500000920E-02 0.  1.
       -2   -1    0    0    0  501  0.00000000000E+00  0.00000000000E+00 -0.38139577359E+03  0.38139577360E+03  0.25500000920E-02 0. -1.
    10030    2    1    2    0    0  0.00000000000E+00  0.00000000000E+00  0.57112992759E+03  0.13339214748E+04  0.12054696623E+04 0.  0.
        5    1    3    3  502    0 -0.19272988041E+03  0.53214276101E+03  0.56247212726E+02  0.56877637419E+03  0.46999998093E+01 0. -1.
       -5    1    3    3    0  502  0.19272988041E+03 -0.53214276101E+03  0.51488271487E+03  0.76514510060E+03  0.46999998093E+01 0.  1.
</event>
<event>
 5   0  0.5003526E-03  0.1190234E+04  0.7818609E-02  0.9121447E-01
       -2   -1    0    0    0  501  0.00000000000E+00  0.00000000000E+00  0.17465683175E+03  0.17465683177E+03  0.25500000920E-02 0.  1.
        2   -1    0    0  501    0  0.00000000000E+00  0.00000000000E+00 -0.20277735589E+04  0.20277735589E+04  0.25500000920E-02 0. -1.
    10030    2    1    2    0    0  0.00000000000E+00  0.00000000000E+00 -0.18531167271E+04  0.22024303906E+04  0.11902344396E+04 0.  0.
        2    1    3    3  502    0 -0.44149529378E+03  0.12260266562E+03 -0.22385037350E+03  0.50995930992E+03  0.25500000920E-02 0.  1.
       -2    1    3    3    0  502  0.44149529378E+03 -0.12260266562E+03 -0.16292663536E+04  0.16924710807E+04  0.25500000920E-02 0. -1.
</event>
<event>
 5   0  0.2792518E-03  0.1193802E+04  0.7818609E-02  0.9118299E-01
       -1   -1    0    0    0  501  0.00000000000E+00  0.00000000000E+00  0.57388973367E+03  0.57388973369E+03  0.50400001928E-02 0. -1.
        1   -1    0    0  501    0  0.00000000000E+00  0.00000000000E+00 -0.62083528777E+03  0.62083528779E+03  0.50400001928E-02 0.  1.
    10030    2    1    2    0    0  0.00000000000E+00  0.00000000000E+00 -0.46945554100E+02  0.11947250215E+04  0.11938023253E+04 0.  0.
        2    1    3    3  502    0 -0.36939454738E+03  0.46878611620E+03 -0.32325154520E+02  0.59771035628E+03  0.25500000920E-02 0.  1.
       -2    1    3    3    0  502  0.36939454738E+03 -0.46878611620E+03 -0.14620399580E+02  0.59701466520E+03  0.25500000920E-02 0. -1.
</event>
<event>
 5   0  0.2875848E-03  0.1246311E+04  0.7818609E-02  0.9073260E-01
       -1   -1    0    0    0  501  0.00000000000E+00  0.00000000000E+00  0.34091243521E+03  0.34091243524E+03  0.50400001928E-02 0.  1.
        1   -1    0    0  501    0  0.00000000000E+00  0.00000000000E+00 -0.11390682478E+04  0.11390682478E+04  0.50400001928E-02 0. -1.
    10030    2    1    2    0    0  0.00000000000E+00  0.00000000000E+00 -0.79815581256E+03  0.14799806830E+04  0.12463106037E+04 0.  0.
        1    1    3    3  502    0 -0.45921239326E+03 -0.22869679181E+03 -0.81916106266E+03  0.96654182078E+03  0.50400001928E-02 0. -1.
       -1    1    3    3    0  502  0.45921239326E+03  0.22869679181E+03  0.21005250097E+02  0.51343886225E+03  0.50400001928E-02 0.  1.
</event>
<event>
 5   0  0.5031575E-03  0.1179469E+04  0.7818609E-02  0.9131020E-01
        2   -1    0    0  501    0  0.00000000000E+00  0.00000000000E+00  0.78181244487E+03  0.78181244487E+03  0.25500000920E-02 0. -1.
       -2   -1    0    0    0  501  0.00000000000E+00  0.00000000000E+00 -0.44484658434E+03  0.44484658434E+03  0.25500000920E-02 0.  1.
    10030    2    1    2    0    0  0.00000000000E+00  0.00000000000E+00  0.33696586053E+03  0.12266590292E+04  0.11794686867E+04 0.  0.
        5    1    3    3  502    0  0.54640245155E+03  0.86651217240E+02  0.38086005059E+03  0.67166996407E+03  0.46999998093E+01 0. -1.
       -5    1    3    3    0  502 -0.54640245155E+03 -0.86651217240E+02 -0.43894190062E+02  0.55498906514E+03  0.46999998093E+01 0.  1.
</event>
<event>
 5   0  0.5467554E-03  0.1281579E+04  0.7818609E-02  0.9044302E-01
       -2   -1    0    0    0  501  0.00000000000E+00  0.00000000000E+00  0.40252968902E+03  0.40252968903E+03  0.25500000920E-02 0.  1.
        2   -1    0    0  501    0  0.00000000000E+00  0.00000000000E+00 -0.10200768677E+04  0.10200768677E+04  0.25500000920E-02 0. -1.
    10030    2    1    2    0    0  0.00000000000E+00  0.00000000000E+00 -0.61754717869E+03  0.14226065567E+04  0.12815790640E+04 0.  0.
        1    1    3    3  502    0 -0.14813675625E+03  0.31746660455E+03  0.28681506583E+03  0.45276089227E+03  0.50400001928E-02 0.  1.
       -1    1    3    3    0  502  0.14813675625E+03 -0.31746660455E+03 -0.90436224451E+03  0.96984566447E+03  0.50400001928E-02 0. -1.
</event>
<event>
 5   0  0.2926844E-03  0.1242954E+04  0.7818609E-02  0.9076068E-01
       -1   -1    0    0    0  501  0.00000000000E+00  0.00000000000E+00  0.25272476931E+03  0.25272476936E+03  0.50400001928E-02 0. -1.
        1   -1    0    0  501    0  0.00000000000E+00  0.00000000000E+00 -0.15282778614E+04  0.15282778614E+04  0.50400001928E-02 0.  1.
    10030    2    1    2    0    0  0.00000000000E+00  0.00000000000E+00 -0.12755530921E+04  0.17810026308E+04  0.12429540137E+04 0.  0.
        5    1    3    3  502    0 -0.61654558576E+02 -0.40836391173E+03  0.27624434749E+02  0.41394150359E+03  0.46999998093E+01 0. -1.
       -5    1    3    3    0  502  0.61654558576E+02  0.40836391173E+03 -0.13031775269E+04  0.13670611272E+04  0.46999998093E+01 0.  1.
</event>
<event>
 5   0  0.2930868E-03  0.1195318E+04  0.7818609E-02  0.9116965E-01
       -1   -1    0    0    0  501  0.00000000000E+00  0.00000000000E+00  0.25038903115E+03  0.25038903120E+03  0.50400001928E-02 0.  1.
        1   -1    0    0  501    0  0.00000000000E+00  0.00000000000E+00 -0.14265649531E+04  0.14265649531E+04  0.50400001928E-02 0. -1.
    10030    2    1    2    0    0  0.00000000000E+00  0.00000000000E+00 -0.11761759219E+04  0.16769539843E+04  0.11953178933E+04 0.  0.
        3    1    3    3  502    0  0.49785117199E+03  0.13550758985E+02 -0.12457368954E+03  0.51337902844E+03  0.10100000352E+00 0.  1.
       -3    1    3    3    0  502 -0.49785117199E+03 -0.13550758985E+02 -0.10516022324E+04  0.11635749559E+04  0.10100000352E+00 0. -1.
</event>
<event>
 5   0  0.5031575E-03  0.1210480E+04  0.7818609E-02  0.9103733E-01
        2   -1    0    0  501    0  0.00000000000E+00  0.00000000000E+00  0.92780095658E+03  0.92780095659E+03  0.25500000920E-02 0.  1.
       -2   -1    0    0    0  501  0.00000000000E+00  0.00000000000E+00 -0.39482104710E+03  0.39482104710E+03  0.25500000920E-02 0. -1.
    10030    2    1    2    0    0  0.00000000000E+00  0.00000000000E+00  0.53297990949E+03  0.13226220037E+04  0.12104798143E+04 0.  0.
        5    1    3    3  502    0 -0.28664052603E+03 -0.48416770421E+03  0.22872030234E+02  0.56313974884E+03  0.46999998093E+01 0. -1.
       -5    1    3    3    0  502  0.28664052603E+03  0.48416770421E+03  0.51010787925E+03  0.75948225485E+03  0.46999998093E+01 0.  1.
</event>
<event>
 5   0  0.2930868E-03  0.1215361E+04  0.7818609E-02  0.9099516E-01
        1   -1    0    0  501    0  0.00000000000E+00  0.00000000000E+00  0.69575816998E+03  0.69575816999E+03  0.50400001928E-02 0.  1.
       -1   -1    0    0    0  501  0.00000000000E+00  0.00000000000E+00 -0.53075315863E+03  0.53075315866E+03  0.50400001928E-02 0. -1.
    10030    2    1    2    0    0  0.00000000000E+00  0.00000000000E+00  0.16500501134E+03  0.12265113287E+04  0.12153614218E+04 0.  0.
        3    1    3    3  502    0  0.41372177310E+03 -0.34504344938E+03 -0.20124444110E+03  0.57508262256E+03  0.10100000352E+00 0.  1.
       -3    1    3    3    0  502 -0.41372177310E+03  0.34504344938E+03  0.36624945245E+03  0.65142870609E+03  0.10100000352E+00 0. -1.
</event>
<event>
 5   0  0.5031575E-03  0.1199201E+04  0.7818609E-02  0.9113556E-01
        2   -1    0    0  501    0  0.00000000000E+00  0.00000000000E+00  0.54455238146E+03  0.54455238146E+03  0.25500000920E-02 0. -1.
       -2   -1    0    0    0  501  0.00000000000E+00  0.00000000000E+00 -0.66021312569E+03  0.66021312569E+03  0.25500000920E-02 0.  1.
    10030    2    1    2    0    0  0.00000000000E+00  0.00000000000E+00 -0.11566074423E+03  0.12047655072E+04  0.11992007836E+04 0.  0.
        5    1    3    3  502    0  0.54932441517E+03 -0.22798136031E+03  0.18454360092E+02  0.59505921315E+03  0.46999998093E+01 0.  1.
       -5    1    3    3    0  502 -0.54932441517E+03  0.22798136031E+03 -0.13411510432E+03  0.60970629401E+03  0.46999998093E+01 0. -1.
</event>
<event>
 5   0  0.2792518E-03  0.1203568E+04  0.7818609E-02  0.9109739E-01
       -1   -1    0    0    0  501  0.00000000000E+00  0.00000000000E+00  0.17476900719E+03  0.17476900726E+03  0.50400001928E-02 0. -1.
        1   -1    0    0  501    0  0.00000000000E+00  0.00000000000E+00 -0.20721291894E+04  0.20721291894E+04  0.50400001928E-02 0.  1.
    10030    2    1    2    0    0  0.00000000000E+00  0.00000000000E+00 -0.18973601822E+04  0.22468981967E+04  0.12035679645E+04 0.  0.
        2    1    3    3  502    0 -0.25216018310E+03  0.18977254717E+03 -0.19052465195E+04  0.19312075698E+04  0.25500000920E-02 0.  1.
       -2    1    3    3    0  502  0.25216018310E+03 -0.18977254717E+03  0.78863372392E+01  0.31569062692E+03  0.25500000920E-02 0. -1.
</event>
<event>
 5   0  0.5467554E-03  0.1004699E+04  0.7818609E-02  0.9303406E-01
       -2   -1    0    0    0  501  0.00000000000E+00  0.00000000000E+00  0.29224517449E+03  0.29224517450E+03  0.25500000920E-02 0.  1.
        2   -1    0    0  501    0  0.00000000000E+00  0.00000000000E+00 -0.86350491816E+03  0.86350491816E+03  0.25500000920E-02 0. -1.
    10030    2    1    2    0    0  0.00000000000E+00  0.00000000000E+00 -0.57125974366E+03  0.11557500927E+04  0.10046992495E+04 0.  0.
        1    1    3    3  502    0  0.11138762071E+03 -0.13575675411E+03 -0.82704753010E+03  0.84548489957E+03  0.50400001928E-02 0. -1.
       -1    1    3    3    0  502 -0.11138762071E+03  0.13575675411E+03  0.25578778643E+03  0.31026519310E+03  0.50400001928E-02 0.  1.
</event>
<event>
 5   0  0.2792518E-03  0.9989835E+03  0.7818609E-02  0.9309660E-01
        1   -1    0    0  501    0  0.00000000000E+00  0.00000000000E+00  0.75430755260E+03  0.75430755262E+03  0.50400001928E-02 0. -1.
       -1   -1    0    0    0  501  0.00000000000E+00  0.00000000000E+00 -0.33075637321E+03  0.33075637325E+03  0.50400001928E-02 0.  1.
    10030    2    1    2    0    0  0.00000000000E+00  0.00000000000E+00  0.42355117939E+03  0.10850639259E+04  0.99898354424E+03 0.  0.
        2    1    3    3  502    0 -0.38668840007E+03  0.18977325215E+03  0.48644989021E+03  0.64975018405E+03  0.25500000920E-02 0.  1.
       -2    1    3    3    0  502  0.38668840007E+03 -0.18977325215E+03 -0.62898710822E+02  0.43531374182E+03  0.25500000920E-02 0. -1.
</event>
<event>
 5   0  0.5189537E-03  0.1212515E+04  0.7818609E-02  0.9101972E-01
        2   -1    0    0  501    0  0.00000000000E+00  0.00000000000E+00  0.72401580966E+03  0.72401580966E+03  0.25500000920E-02 0. -1.
       -2   -1    0    0    0  501  0.00000000000E+00  0.00000000000E+00 -0.50765209623E+03  0.50765209624E+03  0.25500000920E-02 0.  1.
    10030    2    1    2    0    0  0.00000000000E+00  0.00000000000E+00  0.21636371342E+03  0.12316679059E+04  0.12125149789E+04 0.  0.
        4    1    3    3  502    0  0.13264565964E+03 -0.81423895229E+02 -0.48701031240E+03  0.51127818163E+03  0.12699999809E+01 0.  1.
       -4    1    3    3    0  502 -0.13264565964E+03  0.81423895229E+02  0.70337402582E+03  0.72038972427E+03  0.12699999809E+01 0. -1.
</event>
<event>
 5   0  0.2938349E-03  0.1070533E+04  0.7818609E-02  0.9234398E-01
        1   -1    0    0  501    0  0.00000000000E+00  0.00000000000E+00  0.83684687554E+03  0.83684687555E+03  0.50400001928E-02 0. -1.
       -1   -1    0    0    0  501  0.00000000000E+00  0.00000000000E+00 -0.34236873914E+03  0.34236873918E+03  0.50400001928E-02 0.  1.
    10030    2    1    2    0    0  0.00000000000E+00  0.00000000000E+00  0.49447813640E+03  0.11792156147E+04  0.10705329694E+04 0.  0.
        4    1    3    3  502    0  0.48175506266E+03 -0.15809343843E+03  0.58280294154E+02  0.51037210078E+03  0.12699999809E+01 0.  1.
       -4    1    3    3    0  502 -0.48175506266E+03  0.15809343843E+03  0.43619784224E+03  0.66884351395E+03  0.12699999809E+01 0. -1.
</event>
<event>
 5   0  0.2792518E-03  0.1271481E+04  0.7818609E-02  0.9052492E-01
       -1   -1    0    0    0  501  0.00000000000E+00  0.00000000000E+00  0.10172993755E+04  0.10172993755E+04  0.50400001928E-02 0.  1.
        1   -1    0    0  501    0  0.00000000000E+00  0.00000000000E+00 -0.39729279453E+03  0.39729279457E+03  0.50400001928E-02 0. -1.
    10030    2    1    2    0    0  0.00000000000E+00  0.00000000000E+00  0.62000658097E+03  0.14145921701E+04  0.12714805729E+04 0.  0.
        2    1    3    3  502    0  0.23630099027E+03  0.34223603472E+03  0.84495842659E+03  0.94176345445E+03  0.25500000920E-02 0.  1.
       -2    1    3    3    0  502 -0.23630099027E+03 -0.34223603472E+03 -0.22495184563E+03  0.47282871563E+03  0.25500000920E-02 0. -1.
</event>
<event>
 5   0  0.2926844E-03  0.1219120E+04  0.7818609E-02  0.9096283E-01
       -1   -1    0    0    0  501  0.00000000000E+00  0.00000000000E+00  0.73705128727E+03  0.73705128729E+03  0.50400001928E-02 0. -1.
        1   -1    0    0  501    0  0.00000000000E+00  0.00000000000E+00 -0.50412181857E+03  0.50412181860E+03  0.50400001928E-02 0.  1.
    10030    2    1    2    0    0  0.00000000000E+00  0.00000000000E+00  0.23292946870E+03  0.12411731059E+04  0.12191203966E+04 0.  0.
        5    1    3    3  502    0  0.21411779475E+03 -0.40205915439E+03  0.52881410975E+03  0.69797166584E+03  0.46999998093E+01 0. -1.
       -5    1    3    3    0  502 -0.21411779475E+03  0.40205915439E+03 -0.29588464105E+03  0.54320144004E+03  0.46999998093E+01 0.  1.
</event>
<event>
 5   0  0.2792518E-03  0.1199315E+04  0.7818609E-02  0.9113456E-01
        1   -1    0    0  501    0  0.00000000000E+00  0.00000000000E+00  0.38377679431E+03  0.38377679435E+03  0.50400001928E-02 0.  1.
       -1   -1    0    0    0  501  0.00000000000E+00  0.00000000000E+00 -0.93697440100E+03  0.93697440102E+03  0.50400001928E-02 0. -1.
    10030    2    1    2    0    0  0.00000000000E+00  0.00000000000E+00 -0.55319760669E+03  0.13207511954E+04  0.11993148577E+04 0.  0.
        2    1    3    3  502    0 -0.40218385144E+03  0.30723521005E+03 -0.63079169162E+03  0.80872954867E+03  0.25500000920E-02 0. -1.
       -2    1    3    3    0  502  0.40218385144E+03 -0.30723521005E+03  0.77594084934E+02  0.51202164669E+03  0.25500000920E-02 0.  1.
</event>
<event>
 5   0  0.2930868E-03  0.1218840E+04  0.7818609E-02  0.9096524E-01
        1   -1    0    0  501    0  0.00000000000E+00  0.00000000000E+00  0.17300180436E+04  0.17300180436E+04  0.50400001928E-02 0.  1.
       -1   -1    0    0    0  501  0.00000000000E+00  0.00000000000E+00 -0.21467572415E+03  0.21467572421E+03  0.50400001928E-02 0. -1.
    10030    2    1    2    0    0  0.00000000000E+00  0.00000000000E+00  0.15153423194E+04  0.19446937678E+04  0.12188402297E+04 0.  0.
        3    1    3    3  502    0  0.38599191779E+03 -0.91504038353E+01  0.15099746888E+04  0.15585560823E+04  0.10100000352E+00 0.  1.
       -3    1    3    3    0  502 -0.38599191779E+03  0.91504038353E+01  0.53676305578E+01  0.38613768549E+03  0.10100000352E+00 0. -1.
</event>
<event>
 5   0  0.2926844E-03  0.1219330E+04  0.7818609E-02  0.9096103E-01
        1   -1    0    0  501    0  0.00000000000E+00  0.00000000000E+00  0.11515161591E+04  0.11515161591E+04  0.50400001928E-02 0. -1.
       -1   -1    0    0    0  501  0.00000000000E+00  0.00000000000E+00 -0.32278445494E+03  0.32278445498E+03  0.50400001928E-02 0.  1.
    10030    2    1    2    0    0  0.00000000000E+00  0.00000000000E+00  0.82873170414E+03  0.14743006141E+04  0.12193301699E+04 0.  0.
        5    1    3    3  502    0 -0.23232025332E+01  0.44524024005E+03  0.91789054714E+03  0.10201908719E+04  0.46999998093E+01 0. -1.
       -5    1    3    3    0  502  0.23232025332E+01 -0.44524024005E+03 -0.89158843001E+02  0.45410974215E+03  0.46999998093E+01 0.  1.
</event>
<event>
 5   0  0.2926844E-03  0.1170345E+04  0.7818609E-02  0.9139217E-01
       -1   -1    0    0    0  501  0.00000000000E+00  0.00000000000E+00  0.32769674792E+03  0.32769674796E+03  0.50400001928E-02 0.  1.
        1   -1    0    0  501    0  0.00000000000E+00  0.00000000000E+00 -0.10449505300E+04  0.10449505300E+04  0.50400001928E-02 0. -1.
    10030    2    1    2    0    0  0.00000000000E+00  0.00000000000E+00 -0.71725378206E+03  0.13726472780E+04  0.11703450610E+04 0.  0.
        5    1    3    3  502    0  0.36774641312E+03  0.44848990842E+03 -0.44965885846E+03  0.73389086471E+03  0.46999998093E+01 0.  1.
       -5    1    3    3    0  502 -0.36774641312E+03 -0.44848990842E+03 -0.26759492360E+03  0.63875641324E+03  0.46999998093E+01 0. -1.
</event>
<event>
 5   0  0.2926844E-03  0.1204809E+04  0.7818609E-02  0.9108657E-01
       -1   -1    0    0    0  501  0.00000000000E+00  0.00000000000E+00  0.34191893637E+03  0.34191893640E+03  0.50400001928E-02 0.  1.
        1   -1    0    0  501    0  0.00000000000E+00  0.00000000000E+00 -0.10613375006E+04  0.10613375006E+04  0.50400001928E-02 0. -1.
    10030    2    1    2    0    0  0.00000000000E+00  0.00000000000E+00 -0.71941856425E+03  0.14032564370E+04  0.12048093449E+04 0.  0.
        5    1    3    3  502    0 -0.25074784568E+03 -0.36435190373E+03  0.11660329678E+03  0.45743328550E+03  0.46999998093E+01 0.  1.
       -5    1    3    3    0  502  0.25074784568E+03  0.36435190373E+03 -0.83602186103E+03  0.94582315153E+03  0.46999998093E+01 0. -1.
</event>
<event>
 5   0  0.5189537E-03  0.9856713E+03  0.7818609E-02  0.9324401E-01
       -2   -1    0    0    0  501  0.00000000000E+00  0.00000000000E+00  0.10860944971E+03  0.10860944974E+03  0.25500000920E-02 0. -1.
        2   -1    0    0  501    0  0.00000000000E+00  0.00000000000E+00 -0.22363338947E+04  0.22363338947E+04  0.25500000920E-02 0.  1.
    10030    2    1    2    0    0  0.00000000000E+00  0.00000000000E+00 -0.21277244450E+04  0.23449433444E+04  0.98567133207E+03 0.  0.
        4    1    3    3  502    0 -0.46459306380E+03  0.10470451473E+03 -0.13654989610E+04  0.14461669253E+04  0.12699999809E+01 0. -1.
       -4    1    3    3    0  502  0.46459306380E+03 -0.10470451473E+03 -0.76222548398E+03  0.89877641917E+03  0.12699999809E+01 0.  1.
</event>
<event>
 5   0  0.2938349E-03  0.1131681E+04  0.7818609E-02  0.9174852E-01
        1   -1    0    0  501    0  0.00000000000E+00  0.00000000000E+00  0.15539845507E+04  0.15539845508E+04  0.50400001928E-02 0. -1.
       -1   -1    0    0    0  501  0.00000000000E+00  0.00000000000E+00 -0.20603508215E+03  0.20603508222E+03  0.50400001928E-02 0.  1.
    10030    2    1    2    0    0  0.00000000000E+00  0.00000000000E+00  0.13479494686E+04  0.17600196330E+04  0.11316807582E+04 0.  0.
        4    1    3    3  502    0  0.37091579458E+03  0.29993996811E+03  0.11473136925E+04  0.12425267937E+04  0.12699999809E+01 0. -1.
       -4    1    3    3    0  502 -0.37091579458E+03 -0.29993996811E+03  0.20063577605E+03  0.51749283925E+03  0.12699999809E+01 0.  1.
</event>
<event>
 5   0  0.5108045E-03  0.1217250E+04  0.7818609E-02  0.9097890E-01
       -2   -1    0    0    0  501  0.00000000000E+00  0.00000000000E+00  0.62520170969E+03  0.62520170970E+03  0.25500000920E-02 0.  1.
        2   -1    0    0  501    0  0.00000000000E+00  0.00000000000E+00 -0.59248820038E+03  0.59248820038E+03  0.25500000920E-02 0. -1.
    10030    2    1    2    0    0  0.00000000000E+00  0.00000000000E+00  0.32713509316E+02  0.12176899101E+04  0.12172504029E+04 0.  0.
        3    1    3    3  502    0  0.14991125950E+03 -0.55393262428E+03  0.21918569680E+03  0.61429399953E+03  0.10100000352E+00 0.  1.
       -3    1    3    3    0  502 -0.14991125950E+03  0.55393262428E+03 -0.18647218749E+03  0.60339591056E+03  0.10100000352E+00 0. -1.
</event>
<event>
 5   0  0.5467554E-03  0.1227189E+04  0.7818609E-02  0.9089386E-01
        2   -1    0    0  501    0  0.00000000000E+00  0.00000000000E+00  0.40930448884E+03  0.40930448885E+03  0.25500000920E-02 0. -1.
       -2   -1    0    0    0  501  0.00000000000E+00  0.00000000000E+00 -0.91984816525E+03  0.91984816525E+03  0.25500000920E-02 0.  1.
    10030    2    1    2    0    0  0.00000000000E+00  0.00000000000E+00 -0.51054367641E+03  0.13291526541E+04  0.12271886295E+04 0.  0.
        1    1    3    3  502    0  0.56074482551E+03  0.92693572344E+02 -0.48205888586E+01  0.56837496056E+03  0.50400001928E-02 0. -1.
       -1    1    3    3    0  502 -0.56074482551E+03 -0.92693572344E+02 -0.50572308755E+03  0.76077769354E+03  0.50400001928E-02 0.  1.
</event>
<event>
 5   0  0.2938349E-03  0.1179273E+04  0.7818609E-02  0.9131195E-01
       -1   -1    0    0    0  501  0.00000000000E+00  0.00000000000E+00  0.27600398635E+03  0.27600398640E+03  0.50400001928E-02 0. -1.
        1   -1    0    0  501    0  0.00000000000E+00  0.00000000000E+00 -0.12596606978E+04  0.12596606978E+04  0.50400001928E-02 0.  1.
    10030    2    1    2    0    0  0.00000000000E+00  0.00000000000E+00 -0.98365671144E+03  0.15356646842E+04  0.11792732916E+04 0.  0.
        4    1    3    3  502    0 -0.32041777423E+03 -0.35226268015E+03 -0.94464128537E+03  0.10578777419E+04  0.12699999809E+01 0.  1.
       -4    1    3    3    0  502  0.32041777423E+03  0.35226268015E+03 -0.39015426072E+02  0.47778694231E+03  0.12699999809E+01 0. -1.
</event>
<event>
 5   0  0.5467554E-03  0.1106938E+04  0.7818609E-02  0.9198456E-01
        2   -1    0    0  501    0  0.00000000000E+00  0.00000000000E+00  0.28251926856E+03  0.28251926857E+03  0.25500000920E-02 0. -1.
       -2   -1    0    0    0  501  0.00000000000E+00  0.00000000000E+00 -0.10842731551E+04  0.10842731551E+04  0.25500000920E-02 0.  1.
    10030    2    1    2    0    0  0.00000000000E+00  0.00000000000E+00 -0.80175388650E+03  0.13667924236E+04  0.11069382254E+04 0.  0.
        1    1    3    3  502    0  0.42872517975E+03  0.26701193348E+03 -0.12141005349E+03  0.51946227340E+03  0.50400001928E-02 0. -1.
       -1    1    3    3    0  502 -0.42872517975E+03 -0.26701193348E+03 -0.68034383301E+03  0.84733015024E+03  0.50400001928E-02 0.  1.
</event>
<event>
 5   0  0.5108045E-03  0.1303128E+04  0.7818609E-02  0.9027089E-01
        2   -1    0    0  501    0  0.00000000000E+00  0.00000000000E+00  0.25281303468E+03  0.25281303469E+03  0.25500000920E-02 0.  1.
       -2   -1    0    0    0  501  0.00000000000E+00  0.00000000000E+00 -0.16792463384E+04  0.16792463384E+04  0.25500000920E-02 0. -1.
    10030    2    1    2    0    0  0.00000000000E+00  0.00000000000E+00 -0.14264333037E+04  0.19320593731E+04  0.13031275652E+04 0.  0.
        3    1    3    3  502    0 -0.44023963071E+03  0.47024496453E+03 -0.85843968729E+03  0.10732473927E+04  0.10100000352E+00 0. -1.
       -3    1    3    3    0  502  0.44023963071E+03 -0.47024496453E+03 -0.56799361645E+03  0.85881198038E+03  0.10100000352E+00 0.  1.
</event>
<event>
 5   0  0.2792518E-03  0.1201147E+04  0.7818609E-02  0.9111853E-01
        1   -1    0    0  501    0  0.00000000000E+00  0.00000000000E+00  0.51996391512E+03  0.51996391515E+03  0.50400001928E-02 0.  1.
       -1   -1    0    0    0  501  0.00000000000E+00  0.00000000000E+00 -0.69368015839E+03  0.69368015841E+03  0.50400001928E-02 0. -1.
    10030    2    1    2    0    0  0.00000000000E+00  0.00000000000E+00 -0.17371624327E+03  0.12136440736E+04  0.12011472033E+04 0.  0.
        2    1    3    3  502    0  0.39374727794E+03 -0.44707683518E+03 -0.16363577478E+03  0.61781168832E+03  0.25500000920E-02 0. -1.
       -2    1    3    3    0  502 -0.39374727794E+03  0.44707683518E+03 -0.10080468493E+02  0.59583238523E+03  0.25500000920E-02 0.  1.
</event>
<event>
 5   0  0.5108045E-03  0.1192201E+04  0.7818609E-02  0.9119711E-01
        2   -1    0    0  501    0  0.00000000000E+00  0.00000000000E+00  0.12758830997E+04  0.12758830997E+04  0.25500000920E-02 0. -1.
       -2   -1    0    0    0  501  0.00000000000E+00  0.00000000000E+00 -0.27850169975E+03  0.27850169976E+03  0.25500000920E-02 0.  1.
    10030    2    1    2    0    0  0.00000000000E+00  0.00000000000E+00  0.99738140000E+03  0.15543847995E+04  0.11922006743E+04 0.  0.
        3    1    3    3  502    0  0.47468090126E+02  0.58153814770E+03  0.33956490631E+03  0.67508827024E+03  0.10100000352E+00 0.  1.
       -3    1    3    3    0  502 -0.47468090126E+02 -0.58153814770E+03  0.65781649369E+03  0.87929652927E+03  0.10100000352E+00 0. -1.
</event>
<event>
 5   0  0.2938349E-03  0.1206636E+04  0.7818609E-02  0.9107068E-01
       -1   -1    0    0    0  501  0.00000000000E+00  0.00000000000E+00  0.39140081936E+03  0.39140081939E+03  0.50400001928E-02 0. -1.
        1   -1    0    0  501    0  0.00000000000E+00  0.00000000000E+00 -0.92997412787E+03  0.92997412788E+03  0.50400001928E-02 0.  1.
    10030    2    1    2    0    0  0.00000000000E+00  0.00000000000E+00 -0.53857330851E+03  0.13213749473E+04  0.12066360440E+04 0.  0.
        4    1    3    3  502    0 -0.53296625191E+03  0.50079840172E+02  0.35435775599E+02  0.53648702049E+03  0.12699999809E+01 0.  1.
       -4    1    3    3    0  502  0.53296625191E+03 -0.50079840172E+02 -0.57400908411E+03  0.78488792678E+03  0.12699999809E+01 0. -1.
</event>
<event>
 5   0  0.2792518E-03  0.1171628E+04  0.7818609E-02  0.9138059E-01
        1   -1    0    0  501    0  0.00000000000E+00  0.00000000000E+00  0.34801257435E+03  0.34801257439E+03  0.50400001928E-02 0.  1.
       -1   -1    0    0    0  501  0.00000000000E+00  0.00000000000E+00 -0.98610870809E+03  0.98610870810E+03  0.50400001928E-02 0. -1.
    10030    2    1    2    0    0  0.00000000000E+00  0.00000000000E+00 -0.63809613374E+03  0.13341212825E+04  0.11716283201E+04 0.  0.
        2    1    3    3  502    0 -0.71286838250E+01 -0.20129042785E+03  0.30734477306E+03  0.36746355467E+03  0.25500000920E-02 0.  1.
       -2    1    3    3    0  502  0.71286838250E+01  0.20129042785E+03 -0.94544090681E+03  0.96665772782E+03  0.25500000920E-02 0. -1.
</event>
<event>
 5   0  0.2875848E-03  0.1224014E+04  0.7818609E-02  0.9092093E-01
        1   -1    0    0  501    0  0.00000000000E+00  0.00000000000E+00  0.95348527348E+03  0.95348527349E+03  0.50400001928E-02 0. -1.
       -1   -1    0    0    0  501  0.00000000000E+00  0.00000000000E+00 -0.39282440753E+03  0.39282440756E+03  0.50400001928E-02 0.  1.
    10030    2    1    2    0    0  0.00000000000E+00  0.00000000000E+00  0.56066086595E+03  0.13463096810E+04  0.12240135419E+04 0.  0.
        1    1    3    3  502    0  0.16330013352E+02 -0.56961052423E+03  0.52585891321E+03  0.77540338874E+03  0.50400001928E-02 0. -1.
       -1    1    3    3    0  502 -0.16330013352E+02  0.56961052423E+03  0.34801952746E+02  0.57090629230E+03  0.50400001928E-02 0.  1.
</event>
<event>
 5   0  0.5467554E-03  0.1205096E+04  0.7818609E-02  0.9108408E-01
        2   -1    0    0  501    0  0.00000000000E+00  0.00000000000E+00  0.12280034938E+04  0.12280034938E+04  0.25500000920E-02 0. -1.
       -2   -1    0    0    0  501  0.00000000000E+00  0.00000000000E+00 -0.29565400756E+03  0.29565400757E+03  0.25500000920E-02 0.  1.
    10030    2    1    2    0    0  0.00000000000E+00  0.00000000000E+00  0.93234948625E+03  0.15236575014E+04  0.12050961028E+04 0.  0.
        1    1    3    3  502    0  0.42923479934E+03  0.36849956135E+03  0.20390396501E+03  0.60134122314E+03  0.50400001928E-02 0.  1.
       -1    1    3    3    0  502 -0.42923479934E+03 -0.36849956135E+03  0.72844552124E+03  0.92231627825E+03  0.50400001928E-02 0. -1.
</event>
<event>
 5   0  0.2875848E-03  0.1193702E+04  0.7818609E-02  0.9118387E-01
       -1   -1    0    0    0  501  0.00000000000E+00  0.00000000000E+00  0.94758978662E+03  0.94758978664E+03  0.50400001928E-02 0.  1.
        1   -1    0    0  501    0  0.00000000000E+00  0.00000000000E+00 -0.37593399122E+03  0.37593399126E+03  0.50400001928E-02 0. -1.
    10030    2    1    2    0    0  0.00000000000E+00  0.00000000000E+00  0.57165579540E+03  0.13235237779E+04  0.11937021581E+04 0.  0.
        1    1    3    3  502    0  0.29118386342E+03 -0.51593672759E+03  0.20547210283E+03  0.62705465014E+03  0.50400001928E-02 0. -1.
       -1    1    3    3    0  502 -0.29118386342E+03  0.51593672759E+03  0.36618369257E+03  0.69646912776E+03  0.50400001928E-02 0.  1.
</event>
<event>
 5   0  0.2938349E-03  0.1179029E+04  0.7818609E-02  0.9131413E-01
        1   -1    0    0  501    0  0.00000000000E+00  0.00000000000E+00  0.65253994171E+03  0.65253994173E+03  0.50400001928E-02 0.  1.
       -1   -1    0    0    0  501  0.00000000000E+00  0.00000000000E+00 -0.53257591499E+03  0.53257591501E+03  0.50400001928E-02 0. -1.
    10030    2    1    2    0    0  0.00000000000E+00  0.00000000000E+00  0.11996402672E+03  0.11851158567E+04  0.11790285095E+04 0.  0.
        4    1    3    3  502    0 -0.76247833807E+02 -0.19121530665E+03 -0.49527245691E+03  0.53635197878E+03  0.12699999809E+01 0. -1.
       -4    1    3    3    0  502  0.76247833807E+02  0.19121530665E+03  0.61523648364E+03  0.64876387797E+03  0.12699999809E+01 0.  1.
</event>
<event>
 5   0  0.5003526E-03  0.1204467E+04  0.7818609E-02  0.9108956E-01
       -2   -1    0    0    0  501  0.00000000000E+00  0.00000000000E+00  0.92254669618E+03  0.92254669619E+03  0.25500000920E-02 0. -1.
        2   -1    0    0  501    0  0.00000000000E+00  0.00000000000E+00 -0.39313450081E+03  0.39313450082E+03  0.25500000920E-02 0.  1.
    10030    2    1    2    0    0  0.00000000000E+00  0.00000000000E+00  0.52941219537E+03  0.13156811970E+04  0.12044665788E+04 0.  0.
        2    1    3    3  502    0 -0.40048175220E+03 -0.35488698127E+03 -0.37131491015E+02  0.53638526355E+03  0.25500000920E-02 0.  1.
       -2    1    3    3    0  502  0.40048175220E+03  0.35488698127E+03  0.56654368639E+03  0.77929593346E+03  0.25500000920E-02 0. -1.
</event>
<event>
 5   0  0.5003526E-03  0.1132192E+04  0.7818609E-02  0.9174371E-01
       -2   -1    0    0    0  501  0.00000000000E+00  0.00000000000E+00  0.11305930610E+04  0.11305930610E+04  0.25500000920E-02 0. -1.
        2   -1    0    0  501    0  0.00000000000E+00  0.00000000000E+00 -0.28344826683E+03  0.28344826684E+03  0.25500000920E-02 0.  1.
    10030    2    1    2    0    0  0.00000000000E+00  0.00000000000E+00  0.84714479421E+03  0.14140413279E+04  0.11321919336E+04 0.  0.
        2    1    3    3  502    0  0.46268288475E+03 -0.54203699563E+02  0.21865110719E+02  0.46635992104E+03  0.25500000920E-02 0.  1.
       -2    1    3    3    0  502 -0.46268288475E+03  0.54203699563E+02  0.82527968349E+03  0.94768140684E+03  0.25500000920E-02 0. -1.
</event>
<event>
 5   0  0.1922125E-03  0.1176328E+04  0.7818609E-02  0.9133832E-01
        4   -1    0    0  501    0  0.00000000000E+00  0.00000000000E+00  0.47031222993E+03  0.47031394464E+03  0.12699999809E+01 0.  1.
       -4   -1    0    0    0  501  0.00000000000E+00  0.00000000000E+00 -0.73554396378E+03  0.73554506018E+03  0.12699999809E+01 0. -1.
    10030    2    1    2    0    0  0.00000000000E+00  0.00000000000E+00 -0.26523173385E+03  0.12058590048E+04  0.11763282139E+04 0.  0.
        1    1    3    3  502    0  0.21958700111E+03  0.64850980878E+02  0.42275312211E+03  0.48077469053E+03  0.50400001928E-02 0.  1.
       -1    1    3    3    0  502 -0.21958700111E+03 -0.64850980878E+02 -0.68798485596E+03  0.72508431429E+03  0.50400001928E-02 0. -1.
</event>
<event>
 5   0  0.5467554E-03  0.1308042E+04  0.7818609E-02  0.9023212E-01
        2   -1    0    0  501    0  0.00000000000E+00  0.00000000000E+00  0.60378114315E+03  0.60378114315E+03  0.25500000920E-02 0.  1.
       -2   -1    0    0    0  501  0.00000000000E+00  0.00000000000E+00 -0.70844104531E+03  0.70844104532E+03  0.25500000920E-02 0. -1.
    10030    2    1    2    0    0  0.00000000000E+00  0.00000000000E+00 -0.10465990216E+03  0.13122221885E+04  0.13080418100E+04 0.  0.
        1    1    3    3  502    0  0.47212847444E+03  0.45095011605E+03 -0.90950265576E+02  0.65919136400E+03  0.50400001928E-02 0. -1.
       -1    1    3    3    0  502 -0.47212847444E+03 -0.45095011605E+03 -0.13709636588E+02  0.65303082447E+03  0.50400001928E-02 0.  1.
</event>
<event>
 5   0  0.2930868E-03  0.1331112E+04  0.7818609E-02  0.9005251E-01
       -1   -1    0    0    0  501  0.00000000000E+00  0.00000000000E+00  0.39717086555E+03  0.39717086559E+03  0.50400001928E-02 0.  1.
        1   -1    0    0  501    0  0.00000000000E+00  0.00000000000E+00 -0.11153000361E+04  0.11153000361E+04  0.50400001928E-02 0. -1.
    10030    2    1    2    0    0  0.00000000000E+00  0.00000000000E+00 -0.71812917058E+03  0.15124709017E+04  0.13311118371E+04 0.  0.
        3    1    3    3  502    0  0.17148516686E+02 -0.66164230157E+03 -0.43860234323E+03  0.79400039833E+03  0.10100000352E+00 0.  1.
       -3    1    3    3    0  502 -0.17148516686E+02  0.66164230157E+03 -0.27952682735E+03  0.71847050340E+03  0.10100000352E+00 0. -1.
</event>
<event>
 5   0  0.5189537E-03  0.1205652E+04  0.7818609E-02  0.9107924E-01
        2   -1    0    0  501    0  0.00000000000E+00  0.00000000000E+00  0.19664862526E+04  0.19664862526E+04  0.25500000920E-02 0. -1.
       -2   -1    0    0    0  501  0.00000000000E+00  0.00000000000E+00 -0.18479619985E+03  0.18479619987E+03  0.25500000920E-02 0.  1.
    10030    2    1    2    0    0  0.00000000000E+00  0.00000000000E+00  0.17816900528E+04  0.21512824525E+04  0.12056520005E+04 0.  0.
        4    1    3    3  502    0  0.92256453342E+02  0.10826508036E+03  0.19361113359E+04  0.19413297759E+04  0.12699999809E+01 0. -1.
       -4    1    3    3    0  502 -0.92256453342E+02 -0.10826508036E+03 -0.15442128317E+03  0.20995267658E+03  0.12699999809E+01 0.  1.
</event>
<event>
 5   0  0.1922125E-03  0.1193182E+04  0.7818609E-02  0.9118845E-01
        4   -1    0    0  501    0  0.00000000000E+00  0.00000000000E+00  0.32691420441E+03  0.32691667126E+03  0.12699999809E+01 0. -1.
       -4   -1    0    0    0  501  0.00000000000E+00  0.00000000000E+00 -0.10887217135E+04  0.10887224542E+04  0.12699999809E+01 0.  1.
    10030    2    1    2    0    0  0.00000000000E+00  0.00000000000E+00 -0.76180750908E+03  0.14156391255E+04  0.11931820702E+04 0.  0.
        2    1    3    3  502    0 -0.27941408982E+03 -0.52588354578E+03 -0.42360119334E+03  0.73079662582E+03  0.25500000920E-02 0.  1.
       -2    1    3    3    0  502  0.27941408982E+03  0.52588354578E+03 -0.33820631574E+03  0.68484249965E+03  0.25500000920E-02 0. -1.
</event>
<event>
 5   0  0.5108045E-03  0.8849861E+03  0.7818609E-02  0.9444547E-01
        2   -1    0    0  501    0  0.00000000000E+00  0.00000000000E+00  0.69333652403E+03  0.69333652404E+03  0.25500000920E-02 0.  1.
       -2   -1    0    0    0  501  0.00000000000E+00  0.00000000000E+00 -0.28240269726E+03  0.28240269727E+03  0.25500000920E-02 0. -1.
    10030    2    1    2    0    0  0.00000000000E+00  0.00000000000E+00  0.41093382677E+03  0.97573922131E+03  0.88498611176E+03 0.  0.
        3    1    3    3  502    0 -0.31489330972E+03  0.11446173441E+03 -0.11320709703E+03  0.35365964171E+03  0.10100000352E+00 0. -1.
       -3    1    3    3    0  502  0.31489330972E+03 -0.11446173441E+03  0.52414092380E+03  0.62207957960E+03  0.10100000352E+00 0.  1.
</event>
<event>
 5   0  0.2875848E-03  0.1131463E+04  0.7818609E-02  0.9175057E-01
        1   -1    0    0  501    0  0.00000000000E+00  0.00000000000E+00  0.12075142524E+04  0.12075142524E+04  0.50400001928E-02 0. -1.
       -1   -1    0    0    0  501  0.00000000000E+00  0.00000000000E+00 -0.26505038393E+03  0.26505038398E+03  0.50400001928E-02 0.  1.
    10030    2    1    2    0    0  0.00000000000E+00  0.00000000000E+00  0.94246386850E+03  0.14725646364E+04  0.11314629755E+04 0.  0.
        1    1    3    3  502    0 -0.38326834598E+03 -0.37522337948E+03  0.70536955405E+03  0.88613397257E+03  0.50400001928E-02 0.  1.
       -1    1    3    3    0  502  0.38326834598E+03  0.37522337948E+03  0.23709431445E+03  0.58643066385E+03  0.50400001928E-02 0. -1.
</event>
<event>
 5   0  0.2792518E-03  0.1164068E+04  0.7818609E-02  0.9144903E-01
        1   -1    0    0  501    0  0.00000000000E+00  0.00000000000E+00  0.68676724117E+03  0.68676724119E+03  0.50400001928E-02 0.  1.
       -1   -1    0    0    0  501  0.00000000000E+00  0.00000000000E+00 -0.49327259310E+03  0.49327259312E+03  0.50400001928E-02 0. -1.
    10030    2    1    2    0    0  0.00000000000E+00  0.00000000000E+00  0.19349464808E+03  0.11800398343E+04  0.11640677952E+04 0.  0.
        2    1    3    3  502    0  0.56477813170E+03  0.76772650778E+02  0.21624209993E+03  0.60961383165E+03  0.25500000920E-02 0. -1.
       -2    1    3    3    0  502 -0.56477813170E+03 -0.76772650778E+02 -0.22747451851E+02  0.57042600267E+03  0.25500000920E-02 0.  1.
</event>
<event>
 5   0  0.2792518E-03  0.1183049E+04  0.7818609E-02  0.9127825E-01
       -1   -1    0    0    0  501  0.00000000000E+00  0.00000000000E+00  0.63346668938E+03  0.63346668940E+03  0.50400001928E-02 0.  1.
        1   -1    0    0  501    0  0.00000000000E+00  0.00000000000E+00 -0.55235886482E+03  0.55235886484E+03  0.50400001928E-02 0. -1.
    10030    2    1    2    0    0  0.00000000000E+00  0.00000000000E+00  0.81107824558E+02  0.11858255542E+04  0.11830485053E+04 0.  0.
        2    1    3    3  502    0  0.48506907584E+02  0.43328095625E+01  0.63145383647E+03  0.63332901474E+03  0.25500000920E-02 0.  1.
       -2    1    3    3    0  502 -0.48506907584E+02 -0.43328095625E+01 -0.55034601191E+03  0.55249653949E+03  0.25500000920E-02 0. -1.
</event>
<event>
 5   0  0.5003526E-03  0.1213356E+04  0.7818609E-02  0.9101246E-01
        2   -1    0    0  501    0  0.00000000000E+00  0.00000000000E+00  0.79265086873E+03  0.79265086873E+03  0.25500000920E-02 0.  1.
       -2   -1    0    0    0  501  0.00000000000E+00  0.00000000000E+00 -0.46433843316E+03  0.46433843317E+03  0.25500000920E-02 0. -1.
    10030    2    1    2    0    0  0.00000000000E+00  0.00000000000E+00  0.32831243557E+03  0.12569893019E+04  0.12133561100E+04 0.  0.
        2    1    3    3  502    0 -0.53062410935E+03 -0.28505083706E+03  0.23916390595E+03  0.64808587321E+03  0.25500000920E-02 0.  1.
       -2    1    3    3    0  502  0.53062410935E+03  0.28505083706E+03  0.89148529620E+02  0.60890342869E+03  0.25500000920E-02 0. -1.
</event>
<event>
 5   0  0.5189537E-03  0.1189770E+04  0.7818609E-02  0.9121858E-01
       -2   -1    0    0    0  501  0.00000000000E+00  0.00000000000E+00  0.16225925712E+03  0.16225925714E+03  0.25500000920E-02 0. -1.
        2   -1    0    0  501    0  0.00000000000E+00  0.00000000000E+00 -0.21810057985E+04  0.21810057985E+04  0.25500000920E-02 0.  1.
    10030    2    1    2    0    0  0.00000000000E+00  0.00000000000E+00 -0.20187465414E+04  0.23432650556E+04  0.11897703655E+04 0.  0.
        4    1    3    3  502    0  0.94686282081E+02 -0.34589929945E+02 -0.21640587662E+04  0.21664057588E+04  0.12699999809E+01 0.  1.
       -4    1    3    3    0  502 -0.94686282081E+02  0.34589929945E+02  0.14531222487E+03  0.17685929680E+03  0.12699999809E+01 0. -1.
</event>
<event>
 5   0  0.5031575E-03  0.1023949E+04  0.7818609E-02  0.9282661E-01
        2   -1    0    0  501    0  0.00000000000E+00  0.00000000000E+00  0.15372284465E+04  0.15372284465E+04  0.25500000920E-02 0.  1.
       -2   -1    0    0    0  501  0.00000000000E+00  0.00000000000E+00 -0.17051318700E+03  0.17051318702E+03  0.25500000920E-02 0. -1.
    10030    2    1    2    0    0  0.00000000000E+00  0.00000000000E+00  0.13667152595E+04  0.17077416335E+04  0.10239486737E+04 0.  0.
        5    1    3    3  502    0 -0.28480256521E+03  0.37952368364E+03  0.36278883112E+03  0.59731779948E+03  0.46999998093E+01 0. -1.
       -5    1    3    3    0  502  0.28480256521E+03 -0.37952368364E+03  0.10039264284E+04  0.11104238340E+04  0.46999998093E+01 0.  1.
</event>
<event>
 5   0  0.2875848E-03  0.1249618E+04  0.7818609E-02  0.9070502E-01
        1   -1    0    0  501    0  0.00000000000E+00  0.00000000000E+00  0.53340028333E+03  0.53340028335E+03  0.50400001928E-02 0.  1.
       -1   -1    0    0    0  501  0.00000000000E+00  0.00000000000E+00 -0.73188200521E+03  0.73188200523E+03  0.50400001928E-02 0. -1.
    10030    2    1    2    0    0  0.00000000000E+00  0.00000000000E+00 -0.19848172188E+03  0.12652822886E+04  0.12496176519E+04 0.  0.
        1    1    3    3  502    0  0.39494475141E+02  0.12182500348E+03  0.51996823183E+03  0.53550733625E+03  0.50400001928E-02 0.  1.
       -1    1    3    3    0  502 -0.39494475141E+02 -0.12182500348E+03 -0.71844995371E+03  0.72977495233E+03  0.50400001928E-02 0. -1.
</event>
<event>
 5   0  0.2938349E-03  0.1175627E+04  0.7818609E-02  0.9134462E-01
       -1   -1    0    0    0  501  0.00000000000E+00  0.00000000000E+00  0.53352884945E+03  0.53352884948E+03  0.50400001928E-02 0.  1.
        1   -1    0    0  501    0  0.00000000000E+00  0.00000000000E+00 -0.64762132992E+03  0.64762132994E+03  0.50400001928E-02 0. -1.
    10030    2    1    2    0    0  0.00000000000E+00  0.00000000000E+00 -0.11409248047E+03  0.11811501794E+04  0.11756269188E+04 0.  0.
        4    1    3    3  502    0  0.85463675388E+02  0.47113372777E+03 -0.39960561256E+03  0.62366440314E+03  0.12699999809E+01 0. -1.
       -4    1    3    3    0  502 -0.85463675388E+02 -0.47113372777E+03  0.28551313209E+03  0.55748577628E+03  0.12699999809E+01 0.  1.
</event>
<event>
 5   0  0.5003526E-03  0.1200748E+04  0.7818609E-02  0.9112202E-01
        2   -1    0    0  501    0  0.00000000000E+00  0.00000000000E+00  0.55308722543E+03  0.55308722544E+03  0.25500000920E-02 0. -1.
       -2   -1    0    0    0  501  0.00000000000E+00  0.00000000000E+00 -0.65170336384E+03  0.65170336384E+03  0.25500000920E-02 0.  1.
    10030    2    1    2    0    0  0.00000000000E+00  0.00000000000E+00 -0.98616138405E+02  0.12047905893E+04  0.12007477759E+04 0.  0.
        2    1    3    3  502    0  0.46303401455E+02  0.59854606486E+03 -0.56216639494E+02  0.60296078422E+03  0.25500000920E-02 0. -1.
       -2    1    3    3    0  502 -0.46303401455E+02 -0.59854606486E+03 -0.42399498911E+02  0.60182980506E+03  0.25500000920E-02 0.  1.
</event>
<event>
 5   0  0.5467554E-03  0.1193250E+04  0.7818609E-02  0.9118785E-01
       -2   -1    0    0    0  501  0.00000000000E+00  0.00000000000E+00  0.15504067396E+03  0.15504067399E+03  0.25500000920E-02 0. -1.
        2   -1    0    0  501    0  0.00000000000E+00  0.00000000000E+00 -0.22959224683E+04  0.22959224683E+04  0.25500000920E-02 0.  1.
    10030    2    1    2    0    0  0.00000000000E+00  0.00000000000E+00 -0.21408817943E+04  0.24509631423E+04  0.11932499602E+04 0.  0.
        1    1    3    3  502    0  0.81365416059E+02  0.14536677530E+03 -0.22471820715E+04  0.22533484180E+04  0.50400001928E-02 0.  1.
       -1    1    3    3    0  502 -0.81365416059E+02 -0.14536677530E+03  0.10630027720E+03  0.19761472427E+03  0.50400001928E-02 0. -1.
</event>
<event>
 5   0  0.5467554E-03  0.9599732E+03  0.7818609E-02  0.9353569E-01
        2   -1    0    0  501    0  0.00000000000E+00  0.00000000000E+00  0.18286221203E+04  0.18286221203E+04  0.25500000920E-02 0.  1.
       -2   -1    0    0    0  501  0.00000000000E+00  0.00000000000E+00 -0.12598947715E+03  0.12598947718E+03  0.25500000920E-02 0. -1.
    10030    2    1    2    0    0  0.00000000000E+00  0.00000000000E+00  0.17026326432E+04  0.19546115975E+04  0.95997321812E+03 0.  0.
        1    1    3    3  502    0 -0.12564736459E+03  0.41787657550E+03  0.12584317880E+04  0.13319379331E+04  0.50400001928E-02 0. -1.
       -1    1    3    3    0  502  0.12564736459E+03 -0.41787657550E+03  0.44420085520E+03  0.62267366443E+03  0.50400001928E-02 0.  1.
</event>
<event>
 5   0  0.2792518E-03  0.1197080E+04  0.7818609E-02  0.9115416E-01
        1   -1    0    0  501    0  0.00000000000E+00  0.00000000000E+00  0.67890451338E+03  0.67890451340E+03  0.50400001928E-02 0.  1.
       -1   -1    0    0    0  501  0.00000000000E+00  0.00000000000E+00 -0.52768888258E+03  0.52768888261E+03  0.50400001928E-02 0. -1.
    10030    2    1    2    0    0  0.00000000000E+00  0.00000000000E+00  0.15121563080E+03  0.12065933960E+04  0.11970803884E+04 0.  0.
        2    1    3    3  502    0  0.16260968520E+03  0.47192568656E+03  0.40852733299E+03  0.64501964711E+03  0.25500000920E-02 0.  1.
       -2    1    3    3    0  502 -0.16260968520E+03 -0.47192568656E+03 -0.25731170219E+03  0.56157374889E+03  0.25500000920E-02 0. -1.
</event>
<event>
 5   0  0.5031575E-03  0.1228283E+04  0.7818609E-02  0.9088455E-01
       -2   -1    0    0    0  501  0.00000000000E+00  0.00000000000E+00  0.21684888438E+03  0.21684888440E+03  0.25500000920E-02 0.  1.
        2   -1    0    0  501    0  0.00000000000E+00  0.00000000000E+00 -0.17393201139E+04  0.17393201139E+04  0.25500000920E-02 0. -1.
    10030    2    1    2    0    0  0.00000000000E+00  0.00000000000E+00 -0.15224712295E+04  0.19561689983E+04  0.12282827464E+04 0.  0.
        5    1    3    3  502    0 -0.23286459340E+03 -0.22161330695E+03  0.72123148438E+02  0.32948780739E+03  0.46999998093E+01 0.  1.
       -5    1    3    3    0  502  0.23286459340E+03  0.22161330695E+03 -0.15945943779E+04  0.16266811909E+04  0.46999998093E+01 0. -1.
</event>
<event>
 5   0  0.2938349E-03  0.1183794E+04  0.7818609E-02  0.9127161E-01
       -1   -1    0    0    0  501  0.00000000000E+00  0.00000000000E+00  0.47344512522E+03  0.47344512525E+03  0.50400001928E-02 0. -1.
        1   -1    0    0  501    0  0.00000000000E+00  0.00000000000E+00 -0.73998441791E+03  0.73998441792E+03  0.50400001928E-02 0.  1.
    10030    2    1    2    0    0  0.00000000000E+00  0.00000000000E+00 -0.26653929269E+03  0.12134295432E+04  0.11837939270E+04 0.  0.
        4    1    3    3  502    0 -0.50263680230E+03 -0.19786492939E+03 -0.38129010466E+03  0.66119440570E+03  0.12699999809E+01 0.  1.
       -4    1    3    3    0  502  0.50263680230E+03  0.19786492939E+03  0.11475081197E+03  0.55223513747E+03  0.12699999809E+01 0. -1.
</event>
<event>
 5   0  0.2875848E-03  0.1254577E+04  0.7818609E-02  0.9066383E-01
        1   -1    0    0  501    0  0.00000000000E+00  0.00000000000E+00  0.12337963552E+04  0.12337963552E+04  0.50400001928E-02 0.  1.
       -1   -1    0    0    0  501  0.00000000000E+00  0.00000000000E+00 -0.31892680421E+03  0.31892680425E+03  0.50400001928E-02 0. -1.
    10030    2    1    2    0    0  0.00000000000E+00  0.00000000000E+00  0.91486955100E+03  0.15527231595E+04  0.12545767871E+04 0.  0.
        1    1    3    3  502    0 -0.47798616813E+02  0.28801131742E+03  0.11445858049E+04  0.11812332080E+04  0.50400001928E-02 0.  1.
       -1    1    3    3    0  502  0.47798616813E+02 -0.28801131742E+03 -0.22971625393E+03  0.37148995151E+03  0.50400001928E-02 0. -1.
</event>
<event>
 5   0  0.2875848E-03  0.1200691E+04  0.7818609E-02  0.9112252E-01
        1   -1    0    0  501    0  0.00000000000E+00  0.00000000000E+00  0.60349604816E+03  0.60349604818E+03  0.50400001928E-02 0.  1.
       -1   -1    0    0    0  501  0.00000000000E+00  0.00000000000E+00 -0.59721185804E+03  0.59721185806E+03  0.50400001928E-02 0. -1.
    10030    2    1    2    0    0  0.00000000000E+00  0.00000000000E+00  0.62841901176E+01  0.12007079062E+04  0.12006914612E+04 0.  0.
        1    1    3    3  502    0  0.41603392956E+03  0.32776760855E+02 -0.42843820074E+03  0.59809517510E+03  0.50400001928E-02 0. -1.
       -1    1    3    3    0  502 -0.41603392956E+03 -0.32776760855E+02  0.43472239085E+03  0.60261273114E+03  0.50400001928E-02 0.  1.
</event>
<event>
 5   0  0.2792518E-03  0.1220116E+04  0.7818609E-02  0.9095429E-01
        1   -1    0    0  501    0  0.00000000000E+00  0.00000000000E+00  0.17874187629E+04  0.17874187629E+04  0.50400001928E-02 0.  1.
       -1   -1    0    0    0  501  0.00000000000E+00  0.00000000000E+00 -0.20821679846E+03  0.20821679852E+03  0.50400001928E-02 0. -1.
    10030    2    1    2    0    0  0.00000000000E+00  0.00000000000E+00  0.15792019645E+04  0.19956355615E+04  0.12201157525E+04 0.  0.
        2    1    3    3  502    0  0.43889399578E+03  0.21125738322E+03  0.13903693881E+04  0.14732225415E+04  0.25500000920E-02 0.  1.
       -2    1    3    3    0  502 -0.43889399578E+03 -0.21125738322E+03  0.18883257637E+03  0.52241301994E+03  0.25500000920E-02 0. -1.
</event>
<event>
 5   0  0.2930868E-03  0.1202566E+04  0.7818609E-02  0.9110613E-01
        1   -1    0    0  501    0  0.00000000000E+00  0.00000000000E+00  0.62638846433E+03  0.62638846435E+03  0.50400001928E-02 0. -1.
       -1   -1    0    0    0  501  0.00000000000E+00  0.00000000000E+00 -0.57718398795E+03  0.57718398797E+03  0.50400001928E-02 0.  1.
    10030    2    1    2    0    0  0.00000000000E+00  0.00000000000E+00  0.49204476380E+02  0.12035724523E+04  0.12025662425E+04 0.  0.
        3    1    3    3  502    0  0.34113428139E+03  0.15547887991E+03  0.49509674177E+03  0.62102099316E+03  0.10100000352E+00 0. -1.
       -3    1    3    3    0  502 -0.34113428139E+03 -0.15547887991E+03 -0.44589226539E+03  0.58255145916E+03  0.10100000352E+00 0.  1.
</event>
<event>
 5   0  0.5108045E-03  0.1203507E+04  0.7818609E-02  0.9109792E-01
        2   -1    0    0  501    0  0.00000000000E+00  0.00000000000E+00  0.59304242149E+03  0.59304242150E+03  0.25500000920E-02 0. -1.
       -2   -1    0    0    0  501  0.00000000000E+00  0.00000000000E+00 -0.61059299058E+03  0.61059299058E+03  0.25500000920E-02 0.  1.
    10030    2    1    2    0    0  0.00000000000E+00  0.00000000000E+00 -0.17550569087E+02  0.12036354121E+04  0.12035074502E+04 0.  0.
        3    1    3    3  502    0 -0.19411446852E+03 -0.54210241553E+03  0.16603483205E+03  0.59926874728E+03  0.10100000352E+00 0. -1.
       -3    1    3    3    0  502  0.19411446852E+03  0.54210241553E+03 -0.18358540113E+03  0.60436666480E+03  0.10100000352E+00 0.  1.
</event>
<event>
 5   0  0.2930868E-03  0.1084310E+04  0.7818609E-02  0.9220621E-01
       -1   -1    0    0    0  501  0.00000000000E+00  0.00000000000E+00  0.19614786527E+03  0.19614786534E+03  0.50400001928E-02 0. -1.
        1   -1    0    0  501    0  0.00000000000E+00  0.00000000000E+00 -0.14985224461E+04  0.14985224461E+04  0.50400001928E-02 0.  1.
    10030    2    1    2    0    0  0.00000000000E+00  0.00000000000E+00 -0.13023745808E+04  0.16946703114E+04  0.10843098799E+04 0.  0.
        3    1    3    3  502    0 -0.15155035986E+03  0.51672135295E+03 -0.74958189110E+03  0.92295259349E+03  0.10100000352E+00 0. -1.
       -3    1    3    3    0  502  0.15155035986E+03 -0.51672135295E+03 -0.55279268968E+03  0.77171771791E+03  0.10100000352E+00 0.  1.
</event>
<event>
 5   0  0.5189537E-03  0.1212011E+04  0.7818609E-02  0.9102408E-01
        2   -1    0    0  501    0  0.00000000000E+00  0.00000000000E+00  0.21155109055E+04  0.21155109055E+04  0.25500000920E-02 0. -1.
       -2   -1    0    0    0  501  0.00000000000E+00  0.00000000000E+00 -0.17359519787E+03  0.17359519789E+03  0.25500000920E-02 0.  1.
    10030    2    1    2    0    0  0.00000000000E+00  0.00000000000E+00  0.19419157076E+04  0.22891061034E+04  0.12120107826E+04 0.  0.
        4    1    3    3  502    0 -0.52479384294E+03  0.21900574729E+03  0.13665406974E+04  0.14801375562E+04  0.12699999809E+01 0.  1.
       -4    1    3    3    0  502  0.52479384294E+03 -0.21900574729E+03  0.57537501023E+03  0.80896854712E+03  0.12699999809E+01 0. -1.
</event>
<event>
 5   0  0.5108045E-03  0.1134747E+04  0.7818609E-02  0.9171971E-01
       -2   -1    0    0    0  501  0.00000000000E+00  0.00000000000E+00  0.34247677602E+03  0.34247677603E+03  0.25500000920E-02 0. -1.
        2   -1    0    0  501    0  0.00000000000E+00  0.00000000000E+00 -0.93995559804E+03  0.93995559805E+03  0.25500000920E-02 0.  1.
    10030    2    1    2    0    0  0.00000000000E+00  0.00000000000E+00 -0.59747882202E+03  0.12824323741E+04  0.11347474835E+04 0.  0.
        3    1    3    3  502    0 -0.14886174966E+03 -0.50721321114E+03 -0.53169215452E+03  0.74974770386E+03  0.10100000352E+00 0.  1.
       -3    1    3    3    0  502  0.14886174966E+03  0.50721321114E+03 -0.65786667508E+02  0.53268467022E+03  0.10100000352E+00 0. -1.
</event>
<event>
 5   0  0.5003526E-03  0.1195256E+04  0.7818609E-02  0.9117019E-01
       -2   -1    0    0    0  501  0.00000000000E+00  0.00000000000E+00  0.11922429943E+04  0.11922429944E+04  0.25500000920E-02 0. -1.
        2   -1    0    0  501    0  0.00000000000E+00  0.00000000000E+00 -0.29956904160E+03  0.29956904161E+03  0.25500000920E-02 0.  1.
    10030    2    1    2    0    0  0.00000000000E+00  0.00000000000E+00  0.89267395275E+03  0.14918120360E+04  0.11952557738E+04 0.  0.
        2    1    3    3  502    0 -0.20822754779E+03  0.16075931249E+03  0.11160934856E+04  0.11466764744E+04  0.25500000920E-02 0. -1.
       -2    1    3    3    0  502  0.20822754779E+03 -0.16075931249E+03 -0.22341953287E+03  0.34513556160E+03  0.25500000920E-02 0.  1.
</event>
<event>
 5   0  0.2926844E-03  0.1168630E+04  0.7818609E-02  0.9140766E-01
       -1   -1    0    0    0  501  0.00000000000E+00  0.00000000000E+00  0.13505424959E+04  0.13505424959E+04  0.50400001928E-02 0.  1.
        1   -1    0    0  501    0  0.00000000000E+00  0.00000000000E+00 -0.25280516240E+03  0.25280516245E+03  0.50400001928E-02 0. -1.
    10030    2    1    2    0    0  0.00000000000E+00  0.00000000000E+00  0.10977373335E+04  0.16033476584E+04  0.11686301640E+04 0.  0.
        5    1    3    3  502    0  0.46158415196E+03  0.35561822767E+03  0.48941590635E+03  0.76096929805E+03  0.46999998093E+01 0.  1.
       -5    1    3    3    0  502 -0.46158415196E+03 -0.35561822767E+03  0.60832142717E+03  0.84237836033E+03  0.46999998093E+01 0. -1.
</event>
<event>
 5   0  0.2875848E-03  0.1173747E+04  0.7818609E-02  0.9136151E-01
        1   -1    0    0  501    0  0.00000000000E+00  0.00000000000E+00  0.32156541791E+03  0.32156541795E+03  0.50400001928E-02 0. -1.
       -1   -1    0    0    0  501  0.00000000000E+00  0.00000000000E+00 -0.10710753679E+04  0.10710753679E+04  0.50400001928E-02 0.  1.
    10030    2    1    2    0    0  0.00000000000E+00  0.00000000000E+00 -0.74950995002E+03  0.13926407859E+04  0.11737474998E+04 0.  0.
        1    1    3    3  502    0 -0.50844470868E+03  0.18504486118E+03 -0.10507109996E+03  0.55117833639E+03  0.50400001928E-02 0. -1.
       -1    1    3    3    0  502  0.50844470868E+03 -0.18504486118E+03 -0.64443885006E+03  0.84146244950E+03  0.50400001928E-02 0.  1.
</event>
<event>
 5   0  0.5467554E-03  0.1227008E+04  0.7818609E-02  0.9089540E-01
        2   -1    0    0  501    0  0.00000000000E+00  0.00000000000E+00  0.24526522487E+04  0.24526522487E+04  0.25500000920E-02 0. -1.
       -2   -1    0    0    0  501  0.00000000000E+00  0.00000000000E+00 -0.15346124768E+03  0.15346124770E+03  0.25500000920E-02 0.  1.
    10030    2    1    2    0    0  0.00000000000E+00  0.00000000000E+00  0.22991910010E+04  0.26061134964E+04  0.12270078634E+04 0.  0.
        1    1    3    3  502    0  0.75652103644E+02 -0.18494645643E+03  0.23815986641E+04  0.23899666586E+04  0.50400001928E-02 0. -1.
       -1    1    3    3    0  502 -0.75652103644E+02  0.18494645643E+03 -0.82407663050E+02  0.21614683779E+03  0.50400001928E-02 0.  1.
</event>
<event>
 5   0  0.5189537E-03  0.1194788E+04  0.7818609E-02  0.9117431E-01
        2   -1    0    0  501    0  0.00000000000E+00  0.00000000000E+00  0.87508980578E+03  0.87508980578E+03  0.25500000920E-02 0.  1.
       -2   -1    0    0    0  501  0.00000000000E+00  0.00000000000E+00 -0.40782058124E+03  0.40782058124E+03  0.25500000920E-02 0. -1.
    10030    2    1    2    0    0  0.00000000000E+00  0.00000000000E+00  0.46726922454E+03  0.12829103870E+04  0.11947880703E+04 0.  0.
        4    1    3    3  502    0  0.55078398408E+03 -0.20911920599E+03  0.33984516787E+03  0.68013983155E+03  0.12699999809E+01 0.  1.
       -4    1    3    3    0  502 -0.55078398408E+03  0.20911920599E+03  0.12742405667E+03  0.60277055548E+03  0.12699999809E+01 0. -1.
</event>
<event>
 5   0  0.1922125E-03  0.1194428E+04  0.7818609E-02  0.9117748E-01
       -4   -1    0    0    0  501  0.00000000000E+00  0.00000000000E+00  0.38891511050E+03  0.38891718409E+03  0.12699999809E+01 0. -1.
        4   -1    0    0  501    0  0.00000000000E+00  0.00000000000E+00 -0.91707056432E+03  0.91707144369E+03  0.12699999809E+01 0.  1.
    10030    2    1    2    0    0  0.00000000000E+00  0.00000000000E+00 -0.52815545381E+03  0.13059886278E+04  0.11944279436E+04 0.  0.
        4    1    3    3  502    0  0.26712848921E+03  0.52417229736E+03 -0.37637744527E+03  0.69840949397E+03  0.12699999809E+01 0. -1.
       -4    1    3    3    0  502 -0.26712848921E+03 -0.52417229736E+03 -0.15177800854E+03  0.60757913381E+03  0.12699999809E+01 0.  1.
</event>
<event>
 5   0  0.5108045E-03  0.1156311E+04  0.7818609E-02  0.9151981E-01
        2   -1    0    0  501    0  0.00000000000E+00  0.00000000000E+00  0.63268106439E+03  0.63268106439E+03  0.25500000920E-02 0. -1.
       -2   -1    0    0    0  501  0.00000000000E+00  0.00000000000E+00 -0.52832871755E+03  0.52832871755E+03  0.25500000920E-02 0.  1.
    10030    2    1    2    0    0  0.00000000000E+00  0.00000000000E+00  0.10435234684E+03  0.11610097819E+04  0.11563106423E+04 0.  0.
        3    1    3    3  502    0 -0.56678159048E+03  0.59533607197E+02 -0.45574197344E+02  0.57171902133E+03  0.10100000352E+00 0.  1.
       -3    1    3    3    0  502  0.56678159048E+03 -0.59533607197E+02  0.14992654418E+03  0.58929076061E+03  0.10100000352E+00 0. -1.
</event>
<event>
 5   0  0.5189537E-03  0.1201112E+04  0.7818609E-02  0.9111884E-01
       -2   -1    0    0    0  501  0.00000000000E+00  0.00000000000E+00  0.35707768030E+03  0.35707768031E+03  0.25500000920E-02 0. -1.
        2   -1    0    0  501    0  0.00000000000E+00  0.00000000000E+00 -0.10100533159E+04  0.10100533159E+04  0.25500000920E-02 0.  1.
    10030    2    1    2    0    0  0.00000000000E+00  0.00000000000E+00 -0.65297563562E+03  0.13671309962E+04  0.12011119765E+04 0.  0.
        4    1    3    3  502    0  0.14446804606E+03  0.47007136526E+03 -0.71884862512E+03  0.87096674076E+03  0.12699999809E+01 0.  1.
       -4    1    3    3    0  502 -0.14446804606E+03 -0.47007136526E+03  0.65872989500E+02  0.49616425548E+03  0.12699999809E+01 0. -1.
</event>
<event>
 5   0  0.2926844E-03  0.1208811E+04  0.7818609E-02  0.9105179E-01
       -1   -1    0    0    0  501  0.00000000000E+00  0.00000000000E+00  0.95323038984E+03  0.95323038985E+03  0.50400001928E-02 0.  1.
        1   -1    0    0  501    0  0.00000000000E+00  0.00000000000E+00 -0.38322964239E+03  0.38322964243E+03  0.50400001928E-02 0. -1.
    10030    2    1    2    0    0  0.00000000000E+00  0.00000000000E+00  0.57000074745E+03  0.13364600323E+04  0.12088112201E+04 0.  0.
        5    1    3    3  502    0  0.36153953548E+02 -0.53130538119E+03  0.60099960150E+03  0.80300381534E+03  0.46999998093E+01 0.  1.
       -5    1    3    3    0  502 -0.36153953548E+02  0.53130538119E+03 -0.30998854057E+02  0.53345621694E+03  0.46999998093E+01 0. -1.
</event>
<event>
 5   0  0.2792518E-03  0.1184013E+04  0.7818609E-02  0.9126966E-01
        1   -1    0    0  501    0  0.00000000000E+00  0.00000000000E+00  0.92520331966E+03  0.92520331968E+03  0.50400001928E-02 0.  1.
       -1   -1    0    0    0  501  0.00000000000E+00  0.00000000000E+00 -0.37880531193E+03  0.37880531197E+03  0.50400001928E-02 0. -1.
    10030    2    1    2    0    0  0.00000000000E+00  0.00000000000E+00  0.54639800773E+03  0.13040086316E+04  0.11840133988E+04 0.  0.
        2    1    3    3  502    0  0.29966959482E+03 -0.21173841597E+03 -0.23846716875E+03  0.43760897322E+03  0.25500000920E-02 0. -1.
       -2    1    3    3    0  502 -0.29966959482E+03  0.21173841597E+03  0.78486517649E+03  0.86639965843E+03  0.25500000920E-02 0.  1.
</event>
<event>
 5   0  0.5189537E-03  0.1151085E+04  0.7818609E-02  0.9156783E-01
       -2   -1    0    0    0  501  0.00000000000E+00  0.00000000000E+00  0.24380285533E+03  0.24380285535E+03  0.25500000920E-02 0. -1.
        2   -1    0    0  501    0  0.00000000000E+00  0.00000000000E+00 -0.13586770796E+04  0.13586770796E+04  0.25500000920E-02 0.  1.
    10030    2    1    2    0    0  0.00000000000E+00  0.00000000000E+00 -0.11148742243E+04  0.16024799349E+04  0.11510853165E+04 0.  0.
        4    1    3    3  502    0 -0.47482838613E+03  0.17953444516E+03 -0.93499682901E+03  0.10639150795E+04  0.12699999809E+01 0. -1.
       -4    1    3    3    0  502  0.47482838613E+03 -0.17953444516E+03 -0.17987739525E+03  0.53856485542E+03  0.12699999809E+01 0.  1.
</event>
<event>
 5   0  0.5108045E-03  0.1188151E+04  0.7818609E-02  0.9123291E-01
       -2   -1    0    0    0  501  0.00000000000E+00  0.00000000000E+00  0.35651058876E+03  0.35651058877E+03  0.25500000920E-02 0.  1.
        2   -1    0    0  501    0  0.00000000000E+00  0.00000000000E+00 -0.98994487307E+03  0.98994487307E+03  0.25500000920E-02 0. -1.
    10030    2    1    2    0    0  0.00000000000E+00  0.00000000000E+00 -0.63343428431E+03  0.13464554618E+04  0.11881512186E+04 0.  0.
        3    1    3    3  502    0 -0.55836672557E+03 -0.17803427461E+03 -0.20651780793E+03  0.62138491964E+03  0.10100000352E+00 0.  1.
       -3    1    3    3    0  502  0.55836672557E+03  0.17803427461E+03 -0.42691647638E+03  0.72507054220E+03  0.10100000352E+00 0. -1.
</event>
<event>
 5   0  0.1922125E-03  0.8828915E+03  0.7818609E-02  0.9447224E-01
        3   -1    0    0  501    0  0.00000000000E+00  0.00000000000E+00  0.32345172106E+03  0.32345173682E+03  0.10100000352E+00 0. -1.
       -3   -1    0    0    0  501  0.00000000000E+00  0.00000000000E+00 -0.60248358146E+03  0.60248358993E+03  0.10100000352E+00 0.  1.
    10030    2    1    2    0    0  0.00000000000E+00  0.00000000000E+00 -0.27903186041E+03  0.92593532675E+03  0.88289152800E+03 0.  0.
        1    1    3    3  502    0  0.42047914104E+03 -0.66385488381E+02 -0.26211074621E+03  0.49991177664E+03  0.50400001928E-02 0.  1.
       -1    1    3    3    0  502 -0.42047914104E+03  0.66385488381E+02 -0.16921114202E+02  0.42602355011E+03  0.50400001928E-02 0. -1.
</event>
<event>
 5   0  0.5003526E-03  0.1212777E+04  0.7818609E-02  0.9101745E-01
        2   -1    0    0  501    0  0.00000000000E+00  0.00000000000E+00  0.94291407019E+03  0.94291407019E+03  0.25500000920E-02 0. -1.
       -2   -1    0    0    0  501  0.00000000000E+00  0.00000000000E+00 -0.38996902257E+03  0.38996902258E+03  0.25500000920E-02 0.  1.
    10030    2    1    2    0    0  0.00000000000E+00  0.00000000000E+00  0.55294504762E+03  0.13328830928E+04  0.12127774377E+04 0.  0.
        2    1    3    3  502    0 -0.22163208873E+03 -0.49047794536E+03  0.58345106975E+03  0.79379124992E+03  0.25500000920E-02 0. -1.
       -2    1    3    3    0  502  0.22163208873E+03  0.49047794536E+03 -0.30506022136E+02  0.53909184286E+03  0.25500000920E-02 0.  1.
</event>
<event>
 5   0  0.5189537E-03  0.1195235E+04  0.7818609E-02  0.9117038E-01
        2   -1    0    0  501    0  0.00000000000E+00  0.00000000000E+00  0.14210673145E+04  0.14210673145E+04  0.25500000920E-02 0. -1.
       -2   -1    0    0    0  501  0.00000000000E+00  0.00000000000E+00 -0.25132286981E+03  0.25132286982E+03  0.25500000920E-02 0.  1.
    10030    2    1    2    0    0  0.00000000000E+00  0.00000000000E+00  0.11697444447E+04  0.16723901843E+04  0.11952350659E+04 0.  0.
        4    1    3    3  502    0 -0.10176509636E+03 -0.20085073418E+03 -0.18970129518E+03  0.29442375337E+03  0.12699999809E+01 0.  1.
       -4    1    3    3    0  502  0.10176509636E+03  0.20085073418E+03  0.13594457398E+04  0.13779664309E+04  0.12699999809E+01 0. -1.
</event>
<event>
 5   0  0.2875848E-03  0.1014985E+04  0.7818609E-02  0.9292261E-01
       -1   -1    0    0    0  501  0.00000000000E+00  0.00000000000E+00  0.89247246096E+03  0.89247246097E+03  0.50400001928E-02 0. -1.
        1   -1    0    0  501    0  0.00000000000E+00  0.00000000000E+00 -0.28857861995E+03  0.28857861999E+03  0.50400001928E-02 0.  1.
    10030    2    1    2    0    0  0.00000000000E+00  0.00000000000E+00  0.60389384101E+03  0.11810510810E+04  0.10149846721E+04 0.  0.
        1    1    3    3  502    0  0.41441526863E+03 -0.20825764469E+03  0.62238876568E+02  0.46795826654E+03  0.50400001928E-02 0.  1.
       -1    1    3    3    0  502 -0.41441526863E+03  0.20825764469E+03  0.54165496444E+03  0.71309281442E+03  0.50400001928E-02 0. -1.
</event>
<event>
 5   0  0.5003526E-03  0.8175860E+03  0.7818609E-02  0.9534905E-01
        2   -1    0    0  501    0  0.00000000000E+00  0.00000000000E+00  0.56719252346E+03  0.56719252346E+03  0.25500000920E-02 0.  1.
       -2   -1    0    0    0  501  0.00000000000E+00  0.00000000000E+00 -0.29462960353E+03  0.29462960354E+03  0.25500000920E-02 0. -1.
    10030    2    1    2    0    0  0.00000000000E+00  0.00000000000E+00  0.27256291993E+03  0.86182212700E+03  0.81758597913E+03 0.  0.
        2    1    3    3  502    0 -0.26564362950E+03 -0.18757268628E+02  0.46321290704E+03  0.53430756150E+03  0.25500000920E-02 0.  1.
       -2    1    3    3    0  502  0.26564362950E+03  0.18757268628E+02 -0.19064998712E+03  0.32751456550E+03  0.25500000920E-02 0. -1.
</event>
<event>
 5   0  0.2926844E-03  0.1211546E+04  0.7818609E-02  0.9102810E-01
        1   -1    0    0  501    0  0.00000000000E+00  0.00000000000E+00  0.10335158440E+04  0.10335158440E+04  0.50400001928E-02 0.  1.
       -1   -1    0    0    0  501  0.00000000000E+00  0.00000000000E+00 -0.35506079104E+03  0.35506079107E+03  0.50400001928E-02 0. -1.
    10030    2    1    2    0    0  0.00000000000E+00  0.00000000000E+00  0.67845505296E+03  0.13885766351E+04  0.12115460423E+04 0.  0.
        5    1    3    3  502    0  0.87939490364E+02 -0.58114045427E+03  0.17124657987E+03  0.61221324934E+03  0.46999998093E+01 0.  1.
       -5    1    3    3    0  502 -0.87939490364E+02  0.58114045427E+03  0.50720847309E+03  0.77636338575E+03  0.46999998093E+01 0. -1.
</event>
<event>
 5   0  0.2930868E-03  0.1186040E+04  0.7818609E-02  0.9125164E-01
       -1   -1    0    0    0  501  0.00000000000E+00  0.00000000000E+00  0.46347067792E+03  0.46347067795E+03  0.50400001928E-02 0.  1.
        1   -1    0    0  501    0  0.00000000000E+00  0.00000000000E+00 -0.75878136515E+03  0.75878136516E+03  0.50400001928E-02 0. -1.
    10030    2    1    2    0    0  0.00000000000E+00  0.00000000000E+00 -0.29531068723E+03  0.12222520431E+04  0.11860403260E+04 0.  0.
        3    1    3    3  502    0  0.11915781458E+03 -0.58081511019E+03 -0.15932023837E+03  0.61394439941E+03  0.10100000352E+00 0.  1.
       -3    1    3    3    0  502 -0.11915781458E+03  0.58081511019E+03 -0.13599044886E+03  0.60830764370E+03  0.10100000352E+00 0. -1.
</event>
<event>
 5   0  0.1922125E-03  0.1196003E+04  0.7818609E-02  0.9116362E-01
       -4   -1    0    0    0  501  0.00000000000E+00  0.00000000000E+00  0.23527514442E+03  0.23527857208E+03  0.12699999809E+01 0. -1.
        4   -1    0    0  501    0  0.00000000000E+00  0.00000000000E+00 -0.15199326885E+04  0.15199332190E+04  0.12699999809E+01 0.  1.
    10030    2    1    2    0    0  0.00000000000E+00  0.00000000000E+00 -0.12846575440E+04  0.17552117911E+04  0.11960031046E+04 0.  0.
        2    1    3    3  502    0 -0.42031374015E+03 -0.22286685239E+02 -0.18923784011E+02  0.42132937959E+03  0.25500000920E-02 0. -1.
       -2    1    3    3    0  502  0.42031374015E+03  0.22286685239E+02 -0.12657337600E+04  0.13338824115E+04  0.25500000920E-02 0.  1.
</event>
<event>
 5   0  0.2926844E-03  0.1190760E+04  0.7818609E-02  0.9120983E-01
       -1   -1    0    0    0  501  0.00000000000E+00  0.00000000000E+00  0.12664978044E+03  0.12664978054E+03  0.50400001928E-02 0. -1.
        1   -1    0    0  501    0  0.00000000000E+00  0.00000000000E+00 -0.27988771906E+04  0.27988771906E+04  0.50400001928E-02 0.  1.
    10030    2    1    2    0    0  0.00000000000E+00  0.00000000000E+00 -0.26722274101E+04  0.29255269711E+04  0.11907597269E+04 0.  0.
        5    1    3    3  502    0 -0.11137427970E+03 -0.80742676991E+02 -0.27592503640E+04  0.27626813554E+04  0.46999998093E+01 0.  1.
       -5    1    3    3    0  502  0.11137427970E+03  0.80742676991E+02  0.87022953881E+02  0.16284561574E+03  0.46999998093E+01 0. -1.
</event>
<event>
 5   0  0.5108045E-03  0.1191047E+04  0.7818609E-02  0.9120729E-01
        2   -1    0    0  501    0  0.00000000000E+00  0.00000000000E+00  0.91308961484E+03  0.91308961484E+03  0.25500000920E-02 0.  1.
       -2   -1    0    0    0  501  0.00000000000E+00  0.00000000000E+00 -0.38840485923E+03  0.38840485924E+03  0.25500000920E-02 0. -1.
    10030    2    1    2    0    0  0.00000000000E+00  0.00000000000E+00  0.52468475561E+03  0.13014944741E+04  0.11910473430E+04 0.  0.
        3    1    3    3  502    0 -0.53152253657E+03 -0.26057470275E+03  0.33343753687E+03  0.67940855440E+03  0.10100000352E+00 0. -1.
       -3    1    3    3    0  502  0.53152253657E+03  0.26057470275E+03  0.19124721874E+03  0.62208591969E+03  0.10100000352E+00 0.  1.
</event>
<event>
 5   0  0.2875848E-03  0.1334089E+04  0.7818609E-02  0.9002961E-01
       -1   -1    0    0    0  501  0.00000000000E+00  0.00000000000E+00  0.36923403124E+03  0.36923403127E+03  0.50400001928E-02 0. -1.
        1   -1    0    0  501    0  0.00000000000E+00  0.00000000000E+00 -0.12050577446E+04  0.12050577446E+04  0.50400001928E-02 0.  1.
    10030    2    1    2    0    0  0.00000000000E+00  0.00000000000E+00 -0.83582371336E+03  0.15742917759E+04  0.13340889460E+04 0.  0.
        1    1    3    3  502    0 -0.50944916743E+03  0.42184673562E+03 -0.31602215845E+03  0.73305056252E+03  0.50400001928E-02 0.  1.
       -1    1    3    3    0  502  0.50944916743E+03 -0.42184673562E+03 -0.51980155491E+03  0.84124121337E+03  0.50400001928E-02 0. -1.
</event>
<event>
 5   0  0.2926844E-03  0.1257436E+04  0.7818609E-02  0.9064017E-01
        1   -1    0    0  501    0  0.00000000000E+00  0.00000000000E+00  0.40408703175E+03  0.40408703178E+03  0.50400001928E-02 0. -1.
       -1   -1    0    0    0  501  0.00000000000E+00  0.00000000000E+00 -0.97822036089E+03  0.97822036090E+03  0.50400001928E-02 0.  1.
    10030    2    1    2    0    0  0.00000000000E+00  0.00000000000E+00 -0.57413332914E+03  0.13823073927E+04  0.12574357432E+04 0.  0.
        5    1    3    3  502    0 -0.11856076106E+03 -0.31237813972E+02  0.39079791710E+03  0.40960658820E+03  0.46999998093E+01 0. -1.
       -5    1    3    3    0  502  0.11856076106E+03  0.31237813972E+02 -0.96493124624E+03  0.97270080449E+03  0.46999998093E+01 0.  1.
</event>
<event>
 5   0  0.5108045E-03  0.1203421E+04  0.7818609E-02  0.9109868E-01
       -2   -1    0    0    0  501  0.00000000000E+00  0.00000000000E+00  0.46890911541E+03  0.46890911541E+03  0.25500000920E-02 0.  1.
        2   -1    0    0  501    0  0.00000000000E+00  0.00000000000E+00 -0.77212254086E+03  0.77212254086E+03  0.25500000920E-02 0. -1.
    10030    2    1    2    0    0  0.00000000000E+00  0.00000000000E+00 -0.30321342545E+03  0.12410316563E+04  0.12034206208E+04 0.  0.
        3    1    3    3  502    0  0.39649738220E+03 -0.43568082183E+03 -0.27802397831E+03  0.65140256011E+03  0.10100000352E+00 0. -1.
       -3    1    3    3    0  502 -0.39649738220E+03  0.43568082183E+03 -0.25189447147E+02  0.58962909617E+03  0.10100000352E+00 0.  1.
</event>
<event>
 5   0  0.5031575E-03  0.1221611E+04  0.7818609E-02  0.9094148E-01
        2   -1    0    0  501    0  0.00000000000E+00  0.00000000000E+00  0.44580035022E+03  0.44580035023E+03  0.25500000920E-02 0. -1.
       -2   -1    0    0    0  501  0.00000000000E+00  0.00000000000E+00 -0.83688458448E+03  0.83688458448E+03  0.25500000920E-02 0.  1.
    10030    2    1    2    0    0  0.00000000000E+00  0.00000000000E+00 -0.39108423426E+03  0.12826849347E+04  0.12216111343E+04 0.  0.
        5    1    3    3  502    0  0.48565416287E+02 -0.60749053011E+03 -0.15278777818E+03  0.62830688281E+03  0.46999998093E+01 0.  1.
       -5    1    3    3    0  502 -0.48565416287E+02  0.60749053011E+03 -0.23829645608E+03  0.65437805190E+03  0.46999998093E+01 0. -1.
</event>
<event>
 5   0  0.5031575E-03  0.1192899E+04  0.7818609E-02  0.9119095E-01
        2   -1    0    0  501    0  0.00000000000E+00  0.00000000000E+00  0.68568019671E+03  0.68568019671E+03  0.25500000920E-02 0.  1.
       -2   -1    0    0    0  501  0.00000000000E+00  0.00000000000E+00 -0.51883088179E+03  0.51883088180E+03  0.25500000920E-02 0. -1.
    10030    2    1    2    0    0  0.00000000000E+00  0.00000000000E+00  0.16684931491E+03  0.12045110785E+04  0.11928990923E+04 0.  0.
        5    1    3    3  502    0 -0.24278084814E+03 -0.46388062954E+01  0.63348976623E+03  0.67845075921E+03  0.46999998093E+01 0.  1.
       -5    1    3    3    0  502  0.24278084814E+03  0.46388062954E+01 -0.46664045132E+03  0.52606031931E+03  0.46999998093E+01 0. -1.
</event>
<event>
 5   0  0.2938349E-03  0.1169115E+04  0.7818609E-02  0.9140328E-01
       -1   -1    0    0    0  501  0.00000000000E+00  0.00000000000E+00  0.29715589128E+03  0.29715589132E+03  0.50400001928E-02 0.  1.
        1   -1    0    0  501    0  0.00000000000E+00  0.00000000000E+00 -0.11499266566E+04  0.11499266566E+04  0.50400001928E-02 0. -1.
    10030    2    1    2    0    0  0.00000000000E+00  0.00000000000E+00 -0.85277076535E+03  0.14470825480E+04  0.11691150167E+04 0.  0.
        4    1    3    3  502    0  0.37851983059E+03 -0.32140774393E+03 -0.44630213725E+02  0.49857162864E+03  0.12699999809E+01 0.  1.
       -4    1    3    3    0  502 -0.37851983059E+03  0.32140774393E+03 -0.80814055163E+03  0.94851091933E+03  0.12699999809E+01 0. -1.
</event>
<event>
 5   0  0.1922125E-03  0.1169137E+04  0.7818609E-02  0.9140308E-01
       -3   -1    0    0    0  501  0.00000000000E+00  0.00000000000E+00  0.44674855520E+03  0.44674856662E+03  0.10100000352E+00 0. -1.
        3   -1    0    0  501    0  0.00000000000E+00  0.00000000000E+00 -0.76490505053E+03  0.76490505720E+03  0.10100000352E+00 0.  1.
    10030    2    1    2    0    0  0.00000000000E+00  0.00000000000E+00 -0.31815649533E+03  0.12116536238E+04  0.11691368391E+04 0.  0.
        4    1    3    3  502    0 -0.51996997917E+03 -0.26594562823E+03 -0.13321540691E+03  0.59903573679E+03  0.12699999809E+01 0. -1.
       -4    1    3    3    0  502  0.51996997917E+03  0.26594562823E+03 -0.18494108842E+03  0.61261788702E+03  0.12699999809E+01 0.  1.
</event>
<event>
 5   0  0.2938349E-03  0.1198906E+04  0.7818609E-02  0.9113815E-01
       -1   -1    0    0    0  501  0.00000000000E+00  0.00000000000E+00  0.20980128285E+03  0.20980128291E+03  0.50400001928E-02 0. -1.
        1   -1    0    0  501    0  0.00000000000E+00  0.00000000000E+00 -0.17127812656E+04  0.17127812656E+04  0.50400001928E-02 0.  1.
    10030    2    1    2    0    0  0.00000000000E+00  0.00000000000E+00 -0.15029799827E+04  0.19225825485E+04  0.11989056791E+04 0.  0.
        4    1    3    3  502    0  0.16364609758E+02  0.41483733751E+03 -0.14449198258E+04  0.15033804352E+04  0.12699999809E+01 0.  1.
       -4    1    3    3    0  502 -0.16364609758E+02 -0.41483733751E+03 -0.58060156888E+02  0.41920211326E+03  0.12699999809E+01 0. -1.
</event>
<event>
 5   0  0.2930868E-03  0.1234129E+04  0.7818609E-02  0.9083497E-01
        1   -1    0    0  501    0  0.00000000000E+00  0.00000000000E+00  0.62468089743E+03  0.62468089745E+03  0.50400001928E-02 0.  1.
       -1   -1    0    0    0  501  0.00000000000E+00  0.00000000000E+00 -0.60954142048E+03  0.60954142050E+03  0.50400001928E-02 0. -1.
    10030    2    1    2    0    0  0.00000000000E+00  0.00000000000E+00  0.15139476954E+02  0.12342223180E+04  0.12341294609E+04 0.  0.
        3    1    3    3  502    0  0.88187801263E+02 -0.18314272119E+03 -0.57509792823E+03  0.60996391850E+03  0.10100000352E+00 0. -1.
       -3    1    3    3    0  502 -0.88187801263E+02  0.18314272119E+03  0.59023740518E+03  0.62425839946E+03  0.10100000352E+00 0.  1.
</event>
<event>
 5   0  0.2875848E-03  0.1467528E+04  0.7818609E-02  0.8906338E-01
       -1   -1    0    0    0  501  0.00000000000E+00  0.00000000000E+00  0.50475683323E+03  0.50475683325E+03  0.50400001928E-02 0. -1.
        1   -1    0    0  501    0  0.00000000000E+00  0.00000000000E+00 -0.10666715402E+04  0.10666715403E+04  0.50400001928E-02 0.  1.
    10030    2    1    2    0    0  0.00000000000E+00  0.00000000000E+00 -0.56191470701E+03  0.15714283735E+04  0.14675281923E+04 0.  0.
        1    1    3    3  502    0  0.37452922019E+03 -0.20193577241E+03  0.35916182195E+03  0.55681900769E+03  0.50400001928E-02 0. -1.
       -1    1    3    3    0  502 -0.37452922019E+03  0.20193577241E+03 -0.92107652896E+03  0.10146093658E+04  0.50400001928E-02 0.  1.
</event>
<event>
 5   0  0.5031575E-03  0.1198731E+04  0.7818609E-02  0.9113968E-01
        2   -1    0    0  501    0  0.00000000000E+00  0.00000000000E+00  0.47085407005E+03  0.47085407006E+03  0.25500000920E-02 0. -1.
       -2   -1    0    0    0  501  0.00000000000E+00  0.00000000000E+00 -0.76295162877E+03  0.76295162877E+03  0.25500000920E-02 0.  1.
    10030    2    1    2    0    0  0.00000000000E+00  0.00000000000E+00 -0.29209755872E+03  0.12338056988E+04  0.11987307949E+04 0.  0.
        5    1    3    3  502    0 -0.14646938955E+03 -0.50942053119E+03 -0.43397354417E+03  0.68506765119E+03  0.46999998093E+01 0.  1.
       -5    1    3    3    0  502  0.14646938955E+03  0.50942053119E+03  0.14187598545E+03  0.54873804763E+03  0.46999998093E+01 0. -1.
</event>
<event>
 5   0  0.5031575E-03  0.1246636E+04  0.7818609E-02  0.9072987E-01
       -2   -1    0    0    0  501  0.00000000000E+00  0.00000000000E+00  0.18518370505E+03  0.18518370507E+03  0.25500000920E-02 0.  1.
        2   -1    0    0  501    0  0.00000000000E+00  0.00000000000E+00 -0.20980546650E+04  0.20980546650E+04  0.25500000920E-02 0. -1.
    10030    2    1    2    0    0  0.00000000000E+00  0.00000000000E+00 -0.19128709600E+04  0.22832383701E+04  0.12466363324E+04 0.  0.
        5    1    3    3  502    0  0.45897199644E+01  0.61404301634E+03 -0.11522758017E+04  0.13056919639E+04  0.46999998093E+01 0. -1.
       -5    1    3    3    0  502 -0.45897199644E+01 -0.61404301634E+03 -0.76059515824E+03  0.97754640615E+03  0.46999998093E+01 0.  1.
</event>
<event>
 5   0  0.1922125E-03  0.7820949E+03  0.7818609E-02  0.9586302E-01
        4   -1    0    0  501    0  0.00000000000E+00  0.00000000000E+00  0.90547407681E+02  0.90556313627E+02  0.12699999809E+01 0.  1.
       -4   -1    0    0    0  501  0.00000000000E+00  0.00000000000E+00 -0.16887261247E+04  0.16887266022E+04  0.12699999809E+01 0. -1.
    10030    2    1    2    0    0  0.00000000000E+00  0.00000000000E+00 -0.15981787170E+04  0.17792829158E+04  0.78209493234E+03 0.  0.
        4    1    3    3  502    0 -0.20276522196E+03 -0.32861703204E+03 -0.65859652120E+03  0.76344867517E+03  0.12699999809E+01 0.  1.
       -4    1    3    3    0  502  0.20276522196E+03  0.32861703204E+03 -0.93958219578E+03  0.10158342407E+04  0.12699999809E+01 0. -1.
</event>
<event>
 5   0  0.2875848E-03  0.1215374E+04  0.7818609E-02  0.9099505E-01
       -1   -1    0    0    0  501  0.00000000000E+00  0.00000000000E+00  0.47403035396E+03  0.47403035398E+03  0.50400001928E-02 0.  1.
        1   -1    0    0  501    0  0.00000000000E+00  0.00000000000E+00 -0.77902969156E+03  0.77902969157E+03  0.50400001928E-02 0. -1.
    10030    2    1    2    0    0  0.00000000000E+00  0.00000000000E+00 -0.30499933760E+03  0.12530600456E+04  0.12153743793E+04 0.  0.
        1    1    3    3  502    0  0.33407434866E+03 -0.34350459445E+03  0.23283051393E+03  0.53273926558E+03  0.50400001928E-02 0.  1.
       -1    1    3    3    0  502 -0.33407434866E+03  0.34350459445E+03 -0.53782985153E+03  0.72032077998E+03  0.50400001928E-02 0. -1.
</event>
<event>
 5   0  0.5467554E-03  0.1197263E+04  0.7818609E-02  0.9115255E-01
        2   -1    0    0  501    0  0.00000000000E+00  0.00000000000E+00  0.12594813166E+04  0.12594813166E+04  0.25500000920E-02 0.  1.
       -2   -1    0    0    0  501  0.00000000000E+00  0.00000000000E+00 -0.28452965716E+03  0.28452965717E+03  0.25500000920E-02 0. -1.
    10030    2    1    2    0    0  0.00000000000E+00  0.00000000000E+00  0.97495165947E+03  0.15440109738E+04  0.11972631912E+04 0.  0.
        1    1    3    3  502    0  0.17343480405E+03 -0.20172646447E+03 -0.20410837736E+03  0.33531094145E+03  0.50400001928E-02 0.  1.
       -1    1    3    3    0  502 -0.17343480405E+03  0.20172646447E+03  0.11790600368E+04  0.12087000323E+04  0.50400001928E-02 0. -1.
</event>
<event>
 5   0  0.5467554E-03  0.1222118E+04  0.7818609E-02  0.9093714E-01
       -2   -1    0    0    0  501  0.00000000000E+00  0.00000000000E+00  0.28230233639E+03  0.28230233640E+03  0.25500000920E-02 0. -1.
        2   -1    0    0  501    0  0.00000000000E+00  0.00000000000E+00 -0.13226709220E+04  0.13226709220E+04  0.25500000920E-02 0.  1.
    10030    2    1    2    0    0  0.00000000000E+00  0.00000000000E+00 -0.10403685856E+04  0.16049732584E+04  0.12221179838E+04 0.  0.
        1    1    3    3  502    0  0.44556499589E+03 -0.46345444969E+02  0.25601518365E+02  0.44869979229E+03  0.50400001928E-02 0. -1.
       -1    1    3    3    0  502 -0.44556499589E+03  0.46345444969E+02 -0.10659701039E+04  0.11562734661E+04  0.50400001928E-02 0.  1.
</event>
<event>
 5   0  0.2930868E-03  0.1224263E+04  0.7818609E-02  0.9091881E-01
       -1   -1    0    0    0  501  0.00000000000E+00  0.00000000000E+00  0.85323162999E+03  0.85323163001E+03  0.50400001928E-02 0.  1.
        1   -1    0    0  501    0  0.00000000000E+00  0.00000000000E+00 -0.43915937923E+03  0.43915937926E+03  0.50400001928E-02 0. -1.
    10030    2    1    2    0    0  0.00000000000E+00  0.00000000000E+00  0.41407225076E+03  0.12923910093E+04  0.12242625094E+04 0.  0.
        3    1    3    3  502    0 -0.48995914448E+03 -0.36083519695E+03  0.27739857086E+03  0.66873909706E+03  0.10100000352E+00 0. -1.
       -3    1    3    3    0  502  0.48995914448E+03  0.36083519695E+03  0.13667367990E+03  0.62365191221E+03  0.10100000352E+00 0.  1.
</event>
<event>
 5   0  0.5189537E-03  0.1218297E+04  0.7818609E-02  0.9096990E-01
        2   -1    0    0  501    0  0.00000000000E+00  0.00000000000E+00  0.10090826242E+04  0.10090826242E+04  0.25500000920E-02 0. -1.
       -2   -1    0    0    0  501  0.00000000000E+00  0.00000000000E+00 -0.36772208888E+03  0.36772208889E+03  0.25500000920E-02 0.  1.
    10030    2    1    2    0    0  0.00000000000E+00  0.00000000000E+00  0.64136053531E+03  0.13768047131E+04  0.12182971237E+04 0.  0.
        4    1    3    3  502    0  0.39915350374E+03  0.38063648256E+03  0.61287919747E+03  0.82451814716E+03  0.12699999809E+01 0.  1.
       -4    1    3    3    0  502 -0.39915350374E+03 -0.38063648256E+03  0.28481337841E+02  0.55228656593E+03  0.12699999809E+01 0. -1.
</event>
<event>
 5   0  0.2792518E-03  0.1210411E+04  0.7818609E-02  0.9103793E-01
       -1   -1    0    0    0  501  0.00000000000E+00  0.00000000000E+00  0.49917213772E+03  0.49917213775E+03  0.50400001928E-02 0. -1.
        1   -1    0    0  501    0  0.00000000000E+00  0.00000000000E+00 -0.73376170241E+03  0.73376170242E+03  0.50400001928E-02 0.  1.
    10030    2    1    2    0    0  0.00000000000E+00  0.00000000000E+00 -0.23458956469E+03  0.12329338402E+04  0.12104105049E+04 0.  0.
        2    1    3    3  502    0  0.41919299942E+03  0.10829635825E+02 -0.56180176489E+03  0.70104299071E+03  0.25500000920E-02 0.  1.
       -2    1    3    3    0  502 -0.41919299942E+03 -0.10829635825E+02  0.32721220021E+03  0.53189084947E+03  0.25500000920E-02 0. -1.
</event>
<event>
 5   0  0.5003526E-03  0.1123229E+04  0.7818609E-02  0.9182842E-01
        2   -1    0    0  501    0  0.00000000000E+00  0.00000000000E+00  0.55404270687E+03  0.55404270687E+03  0.25500000920E-02 0. -1.
       -2   -1    0    0    0  501  0.00000000000E+00  0.00000000000E+00 -0.56928977417E+03  0.56928977417E+03  0.25500000920E-02 0.  1.
    10030    2    1    2    0    0  0.00000000000E+00  0.00000000000E+00 -0.15247067300E+02  0.11233324810E+04  0.11232290015E+04 0.  0.
        2    1    3    3  502    0 -0.25712951884E+02 -0.27698021789E+03 -0.49555335513E+03  0.56828894480E+03  0.25500000920E-02 0.  1.
       -2    1    3    3    0  502  0.25712951884E+02  0.27698021789E+03  0.48030628783E+03  0.55504353625E+03  0.25500000920E-02 0. -1.
</event>
<event>
 5   0  0.2875848E-03  0.1191996E+04  0.7818609E-02  0.9119892E-01
       -1   -1    0    0    0  501  0.00000000000E+00  0.00000000000E+00  0.35820149256E+03  0.35820149259E+03  0.50400001928E-02 0.  1.
        1   -1    0    0  501    0  0.00000000000E+00  0.00000000000E+00 -0.99165835223E+03  0.99165835225E+03  0.50400001928E-02 0. -1.
    10030    2    1    2    0    0  0.00000000000E+00  0.00000000000E+00 -0.63345685968E+03  0.13498598448E+04  0.11919958086E+04 0.  0.
        1    1    3    3  502    0 -0.41460031600E+03  0.41346779233E+03 -0.19080643151E+03  0.61583774783E+03  0.50400001928E-02 0. -1.
       -1    1    3    3    0  502  0.41460031600E+03 -0.41346779233E+03 -0.44265042817E+03  0.73402209701E+03  0.50400001928E-02 0.  1.
</event>
<event>
 5   0  0.5003526E-03  0.1210697E+04  0.7818609E-02  0.9103545E-01
        2   -1    0    0  501    0  0.00000000000E+00  0.00000000000E+00  0.28166937615E+04  0.28166937615E+04  0.25500000920E-02 0.  1.
       -2   -1    0    0    0  501  0.00000000000E+00  0.00000000000E+00 -0.13009823468E+03  0.13009823471E+03  0.25500000920E-02 0. -1.
    10030    2    1    2    0    0  0.00000000000E+00  0.00000000000E+00  0.26865955268E+04  0.29467919962E+04  0.12106971315E+04 0.  0.
        2    1    3    3  502    0  0.20358430086E+03 -0.53995653173E+03  0.89816018761E+03  0.10675632751E+04  0.25500000920E-02 0. -1.
       -2    1    3    3    0  502 -0.20358430086E+03  0.53995653173E+03  0.17884353392E+04  0.18792287211E+04  0.25500000920E-02 0.  1.
</event>
<event>
 5   0  0.5031575E-03  0.1183396E+04  0.7818609E-02  0.9127515E-01
       -2   -1    0    0    0  501  0.00000000000E+00  0.00000000000E+00  0.16169416131E+03  0.16169416133E+03  0.25500000920E-02 0. -1.
        2   -1    0    0  501    0  0.00000000000E+00  0.00000000000E+00 -0.21652389119E+04  0.21652389119E+04  0.25500000920E-02 0.  1.
    10030    2    1    2    0    0  0.00000000000E+00  0.00000000000E+00 -0.20035447506E+04  0.23269330733E+04  0.11833959438E+04 0.  0.
        5    1    3    3  502    0  0.34475604425E+03  0.42018796191E+03 -0.14615283125E+04  0.15593273394E+04  0.46999998093E+01 0.  1.
       -5    1    3    3    0  502 -0.34475604425E+03 -0.42018796191E+03 -0.54201643815E+03  0.76760573383E+03  0.46999998093E+01 0. -1.
</event>
<event>
 5   0  0.5031575E-03  0.1200677E+04  0.7818609E-02  0.9112264E-01
       -2   -1    0    0    0  501  0.00000000000E+00  0.00000000000E+00  0.58914238987E+03  0.58914238988E+03  0.25500000920E-02 0.  1.
        2   -1    0    0  501    0  0.00000000000E+00  0.00000000000E+00 -0.61174749824E+03  0.61174749825E+03  0.25500000920E-02 0. -1.
    10030    2    1    2    0    0  0.00000000000E+00  0.00000000000E+00 -0.22605108370E+02  0.12008898881E+04  0.12006771142E+04 0.  0.
        5    1    3    3  502    0  0.50059877948E+03 -0.21075014766E+03  0.24441741161E+03  0.59563136574E+03  0.46999998093E+01 0.  1.
       -5    1    3    3    0  502 -0.50059877948E+03  0.21075014766E+03 -0.26702251998E+03  0.60525852239E+03  0.46999998093E+01 0. -1.
</event>
<event>
 5   0  0.1922125E-03  0.1178270E+04  0.7818609E-02  0.9132092E-01
        4   -1    0    0  501    0  0.00000000000E+00  0.00000000000E+00  0.62791745275E+03  0.62791873708E+03  0.12699999809E+01 0.  1.
       -4   -1    0    0    0  501  0.00000000000E+00  0.00000000000E+00 -0.55274520473E+03  0.55274666372E+03  0.12699999809E+01 0. -1.
    10030    2    1    2    0    0  0.00000000000E+00  0.00000000000E+00  0.75172248024E+02  0.11806654008E+04  0.11782698849E+04 0.  0.
        1    1    3    3  502    0  0.43709452879E+03 -0.10703247536E+03  0.41858593289E+03  0.61459072652E+03  0.50400001928E-02 0.  1.
       -1    1    3    3    0  502 -0.43709452879E+03  0.10703247536E+03 -0.34341368487E+03  0.56607467428E+03  0.50400001928E-02 0. -1.
</event>
<event>
 5   0  0.2930868E-03  0.1155894E+04  0.7818609E-02  0.9152363E-01
       -1   -1    0    0    0  501  0.00000000000E+00  0.00000000000E+00  0.38788009359E+03  0.38788009362E+03  0.50400001928E-02 0.  1.
        1   -1    0    0  501    0  0.00000000000E+00  0.00000000000E+00 -0.86114965647E+03  0.86114965648E+03  0.50400001928E-02 0. -1.
    10030    2    1    2    0    0  0.00000000000E+00  0.00000000000E+00 -0.47326956287E+03  0.12490297501E+04  0.11558941290E+04 0.  0.
        3    1    3    3  502    0  0.22473640107E+03 -0.33891581550E+03  0.20712814054E+03  0.45636877278E+03  0.10100000352E+00 0.  1.
       -3    1    3    3    0  502 -0.22473640107E+03  0.33891581550E+03 -0.68039770341E+03  0.79266097733E+03  0.10100000352E+00 0. -1.
</event>
<event>
 5   0  0.2930868E-03  0.1164345E+04  0.7818609E-02  0.9144651E-01
        1   -1    0    0  501    0  0.00000000000E+00  0.00000000000E+00  0.27535257819E+04  0.27535257819E+04  0.50400001928E-02 0.  1.
       -1   -1    0    0    0  501  0.00000000000E+00  0.00000000000E+00 -0.12308751152E+03  0.12308751163E+03  0.50400001928E-02 0. -1.
    10030    2    1    2    0    0  0.00000000000E+00  0.00000000000E+00  0.26304382704E+04  0.28766132935E+04  0.11643446853E+04 0.  0.
        3    1    3    3  502    0  0.15763072014E+03  0.54857940439E+03  0.10320397963E+04  0.11793612501E+04  0.10100000352E+00 0. -1.
       -3    1    3    3    0  502 -0.15763072014E+03 -0.54857940439E+03  0.15983984741E+04  0.16972520435E+04  0.10100000352E+00 0.  1.
</event>
<event>
 5   0  0.2930868E-03  0.1218838E+04  0.7818609E-02  0.9096525E-01
       -1   -1    0    0    0  501  0.00000000000E+00  0.00000000000E+00  0.79291329008E+03  0.79291329010E+03  0.50400001928E-02 0. -1.
        1   -1    0    0  501    0  0.00000000000E+00  0.00000000000E+00 -0.46838878962E+03  0.46838878965E+03  0.50400001928E-02 0.  1.
    10030    2    1    2    0    0  0.00000000000E+00  0.00000000000E+00  0.32452450046E+03  0.12613020797E+04  0.12188382932E+04 0.  0.
        3    1    3    3  502    0 -0.34803552328E+03 -0.36211586927E+02 -0.35407154737E+03  0.49780184346E+03  0.10100000352E+00 0.  1.
       -3    1    3    3    0  502  0.34803552328E+03  0.36211586927E+02  0.67859604783E+03  0.76350023629E+03  0.10100000352E+00 0. -1.
</event>
<event>
 5   0  0.5467554E-03  0.1200258E+04  0.7818609E-02  0.9112631E-01
       -2   -1    0    0    0  501  0.00000000000E+00  0.00000000000E+00  0.44405873112E+03  0.44405873113E+03  0.25500000920E-02 0.  1.
        2   -1    0    0  501    0  0.00000000000E+00  0.00000000000E+00 -0.81105156109E+03  0.81105156110E+03  0.25500000920E-02 0. -1.
    10030    2    1    2    0    0  0.00000000000E+00  0.00000000000E+00 -0.36699282997E+03  0.12551102922E+04  0.12002575175E+04 0.  0.
        1    1    3    3  502    0  0.33088106828E+03  0.64101909100E+02  0.33574769298E+03  0.47572875619E+03  0.50400001928E-02 0.  1.
       -1    1    3    3    0  502 -0.33088106828E+03 -0.64101909100E+02 -0.70274052295E+03  0.77938153604E+03  0.50400001928E-02 0. -1.
</event>
<event>
 5   0  0.2926844E-03  0.1210749E+04  0.7818609E-02  0.9103499E-01
       -1   -1    0    0    0  501  0.00000000000E+00  0.00000000000E+00  0.66501944263E+03  0.66501944265E+03  0.50400001928E-02 0.  1.
        1   -1    0    0  501    0  0.00000000000E+00  0.00000000000E+00 -0.55107936420E+03  0.55107936422E+03  0.50400001928E-02 0. -1.
    10030    2    1    2    0    0  0.00000000000E+00  0.00000000000E+00  0.11394007844E+03  0.12160988069E+04  0.12107493409E+04 0.  0.
        5    1    3    3  502    0  0.38395198897E+03 -0.43733277219E+03 -0.11043162759E+03  0.59236502077E+03  0.46999998093E+01 0. -1.
       -5    1    3    3    0  502 -0.38395198897E+03  0.43733277219E+03  0.22437170602E+03  0.62373378610E+03  0.46999998093E+01 0.  1.
</event>
<event>
 5   0  0.5108045E-03  0.1183067E+04  0.7818609E-02  0.9127808E-01
        2   -1    0    0  501    0  0.00000000000E+00  0.00000000000E+00  0.21520901588E+04  0.21520901588E+04  0.25500000920E-02 0.  1.
       -2   -1    0    0    0  501  0.00000000000E+00  0.00000000000E+00 -0.16259176770E+03  0.16259176772E+03  0.25500000920E-02 0. -1.
    10030    2    1    2    0    0  0.00000000000E+00  0.00000000000E+00  0.19894983911E+04  0.23146819265E+04  0.11830674422E+04 0.  0.
        3    1    3    3  502    0 -0.37247291817E+03 -0.54072208166E+02  0.10190295633E+03  0.38992832826E+03  0.10100000352E+00 0. -1.
       -3    1    3    3    0  502  0.37247291817E+03  0.54072208166E+02  0.18875954347E+04  0.19247535982E+04  0.10100000352E+00 0.  1.
</event>
<event>
 5   0  0.5108045E-03  0.1232529E+04  0.7818609E-02  0.9084851E-01
        2   -1    0    0  501    0  0.00000000000E+00  0.00000000000E+00  0.81413830104E+03  0.81413830104E+03  0.25500000920E-02 0.  1.
       -2   -1    0    0    0  501  0.00000000000E+00  0.00000000000E+00 -0.46648351311E+03  0.46648351311E+03  0.25500000920E-02 0. -1.
    10030    2    1    2    0    0  0.00000000000E+00  0.00000000000E+00  0.34765478793E+03  0.12806218142E+04  0.12325292610E+04 0.  0.
        3    1    3    3  502    0  0.30090826339E+02  0.59961692358E+03  0.31830778368E+03  0.67953349308E+03  0.10100000352E+00 0. -1.
       -3    1    3    3    0  502 -0.30090826339E+02 -0.59961692358E+03  0.29347004254E+02  0.60108832107E+03  0.10100000352E+00 0.  1.
</event>
<event>
 5   0  0.5003526E-03  0.1207019E+04  0.7818609E-02  0.9106735E-01
       -2   -1    0    0    0  501  0.00000000000E+00  0.00000000000E+00  0.41769685147E+03  0.41769685148E+03  0.25500000920E-02 0.  1.
        2   -1    0    0  501    0  0.00000000000E+00  0.00000000000E+00 -0.87198155638E+03  0.87198155639E+03  0.25500000920E-02 0. -1.
    10030    2    1    2    0    0  0.00000000000E+00  0.00000000000E+00 -0.45428470491E+03  0.12896784079E+04  0.12070193878E+04 0.  0.
        2    1    3    3  502    0  0.25271674893E+03 -0.48302294198E+03  0.49524395159E+02  0.54738431051E+03  0.25500000920E-02 0.  1.
       -2    1    3    3    0  502 -0.25271674893E+03  0.48302294198E+03 -0.50380910007E+03  0.74229409736E+03  0.25500000920E-02 0. -1.
</event>
<event>
 5   0  0.2792518E-03  0.1196838E+04  0.7818609E-02  0.9115629E-01
       -1   -1    0    0    0  501  0.00000000000E+00  0.00000000000E+00  0.17304861089E+03  0.17304861096E+03  0.50400001928E-02 0.  1.
        1   -1    0    0  501    0  0.00000000000E+00  0.00000000000E+00 -0.20693905605E+04  0.20693905605E+04  0.50400001928E-02 0. -1.
    10030    2    1    2    0    0  0.00000000000E+00  0.00000000000E+00 -0.18963419496E+04  0.22424391715E+04  0.11968377701E+04 0.  0.
        2    1    3    3  502    0 -0.13190977894E+03 -0.57672284561E+03 -0.77958810835E+03  0.97865573575E+03  0.25500000920E-02 0. -1.
       -2    1    3    3    0  502  0.13190977894E+03  0.57672284561E+03 -0.11167538413E+04  0.12637834357E+04  0.25500000920E-02 0.  1.
</event>
<event>
 5   0  0.5031575E-03  0.1191436E+04  0.7818609E-02  0.9120386E-01
       -2   -1    0    0    0  501  0.00000000000E+00  0.00000000000E+00  0.46440653807E+03  0.46440653808E+03  0.25500000920E-02 0. -1.
        2   -1    0    0  501    0  0.00000000000E+00  0.00000000000E+00 -0.76415781514E+03  0.76415781515E+03  0.25500000920E-02 0.  1.
    10030    2    1    2    0    0  0.00000000000E+00  0.00000000000E+00 -0.29975127707E+03  0.12285643532E+04  0.11914359160E+04 0.  0.
        5    1    3    3  502    0 -0.39739322510E+03 -0.43019937379E+03 -0.37554988132E+02  0.58687762242E+03  0.46999998093E+01 0.  1.
       -5    1    3    3    0  502  0.39739322510E+03  0.43019937379E+03 -0.26219628894E+03  0.64168673081E+03  0.46999998093E+01 0. -1.
</event>
<event>
 5   0  0.1922125E-03  0.1215938E+04  0.7818609E-02  0.9099020E-01
       -3   -1    0    0    0  501  0.00000000000E+00  0.00000000000E+00  0.32274568885E+03  0.32274570466E+03  0.10100000352E+00 0. -1.
        3   -1    0    0  501    0  0.00000000000E+00  0.00000000000E+00 -0.11452550633E+04  0.11452550678E+04  0.10100000352E+00 0.  1.
    10030    2    1    2    0    0  0.00000000000E+00  0.00000000000E+00 -0.82250937446E+03  0.14680007724E+04  0.12159377438E+04 0.  0.
        3    1    3    3  502    0  0.44311088460E+03 -0.39587733556E+03 -0.25589249222E+03  0.64695216101E+03  0.10100000352E+00 0.  1.
       -3    1    3    3    0  502 -0.44311088460E+03  0.39587733556E+03 -0.56661688224E+03  0.82104861141E+03  0.10100000352E+00 0. -1.
</event>
<event>
 5   0  0.5031575E-03  0.1175514E+04  0.7818609E-02  0.9134563E-01
        2   -1    0    0  501    0  0.00000000000E+00  0.00000000000E+00  0.20933961575E+04  0.20933961575E+04  0.25500000920E-02 0. -1.
       -2   -1    0    0    0  501  0.00000000000E+00  0.00000000000E+00 -0.16502287375E+03  0.16502287377E+03  0.25500000920E-02 0.  1.
    10030    2    1    2    0    0  0.00000000000E+00  0.00000000000E+00  0.19283732837E+04  0.22584190312E+04  0.11755139299E+04 0.  0.
        5    1    3    3  502    0 -0.16721142713E+03  0.55544958997E+03  0.11459652950E+04  0.12844230050E+04  0.46999998093E+01 0. -1.
       -5    1    3    3    0  502  0.16721142713E+03 -0.55544958997E+03  0.78240798866E+03  0.97399602621E+03  0.46999998093E+01 0.  1.
</event>
<event>
 5   0  0.5467554E-03  0.1202236E+04  0.7818609E-02  0.9110902E-01
        2   -1    0    0  501    0  0.00000000000E+00  0.00000000000E+00  0.10962251976E+04  0.10962251976E+04  0.25500000920E-02 0.  1.
       -2   -1    0    0    0  501  0.00000000000E+00  0.00000000000E+00 -0.32962444909E+03  0.32962444910E+03  0.25500000920E-02 0. -1.
    10030    2    1    2    0    0  0.00000000000E+00  0.00000000000E+00  0.76660074850E+03  0.14258496467E+04  0.12022356289E+04 0.  0.
        1    1    3    3  502    0  0.30616370724E+03  0.39278829093E+03 -0.15949367954E+02  0.49827024744E+03  0.50400001928E-02 0. -1.
       -1    1    3    3    0  502 -0.30616370724E+03 -0.39278829093E+03  0.78255011645E+03  0.92757939925E+03  0.50400001928E-02 0.  1.
</event>
<event>
 5   0  0.5189537E-03  0.1185958E+04  0.7818609E-02  0.9125237E-01
        2   -1    0    0  501    0  0.00000000000E+00  0.00000000000E+00  0.83551228953E+03  0.83551228953E+03  0.25500000920E-02 0. -1.
       -2   -1    0    0    0  501  0.00000000000E+00  0.00000000000E+00 -0.42084853222E+03  0.42084853223E+03  0.25500000920E-02 0.  1.
    10030    2    1    2    0    0  0.00000000000E+00  0.00000000000E+00  0.41466375731E+03  0.12563608218E+04  0.11859580443E+04 0.  0.
        4    1    3    3  502    0  0.17383647903E+03 -0.47393335796E+03 -0.12224865893E+03  0.51940186439E+03  0.12699999809E+01 0.  1.
       -4    1    3    3    0  502 -0.17383647903E+03  0.47393335796E+03  0.53691241624E+03  0.73695895737E+03  0.12699999809E+01 0. -1.
</event>
<event>
 5   0  0.2792518E-03  0.1204246E+04  0.7818609E-02  0.9109148E-01
       -1   -1    0    0    0  501  0.00000000000E+00  0.00000000000E+00  0.54158261711E+03  0.54158261714E+03  0.50400001928E-02 0.  1.
        1   -1    0    0  501    0  0.00000000000E+00  0.00000000000E+00 -0.66943043494E+03  0.66943043496E+03  0.50400001928E-02 0. -1.
    10030    2    1    2    0    0  0.00000000000E+00  0.00000000000E+00 -0.12784781782E+03  0.12110130521E+04  0.12042456343E+04 0.  0.
        2    1    3    3  502    0  0.34496546029E+03  0.39846435735E+03 -0.35672483289E+03  0.63641780245E+03  0.25500000920E-02 0. -1.
       -2    1    3    3    0  502 -0.34496546029E+03 -0.39846435735E+03  0.22887701507E+03  0.57459524964E+03  0.25500000920E-02 0.  1.
</event>
<event>
 5   0  0.2792518E-03  0.1200224E+04  0.7818609E-02  0.9112660E-01
       -1   -1    0    0    0  501  0.00000000000E+00  0.00000000000E+00  0.47614203508E+03  0.47614203510E+03  0.50400001928E-02 0. -1.
        1   -1    0    0  501    0  0.00000000000E+00  0.00000000000E+00 -0.75635925981E+03  0.75635925983E+03  0.50400001928E-02 0.  1.
    10030    2    1    2    0    0  0.00000000000E+00  0.00000000000E+00 -0.28021722474E+03  0.12325012949E+04  0.12002240412E+04 0.  0.
        2    1    3    3  502    0  0.39151473104E+03 -0.25414076630E+03 -0.52742978004E+03  0.70431064637E+03  0.25500000920E-02 0.  1.
       -2    1    3    3    0  502 -0.39151473104E+03  0.25414076630E+03  0.24721255530E+03  0.52819064856E+03  0.25500000920E-02 0. -1.
</event>
<event>
 5   0  0.5031575E-03  0.1119121E+04  0.7818609E-02  0.9186753E-01
        2   -1    0    0  501    0  0.00000000000E+00  0.00000000000E+00  0.15175763077E+04  0.15175763077E+04  0.25500000920E-02 0. -1.
       -2   -1    0    0    0  501  0.00000000000E+00  0.00000000000E+00 -0.20632109660E+03  0.20632109661E+03  0.25500000920E-02 0.  1.
    10030    2    1    2    0    0  0.00000000000E+00  0.00000000000E+00  0.13112552111E+04  0.17238974043E+04  0.11191210980E+04 0.  0.
        5    1    3    3  502    0  0.27532292853E+03  0.25808218650E+03  0.19240219078E+02  0.37789073287E+03  0.46999998093E+01 0.  1.
       -5    1    3    3    0  502 -0.27532292853E+03 -0.25808218650E+03  0.12920149920E+04  0.13460066715E+04  0.46999998093E+01 0. -1.
</event>
<event>
 5   0  0.5108045E-03  0.1195126E+04  0.7818609E-02  0.9117133E-01
       -2   -1    0    0    0  501  0.00000000000E+00  0.00000000000E+00  0.26767647130E+03  0.26767647131E+03  0.25500000920E-02 0.  1.
        2   -1    0    0  501    0  0.00000000000E+00  0.00000000000E+00 -0.13340042340E+04  0.13340042340E+04  0.25500000920E-02 0. -1.
    10030    2    1    2    0    0  0.00000000000E+00  0.00000000000E+00 -0.10663277627E+04  0.16016807053E+04  0.11951260118E+04 0.  0.
        3    1    3    3  502    0  0.25962657366E+03 -0.49912362454E+03 -0.26328803164E+03  0.62116901736E+03  0.10100000352E+00 0.  1.
       -3    1    3    3    0  502 -0.25962657366E+03  0.49912362454E+03 -0.80303973101E+03  0.98051168790E+03  0.10100000352E+00 0. -1.
</event>
<event>
 5   0  0.2792518E-03  0.1223905E+04  0.7818609E-02  0.9092186E-01
       -1   -1    0    0    0  501  0.00000000000E+00  0.00000000000E+00  0.15550011911E+03  0.15550011919E+03  0.50400001928E-02 0. -1.
        1   -1    0    0  501    0  0.00000000000E+00  0.00000000000E+00 -0.24082683133E+04  0.24082683133E+04  0.50400001928E-02 0.  1.
    10030    2    1    2    0    0  0.00000000000E+00  0.00000000000E+00 -0.22527681941E+04  0.25637684324E+04  0.12239052409E+04 0.  0.
        2    1    3    3  502    0 -0.94269685943E+02  0.56241458201E+03 -0.66132694207E+03  0.87324123818E+03  0.25500000920E-02 0. -1.
       -2    1    3    3    0  502  0.94269685943E+02 -0.56241458201E+03 -0.15914412521E+04  0.16905271943E+04  0.25500000920E-02 0.  1.
</event>
<event>
 5   0  0.5189537E-03  0.9672239E+03  0.7818609E-02  0.9345242E-01
       -2   -1    0    0    0  501  0.00000000000E+00  0.00000000000E+00  0.31203372117E+03  0.31203372118E+03  0.25500000920E-02 0.  1.
        2   -1    0    0  501    0  0.00000000000E+00  0.00000000000E+00 -0.74953607873E+03  0.74953607874E+03  0.25500000920E-02 0. -1.
    10030    2    1    2    0    0  0.00000000000E+00  0.00000000000E+00 -0.43750235756E+03  0.10615697999E+04  0.96722392818E+03 0.  0.
        4    1    3    3  502    0  0.21438067996E+03 -0.11227944485E+01  0.25702904547E+03  0.33470267361E+03  0.12699999809E+01 0.  1.
       -4    1    3    3    0  502 -0.21438067996E+03  0.11227944485E+01 -0.69453140303E+03  0.72686712631E+03  0.12699999809E+01 0. -1.
</event>
<event>
 5   0  0.2938349E-03  0.1205744E+04  0.7818609E-02  0.9107844E-01
        1   -1    0    0  501    0  0.00000000000E+00  0.00000000000E+00  0.92087986391E+03  0.92087986392E+03  0.50400001928E-02 0. -1.
       -1   -1    0    0    0  501  0.00000000000E+00  0.00000000000E+00 -0.39468170697E+03  0.39468170701E+03  0.50400001928E-02 0.  1.
    10030    2    1    2    0    0  0.00000000000E+00  0.00000000000E+00  0.52619815693E+03  0.13155615709E+04  0.12057436488E+04 0.  0.
        4    1    3    3  502    0  0.58028195803E+02 -0.59051535884E+03  0.37947769491E+03  0.70432989030E+03  0.12699999809E+01 0.  1.
       -4    1    3    3    0  502 -0.58028195803E+02  0.59051535884E+03  0.14672046203E+03  0.61123168063E+03  0.12699999809E+01 0. -1.
</event>
<event>
 5   0  0.2930868E-03  0.1222920E+04  0.7818609E-02  0.9093028E-01
       -1   -1    0    0    0  501  0.00000000000E+00  0.00000000000E+00  0.46155394908E+03  0.46155394910E+03  0.50400001928E-02 0. -1.
        1   -1    0    0  501    0  0.00000000000E+00  0.00000000000E+00 -0.81005294813E+03  0.81005294814E+03  0.50400001928E-02 0.  1.
    10030    2    1    2    0    0  0.00000000000E+00  0.00000000000E+00 -0.34849899905E+03  0.12716068972E+04  0.12229196821E+04 0.  0.
        3    1    3    3  502    0 -0.16090115546E+03  0.15994568956E+02  0.43892077159E+03  0.46775684067E+03  0.10100000352E+00 0. -1.
       -3    1    3    3    0  502  0.16090115546E+03 -0.15994568956E+02 -0.78741977064E+03  0.80385005658E+03  0.10100000352E+00 0.  1.
</event>
<event>
 5   0  0.5108045E-03  0.1362450E+04  0.7818609E-02  0.8981457E-01
       -2   -1    0    0    0  501  0.00000000000E+00  0.00000000000E+00  0.34434981384E+03  0.34434981385E+03  0.25500000920E-02 0. -1.
        2   -1    0    0  501    0  0.00000000000E+00  0.00000000000E+00 -0.13476629544E+04  0.13476629544E+04  0.25500000920E-02 0.  1.
    10030    2    1    2    0    0  0.00000000000E+00  0.00000000000E+00 -0.10033131406E+04  0.16920127683E+04  0.13624499807E+04 0.  0.
        3    1    3    3  502    0  0.47496795726E+03 -0.30177104770E+03 -0.24849873938E+02  0.56327422459E+03  0.10100000352E+00 0. -1.
       -3    1    3    3    0  502 -0.47496795726E+03  0.30177104770E+03 -0.97846326667E+03  0.11287385437E+04  0.10100000352E+00 0.  1.
</event>
<event>
 5   0  0.2792518E-03  0.1186712E+04  0.7818609E-02  0.9124567E-01
        1   -1    0    0  501    0  0.00000000000E+00  0.00000000000E+00  0.10169509425E+04  0.10169509425E+04  0.50400001928E-02 0. -1.
       -1   -1    0    0    0  501  0.00000000000E+00  0.00000000000E+00 -0.34620308896E+03  0.34620308899E+03  0.50400001928E-02 0.  1.
    10030    2    1    2    0    0  0.00000000000E+00  0.00000000000E+00  0.67074785353E+03  0.13631540315E+04  0.11867123622E+04 0.  0.
        2    1    3    3  502    0  0.14223767279E+03 -0.53511716297E+03  0.58036803438E+03  0.80212778845E+03  0.25500000920E-02 0. -1.
       -2    1    3    3    0  502 -0.14223767279E+03  0.53511716297E+03  0.90379819155E+02  0.56102624305E+03  0.25500000920E-02 0.  1.
</event>
<event>
 5   0  0.5467554E-03  0.1185878E+04  0.7818609E-02  0.9125308E-01
        2   -1    0    0  501    0  0.00000000000E+00  0.00000000000E+00  0.20875219093E+04  0.20875219093E+04  0.25500000920E-02 0. -1.
       -2   -1    0    0    0  501  0.00000000000E+00  0.00000000000E+00 -0.16841808529E+03  0.16841808531E+03  0.25500000920E-02 0.  1.
    10030    2    1    2    0    0  0.00000000000E+00  0.00000000000E+00  0.19191038240E+04  0.22559399946E+04  0.11858776378E+04 0.  0.
        1    1    3    3  502    0  0.71429398532E+02  0.10529909921E+03  0.20612443729E+04  0.20651678925E+04  0.50400001928E-02 0. -1.
       -1    1    3    3    0  502 -0.71429398532E+02 -0.10529909921E+03 -0.14214054892E+03  0.19077210210E+03  0.50400001928E-02 0.  1.
</event>
<event>
 5   0  0.5108045E-03  0.1223503E+04  0.7818609E-02  0.9092529E-01
       -2   -1    0    0    0  501  0.00000000000E+00  0.00000000000E+00  0.62719432646E+03  0.62719432646E+03  0.25500000920E-02 0. -1.
        2   -1    0    0  501    0  0.00000000000E+00  0.00000000000E+00 -0.59668909326E+03  0.59668909327E+03  0.25500000920E-02 0.  1.
    10030    2    1    2    0    0  0.00000000000E+00  0.00000000000E+00  0.30505233195E+02  0.12238834197E+04  0.12235031900E+04 0.  0.
        3    1    3    3  502    0 -0.41299231697E+03 -0.33629653605E+03 -0.28580933558E+03  0.60443775572E+03  0.10100000352E+00 0.  1.
       -3    1    3    3    0  502  0.41299231697E+03  0.33629653605E+03  0.31631456878E+03  0.61944566401E+03  0.10100000352E+00 0. -1.
</event>
<event>
 5   0  0.2875848E-03  0.1200292E+04  0.7818609E-02  0.9112601E-01
       -1   -1    0    0    0  501  0.00000000000E+00  0.00000000000E+00  0.42406102379E+03  0.42406102382E+03  0.50400001928E-02 0. -1.
        1   -1    0    0  501    0  0.00000000000E+00  0.00000000000E+00 -0.84934717716E+03  0.84934717717E+03  0.50400001928E-02 0.  1.
    10030    2    1    2    0    0  0.00000000000E+00  0.00000000000E+00 -0.42528615336E+03  0.12734082010E+04  0.12002916871E+04 0.  0.
        1    1    3    3  502    0 -0.33862768900E+03 -0.53171356950E+02 -0.73527635244E+03  0.81125040489E+03  0.50400001928E-02 0.  1.
       -1    1    3    3    0  502  0.33862768900E+03  0.53171356950E+02  0.30999019907E+03  0.46215779611E+03  0.50400001928E-02 0. -1.
</event>
<event>
 5   0  0.2875848E-03  0.1205661E+04  0.7818609E-02  0.9107916E-01
        1   -1    0    0  501    0  0.00000000000E+00  0.00000000000E+00  0.44008448537E+03  0.44008448539E+03  0.50400001928E-02 0. -1.
       -1   -1    0    0    0  501  0.00000000000E+00  0.00000000000E+00 -0.82576153845E+03  0.82576153846E+03  0.50400001928E-02 0.  1.
    10030    2    1    2    0    0  0.00000000000E+00  0.00000000000E+00 -0.38567705308E+03  0.12658460239E+04  0.12056613815E+04 0.  0.
        1    1    3    3  502    0 -0.24384409155E+03  0.49364324793E+03 -0.45057422716E+03  0.71144973920E+03  0.50400001928E-02 0.  1.
       -1    1    3    3    0  502  0.24384409155E+03 -0.49364324793E+03  0.64897174080E+02  0.55439628465E+03  0.50400001928E-02 0. -1.
</event>
<event>
 5   0  0.5467554E-03  0.1184568E+04  0.7818609E-02  0.9126473E-01
        2   -1    0    0  501    0  0.00000000000E+00  0.00000000000E+00  0.10492959847E+04  0.10492959847E+04  0.25500000920E-02 0. -1.
       -2   -1    0    0    0  501  0.00000000000E+00  0.00000000000E+00 -0.33431953049E+03  0.33431953050E+03  0.25500000920E-02 0.  1.
    10030    2    1    2    0    0  0.00000000000E+00  0.00000000000E+00  0.71497645422E+03  0.13836155152E+04  0.11845676696E+04 0.  0.
        1    1    3    3  502    0 -0.26945342297E+03 -0.36388229178E+03  0.80346421830E+03  0.92226363884E+03  0.50400001928E-02 0. -1.
       -1    1    3    3    0  502  0.26945342297E+03  0.36388229178E+03 -0.88487764080E+02  0.46135187638E+03  0.50400001928E-02 0.  1.
</event>
<event>
 5   0  0.2792518E-03  0.1198030E+04  0.7818609E-02  0.9114582E-01
       -1   -1    0    0    0  501  0.00000000000E+00  0.00000000000E+00  0.82160471097E+03  0.82160471099E+03  0.50400001928E-02 0. -1.
        1   -1    0    0  501    0  0.00000000000E+00  0.00000000000E+00 -0.43672962448E+03  0.43672962451E+03  0.50400001928E-02 0.  1.
    10030    2    1    2    0    0  0.00000000000E+00  0.00000000000E+00  0.38487508650E+03  0.12583343355E+04  0.11980302449E+04 0.  0.
        2    1    3    3  502    0 -0.58804657221E+03  0.96526258825E+00  0.72591421402E+02  0.59251094276E+03  0.25500000920E-02 0.  1.
       -2    1    3    3    0  502  0.58804657221E+03 -0.96526258825E+00  0.31228366509E+03  0.66582339273E+03  0.25500000920E-02 0. -1.
</event>
<event>
 5   0  0.2875848E-03  0.1058750E+04  0.7818609E-02  0.9246357E-01
       -1   -1    0    0    0  501  0.00000000000E+00  0.00000000000E+00  0.43018870477E+03  0.43018870480E+03  0.50400001928E-02 0.  1.
        1   -1    0    0  501    0  0.00000000000E+00  0.00000000000E+00 -0.65142991439E+03  0.65142991441E+03  0.50400001928E-02 0. -1.
    10030    2    1    2    0    0  0.00000000000E+00  0.00000000000E+00 -0.22124120962E+03  0.10816186192E+04  0.10587498121E+04 0.  0.
        1    1    3    3  502    0 -0.51716076770E+02 -0.43111633284E+03 -0.41998482575E+03  0.60408865155E+03  0.50400001928E-02 0. -1.
       -1    1    3    3    0  502  0.51716076770E+02  0.43111633284E+03  0.19874361613E+03  0.47752996767E+03  0.50400001928E-02 0.  1.
</event>
<event>
 5   0  0.5108045E-03  0.1172386E+04  0.7818609E-02  0.9137377E-01
       -2   -1    0    0    0  501  0.00000000000E+00  0.00000000000E+00  0.42332977643E+03  0.42332977644E+03  0.25500000920E-02 0. -1.
        2   -1    0    0  501    0  0.00000000000E+00  0.00000000000E+00 -0.81171255911E+03  0.81171255912E+03  0.25500000920E-02 0.  1.
    10030    2    1    2    0    0  0.00000000000E+00  0.00000000000E+00 -0.38838278268E+03  0.12350423356E+04  0.11723857662E+04 0.  0.
        3    1    3    3  502    0 -0.87279251945E+02 -0.24253522251E+03  0.36042551274E+03  0.44311123030E+03  0.10100000352E+00 0. -1.
       -3    1    3    3    0  502  0.87279251945E+02  0.24253522251E+03 -0.74880829542E+03  0.79193110526E+03  0.10100000352E+00 0.  1.
</event>
<event>
 5   0  0.2938349E-03  0.1177516E+04  0.7818609E-02  0.9132768E-01
        1   -1    0    0  501    0  0.00000000000E+00  0.00000000000E+00  0.38456271192E+03  0.38456271196E+03  0.50400001928E-02 0.  1.
       -1   -1    0    0    0  501  0.00000000000E+00  0.00000000000E+00 -0.90137702730E+03  0.90137702731E+03  0.50400001928E-02 0. -1.
    10030    2    1    2    0    0  0.00000000000E+00  0.00000000000E+00 -0.51681431537E+03  0.12859397393E+04  0.11775160196E+04 0.  0.
        4    1    3    3  502    0  0.59204363778E+02  0.16618036752E+03 -0.87183380185E+03  0.88950371679E+03  0.12699999809E+01 0. -1.
       -4    1    3    3    0  502 -0.59204363778E+02 -0.16618036752E+03  0.35501948647E+03  0.39643602248E+03  0.12699999809E+01 0.  1.
</event>
<event>
 5   0  0.2875848E-03  0.1039321E+04  0.7818609E-02  0.9266439E-01
        1   -1    0    0  501    0  0.00000000000E+00  0.00000000000E+00  0.95716909328E+03  0.95716909330E+03  0.50400001928E-02 0. -1.
       -1   -1    0    0    0  501  0.00000000000E+00  0.00000000000E+00 -0.28213121981E+03  0.28213121985E+03  0.50400001928E-02 0.  1.
    10030    2    1    2    0    0  0.00000000000E+00  0.00000000000E+00  0.67503787348E+03  0.12393003131E+04  0.10393214784E+04 0.  0.
        1    1    3    3  502    0 -0.13146317007E+03  0.49419716997E+02 -0.25907182362E+03  0.29469150536E+03  0.50400001928E-02 0.  1.
       -1    1    3    3    0  502  0.13146317007E+03 -0.49419716997E+02  0.93410969710E+03  0.94460880779E+03  0.50400001928E-02 0. -1.
</event>
<event>
 5   0  0.2875848E-03  0.1245946E+04  0.7818609E-02  0.9073564E-01
        1   -1    0    0  501    0  0.00000000000E+00  0.00000000000E+00  0.41762516666E+03  0.41762516669E+03  0.50400001928E-02 0. -1.
       -1   -1    0    0    0  501  0.00000000000E+00  0.00000000000E+00 -0.92929096924E+03  0.92929096926E+03  0.50400001928E-02 0.  1.
    10030    2    1    2    0    0  0.00000000000E+00  0.00000000000E+00 -0.51166580258E+03  0.13469161359E+04  0.12459458992E+04 0.  0.
        1    1    3    3  502    0  0.78306717287E+02 -0.61774462015E+03 -0.23546633783E+03  0.66572122842E+03  0.50400001928E-02 0.  1.
       -1    1    3    3    0  502 -0.78306717287E+02  0.61774462015E+03 -0.27619946474E+03  0.68119490753E+03  0.50400001928E-02 0. -1.
</event>
<event>
 5   0  0.5003526E-03  0.1165915E+04  0.7818609E-02  0.9143225E-01
       -2   -1    0    0    0  501  0.00000000000E+00  0.00000000000E+00  0.31864282736E+03  0.31864282737E+03  0.25500000920E-02 0.  1.
        2   -1    0    0  501    0  0.00000000000E+00  0.00000000000E+00 -0.10665219033E+04  0.10665219033E+04  0.25500000920E-02 0. -1.
    10030    2    1    2    0    0  0.00000000000E+00  0.00000000000E+00 -0.74787907589E+03  0.13851647306E+04  0.11659151851E+04 0.  0.
        2    1    3    3  502    0  0.36907766092E+03 -0.14708857565E+03  0.13288038401E+03  0.41893981111E+03  0.25500000920E-02 0.  1.
       -2    1    3    3    0  502 -0.36907766092E+03  0.14708857565E+03 -0.88075945990E+03  0.96622491951E+03  0.25500000920E-02 0. -1.
</event>
<event>
 5   0  0.5189537E-03  0.1173999E+04  0.7818609E-02  0.9135924E-01
       -2   -1    0    0    0  501  0.00000000000E+00  0.00000000000E+00  0.39185784055E+03  0.39185784056E+03  0.25500000920E-02 0. -1.
        2   -1    0    0  501    0  0.00000000000E+00  0.00000000000E+00 -0.87932008106E+03  0.87932008106E+03  0.25500000920E-02 0.  1.
    10030    2    1    2    0    0  0.00000000000E+00  0.00000000000E+00 -0.48746224050E+03  0.12711779216E+04  0.11739990939E+04 0.  0.
        4    1    3    3  502    0 -0.20685191518E+02  0.35849158006E+03 -0.74652025617E+03  0.82839495164E+03  0.12699999809E+01 0.  1.
       -4    1    3    3    0  502  0.20685191518E+02 -0.35849158006E+03  0.25905801567E+03  0.44278296998E+03  0.12699999809E+01 0. -1.
</event>
<event>
 5   0  0.5108045E-03  0.1223511E+04  0.7818609E-02  0.9092522E-01
       -2   -1    0    0    0  501  0.00000000000E+00  0.00000000000E+00  0.26009065603E+03  0.26009065604E+03  0.25500000920E-02 0. -1.
        2   -1    0    0  501    0  0.00000000000E+00  0.00000000000E+00 -0.14389021791E+04  0.14389021791E+04  0.25500000920E-02 0.  1.
    10030    2    1    2    0    0  0.00000000000E+00  0.00000000000E+00 -0.11788115231E+04  0.16989928352E+04  0.12235113596E+04 0.  0.
        3    1    3    3  502    0  0.27301629803E+03  0.23593611485E+03 -0.12753916217E+04  0.13254537141E+04  0.10100000352E+00 0.  1.
       -3    1    3    3    0  502 -0.27301629803E+03 -0.23593611485E+03  0.96580098664E+02  0.37353912103E+03  0.10100000352E+00 0. -1.
</event>
<event>
 5   0  0.2930868E-03  0.1187913E+04  0.7818609E-02  0.9123503E-01
        1   -1    0    0  501    0  0.00000000000E+00  0.00000000000E+00  0.10388573954E+04  0.10388573954E+04  0.50400001928E-02 0. -1.
       -1   -1    0    0    0  501  0.00000000000E+00  0.00000000000E+00 -0.33958871681E+03  0.33958871684E+03  0.50400001928E-02 0.  1.
    10030    2    1    2    0    0  0.00000000000E+00  0.00000000000E+00  0.69926867860E+03  0.13784461123E+04  0.11879128754E+04 0.  0.
        3    1    3    3  502    0  0.47173679861E+02 -0.59179375514E+03  0.32826813051E+03  0.67838424244E+03  0.10100000352E+00 0.  1.
       -3    1    3    3    0  502 -0.47173679861E+02  0.59179375514E+03  0.37100054809E+03  0.70006186982E+03  0.10100000352E+00 0. -1.
</event>
<event>
 5   0  0.5031575E-03  0.1205511E+04  0.7818609E-02  0.9108046E-01
       -2   -1    0    0    0  501  0.00000000000E+00  0.00000000000E+00  0.30323288053E+03  0.30323288054E+03  0.25500000920E-02 0.  1.
        2   -1    0    0  501    0  0.00000000000E+00  0.00000000000E+00 -0.11981364104E+04  0.11981364104E+04  0.25500000920E-02 0. -1.
    10030    2    1    2    0    0  0.00000000000E+00  0.00000000000E+00 -0.89490352985E+03  0.15013692909E+04  0.12055112691E+04 0.  0.
        5    1    3    3  502    0  0.59751599473E+03 -0.42737898964E+01 -0.34900332034E+03  0.69200363933E+03  0.46999998093E+01 0. -1.
       -5    1    3    3    0  502 -0.59751599473E+03  0.42737898964E+01 -0.54590020952E+03  0.80936565160E+03  0.46999998093E+01 0.  1.
</event>
<event>
 5   0  0.5003526E-03  0.1219612E+04  0.7818609E-02  0.9095861E-01
       -2   -1    0    0    0  501  0.00000000000E+00  0.00000000000E+00  0.28034827442E+03  0.28034827444E+03  0.25500000920E-02 0.  1.
        2   -1    0    0  501    0  0.00000000000E+00  0.00000000000E+00 -0.13264345808E+04  0.13264345808E+04  0.25500000920E-02 0. -1.
    10030    2    1    2    0    0  0.00000000000E+00  0.00000000000E+00 -0.10460863063E+04  0.16067828552E+04  0.12196124727E+04 0.  0.
        2    1    3    3  502    0 -0.12810228219E+03 -0.57401469945E+03 -0.31077125976E+03  0.66519308910E+03  0.25500000920E-02 0.  1.
       -2    1    3    3    0  502  0.12810228219E+03  0.57401469945E+03 -0.73531504657E+03  0.94158976609E+03  0.25500000920E-02 0. -1.
</event>
<event>
 5   0  0.2930868E-03  0.1191384E+04  0.7818609E-02  0.9120432E-01
       -1   -1    0    0    0  501  0.00000000000E+00  0.00000000000E+00  0.48288934974E+03  0.48288934977E+03  0.50400001928E-02 0. -1.
        1   -1    0    0  501    0  0.00000000000E+00  0.00000000000E+00 -0.73484487136E+03  0.73484487138E+03  0.50400001928E-02 0.  1.
    10030    2    1    2    0    0  0.00000000000E+00  0.00000000000E+00 -0.25195552162E+03  0.12177342211E+04  0.11913836697E+04 0.  0.
        3    1    3    3  502    0  0.14024805360E+03  0.47057930299E+03  0.21872654030E+03  0.53754600414E+03  0.10100000352E+00 0. -1.
       -3    1    3    3    0  502 -0.14024805360E+03 -0.47057930299E+03 -0.47068206192E+03  0.68018821701E+03  0.10100000352E+00 0.  1.
</event>
<event>
 5   0  0.5031575E-03  0.1195444E+04  0.7818609E-02  0.9116853E-01
       -2   -1    0    0    0  501  0.00000000000E+00  0.00000000000E+00  0.19694029009E+03  0.19694029010E+03  0.25500000920E-02 0. -1.
        2   -1    0    0  501    0  0.00000000000E+00  0.00000000000E+00 -0.18141122711E+04  0.18141122711E+04  0.25500000920E-02 0.  1.
    10030    2    1    2    0    0  0.00000000000E+00  0.00000000000E+00 -0.16171719810E+04  0.20110525612E+04  0.11954443474E+04 0.  0.
        5    1    3    3  502    0  0.47722658748E+03 -0.11355179548E+03 -0.23412194556E+03  0.54357557105E+03  0.46999998093E+01 0. -1.
       -5    1    3    3    0  502 -0.47722658748E+03  0.11355179548E+03 -0.13830500354E+04  0.14674769901E+04  0.46999998093E+01 0.  1.
</event>
<event>
 5   0  0.1922125E-03  0.1218535E+04  0.7818609E-02  0.9096786E-01
       -3   -1    0    0    0  501  0.00000000000E+00  0.00000000000E+00  0.37744323115E+03  0.37744324467E+03  0.10100000352E+00 0. -1.
        3   -1    0    0  501    0  0.00000000000E+00  0.00000000000E+00 -0.98347682985E+03  0.98347683504E+03  0.10100000352E+00 0.  1.
    10030    2    1    2    0    0  0.00000000000E+00  0.00000000000E+00 -0.60603359870E+03  0.13609200797E+04  0.12185346694E+04 0.  0.
        4    1    3    3  502    0 -0.32914270941E+03  0.88433562533E+01 -0.87555010501E+03  0.93541580455E+03  0.12699999809E+01 0.  1.
       -4    1    3    3    0  502  0.32914270941E+03 -0.88433562533E+01  0.26951650631E+03  0.42550427516E+03  0.12699999809E+01 0. -1.
</event>
<event>
 5   0  0.5031575E-03  0.1187989E+04  0.7818609E-02  0.9123435E-01
        2   -1    0    0  501    0  0.00000000000E+00  0.00000000000E+00  0.22141800359E+04  0.22141800359E+04  0.25500000920E-02 0. -1.
       -2   -1    0    0    0  501  0.00000000000E+00  0.00000000000E+00 -0.15934986211E+03  0.15934986213E+03  0.25500000920E-02 0.  1.
    10030    2    1    2    0    0  0.00000000000E+00  0.00000000000E+00  0.20548301737E+04  0.23735298980E+04  0.11879886926E+04 0.  0.
        5    1    3    3  502    0 -0.12390337397E+03 -0.26864034931E+03 -0.16451598238E+01  0.29587916437E+03  0.46999998093E+01 0.  1.
       -5    1    3    3    0  502  0.12390337397E+03  0.26864034931E+03  0.20564753336E+04  0.20776507336E+04  0.46999998093E+01 0. -1.
</event>
<event>
 5   0  0.5467554E-03  0.1177631E+04  0.7818609E-02  0.9132664E-01
        2   -1    0    0  501    0  0.00000000000E+00  0.00000000000E+00  0.15311624624E+04  0.15311624624E+04  0.25500000920E-02 0. -1.
       -2   -1    0    0    0  501  0.00000000000E+00  0.00000000000E+00 -0.22643186936E+03  0.22643186937E+03  0.25500000920E-02 0.  1.
    10030    2    1    2    0    0  0.00000000000E+00  0.00000000000E+00  0.13047305930E+04  0.17575943317E+04  0.11776314851E+04 0.  0.
        1    1    3    3  502    0  0.36028632002E+03 -0.46572274716E+03  0.65197320920E+03  0.87850610422E+03  0.50400001928E-02 0.  1.
       -1    1    3    3    0  502 -0.36028632002E+03  0.46572274716E+03  0.65275738382E+03  0.87908822752E+03  0.50400001928E-02 0. -1.
</event>
<event>
 5   0  0.5189537E-03  0.1192463E+04  0.7818609E-02  0.9119480E-01
       -2   -1    0    0    0  501  0.00000000000E+00  0.00000000000E+00  0.31952076861E+03  0.31952076863E+03  0.25500000920E-02 0.  1.
        2   -1    0    0  501    0  0.00000000000E+00  0.00000000000E+00 -0.11125779898E+04  0.11125779898E+04  0.25500000920E-02 0. -1.
    10030    2    1    2    0    0  0.00000000000E+00  0.00000000000E+00 -0.79305722122E+03  0.14320987585E+04  0.11924626191E+04 0.  0.
        4    1    3    3  502    0 -0.34663166959E+03  0.28702461513E+03  0.73157728598E+02  0.45594989879E+03  0.12699999809E+01 0.  1.
       -4    1    3    3    0  502  0.34663166959E+03 -0.28702461513E+03 -0.86621494982E+03  0.97614885968E+03  0.12699999809E+01 0. -1.
</event>
<event>
 5   0  0.2930868E-03  0.1276491E+04  0.7818609E-02  0.9048418E-01
       -1   -1    0    0    0  501  0.00000000000E+00  0.00000000000E+00  0.11953998795E+04  0.11953998795E+04  0.50400001928E-02 0.  1.
        1   -1    0    0  501    0  0.00000000000E+00  0.00000000000E+00 -0.34077081680E+03  0.34077081684E+03  0.50400001928E-02 0. -1.
    10030    2    1    2    0    0  0.00000000000E+00  0.00000000000E+00  0.85462906272E+03  0.15361706964E+04  0.12764911177E+04 0.  0.
        3    1    3    3  502    0 -0.43424807100E+03  0.40156160770E+03  0.71597345470E+03  0.92867707519E+03  0.10100000352E+00 0.  1.
       -3    1    3    3    0  502  0.43424807100E+03 -0.40156160770E+03  0.13865560802E+03  0.60749362118E+03  0.10100000352E+00 0. -1.
</event>
<event>
 5   0  0.2938349E-03  0.1190492E+04  0.7818609E-02  0.9121220E-01
        1   -1    0    0  501    0  0.00000000000E+00  0.00000000000E+00  0.58551162841E+03  0.58551162843E+03  0.50400001928E-02 0.  1.
       -1   -1    0    0    0  501  0.00000000000E+00  0.00000000000E+00 -0.60514176432E+03  0.60514176434E+03  0.50400001928E-02 0. -1.
    10030    2    1    2    0    0  0.00000000000E+00  0.00000000000E+00 -0.19630135911E+02  0.11906533928E+04  0.11904915621E+04 0.  0.
        4    1    3    3  502    0  0.86957482182E+02  0.48011590062E+03  0.33117562197E+03  0.58970483059E+03  0.12699999809E+01 0.  1.
       -4    1    3    3    0  502 -0.86957482182E+02 -0.48011590062E+03 -0.35080575788E+03  0.60094856219E+03  0.12699999809E+01 0. -1.
</event>
<event>
 5   0  0.5467554E-03  0.1161910E+04  0.7818609E-02  0.9146866E-01
       -2   -1    0    0    0  501  0.00000000000E+00  0.00000000000E+00  0.32343121641E+03  0.32343121642E+03  0.25500000920E-02 0.  1.
        2   -1    0    0  501    0  0.00000000000E+00  0.00000000000E+00 -0.10435254353E+04  0.10435254353E+04  0.25500000920E-02 0. -1.
    10030    2    1    2    0    0  0.00000000000E+00  0.00000000000E+00 -0.72009421888E+03  0.13669566517E+04  0.11619099808E+04 0.  0.
        1    1    3    3  502    0  0.30699868202E+03  0.36322703502E+03 -0.75258518939E+03  0.89026206088E+03  0.50400001928E-02 0. -1.
       -1    1    3    3    0  502 -0.30699868202E+03 -0.36322703502E+03  0.32490970511E+02  0.47669459082E+03  0.50400001928E-02 0.  1.
</event>
<event>
 5   0  0.2875848E-03  0.1208680E+04  0.7818609E-02  0.9105293E-01
        1   -1    0    0  501    0  0.00000000000E+00  0.00000000000E+00  0.17400978069E+04  0.17400978069E+04  0.50400001928E-02 0. -1.
       -1   -1    0    0    0  501  0.00000000000E+00  0.00000000000E+00 -0.20988861680E+03  0.20988861686E+03  0.50400001928E-02 0.  1.
    10030    2    1    2    0    0  0.00000000000E+00  0.00000000000E+00  0.15302091901E+04  0.19499864238E+04  0.12086798118E+04 0.  0.
        1    1    3    3  502    0 -0.26836794328E+03 -0.52618095868E+03  0.97132546988E+03  0.11368205323E+04  0.50400001928E-02 0. -1.
       -1    1    3    3    0  502  0.26836794328E+03  0.52618095868E+03  0.55888372022E+03  0.81316589144E+03  0.50400001928E-02 0.  1.
</event>
<event>
 5   0  0.5189537E-03  0.1217756E+04  0.7818609E-02  0.9097455E-01
       -2   -1    0    0    0  501  0.00000000000E+00  0.00000000000E+00  0.15069733221E+03  0.15069733223E+03  0.25500000920E-02 0. -1.
        2   -1    0    0  501    0  0.00000000000E+00  0.00000000000E+00 -0.24601121982E+04  0.24601121982E+04  0.25500000920E-02 0.  1.
    10030    2    1    2    0    0  0.00000000000E+00  0.00000000000E+00 -0.23094148660E+04  0.26108095304E+04  0.12177558790E+04 0.  0.
        4    1    3    3  502    0 -0.18858877743E+03  0.47894961765E+03 -0.45743761766E+03  0.68862852844E+03  0.12699999809E+01 0. -1.
       -4    1    3    3    0  502  0.18858877743E+03 -0.47894961765E+03 -0.18519772483E+04  0.19221810020E+04  0.12699999809E+01 0.  1.
</event>
<event>
 5   0  0.5031575E-03  0.1183485E+04  0.7818609E-02  0.9127436E-01
       -2   -1    0    0    0  501  0.00000000000E+00  0.00000000000E+00  0.32139423734E+03  0.32139423735E+03  0.25500000920E-02 0.  1.
        2   -1    0    0  501    0  0.00000000000E+00  0.00000000000E+00 -0.10895008177E+04  0.10895008177E+04  0.25500000920E-02 0. -1.
    10030    2    1    2    0    0  0.00000000000E+00  0.00000000000E+00 -0.76810658040E+03  0.14108950551E+04  0.11834851658E+04 0.  0.
        5    1    3    3  502    0 -0.23166116758E+02  0.25345718523E+02  0.32018323648E+03  0.32205351937E+03  0.46999998093E+01 0.  1.
       -5    1    3    3    0  502  0.23166116758E+02 -0.25345718523E+02 -0.10882898169E+04  0.10888415357E+04  0.46999998093E+01 0. -1.
</event>
<event>
 5   0  0.1922125E-03  0.1250765E+04  0.7818609E-02  0.9069547E-01
       -4   -1    0    0    0  501  0.00000000000E+00  0.00000000000E+00  0.79832385477E+03  0.79832486495E+03  0.12699999809E+01 0. -1.
        4   -1    0    0  501    0  0.00000000000E+00  0.00000000000E+00 -0.48990334264E+03  0.48990498878E+03  0.12699999809E+01 0.  1.
    10030    2    1    2    0    0  0.00000000000E+00  0.00000000000E+00  0.30842051213E+03  0.12882298537E+04  0.12507649434E+04 0.  0.
        2    1    3    3  502    0 -0.50774468233E+03  0.16601533721E+02  0.52985815751E+03  0.73405036642E+03  0.25500000920E-02 0. -1.
       -2    1    3    3    0  502  0.50774468233E+03 -0.16601533721E+02 -0.22143764538E+03  0.55417948731E+03  0.25500000920E-02 0.  1.
</event>
<event>
 5   0  0.2938349E-03  0.1192648E+04  0.7818609E-02  0.9119316E-01
       -1   -1    0    0    0  501  0.00000000000E+00  0.00000000000E+00  0.95467154022E+03  0.95467154023E+03  0.50400001928E-02 0.  1.
        1   -1    0    0  501    0  0.00000000000E+00  0.00000000000E+00 -0.37248631386E+03  0.37248631389E+03  0.50400001928E-02 0. -1.
    10030    2    1    2    0    0  0.00000000000E+00  0.00000000000E+00  0.58218522636E+03  0.13271578541E+04  0.11926476143E+04 0.  0.
        4    1    3    3  502    0 -0.30339980926E+03 -0.50933797449E+03  0.21963277048E+03  0.63223158992E+03  0.12699999809E+01 0. -1.
       -4    1    3    3    0  502  0.30339980926E+03  0.50933797449E+03  0.36255245588E+03  0.69492626420E+03  0.12699999809E+01 0.  1.
</event>
<event>
 5   0  0.2938349E-03  0.1183374E+04  0.7818609E-02  0.9127535E-01
        1   -1    0    0  501    0  0.00000000000E+00  0.00000000000E+00  0.85576389723E+03  0.85576389724E+03  0.50400001928E-02 0. -1.
       -1   -1    0    0    0  501  0.00000000000E+00  0.00000000000E+00 -0.40910048881E+03  0.40910048884E+03  0.50400001928E-02 0.  1.
    10030    2    1    2    0    0  0.00000000000E+00  0.00000000000E+00  0.44666340842E+03  0.12648643861E+04  0.11833738694E+04 0.  0.
        4    1    3    3  502    0  0.21215271447E+03  0.20823549462E+03  0.77014780256E+03  0.82553016066E+03  0.12699999809E+01 0. -1.
       -4    1    3    3    0  502 -0.21215271447E+03 -0.20823549462E+03 -0.32348439415E+03  0.43933422542E+03  0.12699999809E+01 0.  1.
</event>
<event>
 5   0  0.2875848E-03  0.1249237E+04  0.7818609E-02  0.9070819E-01
        1   -1    0    0  501    0  0.00000000000E+00  0.00000000000E+00  0.70236538475E+03  0.70236538477E+03  0.50400001928E-02 0.  1.
       -1   -1    0    0    0  501  0.00000000000E+00  0.00000000000E+00 -0.55547751248E+03  0.55547751250E+03  0.50400001928E-02 0. -1.
    10030    2    1    2    0    0  0.00000000000E+00  0.00000000000E+00  0.14688787228E+03  0.12578428973E+04  0.12492368499E+04 0.  0.
        1    1    3    3  502    0  0.59537652282E+02 -0.58642189369E+02  0.69671113205E+03  0.70170509472E+03  0.50400001928E-02 0.  1.
       -1    1    3    3    0  502 -0.59537652282E+02  0.58642189369E+02 -0.54982325977E+03  0.55613780255E+03  0.50400001928E-02 0. -1.
</event>
<event>
 5   0  0.1922125E-03  0.1190988E+04  0.7818609E-02  0.9120781E-01
       -4   -1    0    0    0  501  0.00000000000E+00  0.00000000000E+00  0.52391994564E+03  0.52392148490E+03  0.12699999809E+01 0. -1.
        4   -1    0    0  501    0  0.00000000000E+00  0.00000000000E+00 -0.67684311339E+03  0.67684430488E+03  0.12699999809E+01 0.  1.
    10030    2    1    2    0    0  0.00000000000E+00  0.00000000000E+00 -0.15292316775E+03  0.12007657898E+04  0.11909882395E+04 0.  0.
        2    1    3    3  502    0  0.24049317249E+03 -0.25844974763E+03 -0.55996091333E+03  0.66195880728E+03  0.25500000920E-02 0.  1.
       -2    1    3    3    0  502 -0.24049317249E+03  0.25844974763E+03  0.40703774558E+03  0.53880698251E+03  0.25500000920E-02 0. -1.
</event>
<event>
 5   0  0.5467554E-03  0.1191067E+04  0.7818609E-02  0.9120712E-01
       -2   -1    0    0    0  501  0.00000000000E+00  0.00000000000E+00  0.20010509408E+03  0.20010509409E+03  0.25500000920E-02 0. -1.
        2   -1    0    0  501    0  0.00000000000E+00  0.00000000000E+00 -0.17723690534E+04  0.17723690534E+04  0.25500000920E-02 0.  1.
    10030    2    1    2    0    0  0.00000000000E+00  0.00000000000E+00 -0.15722639593E+04  0.19724741475E+04  0.11910668767E+04 0.  0.
        1    1    3    3  502    0 -0.11164577318E+03 -0.11725100169E+03  0.16295967121E+03  0.22971380136E+03  0.50400001928E-02 0. -1.
       -1    1    3    3    0  502  0.11164577318E+03  0.11725100169E+03 -0.17352236305E+04  0.17427603461E+04  0.50400001928E-02 0.  1.
</event>
<event>
 5   0  0.5467554E-03  0.1146320E+04  0.7818609E-02  0.9161185E-01
       -2   -1    0    0    0  501  0.00000000000E+00  0.00000000000E+00  0.69775392474E+03  0.69775392475E+03  0.25500000920E-02 0.  1.
        2   -1    0    0  501    0  0.00000000000E+00  0.00000000000E+00 -0.47081408430E+03  0.47081408431E+03  0.25500000920E-02 0. -1.
    10030    2    1    2    0    0  0.00000000000E+00  0.00000000000E+00  0.22693984044E+03  0.11685680091E+04  0.11463199818E+04 0.  0.
        1    1    3    3  502    0 -0.38093562103E+03  0.22289173336E+03 -0.25930426672E+03  0.51189000277E+03  0.50400001928E-02 0. -1.
       -1    1    3    3    0  502  0.38093562103E+03 -0.22289173336E+03  0.48624410716E+03  0.65667800629E+03  0.50400001928E-02 0.  1.
</event>
<event>
 5   0  0.5108045E-03  0.1226865E+04  0.7818609E-02  0.9089662E-01
        2   -1    0    0  501    0  0.00000000000E+00  0.00000000000E+00  0.97449345124E+03  0.97449345125E+03  0.25500000920E-02 0. -1.
       -2   -1    0    0    0  501  0.00000000000E+00  0.00000000000E+00 -0.38614847693E+03  0.38614847694E+03  0.25500000920E-02 0.  1.
    10030    2    1    2    0    0  0.00000000000E+00  0.00000000000E+00  0.58834497431E+03  0.13606419282E+04  0.12268645597E+04 0.  0.
        3    1    3    3  502    0  0.22552184052E+03 -0.11084420099E+03 -0.32644677299E+03  0.41196364311E+03  0.10100000352E+00 0.  1.
       -3    1    3    3    0  502 -0.22552184052E+03  0.11084420099E+03  0.91479174731E+03  0.94867828508E+03  0.10100000352E+00 0. -1.
</event>
<event>
 5   0  0.2792518E-03  0.9307382E+03  0.7818609E-02  0.9387952E-01
        1   -1    0    0  501    0  0.00000000000E+00  0.00000000000E+00  0.70904707942E+03  0.70904707944E+03  0.50400001928E-02 0. -1.
       -1   -1    0    0    0  501  0.00000000000E+00  0.00000000000E+00 -0.30543585796E+03  0.30543585800E+03  0.50400001928E-02 0.  1.
    10030    2    1    2    0    0  0.00000000000E+00  0.00000000000E+00  0.40361122146E+03  0.10144829374E+04  0.93073820823E+03 0.  0.
        2    1    3    3  502    0  0.29231460435E+03 -0.35596179685E+03  0.27420315728E+03  0.53604477443E+03  0.25500000920E-02 0.  1.
       -2    1    3    3    0  502 -0.29231460435E+03  0.35596179685E+03  0.12940806419E+03  0.47843816300E+03  0.25500000920E-02 0. -1.
</event>
<event>
 5   0  0.2926844E-03  0.1211249E+04  0.7818609E-02  0.9103067E-01
       -1   -1    0    0    0  501  0.00000000000E+00  0.00000000000E+00  0.48114495232E+03  0.48114495235E+03  0.50400001928E-02 0.  1.
        1   -1    0    0  501    0  0.00000000000E+00  0.00000000000E+00 -0.76230819669E+03  0.76230819670E+03  0.50400001928E-02 0. -1.
    10030    2    1    2    0    0  0.00000000000E+00  0.00000000000E+00 -0.28116324436E+03  0.12434531491E+04  0.12112485145E+04 0.  0.
        5    1    3    3  502    0 -0.18433262982E+03 -0.53231921983E+02  0.44910045598E+03  0.48839068940E+03  0.46999998093E+01 0.  1.
       -5    1    3    3    0  502  0.18433262982E+03  0.53231921983E+02 -0.73026370034E+03  0.75506245965E+03  0.46999998093E+01 0. -1.
</event>
<event>
 5   0  0.5031575E-03  0.1209454E+04  0.7818609E-02  0.9104622E-01
        2   -1    0    0  501    0  0.00000000000E+00  0.00000000000E+00  0.27323234210E+04  0.27323234210E+04  0.25500000920E-02 0. -1.
       -2   -1    0    0    0  501  0.00000000000E+00  0.00000000000E+00 -0.13384012571E+03  0.13384012573E+03  0.25500000920E-02 0.  1.
    10030    2    1    2    0    0  0.00000000000E+00  0.00000000000E+00  0.25984832953E+04  0.28661635468E+04  0.12094536125E+04 0.  0.
        5    1    3    3  502    0 -0.25764517549E+03 -0.47460539756E+03  0.19440760276E+04  0.20176929922E+04  0.46999998093E+01 0. -1.
       -5    1    3    3    0  502  0.25764517549E+03  0.47460539756E+03  0.65440726772E+03  0.84847055452E+03  0.46999998093E+01 0.  1.
</event>
<event>
 5   0  0.2938349E-03  0.1161304E+04  0.7818609E-02  0.9147418E-01
        1   -1    0    0  501    0  0.00000000000E+00  0.00000000000E+00  0.98233643760E+03  0.98233643762E+03  0.50400001928E-02 0.  1.
       -1   -1    0    0    0  501  0.00000000000E+00  0.00000000000E+00 -0.34321945800E+03  0.34321945803E+03  0.50400001928E-02 0. -1.
    10030    2    1    2    0    0  0.00000000000E+00  0.00000000000E+00  0.63911697960E+03  0.13255558957E+04  0.11613044041E+04 0.  0.
        4    1    3    3  502    0 -0.10922522160E+03 -0.71757778822E+02 -0.32621253481E+03  0.35141934867E+03  0.12699999809E+01 0. -1.
       -4    1    3    3    0  502  0.10922522160E+03  0.71757778822E+02  0.96532951442E+03  0.97413654698E+03  0.12699999809E+01 0.  1.
</event>
<event>
 5   0  0.5003526E-03  0.1186743E+04  0.7818609E-02  0.9124541E-01
        2   -1    0    0  501    0  0.00000000000E+00  0.00000000000E+00  0.13023942100E+04  0.13023942100E+04  0.25500000920E-02 0. -1.
       -2   -1    0    0    0  501  0.00000000000E+00  0.00000000000E+00 -0.27034017346E+03  0.27034017347E+03  0.25500000920E-02 0.  1.
    10030    2    1    2    0    0  0.00000000000E+00  0.00000000000E+00  0.10320540365E+04  0.15727343834E+04  0.11867425612E+04 0.  0.
        2    1    3    3  502    0  0.14788943224E+03 -0.54990085675E+03  0.73709911585E+03  0.93143831949E+03  0.25500000920E-02 0.  1.
       -2    1    3    3    0  502 -0.14788943224E+03  0.54990085675E+03  0.29495492066E+03  0.64129606396E+03  0.25500000920E-02 0. -1.
</event>
<event>
 5   0  0.2875848E-03  0.1163638E+04  0.7818609E-02  0.9145293E-01
        1   -1    0    0  501    0  0.00000000000E+00  0.00000000000E+00  0.93356615958E+03  0.93356615959E+03  0.50400001928E-02 0.  1.
       -1   -1    0    0    0  501  0.00000000000E+00  0.00000000000E+00 -0.36260243635E+03  0.36260243639E+03  0.50400001928E-02 0. -1.
    10030    2    1    2    0    0  0.00000000000E+00  0.00000000000E+00  0.57096372323E+03  0.12961685960E+04  0.11636380262E+04 0.  0.
        1    1    3    3  502    0  0.45906662326E+03 -0.26402467721E+03  0.17077098522E+02  0.52985169820E+03  0.50400001928E-02 0. -1.
       -1    1    3    3    0  502 -0.45906662326E+03  0.26402467721E+03  0.55388662470E+03  0.76631689778E+03  0.50400001928E-02 0.  1.
</event>
<event>
 5   0  0.5108045E-03  0.1197602E+04  0.7818609E-02  0.9114958E-01
        2   -1    0    0  501    0  0.00000000000E+00  0.00000000000E+00  0.71810806655E+03  0.71810806656E+03  0.25500000920E-02 0.  1.
       -2   -1    0    0    0  501  0.00000000000E+00  0.00000000000E+00 -0.49931567211E+03  0.49931567212E+03  0.25500000920E-02 0. -1.
    10030    2    1    2    0    0  0.00000000000E+00  0.00000000000E+00  0.21879239444E+03  0.12174237387E+04  0.11976019571E+04 0.  0.
        3    1    3    3  502    0 -0.17767976925E+03 -0.42962566052E+03  0.49302045228E+03  0.67765587516E+03  0.10100000352E+00 0.  1.
       -3    1    3    3    0  502  0.17767976925E+03  0.42962566052E+03 -0.27422805784E+03  0.53976786351E+03  0.10100000352E+00 0. -1.
</event>
<event>
 5   0  0.1922125E-03  0.8098490E+03  0.7818609E-02  0.9545870E-01
       -4   -1    0    0    0  501  0.00000000000E+00  0.00000000000E+00  0.25429656598E+03  0.25429973726E+03  0.12699999809E+01 0. -1.
        4   -1    0    0  501    0  0.00000000000E+00  0.00000000000E+00 -0.64476627992E+03  0.64476753068E+03  0.12699999809E+01 0.  1.
    10030    2    1    2    0    0  0.00000000000E+00  0.00000000000E+00 -0.39046971394E+03  0.89906726794E+03  0.80984897035E+03 0.  0.
        4    1    3    3  502    0 -0.27220872425E+03 -0.29969181611E+03 -0.18742796264E+03  0.44614305809E+03  0.12699999809E+01 0.  1.
       -4    1    3    3    0  502  0.27220872425E+03  0.29969181611E+03 -0.20304175129E+03  0.45292420985E+03  0.12699999809E+01 0. -1.
</event>
<event>
 5   0  0.2875848E-03  0.1483584E+04  0.7818609E-02  0.8895444E-01
       -1   -1    0    0    0  501  0.00000000000E+00  0.00000000000E+00  0.93208689291E+03  0.93208689293E+03  0.50400001928E-02 0.  1.
        1   -1    0    0  501    0  0.00000000000E+00  0.00000000000E+00 -0.59034745586E+03  0.59034745588E+03  0.50400001928E-02 0. -1.
    10030    2    1    2    0    0  0.00000000000E+00  0.00000000000E+00  0.34173943706E+03  0.15224343488E+04  0.14835836692E+04 0.  0.
        1    1    3    3  502    0 -0.47258322839E+03  0.56974368021E+03  0.22021594761E+03  0.77229387703E+03  0.50400001928E-02 0.  1.
       -1    1    3    3    0  502  0.47258322839E+03 -0.56974368021E+03  0.12152348944E+03  0.75014047178E+03  0.50400001928E-02 0. -1.
</event>
<event>
 5   0  0.2938349E-03  0.1214058E+04  0.7818609E-02  0.9100640E-01
       -1   -1    0    0    0  501  0.00000000000E+00  0.00000000000E+00  0.25441812782E+03  0.25441812787E+03  0.50400001928E-02 0.  1.
        1   -1    0    0  501    0  0.00000000000E+00  0.00000000000E+00 -0.14483402570E+04  0.14483402570E+04  0.50400001928E-02 0. -1.
    10030    2    1    2    0    0  0.00000000000E+00  0.00000000000E+00 -0.11939221292E+04  0.17027583849E+04  0.12140576867E+04 0.  0.
        4    1    3    3  502    0  0.12528694951E+03 -0.42312653092E+03 -0.11815835500E+04  0.12612986083E+04  0.12699999809E+01 0. -1.
       -4    1    3    3    0  502 -0.12528694951E+03  0.42312653092E+03 -0.12338579219E+02  0.44145977656E+03  0.12699999809E+01 0.  1.
</event>
<event>
 5   0  0.1922125E-03  0.1170135E+04  0.7818609E-02  0.9139407E-01
       -3   -1    0    0    0  501  0.00000000000E+00  0.00000000000E+00  0.99657195861E+03  0.99657196373E+03  0.10100000352E+00 0. -1.
        3   -1    0    0  501    0  0.00000000000E+00  0.00000000000E+00 -0.34348129046E+03  0.34348130531E+03  0.10100000352E+00 0.  1.
    10030    2    1    2    0    0  0.00000000000E+00  0.00000000000E+00  0.65309066815E+03  0.13400532690E+04  0.11701347542E+04 0.  0.
        4    1    3    3  502    0 -0.30521577808E+03  0.16416441183E+03 -0.21328080389E+03  0.40693603859E+03  0.12699999809E+01 0.  1.
       -4    1    3    3    0  502  0.30521577808E+03 -0.16416441183E+03  0.86637147204E+03  0.93311723045E+03  0.12699999809E+01 0. -1.
</event>
<event>
 5   0  0.2926844E-03  0.1208576E+04  0.7818609E-02  0.9105383E-01
        1   -1    0    0  501    0  0.00000000000E+00  0.00000000000E+00  0.44950457832E+03  0.44950457834E+03  0.50400001928E-02 0.  1.
       -1   -1    0    0    0  501  0.00000000000E+00  0.00000000000E+00 -0.81237003193E+03  0.81237003195E+03  0.50400001928E-02 0. -1.
    10030    2    1    2    0    0  0.00000000000E+00  0.00000000000E+00 -0.36286545362E+03  0.12618746103E+04  0.12085761021E+04 0.  0.
        5    1    3    3  502    0  0.24785204024E+03 -0.35237575226E+03 -0.62384383220E+03  0.75815731982E+03  0.46999998093E+01 0. -1.
       -5    1    3    3    0  502 -0.24785204024E+03  0.35237575226E+03  0.26097837858E+03  0.50371729047E+03  0.46999998093E+01 0.  1.
</event>
<event>
 5   0  0.1922125E-03  0.1223702E+04  0.7818609E-02  0.9092359E-01
        4   -1    0    0  501    0  0.00000000000E+00  0.00000000000E+00  0.58187845196E+03  0.58187983790E+03  0.12699999809E+01 0. -1.
       -4   -1    0    0    0  501  0.00000000000E+00  0.00000000000E+00 -0.64336507682E+03  0.64336633030E+03  0.12699999809E+01 0.  1.
    10030    2    1    2    0    0  0.00000000000E+00  0.00000000000E+00 -0.61486624863E+02  0.12252461682E+04  0.12237024016E+04 0.  0.
        4    1    3    3  502    0 -0.10029095815E+03  0.18587843102E+03 -0.60570742810E+03  0.64147655356E+03  0.12699999809E+01 0.  1.
       -4    1    3    3    0  502  0.10029095815E+03 -0.18587843102E+03  0.54422080324E+03  0.58376961464E+03  0.12699999809E+01 0. -1.
</event>
<event>
 5   0  0.5031575E-03  0.1241094E+04  0.7818609E-02  0.9077629E-01
        2   -1    0    0  501    0  0.00000000000E+00  0.00000000000E+00  0.87067426308E+03  0.87067426308E+03  0.25500000920E-02 0.  1.
       -2   -1    0    0    0  501  0.00000000000E+00  0.00000000000E+00 -0.44227622011E+03  0.44227622012E+03  0.25500000920E-02 0. -1.
    10030    2    1    2    0    0  0.00000000000E+00  0.00000000000E+00  0.42839804297E+03  0.13129504832E+04  0.12410939079E+04 0.  0.
        5    1    3    3  502    0 -0.16311712253E+03 -0.23541790092E+03  0.79655002911E+03  0.84648852480E+03  0.46999998093E+01 0.  1.
       -5    1    3    3    0  502  0.16311712253E+03  0.23541790092E+03 -0.36815198614E+03  0.46646195840E+03  0.46999998093E+01 0. -1.
</event>
<event>
 5   0  0.5031575E-03  0.1189346E+04  0.7818609E-02  0.9122234E-01
       -2   -1    0    0    0  501  0.00000000000E+00  0.00000000000E+00  0.78237654932E+03  0.78237654933E+03  0.25500000920E-02 0. -1.
        2   -1    0    0  501    0  0.00000000000E+00  0.00000000000E+00 -0.45200197481E+03  0.45200197481E+03  0.25500000920E-02 0.  1.
    10030    2    1    2    0    0  0.00000000000E+00  0.00000000000E+00  0.33037457451E+03  0.12343785241E+04  0.11893456106E+04 0.  0.
        5    1    3    3  502    0 -0.58835950073E+03  0.66303925234E+02  0.22251027790E+03  0.63253144299E+03  0.46999998093E+01 0. -1.
       -5    1    3    3    0  502  0.58835950073E+03 -0.66303925234E+02  0.10786429661E+03  0.60184708115E+03  0.46999998093E+01 0.  1.
</event>
<event>
 5   0  0.5031575E-03  0.1201264E+04  0.7818609E-02  0.9111751E-01
        2   -1    0    0  501    0  0.00000000000E+00  0.00000000000E+00  0.48034381924E+03  0.48034381924E+03  0.25500000920E-02 0.  1.
       -2   -1    0    0    0  501  0.00000000000E+00  0.00000000000E+00 -0.75104329097E+03  0.75104329098E+03  0.25500000920E-02 0. -1.
    10030    2    1    2    0    0  0.00000000000E+00  0.00000000000E+00 -0.27069947173E+03  0.12313871102E+04  0.12012643386E+04 0.  0.
        5    1    3    3  502    0  0.30692786815E+03 -0.50655269803E+03 -0.23753165689E+03  0.63815650913E+03  0.46999998093E+01 0. -1.
       -5    1    3    3    0  502 -0.30692786815E+03  0.50655269803E+03 -0.33167814840E+02  0.59323060109E+03  0.46999998093E+01 0.  1.
</event>
<event>
 5   0  0.2792518E-03  0.1193541E+04  0.7818609E-02  0.9118529E-01
        1   -1    0    0  501    0  0.00000000000E+00  0.00000000000E+00  0.15984514572E+04  0.15984514572E+04  0.50400001928E-02 0. -1.
       -1   -1    0    0    0  501  0.00000000000E+00  0.00000000000E+00 -0.22279994065E+03  0.22279994071E+03  0.50400001928E-02 0.  1.
    10030    2    1    2    0    0  0.00000000000E+00  0.00000000000E+00  0.13756515166E+04  0.18212513980E+04  0.11935407657E+04 0.  0.
        2    1    3    3  502    0 -0.49264103718E+02  0.50027320932E+03  0.19706969496E+03  0.53994138622E+03  0.25500000920E-02 0.  1.
       -2    1    3    3    0  502  0.49264103718E+02 -0.50027320932E+03  0.11785818216E+04  0.12813100117E+04  0.25500000920E-02 0. -1.
</event>
<event>
 5   0  0.5108045E-03  0.1155509E+04  0.7818609E-02  0.9152716E-01
       -2   -1    0    0    0  501  0.00000000000E+00  0.00000000000E+00  0.43392345453E+03  0.43392345454E+03  0.25500000920E-02 0.  1.
        2   -1    0    0  501    0  0.00000000000E+00  0.00000000000E+00 -0.76926136765E+03  0.76926136765E+03  0.25500000920E-02 0. -1.
    10030    2    1    2    0    0  0.00000000000E+00  0.00000000000E+00 -0.33533791312E+03  0.12031848222E+04  0.11555094982E+04 0.  0.
        3    1    3    3  502    0  0.21281163675E+03  0.28732185672E+03 -0.64021926426E+03  0.73329622842E+03  0.10100000352E+00 0. -1.
       -3    1    3    3    0  502 -0.21281163675E+03 -0.28732185672E+03  0.30488135114E+03  0.46988859377E+03  0.10100000352E+00 0.  1.
</event>
<event>
 5   0  0.5189537E-03  0.1198402E+04  0.7818609E-02  0.9114257E-01
       -2   -1    0    0    0  501  0.00000000000E+00  0.00000000000E+00  0.59576358473E+03  0.59576358474E+03  0.25500000920E-02 0. -1.
        2   -1    0    0  501    0  0.00000000000E+00  0.00000000000E+00 -0.60265777605E+03  0.60265777606E+03  0.25500000920E-02 0.  1.
    10030    2    1    2    0    0  0.00000000000E+00  0.00000000000E+00 -0.68941913197E+01  0.11984213608E+04  0.11984015304E+04 0.  0.
        4    1    3    3  502    0  0.33638203130E+03  0.46115194524E+02  0.49028211072E+03  0.59637039090E+03  0.12699999809E+01 0. -1.
       -4    1    3    3    0  502 -0.33638203130E+03 -0.46115194524E+02 -0.49717630204E+03  0.60205096990E+03  0.12699999809E+01 0.  1.
</event>
<event>
 5   0  0.5108045E-03  0.1160003E+04  0.7818609E-02  0.9148604E-01
        2   -1    0    0  501    0  0.00000000000E+00  0.00000000000E+00  0.58286984866E+03  0.58286984866E+03  0.25500000920E-02 0. -1.
       -2   -1    0    0    0  501  0.00000000000E+00  0.00000000000E+00 -0.57714765632E+03  0.57714765632E+03  0.25500000920E-02 0.  1.
    10030    2    1    2    0    0  0.00000000000E+00  0.00000000000E+00  0.57221923367E+01  0.11600175050E+04  0.11600033915E+04 0.  0.
        3    1    3    3  502    0 -0.19923387544E+03 -0.45002977055E+03 -0.30403190988E+03  0.57849489533E+03  0.10100000352E+00 0.  1.
       -3    1    3    3    0  502  0.19923387544E+03  0.45002977055E+03  0.30975410221E+03  0.58152260965E+03  0.10100000352E+00 0. -1.
</event>
<event>
 5   0  0.2792518E-03  0.1198689E+04  0.7818609E-02  0.9114005E-01
       -1   -1    0    0    0  501  0.00000000000E+00  0.00000000000E+00  0.17748884907E+03  0.17748884914E+03  0.50400001928E-02 0.  1.
        1   -1    0    0  501    0  0.00000000000E+00  0.00000000000E+00 -0.20238679431E+04  0.20238679431E+04  0.50400001928E-02 0. -1.
    10030    2    1    2    0    0  0.00000000000E+00  0.00000000000E+00 -0.18463790940E+04  0.22013567922E+04  0.11986892708E+04 0.  0.
        2    1    3    3  502    0 -0.22917004735E+03 -0.11340351464E+03 -0.19186760560E+04  0.19356386738E+04  0.25500000920E-02 0. -1.
       -2    1    3    3    0  502  0.22917004735E+03  0.11340351464E+03  0.72296961973E+02  0.26571811841E+03  0.25500000920E-02 0.  1.
</event>
<event>
 5   0  0.5003526E-03  0.1181985E+04  0.7818609E-02  0.9128772E-01
       -2   -1    0    0    0  501  0.00000000000E+00  0.00000000000E+00  0.28296260107E+03  0.28296260108E+03  0.25500000920E-02 0. -1.
        2   -1    0    0  501    0  0.00000000000E+00  0.00000000000E+00 -0.12343410265E+04  0.12343410265E+04  0.25500000920E-02 0.  1.
    10030    2    1    2    0    0  0.00000000000E+00  0.00000000000E+00 -0.95137842541E+03  0.15173036276E+04  0.11819853594E+04 0.  0.
        2    1    3    3  502    0  0.17547432838E+03  0.49224955289E+03 -0.82997734984E+03  0.98079725911E+03  0.25500000920E-02 0. -1.
       -2    1    3    3    0  502 -0.17547432838E+03 -0.49224955289E+03 -0.12140107557E+03  0.53650636846E+03  0.25500000920E-02 0.  1.
</event>
<event>
 5   0  0.2938349E-03  0.1193475E+04  0.7818609E-02  0.9118588E-01
        1   -1    0    0  501    0  0.00000000000E+00  0.00000000000E+00  0.12897204337E+04  0.12897204337E+04  0.50400001928E-02 0. -1.
       -1   -1    0    0    0  501  0.00000000000E+00  0.00000000000E+00 -0.27610274305E+03  0.27610274310E+03  0.50400001928E-02 0.  1.
    10030    2    1    2    0    0  0.00000000000E+00  0.00000000000E+00  0.10136176906E+04  0.15658231768E+04  0.11934745067E+04 0.  0.
        4    1    3    3  502    0 -0.47188991564E+03 -0.35974795982E+03  0.58973483357E+03  0.83659277663E+03  0.12699999809E+01 0.  1.
       -4    1    3    3    0  502  0.47188991564E+03  0.35974795982E+03  0.42388285703E+03  0.72923040012E+03  0.12699999809E+01 0. -1.
</event>
<event>
 5   0  0.2938349E-03  0.1226747E+04  0.7818609E-02  0.9089762E-01
        1   -1    0    0  501    0  0.00000000000E+00  0.00000000000E+00  0.40561928864E+03  0.40561928867E+03  0.50400001928E-02 0.  1.
       -1   -1    0    0    0  501  0.00000000000E+00  0.00000000000E+00 -0.92753759752E+03  0.92753759754E+03  0.50400001928E-02 0. -1.
    10030    2    1    2    0    0  0.00000000000E+00  0.00000000000E+00 -0.52191830888E+03  0.13331568862E+04  0.12267471468E+04 0.  0.
        4    1    3    3  502    0 -0.27862327082E+03 -0.44452341567E+03  0.84401602415E+02  0.53137297401E+03  0.12699999809E+01 0.  1.
       -4    1    3    3    0  502  0.27862327082E+03  0.44452341567E+03 -0.60631991130E+03  0.80178391220E+03  0.12699999809E+01 0. -1.
</event>
<event>
 5   0  0.5189537E-03  0.1208807E+04  0.7818609E-02  0.9105183E-01
       -2   -1    0    0    0  501  0.00000000000E+00  0.00000000000E+00  0.74274173205E+03  0.74274173205E+03  0.25500000920E-02 0.  1.
        2   -1    0    0  501    0  0.00000000000E+00  0.00000000000E+00 -0.49183122834E+03  0.49183122834E+03  0.25500000920E-02 0. -1.
    10030    2    1    2    0    0  0.00000000000E+00  0.00000000000E+00  0.25091050371E+03  0.12345729604E+04  0.12088069795E+04 0.  0.
        4    1    3    3  502    0 -0.33368783367E+03 -0.19504284504E+01 -0.38922133932E+03  0.51268532102E+03  0.12699999809E+01 0. -1.
       -4    1    3    3    0  502  0.33368783367E+03  0.19504284504E+01  0.64013184304E+03  0.72188763937E+03  0.12699999809E+01 0.  1.
</event>
<event>
 5   0  0.2930868E-03  0.1197556E+04  0.7818609E-02  0.9114998E-01
       -1   -1    0    0    0  501  0.00000000000E+00  0.00000000000E+00  0.26354432504E+03  0.26354432509E+03  0.50400001928E-02 0.  1.
        1   -1    0    0  501    0  0.00000000000E+00  0.00000000000E+00 -0.13604367257E+04  0.13604367257E+04  0.50400001928E-02 0. -1.
    10030    2    1    2    0    0  0.00000000000E+00  0.00000000000E+00 -0.10968924007E+04  0.16239810508E+04  0.11975564766E+04 0.  0.
        3    1    3    3  502    0  0.43649451766E+02  0.54373278663E+03 -0.21356128955E+03  0.58579779147E+03  0.10100000352E+00 0.  1.
       -3    1    3    3    0  502 -0.43649451766E+02 -0.54373278663E+03 -0.88333111112E+03  0.10381832593E+04  0.10100000352E+00 0. -1.
</event>
<event>
 5   0  0.2792518E-03  0.1438868E+04  0.7818609E-02  0.8926155E-01
        1   -1    0    0  501    0  0.00000000000E+00  0.00000000000E+00  0.68818931883E+03  0.68818931885E+03  0.50400001928E-02 0. -1.
       -1   -1    0    0    0  501  0.00000000000E+00  0.00000000000E+00 -0.75209692221E+03  0.75209692223E+03  0.50400001928E-02 0.  1.
    10030    2    1    2    0    0  0.00000000000E+00  0.00000000000E+00 -0.63907603381E+02  0.14402862411E+04  0.14388677057E+04 0.  0.
        2    1    3    3  502    0  0.64465331582E+03 -0.20656264871E+03  0.21188241777E+03  0.70932375147E+03  0.25500000920E-02 0. -1.
       -2    1    3    3    0  502 -0.64465331582E+03  0.20656264871E+03 -0.27579002115E+03  0.73096248960E+03  0.25500000920E-02 0.  1.
</event>
<event>
 5   0  0.5108045E-03  0.1240475E+04  0.7818609E-02  0.9078148E-01
        2   -1    0    0  501    0  0.00000000000E+00  0.00000000000E+00  0.29760845727E+03  0.29760845728E+03  0.25500000920E-02 0.  1.
       -2   -1    0    0    0  501  0.00000000000E+00  0.00000000000E+00 -0.12926198641E+04  0.12926198641E+04  0.25500000920E-02 0. -1.
    10030    2    1    2    0    0  0.00000000000E+00  0.00000000000E+00 -0.99501140681E+03  0.15902283214E+04  0.12404750761E+04 0.  0.
        3    1    3    3  502    0  0.52289060565E+03 -0.23788344178E+03 -0.19770595550E+03  0.60752841283E+03  0.10100000352E+00 0. -1.
       -3    1    3    3    0  502 -0.52289060565E+03  0.23788344178E+03 -0.79730545131E+03  0.98269990854E+03  0.10100000352E+00 0.  1.
</event>
<event>
 5   0  0.5108045E-03  0.1206789E+04  0.7818609E-02  0.9106935E-01
       -2   -1    0    0    0  501  0.00000000000E+00  0.00000000000E+00  0.39787477018E+03  0.39787477019E+03  0.25500000920E-02 0. -1.
        2   -1    0    0  501    0  0.00000000000E+00  0.00000000000E+00 -0.91507415749E+03  0.91507415749E+03  0.25500000920E-02 0.  1.
    10030    2    1    2    0    0  0.00000000000E+00  0.00000000000E+00 -0.51719938731E+03  0.13129489277E+04  0.12067889958E+04 0.  0.
        3    1    3    3  502    0  0.20270855849E+03  0.56612347825E+03 -0.31298026833E+03  0.67789616526E+03  0.10100000352E+00 0.  1.
       -3    1    3    3    0  502 -0.20270855849E+03 -0.56612347825E+03 -0.20421911898E+03  0.63505276243E+03  0.10100000352E+00 0. -1.
</event>
<event>
 5   0  0.5189537E-03  0.1218171E+04  0.7818609E-02  0.9097098E-01
       -2   -1    0    0    0  501  0.00000000000E+00  0.00000000000E+00  0.19188053491E+03  0.19188053493E+03  0.25500000920E-02 0.  1.
        2   -1    0    0  501    0  0.00000000000E+00  0.00000000000E+00 -0.19334180318E+04  0.19334180318E+04  0.25500000920E-02 0. -1.
    10030    2    1    2    0    0  0.00000000000E+00  0.00000000000E+00 -0.17415374969E+04  0.21252985667E+04  0.12181712296E+04 0.  0.
        4    1    3    3  502    0 -0.48654976887E+03  0.11261326534E+03 -0.14790816801E+04  0.15611203202E+04  0.12699999809E+01 0. -1.
       -4    1    3    3    0  502  0.48654976887E+03 -0.11261326534E+03 -0.26245581685E+03  0.56417824649E+03  0.12699999809E+01 0.  1.
</event>
<event>
 5   0  0.2875848E-03  0.1067408E+04  0.7818609E-02  0.9237554E-01
       -1   -1    0    0    0  501  0.00000000000E+00  0.00000000000E+00  0.33979729929E+03  0.33979729933E+03  0.50400001928E-02 0. -1.
        1   -1    0    0  501    0  0.00000000000E+00  0.00000000000E+00 -0.83826385741E+03  0.83826385742E+03  0.50400001928E-02 0.  1.
    10030    2    1    2    0    0  0.00000000000E+00  0.00000000000E+00 -0.49846655812E+03  0.11780611567E+04  0.10674076913E+04 0.  0.
        1    1    3    3  502    0  0.47915305294E+03 -0.68068349312E+01  0.10083080743E+02  0.47930746885E+03  0.50400001928E-02 0. -1.
       -1    1    3    3    0  502 -0.47915305294E+03  0.68068349312E+01 -0.50854963886E+03  0.69875368790E+03  0.50400001928E-02 0.  1.
</event>
<event>
 5   0  0.5189537E-03  0.1173755E+04  0.7818609E-02  0.9136144E-01
       -2   -1    0    0    0  501  0.00000000000E+00  0.00000000000E+00  0.51202033709E+03  0.51202033709E+03  0.25500000920E-02 0.  1.
        2   -1    0    0  501    0  0.00000000000E+00  0.00000000000E+00 -0.67267863222E+03  0.67267863223E+03  0.25500000920E-02 0. -1.
    10030    2    1    2    0    0  0.00000000000E+00  0.00000000000E+00 -0.16065829513E+03  0.11846989693E+04  0.11737548978E+04 0.  0.
        4    1    3    3  502    0  0.23658064850E+03 -0.53520322672E+03 -0.12558728444E+03  0.59848698904E+03  0.12699999809E+01 0. -1.
       -4    1    3    3    0  502 -0.23658064850E+03  0.53520322672E+03 -0.35071010698E+02  0.58621198028E+03  0.12699999809E+01 0.  1.
</event>
<event>
 5   0  0.2930868E-03  0.1187618E+04  0.7818609E-02  0.9123764E-01
        1   -1    0    0  501    0  0.00000000000E+00  0.00000000000E+00  0.12570480836E+04  0.12570480837E+04  0.50400001928E-02 0. -1.
       -1   -1    0    0    0  501  0.00000000000E+00  0.00000000000E+00 -0.28050556147E+03  0.28050556151E+03  0.50400001928E-02 0.  1.
    10030    2    1    2    0    0  0.00000000000E+00  0.00000000000E+00  0.97654252217E+03  0.15375536452E+04  0.11876177475E+04 0.  0.
        3    1    3    3  502    0 -0.49708928225E+03 -0.25603742333E+03  0.74705970623E+03  0.93314046721E+03  0.10100000352E+00 0. -1.
       -3    1    3    3    0  502  0.49708928225E+03  0.25603742333E+03  0.22948281594E+03  0.60441317795E+03  0.10100000352E+00 0.  1.
</event>
<event>
 5   0  0.5108045E-03  0.1226986E+04  0.7818609E-02  0.9089558E-01
        2   -1    0    0  501    0  0.00000000000E+00  0.00000000000E+00  0.11322037962E+04  0.11322037962E+04  0.25500000920E-02 0. -1.
       -2   -1    0    0    0  501  0.00000000000E+00  0.00000000000E+00 -0.33242578987E+03  0.33242578988E+03  0.25500000920E-02 0.  1.
    10030    2    1    2    0    0  0.00000000000E+00  0.00000000000E+00  0.79977800633E+03  0.14646295861E+04  0.12269861307E+04 0.  0.
        3    1    3    3  502    0 -0.15057280283E+03  0.11927388196E+03 -0.29560316133E+03  0.35253321412E+03  0.10100000352E+00 0.  1.
       -3    1    3    3    0  502  0.15057280283E+03 -0.11927388196E+03  0.10953811677E+04  0.11120963720E+04  0.10100000352E+00 0. -1.
</event>
<event>
 5   0  0.5031575E-03  0.1202253E+04  0.7818609E-02  0.9110887E-01
        2   -1    0    0  501    0  0.00000000000E+00  0.00000000000E+00  0.91582571961E+03  0.91582571961E+03  0.25500000920E-02 0.  1.
       -2   -1    0    0    0  501  0.00000000000E+00  0.00000000000E+00 -0.39456529022E+03  0.39456529022E+03  0.25500000920E-02 0. -1.
    10030    2    1    2    0    0  0.00000000000E+00  0.00000000000E+00  0.52126042939E+03  0.13103910098E+04  0.12022529532E+04 0.  0.
        5    1    3    3  502    0  0.10256071023E+03  0.48432120910E+03 -0.11098424174E+03  0.50737099324E+03  0.46999998093E+01 0. -1.
       -5    1    3    3    0  502 -0.10256071023E+03 -0.48432120910E+03  0.63224467113E+03  0.80302001659E+03  0.46999998093E+01 0.  1.
</event>
<event>
 5   0  0.2875848E-03  0.1192758E+04  0.7818609E-02  0.9119219E-01
       -1   -1    0    0    0  501  0.00000000000E+00  0.00000000000E+00  0.39941716181E+03  0.39941716184E+03  0.50400001928E-02 0.  1.
        1   -1    0    0  501    0  0.00000000000E+00  0.00000000000E+00 -0.89046775728E+03  0.89046775729E+03  0.50400001928E-02 0. -1.
    10030    2    1    2    0    0  0.00000000000E+00  0.00000000000E+00 -0.49105059547E+03  0.12898849191E+04  0.11927583231E+04 0.  0.
        1    1    3    3  502    0 -0.41962697361E+03  0.22257246972E+03 -0.63550470104E+03  0.79340502035E+03  0.50400001928E-02 0.  1.
       -1    1    3    3    0  502  0.41962697361E+03 -0.22257246972E+03  0.14445410557E+03  0.49647989878E+03  0.50400001928E-02 0. -1.
</event>
<event>
 5   0  0.2875848E-03  0.1148347E+04  0.7818609E-02  0.9159310E-01
       -1   -1    0    0    0  501  0.00000000000E+00  0.00000000000E+00  0.11110822739E+04  0.11110822739E+04  0.50400001928E-02 0. -1.
        1   -1    0    0  501    0  0.00000000000E+00  0.00000000000E+00 -0.29671543352E+03  0.29671543356E+03  0.50400001928E-02 0.  1.
    10030    2    1    2    0    0  0.00000000000E+00  0.00000000000E+00  0.81436684041E+03  0.14077977075E+04  0.11483470880E+04 0.  0.
        1    1    3    3  502    0 -0.18295897278E+03  0.18040355240E+03  0.10366689781E+04  0.10680365151E+04  0.50400001928E-02 0. -1.
       -1    1    3    3    0  502  0.18295897278E+03 -0.18040355240E+03 -0.22230213766E+03  0.33976119242E+03  0.50400001928E-02 0.  1.
</event>
<event>
 5   0  0.5467554E-03  0.1175373E+04  0.7818609E-02  0.9134690E-01
        2   -1    0    0  501    0  0.00000000000E+00  0.00000000000E+00  0.42697413439E+03  0.42697413439E+03  0.25500000920E-02 0. -1.
       -2   -1    0    0    0  501  0.00000000000E+00  0.00000000000E+00 -0.80889045917E+03  0.80889045917E+03  0.25500000920E-02 0.  1.
    10030    2    1    2    0    0  0.00000000000E+00  0.00000000000E+00 -0.38191632478E+03  0.12358645936E+04  0.11753727981E+04 0.  0.
        1    1    3    3  502    0 -0.20800811002E+02  0.47005127618E+02 -0.80652229922E+03  0.80815863228E+03  0.50400001928E-02 0.  1.
       -1    1    3    3    0  502  0.20800811002E+02 -0.47005127618E+02  0.42460597444E+03  0.42770596128E+03  0.50400001928E-02 0. -1.
</event>
<event>
 5   0  0.2938349E-03  0.1210732E+04  0.7818609E-02  0.9103514E-01
       -1   -1    0    0    0  501  0.00000000000E+00  0.00000000000E+00  0.47050880243E+03  0.47050880245E+03  0.50400001928E-02 0.  1.
        1   -1    0    0  501    0  0.00000000000E+00  0.00000000000E+00 -0.77887641969E+03  0.77887641971E+03  0.50400001928E-02 0. -1.
    10030    2    1    2    0    0  0.00000000000E+00  0.00000000000E+00 -0.30836761726E+03  0.12493852222E+04  0.12107323593E+04 0.  0.
        4    1    3    3  502    0 -0.98245399734E+02  0.21564538674E+02 -0.77019164540E+03  0.77673288294E+03  0.12699999809E+01 0. -1.
       -4    1    3    3    0  502  0.98245399734E+02 -0.21564538674E+02  0.46182402814E+03  0.47265233921E+03  0.12699999809E+01 0.  1.
</event>
<event>
 5   0  0.5031575E-03  0.1216188E+04  0.7818609E-02  0.9098804E-01
       -2   -1    0    0    0  501  0.00000000000E+00  0.00000000000E+00  0.67070967205E+03  0.67070967205E+03  0.25500000920E-02 0. -1.
        2   -1    0    0  501    0  0.00000000000E+00  0.00000000000E+00 -0.55132427413E+03  0.55132427414E+03  0.25500000920E-02 0.  1.
    10030    2    1    2    0    0  0.00000000000E+00  0.00000000000E+00  0.11938539791E+03  0.12220339462E+04  0.12161883458E+04 0.  0.
        5    1    3    3  502    0 -0.41204163366E+03  0.40725755024E+03  0.24529493673E+03  0.62914920017E+03  0.46999998093E+01 0. -1.
       -5    1    3    3    0  502  0.41204163366E+03 -0.40725755024E+03 -0.12590953882E+03  0.59288474602E+03  0.46999998093E+01 0.  1.
</event>
<event>
 5   0  0.2792518E-03  0.1182798E+04  0.7818609E-02  0.9128048E-01
        1   -1    0    0  501    0  0.00000000000E+00  0.00000000000E+00  0.42766209083E+03  0.42766209086E+03  0.50400001928E-02 0. -1.
       -1   -1    0    0    0  501  0.00000000000E+00  0.00000000000E+00 -0.81782523060E+03  0.81782523062E+03  0.50400001928E-02 0.  1.
    10030    2    1    2    0    0  0.00000000000E+00  0.00000000000E+00 -0.39016313977E+03  0.12454873215E+04  0.11827981199E+04 0.  0.
        2    1    3    3  502    0 -0.23185393256E+03 -0.10130430211E+03  0.36779047076E+03  0.44641756020E+03  0.25500000920E-02 0. -1.
       -2    1    3    3    0  502  0.23185393256E+03  0.10130430211E+03 -0.75795361053E+03  0.79906976128E+03  0.25500000920E-02 0.  1.
</event>
<event>
 5   0  0.2926844E-03  0.1199574E+04  0.7818609E-02  0.9113230E-01
       -1   -1    0    0    0  501  0.00000000000E+00  0.00000000000E+00  0.93279558436E+03  0.93279558437E+03  0.50400001928E-02 0. -1.
        1   -1    0    0  501    0  0.00000000000E+00  0.00000000000E+00 -0.38566264476E+03  0.38566264479E+03  0.50400001928E-02 0.  1.
    10030    2    1    2    0    0  0.00000000000E+00  0.00000000000E+00  0.54713293960E+03  0.13184582292E+04  0.11995739446E+04 0.  0.
        5    1    3    3  502    0 -0.25365417024E+03  0.81632249776E+02 -0.31701025427E+03  0.41415196920E+03  0.46999998093E+01 0.  1.
       -5    1    3    3    0  502  0.25365417024E+03 -0.81632249776E+02  0.86414319388E+03  0.90430625996E+03  0.46999998093E+01 0. -1.
</event>
<event>
 5   0  0.2875848E-03  0.1174546E+04  0.7818609E-02  0.9135433E-01
        1   -1    0    0  501    0  0.00000000000E+00  0.00000000000E+00  0.68025568626E+03  0.68025568628E+03  0.50400001928E-02 0.  1.
       -1   -1    0    0    0  501  0.00000000000E+00  0.00000000000E+00 -0.50699958354E+03  0.50699958356E+03  0.50400001928E-02 0. -1.
    10030    2    1    2    0    0  0.00000000000E+00  0.00000000000E+00  0.17325610272E+03  0.11872552698E+04  0.11745456137E+04 0.  0.
        1    1    3    3  502    0 -0.19295664960E+03  0.92296860171E+01 -0.47396478279E+03  0.51182035040E+03  0.50400001928E-02 0. -1.
       -1    1    3    3    0  502  0.19295664960E+03 -0.92296860171E+01  0.64722088552E+03  0.67543491945E+03  0.50400001928E-02 0.  1.
</event>
<event>
 5   0  0.5031575E-03  0.1421683E+04  0.7818609E-02  0.8938271E-01
       -2   -1    0    0    0  501  0.00000000000E+00  0.00000000000E+00  0.72129464923E+03  0.72129464924E+03  0.25500000920E-02 0. -1.
        2   -1    0    0  501    0  0.00000000000E+00  0.00000000000E+00 -0.70053954067E+03  0.70053954068E+03  0.25500000920E-02 0.  1.
    10030    2    1    2    0    0  0.00000000000E+00  0.00000000000E+00  0.20755108562E+02  0.14218341899E+04  0.14216826963E+04 0.  0.
        5    1    3    3  502    0  0.20583414994E+03 -0.20648479168E+03  0.65872872293E+03  0.72038134824E+03  0.46999998093E+01 0. -1.
       -5    1    3    3    0  502 -0.20583414994E+03  0.20648479168E+03 -0.63797361437E+03  0.70145284168E+03  0.46999998093E+01 0.  1.
</event>
<event>
 5   0  0.2792518E-03  0.1157236E+04  0.7818609E-02  0.9151134E-01
        1   -1    0    0  501    0  0.00000000000E+00  0.00000000000E+00  0.20757758625E+04  0.20757758625E+04  0.50400001928E-02 0. -1.
       -1   -1    0    0    0  501  0.00000000000E+00  0.00000000000E+00 -0.16128858933E+03  0.16128858941E+03  0.50400001928E-02 0.  1.
    10030    2    1    2    0    0  0.00000000000E+00  0.00000000000E+00  0.19144872732E+04  0.22370644519E+04  0.11572362952E+04 0.  0.
        2    1    3    3  502    0  0.34505657459E+03 -0.28050954098E+03  0.16728841037E+04  0.17309797418E+04  0.25500000920E-02 0. -1.
       -2    1    3    3    0  502 -0.34505657459E+03  0.28050954098E+03  0.24160316945E+03  0.50608471005E+03  0.25500000920E-02 0.  1.
</event>
<event>
 5   0  0.2930868E-03  0.1187662E+04  0.7818609E-02  0.9123725E-01
       -1   -1    0    0    0  501  0.00000000000E+00  0.00000000000E+00  0.21811509494E+03  0.21811509500E+03  0.50400001928E-02 0.  1.
        1   -1    0    0  501    0  0.00000000000E+00  0.00000000000E+00 -0.16167392000E+04  0.16167392000E+04  0.50400001928E-02 0. -1.
    10030    2    1    2    0    0  0.00000000000E+00  0.00000000000E+00 -0.13986241051E+04  0.18348542950E+04  0.11876619455E+04 0.  0.
        3    1    3    3  502    0  0.28140227022E+03  0.36515264587E+03 -0.12776020310E+04  0.13582307066E+04  0.10100000352E+00 0.  1.
       -3    1    3    3    0  502 -0.28140227022E+03 -0.36515264587E+03 -0.12102207411E+03  0.47662358848E+03  0.10100000352E+00 0. -1.
</event>
<event>
 5   0  0.5031575E-03  0.1196169E+04  0.7818609E-02  0.9116217E-01
        2   -1    0    0  501    0  0.00000000000E+00  0.00000000000E+00  0.43665985649E+03  0.43665985650E+03  0.25500000920E-02 0.  1.
       -2   -1    0    0    0  501  0.00000000000E+00  0.00000000000E+00 -0.81918412944E+03  0.81918412944E+03  0.25500000920E-02 0. -1.
    10030    2    1    2    0    0  0.00000000000E+00  0.00000000000E+00 -0.38252427294E+03  0.12558439859E+04  0.11961685908E+04 0.  0.
        5    1    3    3  502    0 -0.36172343298E+03 -0.36639302588E+03  0.12821307378E+03  0.53061132071E+03  0.46999998093E+01 0.  1.
       -5    1    3    3    0  502  0.36172343298E+03  0.36639302588E+03 -0.51073734673E+03  0.72523266523E+03  0.46999998093E+01 0. -1.
</event>
<event>
 5   0  0.1922125E-03  0.1197353E+04  0.7818609E-02  0.9115177E-01
        4   -1    0    0  501    0  0.00000000000E+00  0.00000000000E+00  0.11648623047E+04  0.11648629970E+04  0.12699999809E+01 0.  1.
       -4   -1    0    0    0  501  0.00000000000E+00  0.00000000000E+00 -0.30768537954E+03  0.30768800055E+03  0.12699999809E+01 0. -1.
    10030    2    1    2    0    0  0.00000000000E+00  0.00000000000E+00  0.85717692514E+03  0.14725509975E+04  0.11973529803E+04 0.  0.
        2    1    3    3  502    0  0.11362145695E+03 -0.54551593261E+03  0.15937997546E+03  0.57956832626E+03  0.25500000920E-02 0. -1.
       -2    1    3    3    0  502 -0.11362145695E+03  0.54551593261E+03  0.69779694969E+03  0.89298267129E+03  0.25500000920E-02 0.  1.
</event>
<event>
 5   0  0.5467554E-03  0.1175183E+04  0.7818609E-02  0.9134860E-01
       -2   -1    0    0    0  501  0.00000000000E+00  0.00000000000E+00  0.23201498066E+03  0.23201498068E+03  0.25500000920E-02 0.  1.
        2   -1    0    0  501    0  0.00000000000E+00  0.00000000000E+00 -0.14881106117E+04  0.14881106117E+04  0.25500000920E-02 0. -1.
    10030    2    1    2    0    0  0.00000000000E+00  0.00000000000E+00 -0.12560956310E+04  0.17201255924E+04  0.11751833130E+04 0.  0.
        1    1    3    3  502    0 -0.32619184431E+03 -0.45686813384E+03 -0.88213655023E+03  0.10456072419E+04  0.50400001928E-02 0. -1.
       -1    1    3    3    0  502  0.32619184431E+03  0.45686813384E+03 -0.37395908082E+03  0.67451835050E+03  0.50400001928E-02 0.  1.
</event>
<event>
 5   0  0.2938349E-03  0.1147645E+04  0.7818609E-02  0.9159959E-01
        1   -1    0    0  501    0  0.00000000000E+00  0.00000000000E+00  0.45520721031E+03  0.45520721033E+03  0.50400001928E-02 0. -1.
       -1   -1    0    0    0  501  0.00000000000E+00  0.00000000000E+00 -0.72334529312E+03  0.72334529314E+03  0.50400001928E-02 0.  1.
    10030    2    1    2    0    0  0.00000000000E+00  0.00000000000E+00 -0.26813808282E+03  0.11785525035E+04  0.11476445321E+04 0.  0.
        4    1    3    3  502    0  0.49618986841E+03 -0.28774679937E+03 -0.15087354830E+03  0.59309952499E+03  0.12699999809E+01 0.  1.
       -4    1    3    3    0  502 -0.49618986841E+03  0.28774679937E+03 -0.11726453452E+03  0.58545297849E+03  0.12699999809E+01 0. -1.
</event>
<event>
 5   0  0.2926844E-03  0.1208751E+04  0.7818609E-02  0.9105231E-01
        1   -1    0    0  501    0  0.00000000000E+00  0.00000000000E+00  0.57720052343E+03  0.57720052346E+03  0.50400001928E-02 0. -1.
       -1   -1    0    0    0  501  0.00000000000E+00  0.00000000000E+00 -0.63282994054E+03  0.63282994056E+03  0.50400001928E-02 0.  1.
    10030    2    1    2    0    0  0.00000000000E+00  0.00000000000E+00 -0.55629417111E+02  0.12100304640E+04  0.12087510462E+04 0.  0.
        5    1    3    3  502    0 -0.82685368465E+02  0.54664195135E+03 -0.27219067164E+03  0.61625006682E+03  0.46999998093E+01 0. -1.
       -5    1    3    3    0  502  0.82685368465E+02 -0.54664195135E+03  0.21656125453E+03  0.59378039720E+03  0.46999998093E+01 0.  1.
</event>
<event>
 5   0  0.2930868E-03  0.1603065E+04  0.7818609E-02  0.8818667E-01
       -1   -1    0    0    0  501  0.00000000000E+00  0.00000000000E+00  0.47373389523E+03  0.47373389526E+03  0.50400001928E-02 0. -1.
        1   -1    0    0  501    0  0.00000000000E+00  0.00000000000E+00 -0.13561503143E+04  0.13561503143E+04  0.50400001928E-02 0.  1.
    10030    2    1    2    0    0  0.00000000000E+00  0.00000000000E+00 -0.88241641904E+03  0.18298842095E+04  0.16030650279E+04 0.  0.
        3    1    3    3  502    0  0.10838434463E+03  0.57190911746E+03 -0.10701968115E+04  0.12182563073E+04  0.10100000352E+00 0.  1.
       -3    1    3    3    0  502 -0.10838434463E+03 -0.57190911746E+03  0.18778039244E+03  0.61162790223E+03  0.10100000352E+00 0. -1.
</event>
<event>
 5   0  0.5003526E-03  0.1066083E+04  0.7818609E-02  0.9238895E-01
       -2   -1    0    0    0  501  0.00000000000E+00  0.00000000000E+00  0.47949260980E+03  0.47949260981E+03  0.25500000920E-02 0. -1.
        2   -1    0    0  501    0  0.00000000000E+00  0.00000000000E+00 -0.59257065786E+03  0.59257065787E+03  0.25500000920E-02 0.  1.
    10030    2    1    2    0    0  0.00000000000E+00  0.00000000000E+00 -0.11307804806E+03  0.10720632677E+04  0.10660830197E+04 0.  0.
        2    1    3    3  502    0 -0.14195060654E+03 -0.49433038151E+03 -0.19739886605E+03  0.55088911144E+03  0.25500000920E-02 0.  1.
       -2    1    3    3    0  502  0.14195060654E+03  0.49433038151E+03  0.84320817988E+02  0.52117415624E+03  0.25500000920E-02 0. -1.
</event>
<event>
 5   0  0.2930868E-03  0.1187468E+04  0.7818609E-02  0.9123897E-01
       -1   -1    0    0    0  501  0.00000000000E+00  0.00000000000E+00  0.79839108234E+03  0.79839108236E+03  0.50400001928E-02 0. -1.
        1   -1    0    0  501    0  0.00000000000E+00  0.00000000000E+00 -0.44153829712E+03  0.44153829715E+03  0.50400001928E-02 0.  1.
    10030    2    1    2    0    0  0.00000000000E+00  0.00000000000E+00  0.35685278523E+03  0.12399293795E+04  0.11874682968E+04 0.  0.
        3    1    3    3  502    0 -0.84713631155E+02 -0.55882432841E+03  0.36828097905E+03  0.67460500966E+03  0.10100000352E+00 0.  1.
       -3    1    3    3    0  502  0.84713631155E+02  0.55882432841E+03 -0.11428193823E+02  0.56532436985E+03  0.10100000352E+00 0. -1.
</event>
<event>
 5   0  0.2792518E-03  0.1194205E+04  0.7818609E-02  0.9117944E-01
       -1   -1    0    0    0  501  0.00000000000E+00  0.00000000000E+00  0.23197617159E+03  0.23197617164E+03  0.50400001928E-02 0.  1.
        1   -1    0    0  501    0  0.00000000000E+00  0.00000000000E+00 -0.15369310586E+04  0.15369310586E+04  0.50400001928E-02 0. -1.
    10030    2    1    2    0    0  0.00000000000E+00  0.00000000000E+00 -0.13049548870E+04  0.17689072302E+04  0.11942049791E+04 0.  0.
        2    1    3    3  502    0  0.15431521342E+03  0.12883261456E+03  0.18034498058E+03  0.27006543595E+03  0.25500000920E-02 0.  1.
       -2    1    3    3    0  502 -0.15431521342E+03 -0.12883261456E+03 -0.14852998676E+04  0.14988417943E+04  0.25500000920E-02 0. -1.
</event>
<event>
 5   0  0.2938349E-03  0.1140927E+04  0.7818609E-02  0.9166195E-01
        1   -1    0    0  501    0  0.00000000000E+00  0.00000000000E+00  0.11736921136E+04  0.11736921137E+04  0.50400001928E-02 0. -1.
       -1   -1    0    0    0  501  0.00000000000E+00  0.00000000000E+00 -0.27726899500E+03  0.27726899504E+03  0.50400001928E-02 0.  1.
    10030    2    1    2    0    0  0.00000000000E+00  0.00000000000E+00  0.89642311864E+03  0.14509611087E+04  0.11409266985E+04 0.  0.
        4    1    3    3  502    0  0.39043754294E+03 -0.19970189903E+01 -0.80717805400E+02  0.39870094060E+03  0.12699999809E+01 0.  1.
       -4    1    3    3    0  502 -0.39043754294E+03  0.19970189903E+01  0.97714092404E+03  0.10522601681E+04  0.12699999809E+01 0. -1.
</event>
<event>
 5   0  0.5108045E-03  0.1150091E+04  0.7818609E-02  0.9157700E-01
       -2   -1    0    0    0  501  0.00000000000E+00  0.00000000000E+00  0.24433322763E+03  0.24433322764E+03  0.25500000920E-02 0.  1.
        2   -1    0    0  501    0  0.00000000000E+00  0.00000000000E+00 -0.13533863900E+04  0.13533863900E+04  0.25500000920E-02 0. -1.
    10030    2    1    2    0    0  0.00000000000E+00  0.00000000000E+00 -0.11090531623E+04  0.15977196176E+04  0.11500908919E+04 0.  0.
        3    1    3    3  502    0 -0.18317278264E+03 -0.38984231476E+03 -0.25260739581E+02  0.43147122018E+03  0.10100000352E+00 0.  1.
       -3    1    3    3    0  502  0.18317278264E+03  0.38984231476E+03 -0.10837924227E+04  0.11662483974E+04  0.10100000352E+00 0. -1.
</event>
<event>
 5   0  0.5108045E-03  0.1209675E+04  0.7818609E-02  0.9104430E-01
        2   -1    0    0  501    0  0.00000000000E+00  0.00000000000E+00  0.93442758504E+03  0.93442758504E+03  0.25500000920E-02 0.  1.
       -2   -1    0    0    0  501  0.00000000000E+00  0.00000000000E+00 -0.39150005566E+03  0.39150005566E+03  0.25500000920E-02 0. -1.
    10030    2    1    2    0    0  0.00000000000E+00  0.00000000000E+00  0.54292752938E+03  0.13259276407E+04  0.12096750829E+04 0.  0.
        3    1    3    3  502    0  0.46821994130E+03  0.36350937433E+03  0.13966019681E+03  0.60899421954E+03  0.10100000352E+00 0.  1.
       -3    1    3    3    0  502 -0.46821994130E+03 -0.36350937433E+03  0.40326733257E+03  0.71693342116E+03  0.10100000352E+00 0. -1.
</event>
<event>
 5   0  0.2792518E-03  0.1192168E+04  0.7818609E-02  0.9119740E-01
        1   -1    0    0  501    0  0.00000000000E+00  0.00000000000E+00  0.45330256745E+03  0.45330256747E+03  0.50400001928E-02 0.  1.
       -1   -1    0    0    0  501  0.00000000000E+00  0.00000000000E+00 -0.78383871601E+03  0.78383871602E+03  0.50400001928E-02 0. -1.
    10030    2    1    2    0    0  0.00000000000E+00  0.00000000000E+00 -0.33053614856E+03  0.12371412835E+04  0.11921679453E+04 0.  0.
        2    1    3    3  502    0 -0.99535551736E+02 -0.29480457703E+03 -0.69287601656E+03  0.75953554165E+03  0.25500000920E-02 0. -1.
       -2    1    3    3    0  502  0.99535551736E+02  0.29480457703E+03  0.36233986800E+03  0.47760574185E+03  0.25500000920E-02 0.  1.
</event>
<event>
 5   0  0.1922125E-03  0.1216716E+04  0.7818609E-02  0.9098350E-01
        3   -1    0    0  501    0  0.00000000000E+00  0.00000000000E+00  0.69161259812E+03  0.69161260550E+03  0.10100000352E+00 0.  1.
       -3   -1    0    0    0  501  0.00000000000E+00  0.00000000000E+00 -0.53512529826E+03  0.53512530779E+03  0.10100000352E+00 0. -1.
    10030    2    1    2    0    0  0.00000000000E+00  0.00000000000E+00  0.15648729986E+03  0.12267379133E+04  0.12167159212E+04 0.  0.
        5    1    3    3  502    0 -0.27165494123E+03  0.22834147458E+03  0.57641991151E+03  0.67691819335E+03  0.46999998093E+01 0.  1.
       -5    1    3    3    0  502  0.27165494123E+03 -0.22834147458E+03 -0.41993261165E+03  0.54981971994E+03  0.46999998093E+01 0. -1.
</event>
<event>
 5   0  0.2926844E-03  0.1156111E+04  0.7818609E-02  0.9152165E-01
       -1   -1    0    0    0  501  0.00000000000E+00  0.00000000000E+00  0.33999122882E+03  0.33999122886E+03  0.50400001928E-02 0. -1.
        1   -1    0    0  501    0  0.00000000000E+00  0.00000000000E+00 -0.98281371525E+03  0.98281371527E+03  0.50400001928E-02 0.  1.
    10030    2    1    2    0    0  0.00000000000E+00  0.00000000000E+00 -0.64282248643E+03  0.13228049441E+04  0.11561107954E+04 0.  0.
        5    1    3    3  502    0 -0.53330387541E+03 -0.15964164057E+03 -0.14331677185E+03  0.57485673347E+03  0.46999998093E+01 0. -1.
       -5    1    3    3    0  502  0.53330387541E+03  0.15964164057E+03 -0.49950571458E+03  0.74794821065E+03  0.46999998093E+01 0.  1.
</event>
<event>
 5   0  0.5031575E-03  0.1207602E+04  0.7818609E-02  0.9106228E-01
        2   -1    0    0  501    0  0.00000000000E+00  0.00000000000E+00  0.66437376241E+03  0.66437376242E+03  0.25500000920E-02 0.  1.
       -2   -1    0    0    0  501  0.00000000000E+00  0.00000000000E+00 -0.54875114536E+03  0.54875114537E+03  0.25500000920E-02 0. -1.
    10030    2    1    2    0    0  0.00000000000E+00  0.00000000000E+00  0.11562261705E+03  0.12131249078E+04  0.12076023569E+04 0.  0.
        5    1    3    3  502    0 -0.41911570239E+03  0.28392640369E+03 -0.27275523498E+03  0.57505624326E+03  0.46999998093E+01 0. -1.
       -5    1    3    3    0  502  0.41911570239E+03 -0.28392640369E+03  0.38837785204E+03  0.63806866453E+03  0.46999998093E+01 0.  1.
</event>
<event>
 5   0  0.5108045E-03  0.1095130E+04  0.7818609E-02  0.9209951E-01
        2   -1    0    0  501    0  0.00000000000E+00  0.00000000000E+00  0.89404245386E+03  0.89404245386E+03  0.25500000920E-02 0. -1.
       -2   -1    0    0    0  501  0.00000000000E+00  0.00000000000E+00 -0.33536161208E+03  0.33536161209E+03  0.25500000920E-02 0.  1.
    10030    2    1    2    0    0  0.00000000000E+00  0.00000000000E+00  0.55868084178E+03  0.12294040659E+04  0.10951301632E+04 0.  0.
        3    1    3    3  502    0 -0.18167007707E+03  0.45757943577E+02 -0.29826364231E+03  0.35222012553E+03  0.10100000352E+00 0.  1.
       -3    1    3    3    0  502  0.18167007707E+03 -0.45757943577E+02  0.85694448409E+03  0.87718394041E+03  0.10100000352E+00 0. -1.
</event>
<event>
 5   0  0.1922125E-03  0.1185630E+04  0.7818609E-02  0.9125528E-01
       -3   -1    0    0    0  501  0.00000000000E+00  0.00000000000E+00  0.82316569473E+03  0.82316570092E+03  0.10100000352E+00 0. -1.
        3   -1    0    0  501    0  0.00000000000E+00  0.00000000000E+00 -0.42692462937E+03  0.42692464131E+03  0.10100000352E+00 0.  1.
    10030    2    1    2    0    0  0.00000000000E+00  0.00000000000E+00  0.39624106536E+03  0.12500903422E+04  0.11856301623E+04 0.  0.
        4    1    3    3  502    0 -0.33614928860E+03  0.71870358010E+02  0.70735555953E+03  0.78645736889E+03  0.12699999809E+01 0.  1.
       -4    1    3    3    0  502  0.33614928860E+03 -0.71870358010E+02 -0.31111449417E+03  0.46363297334E+03  0.12699999809E+01 0. -1.
</event>
<event>
 5   0  0.2938349E-03  0.1196571E+04  0.7818609E-02  0.9115863E-01
        1   -1    0    0  501    0  0.00000000000E+00  0.00000000000E+00  0.13483558065E+04  0.13483558065E+04  0.50400001928E-02 0.  1.
       -1   -1    0    0    0  501  0.00000000000E+00  0.00000000000E+00 -0.26546827012E+03  0.26546827017E+03  0.50400001928E-02 0. -1.
    10030    2    1    2    0    0  0.00000000000E+00  0.00000000000E+00  0.10828875364E+04  0.16138240767E+04  0.11965712407E+04 0.  0.
        4    1    3    3  502    0  0.21062689935E+02 -0.59605788628E+03  0.47796234758E+03  0.76431554956E+03  0.12699999809E+01 0.  1.
       -4    1    3    3    0  502 -0.21062689935E+02  0.59605788628E+03  0.60492518879E+03  0.84950852711E+03  0.12699999809E+01 0. -1.
</event>
<event>
 5   0  0.5189537E-03  0.1214252E+04  0.7818609E-02  0.9100472E-01
       -2   -1    0    0    0  501  0.00000000000E+00  0.00000000000E+00  0.44422164420E+03  0.44422164421E+03  0.25500000920E-02 0. -1.
        2   -1    0    0  501    0  0.00000000000E+00  0.00000000000E+00 -0.82977103812E+03  0.82977103812E+03  0.25500000920E-02 0.  1.
    10030    2    1    2    0    0  0.00000000000E+00  0.00000000000E+00 -0.38554939392E+03  0.12739926823E+04  0.12142524529E+04 0.  0.
        4    1    3    3  502    0  0.34658920944E+03  0.41180536652E+03  0.10192311384E+03  0.54781171403E+03  0.12699999809E+01 0. -1.
       -4    1    3    3    0  502 -0.34658920944E+03 -0.41180536652E+03 -0.48747250775E+03  0.72618096830E+03  0.12699999809E+01 0.  1.
</event>
<event>
 5   0  0.5108045E-03  0.1177781E+04  0.7818609E-02  0.9132531E-01
        2   -1    0    0  501    0  0.00000000000E+00  0.00000000000E+00  0.14320504599E+04  0.14320504599E+04  0.25500000920E-02 0.  1.
       -2   -1    0    0    0  501  0.00000000000E+00  0.00000000000E+00 -0.24216446173E+03  0.24216446175E+03  0.25500000920E-02 0. -1.
    10030    2    1    2    0    0  0.00000000000E+00  0.00000000000E+00  0.11898859981E+04  0.16742149216E+04  0.11777805038E+04 0.  0.
        3    1    3    3  502    0  0.51062623146E+02 -0.56927926444E+03  0.79650269996E+03  0.98035852301E+03  0.10100000352E+00 0.  1.
       -3    1    3    3    0  502 -0.51062623146E+02  0.56927926444E+03  0.39338329818E+03  0.69385639861E+03  0.10100000352E+00 0. -1.
</event>
<event>
 5   0  0.5031575E-03  0.1200606E+04  0.7818609E-02  0.9112327E-01
       -2   -1    0    0    0  501  0.00000000000E+00  0.00000000000E+00  0.32143727687E+03  0.32143727688E+03  0.25500000920E-02 0.  1.
        2   -1    0    0  501    0  0.00000000000E+00  0.00000000000E+00 -0.11211004201E+04  0.11211004201E+04  0.25500000920E-02 0. -1.
    10030    2    1    2    0    0  0.00000000000E+00  0.00000000000E+00 -0.79966314325E+03  0.14425376970E+04  0.12006056241E+04 0.  0.
        5    1    3    3  502    0  0.26961229807E+03 -0.20350552879E+03 -0.99604622571E+03  0.10517772888E+04  0.46999998093E+01 0. -1.
       -5    1    3    3    0  502 -0.26961229807E+03  0.20350552879E+03  0.19638308247E+03  0.39076040818E+03  0.46999998093E+01 0.  1.
</event>
<event>
 5   0  0.5031575E-03  0.1204470E+04  0.7818609E-02  0.9108953E-01
       -2   -1    0    0    0  501  0.00000000000E+00  0.00000000000E+00  0.55141431502E+03  0.55141431503E+03  0.25500000920E-02 0. -1.
        2   -1    0    0  501    0  0.00000000000E+00  0.00000000000E+00 -0.65773901060E+03  0.65773901061E+03  0.25500000920E-02 0.  1.
    10030    2    1    2    0    0  0.00000000000E+00  0.00000000000E+00 -0.10632469558E+03  0.12091533256E+04  0.12044695198E+04 0.  0.
        5    1    3    3  502    0 -0.11586023511E+03 -0.48046551391E+03  0.29225985202E+03  0.57420259076E+03  0.46999998093E+01 0. -1.
       -5    1    3    3    0  502  0.11586023511E+03  0.48046551391E+03 -0.39858454760E+03  0.63495073488E+03  0.46999998093E+01 0.  1.
</event>
<event>
 5   0  0.5031575E-03  0.1198950E+04  0.7818609E-02  0.9113776E-01
        2   -1    0    0  501    0  0.00000000000E+00  0.00000000000E+00  0.68498988106E+03  0.68498988107E+03  0.25500000920E-02 0. -1.
       -2   -1    0    0    0  501  0.00000000000E+00  0.00000000000E+00 -0.52463628982E+03  0.52463628982E+03  0.25500000920E-02 0.  1.
    10030    2    1    2    0    0  0.00000000000E+00  0.00000000000E+00  0.16035359125E+03  0.12096261709E+04  0.11989504573E+04 0.  0.
        5    1    3    3  502    0 -0.61661173398E+02  0.45174771107E+03 -0.31248059190E+03  0.55276062185E+03  0.46999998093E+01 0.  1.
       -5    1    3    3    0  502  0.61661173398E+02 -0.45174771107E+03  0.47283418315E+03  0.65686554904E+03  0.46999998093E+01 0. -1.
</event>
<event>
 5   0  0.2926844E-03  0.1209902E+04  0.7818609E-02  0.9104233E-01
       -1   -1    0    0    0  501  0.00000000000E+00  0.00000000000E+00  0.40877090872E+03  0.40877090875E+03  0.50400001928E-02 0. -1.
        1   -1    0    0  501    0  0.00000000000E+00  0.00000000000E+00 -0.89528339568E+03  0.89528339570E+03  0.50400001928E-02 0.  1.
    10030    2    1    2    0    0  0.00000000000E+00  0.00000000000E+00 -0.48651248696E+03  0.13040543044E+04  0.12099021568E+04 0.  0.
        5    1    3    3  502    0  0.37104313158E+03  0.46523720847E+03 -0.36046146190E+03  0.69575370725E+03  0.46999998093E+01 0.  1.
       -5    1    3    3    0  502 -0.37104313158E+03 -0.46523720847E+03 -0.12605102506E+03  0.60830059720E+03  0.46999998093E+01 0. -1.
</event>
<event>
 5   0  0.5467554E-03  0.1222877E+04  0.7818609E-02  0.9093064E-01
        2   -1    0    0  501    0  0.00000000000E+00  0.00000000000E+00  0.11015868412E+04  0.11015868412E+04  0.25500000920E-02 0. -1.
       -2   -1    0    0    0  501  0.00000000000E+00  0.00000000000E+00 -0.33938065965E+03  0.33938065966E+03  0.25500000920E-02 0.  1.
    10030    2    1    2    0    0  0.00000000000E+00  0.00000000000E+00  0.76220618159E+03  0.14409675009E+04  0.12228773754E+04 0.  0.
        1    1    3    3  502    0  0.89144772270E+02  0.52929927495E+03  0.72616364779E+03  0.90300506991E+03  0.50400001928E-02 0. -1.
       -1    1    3    3    0  502 -0.89144772270E+02 -0.52929927495E+03  0.36042533805E+02  0.53796243099E+03  0.50400001928E-02 0.  1.
</event>
<event>
 5   0  0.2792518E-03  0.1193399E+04  0.7818609E-02  0.9118654E-01
        1   -1    0    0  501    0  0.00000000000E+00  0.00000000000E+00  0.97891890967E+03  0.97891890969E+03  0.50400001928E-02 0. -1.
       -1   -1    0    0    0  501  0.00000000000E+00  0.00000000000E+00 -0.36371806232E+03  0.36371806235E+03  0.50400001928E-02 0.  1.
    10030    2    1    2    0    0  0.00000000000E+00  0.00000000000E+00  0.61520084736E+03  0.13426369720E+04  0.11933993280E+04 0.  0.
        2    1    3    3  502    0 -0.23392811479E+03 -0.35317915534E+03 -0.16517955454E+03  0.45468908487E+03  0.25500000920E-02 0.  1.
       -2    1    3    3    0  502  0.23392811479E+03  0.35317915534E+03  0.78038040190E+03  0.88794788717E+03  0.25500000920E-02 0. -1.
</event>
<event>
 5   0  0.2792518E-03  0.1164713E+04  0.7818609E-02  0.9144316E-01
        1   -1    0    0  501    0  0.00000000000E+00  0.00000000000E+00  0.86778670728E+03  0.86778670730E+03  0.50400001928E-02 0. -1.
       -1   -1    0    0    0  501  0.00000000000E+00  0.00000000000E+00 -0.39080952785E+03  0.39080952788E+03  0.50400001928E-02 0.  1.
    10030    2    1    2    0    0  0.00000000000E+00  0.00000000000E+00  0.47697717943E+03  0.12585962352E+04  0.11647133783E+04 0.  0.
        2    1    3    3  502    0 -0.51655760395E+03 -0.26360065687E+03  0.18108156771E+03  0.60754226081E+03  0.25500000920E-02 0.  1.
       -2    1    3    3    0  502  0.51655760395E+03  0.26360065687E+03  0.29589561172E+03  0.65105397437E+03  0.25500000920E-02 0. -1.
</event>
<event>
 5   0  0.2930868E-03  0.1269589E+04  0.7818609E-02  0.9054035E-01
       -1   -1    0    0    0  501  0.00000000000E+00  0.00000000000E+00  0.47562662024E+03  0.47562662027E+03  0.50400001928E-02 0. -1.
        1   -1    0    0  501    0  0.00000000000E+00  0.00000000000E+00 -0.84722830706E+03  0.84722830707E+03  0.50400001928E-02 0.  1.
    10030    2    1    2    0    0  0.00000000000E+00  0.00000000000E+00 -0.37160168681E+03  0.13228549273E+04  0.12695894396E+04 0.  0.
        3    1    3    3  502    0  0.45347143243E+03 -0.78742979288E+02 -0.64132408551E+03  0.78938798425E+03  0.10100000352E+00 0.  1.
       -3    1    3    3    0  502 -0.45347143243E+03  0.78742979288E+02  0.26972239870E+03  0.53346694310E+03  0.10100000352E+00 0. -1.
</event>
<event>
 5   0  0.5467554E-03  0.1201030E+04  0.7818609E-02  0.9111955E-01
       -2   -1    0    0    0  501  0.00000000000E+00  0.00000000000E+00  0.50730124255E+03  0.50730124256E+03  0.25500000920E-02 0. -1.
        2   -1    0    0  501    0  0.00000000000E+00  0.00000000000E+00 -0.71085651885E+03  0.71085651886E+03  0.25500000920E-02 0.  1.
    10030    2    1    2    0    0  0.00000000000E+00  0.00000000000E+00 -0.20355527630E+03  0.12181577614E+04  0.12010302166E+04 0.  0.
        1    1    3    3  502    0 -0.30285994715E+03 -0.51333901613E+03 -0.17615346807E+03  0.62150714993E+03  0.50400001928E-02 0.  1.
       -1    1    3    3    0  502  0.30285994715E+03  0.51333901613E+03 -0.27401808229E+02  0.59665061149E+03  0.50400001928E-02 0. -1.
</event>
<event>
 5   0  0.2938349E-03  0.1194529E+04  0.7818609E-02  0.9117659E-01
       -1   -1    0    0    0  501  0.00000000000E+00  0.00000000000E+00  0.49970595512E+03  0.49970595514E+03  0.50400001928E-02 0.  1.
        1   -1    0    0  501    0  0.00000000000E+00  0.00000000000E+00 -0.71386920836E+03  0.71386920837E+03  0.50400001928E-02 0. -1.
    10030    2    1    2    0    0  0.00000000000E+00  0.00000000000E+00 -0.21416325324E+03  0.12135751635E+04  0.11945286847E+04 0.  0.
        4    1    3    3  502    0  0.78142959759E+02  0.73445375821E+02 -0.70400648656E+03  0.71212870424E+03  0.12699999809E+01 0. -1.
       -4    1    3    3    0  502 -0.78142959759E+02 -0.73445375821E+02  0.48984323332E+03  0.50144645927E+03  0.12699999809E+01 0.  1.
</event>
<event>
 5   0  0.2938349E-03  0.1230391E+04  0.7818609E-02  0.9086664E-01
        1   -1    0    0  501    0  0.00000000000E+00  0.00000000000E+00  0.83627155920E+03  0.83627155921E+03  0.50400001928E-02 0.  1.
       -1   -1    0    0    0  501  0.00000000000E+00  0.00000000000E+00 -0.45256289528E+03  0.45256289531E+03  0.50400001928E-02 0. -1.
    10030    2    1    2    0    0  0.00000000000E+00  0.00000000000E+00  0.38370866392E+03  0.12888344545E+04  0.12303909592E+04 0.  0.
        4    1    3    3  502    0 -0.39455402226E+03  0.47022060655E+03  0.23483464574E+03  0.65721322190E+03  0.12699999809E+01 0. -1.
       -4    1    3    3    0  502  0.39455402226E+03 -0.47022060655E+03  0.14887401818E+03  0.63162123262E+03  0.12699999809E+01 0.  1.
</event>
<event>
 5   0  0.2926844E-03  0.1260848E+04  0.7818609E-02  0.9061202E-01
       -1   -1    0    0    0  501  0.00000000000E+00  0.00000000000E+00  0.13110034062E+04  0.13110034062E+04  0.50400001928E-02 0.  1.
        1   -1    0    0  501    0  0.00000000000E+00  0.00000000000E+00 -0.30315308756E+03  0.30315308760E+03  0.50400001928E-02 0. -1.
    10030    2    1    2    0    0  0.00000000000E+00  0.00000000000E+00  0.10078503187E+04  0.16141564938E+04  0.12608484928E+04 0.  0.
        5    1    3    3  502    0 -0.54285087481E+03 -0.14933030115E+03  0.86698737020E+03  0.10337677695E+04  0.46999998093E+01 0.  1.
       -5    1    3    3    0  502  0.54285087481E+03  0.14933030115E+03  0.14086294848E+03  0.58038872437E+03  0.46999998093E+01 0. -1.
</event>
<event>
 5   0  0.5003526E-03  0.1200592E+04  0.7818609E-02  0.9112338E-01
        2   -1    0    0  501    0  0.00000000000E+00  0.00000000000E+00  0.83604327638E+03  0.83604327639E+03  0.25500000920E-02 0. -1.
       -2   -1    0    0    0  501  0.00000000000E+00  0.00000000000E+00 -0.43102481348E+03  0.43102481349E+03  0.25500000920E-02 0.  1.
    10030    2    1    2    0    0  0.00000000000E+00  0.00000000000E+00  0.40501846290E+03  0.12670680899E+04  0.12005921827E+04 0.  0.
        2    1    3    3  502    0  0.14060197548E+02  0.31396865562E+03 -0.33725967741E+03  0.46099685018E+03  0.25500000920E-02 0.  1.
       -2    1    3    3    0  502 -0.14060197548E+02 -0.31396865562E+03  0.74227814031E+03  0.80607123969E+03  0.25500000920E-02 0. -1.
</event>
<event>
 5   0  0.5189537E-03  0.1198133E+04  0.7818609E-02  0.9114492E-01
       -2   -1    0    0    0  501  0.00000000000E+00  0.00000000000E+00  0.11939198122E+04  0.11939198122E+04  0.25500000920E-02 0. -1.
        2   -1    0    0  501    0  0.00000000000E+00  0.00000000000E+00 -0.30059047002E+03  0.30059047003E+03  0.25500000920E-02 0.  1.
    10030    2    1    2    0    0  0.00000000000E+00  0.00000000000E+00  0.89332934217E+03  0.14945102822E+04  0.11981334108E+04 0.  0.
        4    1    3    3  502    0 -0.44148218904E+03 -0.17349031846E+03  0.90306050468E+03  0.10200614206E+04  0.12699999809E+01 0.  1.
       -4    1    3    3    0  502  0.44148218904E+03  0.17349031846E+03 -0.97311625111E+01  0.47444886159E+03  0.12699999809E+01 0. -1.
</event>
<event>
 5   0  0.5031575E-03  0.8256664E+03  0.7818609E-02  0.9523592E-01
        2   -1    0    0  501    0  0.00000000000E+00  0.00000000000E+00  0.15613964480E+04  0.15613964480E+04  0.25500000920E-02 0. -1.
       -2   -1    0    0    0  501  0.00000000000E+00  0.00000000000E+00 -0.10915308944E+03  0.10915308947E+03  0.25500000920E-02 0.  1.
    10030    2    1    2    0    0  0.00000000000E+00  0.00000000000E+00  0.14522433586E+04  0.16705495375E+04  0.82566638823E+03 0.  0.
        5    1    3    3  502    0 -0.54107676997E+02 -0.15280691866E+02  0.15535592569E+04  0.15545834152E+04  0.46999998093E+01 0. -1.
       -5    1    3    3    0  502  0.54107676997E+02  0.15280691866E+02 -0.10131589833E+03  0.11596612223E+03  0.46999998093E+01 0.  1.
</event>
<event>
 5   0  0.5108045E-03  0.1236094E+04  0.7818609E-02  0.9081838E-01
       -2   -1    0    0    0  501  0.00000000000E+00  0.00000000000E+00  0.22449014987E+03  0.22449014988E+03  0.25500000920E-02 0.  1.
        2   -1    0    0  501    0  0.00000000000E+00  0.00000000000E+00 -0.17015527456E+04  0.17015527456E+04  0.25500000920E-02 0. -1.
    10030    2    1    2    0    0  0.00000000000E+00  0.00000000000E+00 -0.14770625957E+04  0.19260428955E+04  0.12360935739E+04 0.  0.
        3    1    3    3  502    0 -0.34227145050E+03  0.45214373414E+03 -0.11214673993E+04  0.12566912270E+04  0.10100000352E+00 0. -1.
       -3    1    3    3    0  502  0.34227145050E+03 -0.45214373414E+03 -0.35559519640E+03  0.66935166845E+03  0.10100000352E+00 0.  1.
</event>
<event>
 5   0  0.5031575E-03  0.1196383E+04  0.7818609E-02  0.9116028E-01
        2   -1    0    0  501    0  0.00000000000E+00  0.00000000000E+00  0.90643987747E+03  0.90643987748E+03  0.25500000920E-02 0.  1.
       -2   -1    0    0    0  501  0.00000000000E+00  0.00000000000E+00 -0.39476772287E+03  0.39476772288E+03  0.25500000920E-02 0. -1.
    10030    2    1    2    0    0  0.00000000000E+00  0.00000000000E+00  0.51167215460E+03  0.13012076004E+04  0.11963832268E+04 0.  0.
        5    1    3    3  502    0  0.15357909561E+03 -0.39238361996E+03 -0.20593376329E+03  0.46902265263E+03  0.46999998093E+01 0. -1.
       -5    1    3    3    0  502 -0.15357909561E+03  0.39238361996E+03  0.71760591789E+03  0.83218494772E+03  0.46999998093E+01 0.  1.
</event>
<event>
 5   0  0.5003526E-03  0.1171735E+04  0.7818609E-02  0.9137963E-01
        2   -1    0    0  501    0  0.00000000000E+00  0.00000000000E+00  0.17101457334E+04  0.17101457334E+04  0.25500000920E-02 0.  1.
       -2   -1    0    0    0  501  0.00000000000E+00  0.00000000000E+00 -0.20070840062E+03  0.20070840063E+03  0.25500000920E-02 0. -1.
    10030    2    1    2    0    0  0.00000000000E+00  0.00000000000E+00  0.15094373328E+04  0.19108541340E+04  0.11717348079E+04 0.  0.
        2    1    3    3  502    0  0.17141593114E+03  0.15314787919E+03  0.16335361629E+04  0.16496296826E+04  0.25500000920E-02 0.  1.
       -2    1    3    3    0  502 -0.17141593114E+03 -0.15314787919E+03 -0.12409883013E+03  0.26122445137E+03  0.25500000920E-02 0. -1.
</event>
<event>
 5   0  0.2875848E-03  0.1168140E+04  0.7818609E-02  0.9141210E-01
        1   -1    0    0  501    0  0.00000000000E+00  0.00000000000E+00  0.67524163708E+03  0.67524163710E+03  0.50400001928E-02 0. -1.
       -1   -1    0    0    0  501  0.00000000000E+00  0.00000000000E+00 -0.50520828226E+03  0.50520828229E+03  0.50400001928E-02 0.  1.
    10030    2    1    2    0    0  0.00000000000E+00  0.00000000000E+00  0.17003335482E+03  0.11804499194E+04  0.11681398334E+04 0.  0.
        1    1    3    3  502    0 -0.18262561516E+03 -0.55472773022E+03  0.93018301933E+02  0.59137752283E+03  0.50400001928E-02 0.  1.
       -1    1    3    3    0  502  0.18262561516E+03  0.55472773022E+03  0.77015052886E+02  0.58907239656E+03  0.50400001928E-02 0. -1.
</event>
<event>
 5   0  0.2938349E-03  0.1222993E+04  0.7818609E-02  0.9092965E-01
       -1   -1    0    0    0  501  0.00000000000E+00  0.00000000000E+00  0.59567299342E+03  0.59567299344E+03  0.50400001928E-02 0.  1.
        1   -1    0    0  501    0  0.00000000000E+00  0.00000000000E+00 -0.62774055256E+03  0.62774055258E+03  0.50400001928E-02 0. -1.
    10030    2    1    2    0    0  0.00000000000E+00  0.00000000000E+00 -0.32067559140E+02  0.12234135460E+04  0.12229932037E+04 0.  0.
        4    1    3    3  502    0  0.30114903774E+03 -0.48650561103E+03  0.19979029518E+03  0.60604969058E+03  0.12699999809E+01 0.  1.
       -4    1    3    3    0  502 -0.30114903774E+03  0.48650561103E+03 -0.23185785432E+03  0.61736385545E+03  0.12699999809E+01 0. -1.
</event>
<event>
 5   0  0.5189537E-03  0.1200107E+04  0.7818609E-02  0.9112763E-01
       -2   -1    0    0    0  501  0.00000000000E+00  0.00000000000E+00  0.19601137689E+03  0.19601137690E+03  0.25500000920E-02 0. -1.
        2   -1    0    0  501    0  0.00000000000E+00  0.00000000000E+00 -0.18369551327E+04  0.18369551327E+04  0.25500000920E-02 0.  1.
    10030    2    1    2    0    0  0.00000000000E+00  0.00000000000E+00 -0.16409437558E+04  0.20329665096E+04  0.12001068367E+04 0.  0.
        4    1    3    3  502    0  0.33094417412E+03  0.24774548986E+03 -0.15572312624E+04  0.16111712173E+04  0.12699999809E+01 0.  1.
       -4    1    3    3    0  502 -0.33094417412E+03 -0.24774548986E+03 -0.83712493441E+02  0.42179529228E+03  0.12699999809E+01 0. -1.
</event>
<event>
 5   0  0.5189537E-03  0.1215537E+04  0.7818609E-02  0.9099365E-01
        2   -1    0    0  501    0  0.00000000000E+00  0.00000000000E+00  0.21794521068E+04  0.21794521068E+04  0.25500000920E-02 0.  1.
       -2   -1    0    0    0  501  0.00000000000E+00  0.00000000000E+00 -0.16948417882E+03  0.16948417884E+03  0.25500000920E-02 0. -1.
    10030    2    1    2    0    0  0.00000000000E+00  0.00000000000E+00  0.20099679280E+04  0.23489362856E+04  0.12155371662E+04 0.  0.
        4    1    3    3  502    0 -0.26166257800E+02  0.21982076593E+03  0.20987701561E+04  0.21104131404E+04  0.12699999809E+01 0.  1.
       -4    1    3    3    0  502  0.26166257800E+02 -0.21982076593E+03 -0.88802228133E+02  0.23852314522E+03  0.12699999809E+01 0. -1.
</event>
<event>
 5   0  0.2792518E-03  0.1197914E+04  0.7818609E-02  0.9114685E-01
        1   -1    0    0  501    0  0.00000000000E+00  0.00000000000E+00  0.47745015784E+03  0.47745015787E+03  0.50400001928E-02 0. -1.
       -1   -1    0    0    0  501  0.00000000000E+00  0.00000000000E+00 -0.75138570024E+03  0.75138570026E+03  0.50400001928E-02 0.  1.
    10030    2    1    2    0    0  0.00000000000E+00  0.00000000000E+00 -0.27393554240E+03  0.12288358581E+04  0.11979135548E+04 0.  0.
        2    1    3    3  502    0 -0.23401143870E+03  0.17731711903E+03 -0.67250381620E+03  0.73380112902E+03  0.25500000920E-02 0.  1.
       -2    1    3    3    0  502  0.23401143870E+03 -0.17731711903E+03  0.39856827380E+03  0.49503472911E+03  0.25500000920E-02 0. -1.
</event>
<event>
 5   0  0.2792518E-03  0.1192898E+04  0.7818609E-02  0.9119095E-01
       -1   -1    0    0    0  501  0.00000000000E+00  0.00000000000E+00  0.38421867763E+03  0.38421867766E+03  0.50400001928E-02 0.  1.
        1   -1    0    0  501    0  0.00000000000E+00  0.00000000000E+00 -0.92590940052E+03  0.92590940053E+03  0.50400001928E-02 0. -1.
    10030    2    1    2    0    0  0.00000000000E+00  0.00000000000E+00 -0.54169072288E+03  0.13101280782E+04  0.11928984626E+04 0.  0.
        2    1    3    3  502    0 -0.48390077252E+03 -0.11709613138E+03  0.89883752498E+02  0.50591555679E+03  0.25500000920E-02 0.  1.
       -2    1    3    3    0  502  0.48390077252E+03  0.11709613138E+03 -0.63157447538E+03  0.80421252141E+03  0.25500000920E-02 0. -1.
</event>
<event>
 5   0  0.5003526E-03  0.1237551E+04  0.7818609E-02  0.9080609E-01
        2   -1    0    0  501    0  0.00000000000E+00  0.00000000000E+00  0.11522837369E+04  0.11522837369E+04  0.25500000920E-02 0.  1.
       -2   -1    0    0    0  501  0.00000000000E+00  0.00000000000E+00 -0.33228174052E+03  0.33228174053E+03  0.25500000920E-02 0. -1.
    10030    2    1    2    0    0  0.00000000000E+00  0.00000000000E+00  0.82000199641E+03  0.14845654775E+04  0.12375505577E+04 0.  0.
        2    1    3    3  502    0 -0.24937489625E+03 -0.35314790131E+03  0.94106152188E+03  0.10356148256E+04  0.25500000920E-02 0.  1.
       -2    1    3    3    0  502  0.24937489625E+03  0.35314790131E+03 -0.12105952547E+03  0.44895065184E+03  0.25500000920E-02 0. -1.
</event>
<event>
 5   0  0.5108045E-03  0.1077453E+04  0.7818609E-02  0.9227451E-01
       -2   -1    0    0    0  501  0.00000000000E+00  0.00000000000E+00  0.31781377114E+03  0.31781377115E+03  0.25500000920E-02 0.  1.
        2   -1    0    0  501    0  0.00000000000E+00  0.00000000000E+00 -0.91319593622E+03  0.91319593623E+03  0.25500000920E-02 0. -1.
    10030    2    1    2    0    0  0.00000000000E+00  0.00000000000E+00 -0.59538216508E+03  0.12310097074E+04  0.10774530046E+04 0.  0.
        3    1    3    3  502    0 -0.44281833674E+02 -0.18136444180E+03 -0.87505551809E+03  0.89474918915E+03  0.10100000352E+00 0. -1.
       -3    1    3    3    0  502  0.44281833674E+02  0.18136444180E+03  0.27967335300E+03  0.33626051823E+03  0.10100000352E+00 0.  1.
</event>
<event>
 5   0  0.5003526E-03  0.1197524E+04  0.7818609E-02  0.9115027E-01
        2   -1    0    0  501    0  0.00000000000E+00  0.00000000000E+00  0.14622745773E+04  0.14622745773E+04  0.25500000920E-02 0. -1.
       -2   -1    0    0    0  501  0.00000000000E+00  0.00000000000E+00 -0.24517672053E+03  0.24517672055E+03  0.25500000920E-02 0.  1.
    10030    2    1    2    0    0  0.00000000000E+00  0.00000000000E+00  0.12170978568E+04  0.17074512979E+04  0.11975235871E+04 0.  0.
        2    1    3    3  502    0  0.47149174462E+03  0.25659796843E+03  0.98677722876E+03  0.11233326675E+04  0.25500000920E-02 0. -1.
       -2    1    3    3    0  502 -0.47149174462E+03 -0.25659796843E+03  0.23032062803E+03  0.58411863038E+03  0.25500000920E-02 0.  1.
</event>
<event>
 5   0  0.5467554E-03  0.1211734E+04  0.7818609E-02  0.9102647E-01
       -2   -1    0    0    0  501  0.00000000000E+00  0.00000000000E+00  0.19291030744E+03  0.19291030745E+03  0.25500000920E-02 0.  1.
        2   -1    0    0  501    0  0.00000000000E+00  0.00000000000E+00 -0.19028258560E+04  0.19028258560E+04  0.25500000920E-02 0. -1.
    10030    2    1    2    0    0  0.00000000000E+00  0.00000000000E+00 -0.17099155486E+04  0.20957361635E+04  0.12117338337E+04 0.  0.
        1    1    3    3  502    0  0.15995879200E+03  0.39438081967E+03 -0.16007698663E+04  0.16563777380E+04  0.50400001928E-02 0. -1.
       -1    1    3    3    0  502 -0.15995879200E+03 -0.39438081967E+03 -0.10914568230E+03  0.43935842549E+03  0.50400001928E-02 0.  1.
</event>
<event>
 5   0  0.2926844E-03  0.1219125E+04  0.7818609E-02  0.9096279E-01
       -1   -1    0    0    0  501  0.00000000000E+00  0.00000000000E+00  0.36557392041E+03  0.36557392044E+03  0.50400001928E-02 0.  1.
        1   -1    0    0  501    0  0.00000000000E+00  0.00000000000E+00 -0.10163916953E+04  0.10163916953E+04  0.50400001928E-02 0. -1.
    10030    2    1    2    0    0  0.00000000000E+00  0.00000000000E+00 -0.65081777488E+03  0.13819656157E+04  0.12191247627E+04 0.  0.
        5    1    3    3  502    0 -0.58266115664E+03  0.86405229789E+02 -0.50314602482E+03  0.77468567786E+03  0.46999998093E+01 0. -1.
       -5    1    3    3    0  502  0.58266115664E+03 -0.86405229789E+02 -0.14767175006E+03  0.60727993789E+03  0.46999998093E+01 0.  1.
</event>
<event>
 5   0  0.5031575E-03  0.1247749E+04  0.7818609E-02  0.9072059E-01
        2   -1    0    0  501    0  0.00000000000E+00  0.00000000000E+00  0.13123606654E+04  0.13123606654E+04  0.25500000920E-02 0.  1.
       -2   -1    0    0    0  501  0.00000000000E+00  0.00000000000E+00 -0.29657945202E+03  0.29657945203E+03  0.25500000920E-02 0. -1.
    10030    2    1    2    0    0  0.00000000000E+00  0.00000000000E+00  0.10157812134E+04  0.16089401174E+04  0.12477487039E+04 0.  0.
        5    1    3    3  502    0 -0.41693844543E+03  0.21556211154E+03  0.10378197937E+04  0.11390332328E+04  0.46999998093E+01 0.  1.
       -5    1    3    3    0  502  0.41693844543E+03 -0.21556211154E+03 -0.22038580321E+02  0.46990688464E+03  0.46999998093E+01 0. -1.
</event>
<event>
 5   0  0.5189537E-03  0.1193738E+04  0.7818609E-02  0.9118355E-01
       -2   -1    0    0    0  501  0.00000000000E+00  0.00000000000E+00  0.17132705658E+03  0.17132705660E+03  0.25500000920E-02 0. -1.
        2   -1    0    0  501    0  0.00000000000E+00  0.00000000000E+00 -0.20793725825E+04  0.20793725825E+04  0.25500000920E-02 0.  1.
    10030    2    1    2    0    0  0.00000000000E+00  0.00000000000E+00 -0.19080455259E+04  0.22506996391E+04  0.11937383032E+04 0.  0.
        4    1    3    3  502    0  0.19242181633E+03  0.77274186675E+02  0.10123007259E+03  0.23075223904E+03  0.12699999809E+01 0. -1.
       -4    1    3    3    0  502 -0.19242181633E+03 -0.77274186675E+02 -0.20092755985E+04  0.20199474001E+04  0.12699999809E+01 0.  1.
</event>
<event>
 5   0  0.5003526E-03  0.1220118E+04  0.7818609E-02  0.9095427E-01
        2   -1    0    0  501    0  0.00000000000E+00  0.00000000000E+00  0.37546479680E+03  0.37546479681E+03  0.25500000920E-02 0. -1.
       -2   -1    0    0    0  501  0.00000000000E+00  0.00000000000E+00 -0.99123009423E+03  0.99123009423E+03  0.25500000920E-02 0.  1.
    10030    2    1    2    0    0  0.00000000000E+00  0.00000000000E+00 -0.61576529743E+03  0.13666948910E+04  0.12201180368E+04 0.  0.
        2    1    3    3  502    0  0.19252113567E+03 -0.54556445904E+03 -0.91065109302E+02  0.58566015810E+03  0.25500000920E-02 0. -1.
       -2    1    3    3    0  502 -0.19252113567E+03  0.54556445904E+03 -0.52470018813E+03  0.78103473295E+03  0.25500000920E-02 0.  1.
</event>
<event>
 5   0  0.2926844E-03  0.1189429E+04  0.7818609E-02  0.9122160E-01
        1   -1    0    0  501    0  0.00000000000E+00  0.00000000000E+00  0.11839341738E+04  0.11839341738E+04  0.50400001928E-02 0. -1.
       -1   -1    0    0    0  501  0.00000000000E+00  0.00000000000E+00 -0.29873712568E+03  0.29873712572E+03  0.50400001928E-02 0.  1.
    10030    2    1    2    0    0  0.00000000000E+00  0.00000000000E+00  0.88519704814E+03  0.14826712996E+04  0.11894285891E+04 0.  0.
        5    1    3    3  502    0 -0.55155693821E+03  0.13036643598E+03  0.21803932833E+03  0.60726740602E+03  0.46999998093E+01 0.  1.
       -5    1    3    3    0  502  0.55155693821E+03 -0.13036643598E+03  0.66715771981E+03  0.87540389353E+03  0.46999998093E+01 0. -1.
</event>
<event>
 5   0  0.2926844E-03  0.1191380E+04  0.7818609E-02  0.9120435E-01
        1   -1    0    0  501    0  0.00000000000E+00  0.00000000000E+00  0.94755541945E+03  0.94755541946E+03  0.50400001928E-02 0.  1.
       -1   -1    0    0    0  501  0.00000000000E+00  0.00000000000E+00 -0.37448643747E+03  0.37448643751E+03  0.50400001928E-02 0. -1.
    10030    2    1    2    0    0  0.00000000000E+00  0.00000000000E+00  0.57306898198E+03  0.13220418570E+04  0.11913801297E+04 0.  0.
        5    1    3    3  502    0  0.21475896671E+03 -0.70502984214E+02 -0.32502747801E+03  0.39592554354E+03  0.46999998093E+01 0. -1.
       -5    1    3    3    0  502 -0.21475896671E+03  0.70502984214E+02  0.89809645999E+03  0.92611631343E+03  0.46999998093E+01 0.  1.
</event>
<event>
 5   0  0.5467554E-03  0.1177626E+04  0.7818609E-02  0.9132669E-01
        2   -1    0    0  501    0  0.00000000000E+00  0.00000000000E+00  0.82102325551E+03  0.82102325551E+03  0.25500000920E-02 0.  1.
       -2   -1    0    0    0  501  0.00000000000E+00  0.00000000000E+00 -0.42227883194E+03  0.42227883195E+03  0.25500000920E-02 0. -1.
    10030    2    1    2    0    0  0.00000000000E+00  0.00000000000E+00  0.39874442356E+03  0.12433020875E+04  0.11776259870E+04 0.  0.
        1    1    3    3  502    0 -0.44967023666E+03 -0.37761652253E+03  0.15331375485E+03  0.60687945037E+03  0.50400001928E-02 0.  1.
       -1    1    3    3    0  502  0.44967023666E+03  0.37761652253E+03  0.24543066872E+03  0.63642263709E+03  0.50400001928E-02 0. -1.
</event>
<event>
 5   0  0.5031575E-03  0.1136120E+04  0.7818609E-02  0.9170685E-01
       -2   -1    0    0    0  501  0.00000000000E+00  0.00000000000E+00  0.33186385802E+03  0.33186385803E+03  0.25500000920E-02 0.  1.
        2   -1    0    0  501    0  0.00000000000E+00  0.00000000000E+00 -0.97236324208E+03  0.97236324208E+03  0.25500000920E-02 0. -1.
    10030    2    1    2    0    0  0.00000000000E+00  0.00000000000E+00 -0.64049938406E+03  0.13042271001E+04  0.11361200939E+04 0.  0.
        5    1    3    3  502    0 -0.45254001670E+03 -0.19333125233E+03  0.54585680611E+01  0.49215985797E+03  0.46999998093E+01 0.  1.
       -5    1    3    3    0  502  0.45254001670E+03  0.19333125233E+03 -0.64595795212E+03  0.81206724213E+03  0.46999998093E+01 0. -1.
</event>
<event>
 5   0  0.5031575E-03  0.1227424E+04  0.7818609E-02  0.9089185E-01
        2   -1    0    0  501    0  0.00000000000E+00  0.00000000000E+00  0.10087535403E+04  0.10087535403E+04  0.25500000920E-02 0. -1.
       -2   -1    0    0    0  501  0.00000000000E+00  0.00000000000E+00 -0.37337415937E+03  0.37337415938E+03  0.25500000920E-02 0.  1.
    10030    2    1    2    0    0  0.00000000000E+00  0.00000000000E+00  0.63537938093E+03  0.13821276997E+04  0.12274241404E+04 0.  0.
        5    1    3    3  502    0  0.40381713452E+03 -0.34863404727E+03  0.65924624133E+03  0.84808117168E+03  0.46999998093E+01 0. -1.
       -5    1    3    3    0  502 -0.40381713452E+03  0.34863404727E+03 -0.23866860401E+02  0.53404652800E+03  0.46999998093E+01 0.  1.
</event>
<event>
 5   0  0.2938349E-03  0.1205474E+04  0.7818609E-02  0.9108078E-01
       -1   -1    0    0    0  501  0.00000000000E+00  0.00000000000E+00  0.61903095613E+03  0.61903095615E+03  0.50400001928E-02 0.  1.
        1   -1    0    0  501    0  0.00000000000E+00  0.00000000000E+00 -0.58687235865E+03  0.58687235867E+03  0.50400001928E-02 0. -1.
    10030    2    1    2    0    0  0.00000000000E+00  0.00000000000E+00  0.32158597488E+02  0.12059033148E+04  0.12054744416E+04 0.  0.
        4    1    3    3  502    0 -0.22176656655E+03  0.20806985187E+03 -0.50450672038E+03  0.58906885599E+03  0.12699999809E+01 0. -1.
       -4    1    3    3    0  502  0.22176656655E+03 -0.20806985187E+03  0.53666531786E+03  0.61683445883E+03  0.12699999809E+01 0.  1.
</event>
<event>
 5   0  0.2938349E-03  0.1244369E+04  0.7818609E-02  0.9074883E-01
       -1   -1    0    0    0  501  0.00000000000E+00  0.00000000000E+00  0.16133152067E+04  0.16133152068E+04  0.50400001928E-02 0. -1.
        1   -1    0    0  501    0  0.00000000000E+00  0.00000000000E+00 -0.23994914449E+03  0.23994914454E+03  0.50400001928E-02 0.  1.
    10030    2    1    2    0    0  0.00000000000E+00  0.00000000000E+00  0.13733660623E+04  0.18532643513E+04  0.12443690830E+04 0.  0.
        4    1    3    3  502    0  0.34955402735E+03 -0.25931080984E+03  0.13488562122E+04  0.14173372246E+04  0.12699999809E+01 0. -1.
       -4    1    3    3    0  502 -0.34955402735E+03  0.25931080984E+03  0.24509850047E+02  0.43592712669E+03  0.12699999809E+01 0.  1.
</event>
<event>
 5   0  0.2792518E-03  0.1179980E+04  0.7818609E-02  0.9130562E-01
       -1   -1    0    0    0  501  0.00000000000E+00  0.00000000000E+00  0.30210822630E+03  0.30210822634E+03  0.50400001928E-02 0.  1.
        1   -1    0    0  501    0  0.00000000000E+00  0.00000000000E+00 -0.11521979520E+04  0.11521979520E+04  0.50400001928E-02 0. -1.
    10030    2    1    2    0    0  0.00000000000E+00  0.00000000000E+00 -0.85008972573E+03  0.14543061784E+04  0.11799804738E+04 0.  0.
        2    1    3    3  502    0 -0.23814045632E+03 -0.45906245421E+03 -0.77503379532E+03  0.93173311506E+03  0.25500000920E-02 0. -1.
       -2    1    3    3    0  502  0.23814045632E+03  0.45906245421E+03 -0.75055930404E+02  0.52257306331E+03  0.25500000920E-02 0.  1.
</event>
<event>
 5   0  0.5467554E-03  0.1186564E+04  0.7818609E-02  0.9124699E-01
       -2   -1    0    0    0  501  0.00000000000E+00  0.00000000000E+00  0.52835730526E+03  0.52835730527E+03  0.25500000920E-02 0.  1.
        2   -1    0    0  501    0  0.00000000000E+00  0.00000000000E+00 -0.66618414363E+03  0.66618414364E+03  0.25500000920E-02 0. -1.
    10030    2    1    2    0    0  0.00000000000E+00  0.00000000000E+00 -0.13782683837E+03  0.11945414489E+04  0.11865635406E+04 0.  0.
        1    1    3    3  502    0 -0.53642121636E+03  0.21842063596E+03  0.60512093661E+02  0.58233753879E+03  0.50400001928E-02 0.  1.
       -1    1    3    3    0  502  0.53642121636E+03 -0.21842063596E+03 -0.19833893203E+03  0.61220391012E+03  0.50400001928E-02 0. -1.
</event>
<event>
 5   0  0.5031575E-03  0.1185074E+04  0.7818609E-02  0.9126022E-01
       -2   -1    0    0    0  501  0.00000000000E+00  0.00000000000E+00  0.61489257668E+03  0.61489257669E+03  0.25500000920E-02 0.  1.
        2   -1    0    0  501    0  0.00000000000E+00  0.00000000000E+00 -0.57099436290E+03  0.57099436290E+03  0.25500000920E-02 0. -1.
    10030    2    1    2    0    0  0.00000000000E+00  0.00000000000E+00  0.43898213785E+02  0.11858869396E+04  0.11850741666E+04 0.  0.
        5    1    3    3  502    0 -0.29072476992E+03 -0.11534088497E+03  0.52553742723E+03  0.61158489927E+03  0.46999998093E+01 0.  1.
       -5    1    3    3    0  502  0.29072476992E+03  0.11534088497E+03 -0.48163921345E+03  0.57430204032E+03  0.46999998093E+01 0. -1.
</event>
<event>
 5   0  0.5108045E-03  0.1015963E+04  0.7818609E-02  0.9291208E-01
       -2   -1    0    0    0  501  0.00000000000E+00  0.00000000000E+00  0.15852441064E+03  0.15852441066E+03  0.25500000920E-02 0.  1.
        2   -1    0    0  501    0  0.00000000000E+00  0.00000000000E+00 -0.16277957459E+04  0.16277957459E+04  0.25500000920E-02 0. -1.
    10030    2    1    2    0    0  0.00000000000E+00  0.00000000000E+00 -0.14692713353E+04  0.17863201566E+04  0.10159633090E+04 0.  0.
        3    1    3    3  502    0 -0.18367304827E+03  0.39940757543E+03 -0.28711581171E+03  0.52506923306E+03  0.10100000352E+00 0.  1.
       -3    1    3    3    0  502  0.18367304827E+03 -0.39940757543E+03 -0.11821555236E+04  0.12612509235E+04  0.10100000352E+00 0. -1.
</event>
<event>
 5   0  0.2938349E-03  0.1174262E+04  0.7818609E-02  0.9135688E-01
       -1   -1    0    0    0  501  0.00000000000E+00  0.00000000000E+00  0.83422534563E+03  0.83422534565E+03  0.50400001928E-02 0. -1.
        1   -1    0    0  501    0  0.00000000000E+00  0.00000000000E+00 -0.41322478395E+03  0.41322478398E+03  0.50400001928E-02 0.  1.
    10030    2    1    2    0    0  0.00000000000E+00  0.00000000000E+00  0.42100056168E+03  0.12474501296E+04  0.11742616203E+04 0.  0.
        4    1    3    3  502    0  0.56469977924E+03  0.54727014773E+02  0.37104913757E+03  0.67790852053E+03  0.12699999809E+01 0. -1.
       -4    1    3    3    0  502 -0.56469977924E+03 -0.54727014773E+02  0.49951424112E+02  0.56954160910E+03  0.12699999809E+01 0.  1.
</event>
<event>
 5   0  0.5467554E-03  0.1194228E+04  0.7818609E-02  0.9117924E-01
        2   -1    0    0  501    0  0.00000000000E+00  0.00000000000E+00  0.58984966540E+03  0.58984966541E+03  0.25500000920E-02 0.  1.
       -2   -1    0    0    0  501  0.00000000000E+00  0.00000000000E+00 -0.60446735987E+03  0.60446735987E+03  0.25500000920E-02 0. -1.
    10030    2    1    2    0    0  0.00000000000E+00  0.00000000000E+00 -0.14617694467E+02  0.11943170253E+04  0.11942275662E+04 0.  0.
        1    1    3    3  502    0 -0.92025660248E+02 -0.34186381462E+03  0.47356527385E+03  0.59127291373E+03  0.50400001928E-02 0.  1.
       -1    1    3    3    0  502  0.92025660248E+02  0.34186381462E+03 -0.48818296832E+03  0.60304411155E+03  0.50400001928E-02 0. -1.
</event>
<event>
 5   0  0.2938349E-03  0.1153369E+04  0.7818609E-02  0.9154681E-01
        1   -1    0    0  501    0  0.00000000000E+00  0.00000000000E+00  0.58655568557E+03  0.58655568559E+03  0.50400001928E-02 0. -1.
       -1   -1    0    0    0  501  0.00000000000E+00  0.00000000000E+00 -0.56697936465E+03  0.56697936468E+03  0.50400001928E-02 0.  1.
    10030    2    1    2    0    0  0.00000000000E+00  0.00000000000E+00  0.19576320916E+02  0.11535350503E+04  0.11533689262E+04 0.  0.
        4    1    3    3  502    0  0.54438526884E+03 -0.50179142753E+02  0.19336320093E+03  0.57988292584E+03  0.12699999809E+01 0.  1.
       -4    1    3    3    0  502 -0.54438526884E+03  0.50179142753E+02 -0.17378688002E+03  0.57365212443E+03  0.12699999809E+01 0. -1.
</event>
<event>
 5   0  0.5108045E-03  0.1206603E+04  0.7818609E-02  0.9107097E-01
       -2   -1    0    0    0  501  0.00000000000E+00  0.00000000000E+00  0.21057545533E+03  0.21057545534E+03  0.25500000920E-02 0. -1.
        2   -1    0    0  501    0  0.00000000000E+00  0.00000000000E+00 -0.17284654959E+04  0.17284654959E+04  0.25500000920E-02 0.  1.
    10030    2    1    2    0    0  0.00000000000E+00  0.00000000000E+00 -0.15178900406E+04  0.19390409512E+04  0.12066025175E+04 0.  0.
        3    1    3    3  502    0 -0.36667582398E+03  0.11430994558E+03 -0.11281762791E+02  0.38424629071E+03  0.10100000352E+00 0. -1.
       -3    1    3    3    0  502  0.36667582398E+03 -0.11430994558E+03 -0.15066082778E+04  0.15547946605E+04  0.10100000352E+00 0.  1.
</event>
<event>
 5   0  0.5189537E-03  0.1203347E+04  0.7818609E-02  0.9109932E-01
        2   -1    0    0  501    0  0.00000000000E+00  0.00000000000E+00  0.11345108329E+04  0.11345108329E+04  0.25500000920E-02 0. -1.
       -2   -1    0    0    0  501  0.00000000000E+00  0.00000000000E+00 -0.31908976425E+03  0.31908976426E+03  0.25500000920E-02 0.  1.
    10030    2    1    2    0    0  0.00000000000E+00  0.00000000000E+00  0.81542106863E+03  0.14536005971E+04  0.12033466570E+04 0.  0.
        4    1    3    3  502    0 -0.15688332694E+03 -0.54164393017E+03  0.66114911386E+03  0.86897082173E+03  0.12699999809E+01 0. -1.
       -4    1    3    3    0  502  0.15688332694E+03  0.54164393017E+03  0.15427195478E+03  0.58462977541E+03  0.12699999809E+01 0.  1.
</event>
<event>
 5   0  0.2875848E-03  0.1211275E+04  0.7818609E-02  0.9103044E-01
        1   -1    0    0  501    0  0.00000000000E+00  0.00000000000E+00  0.71853996840E+03  0.71853996842E+03  0.50400001928E-02 0. -1.
       -1   -1    0    0    0  501  0.00000000000E+00  0.00000000000E+00 -0.51047530579E+03  0.51047530581E+03  0.50400001928E-02 0.  1.
    10030    2    1    2    0    0  0.00000000000E+00  0.00000000000E+00  0.20806466261E+03  0.12290152742E+04  0.12112752125E+04 0.  0.
        1    1    3    3  502    0 -0.65865083517E+02  0.17414147325E+03  0.68878304098E+03  0.71350230518E+03  0.50400001928E-02 0. -1.
       -1    1    3    3    0  502  0.65865083517E+02 -0.17414147325E+03 -0.48071837837E+03  0.51551296905E+03  0.50400001928E-02 0.  1.
</event>
<event>
 5   0  0.5108045E-03  0.1210732E+04  0.7818609E-02  0.9103514E-01
       -2   -1    0    0    0  501  0.00000000000E+00  0.00000000000E+00  0.21803917836E+03  0.21803917837E+03  0.25500000920E-02 0. -1.
        2   -1    0    0  501    0  0.00000000000E+00  0.00000000000E+00 -0.16807440781E+04  0.16807440781E+04  0.25500000920E-02 0.  1.
    10030    2    1    2    0    0  0.00000000000E+00  0.00000000000E+00 -0.14627048998E+04  0.18987832565E+04  0.12107321055E+04 0.  0.
        3    1    3    3  502    0  0.60265269330E+03  0.55020097480E+02 -0.70652741113E+03  0.93026795750E+03  0.10100000352E+00 0.  1.
       -3    1    3    3    0  502 -0.60265269330E+03 -0.55020097480E+02 -0.75617748864E+03  0.96851529900E+03  0.10100000352E+00 0. -1.
</event>
<event>
 5   0  0.2926844E-03  0.1195246E+04  0.7818609E-02  0.9117028E-01
        1   -1    0    0  501    0  0.00000000000E+00  0.00000000000E+00  0.12532071099E+04  0.12532071099E+04  0.50400001928E-02 0. -1.
       -1   -1    0    0    0  501  0.00000000000E+00  0.00000000000E+00 -0.28499127163E+03  0.28499127167E+03  0.50400001928E-02 0.  1.
    10030    2    1    2    0    0  0.00000000000E+00  0.00000000000E+00  0.96821583825E+03  0.15381983816E+04  0.11952457285E+04 0.  0.
        5    1    3    3  502    0 -0.26716549131E+03 -0.13986319868E+03  0.11480841835E+04  0.11870376980E+04  0.46999998093E+01 0. -1.
       -5    1    3    3    0  502  0.26716549131E+03  0.13986319868E+03 -0.17986834520E+03  0.35116068359E+03  0.46999998093E+01 0.  1.
</event>
<event>
 5   0  0.2926844E-03  0.1197746E+04  0.7818609E-02  0.9114832E-01
        1   -1    0    0  501    0  0.00000000000E+00  0.00000000000E+00  0.15419531256E+04  0.15419531256E+04  0.50400001928E-02 0. -1.
       -1   -1    0    0    0  501  0.00000000000E+00  0.00000000000E+00 -0.23259392188E+03  0.23259392194E+03  0.50400001928E-02 0.  1.
    10030    2    1    2    0    0  0.00000000000E+00  0.00000000000E+00  0.13093592037E+04  0.17745470475E+04  0.11977460914E+04 0.  0.
        5    1    3    3  502    0 -0.48311114935E+03  0.35326814892E+03  0.68547589317E+03  0.90999673504E+03  0.46999998093E+01 0. -1.
       -5    1    3    3    0  502  0.48311114935E+03 -0.35326814892E+03  0.62388331053E+03  0.86455031249E+03  0.46999998093E+01 0.  1.
</event>
<event>
 5   0  0.2875848E-03  0.1228616E+04  0.7818609E-02  0.9088171E-01
        1   -1    0    0  501    0  0.00000000000E+00  0.00000000000E+00  0.34426308822E+03  0.34426308825E+03  0.50400001928E-02 0. -1.
       -1   -1    0    0    0  501  0.00000000000E+00  0.00000000000E+00 -0.10961804950E+04  0.10961804951E+04  0.50400001928E-02 0.  1.
    10030    2    1    2    0    0  0.00000000000E+00  0.00000000000E+00 -0.75191740682E+03  0.14404435833E+04  0.12286162664E+04 0.  0.
        1    1    3    3  502    0 -0.21109010592E+03  0.57471452196E+03 -0.43479772559E+03  0.75093600044E+03  0.50400001928E-02 0. -1.
       -1    1    3    3    0  502  0.21109010592E+03 -0.57471452196E+03 -0.31711968124E+03  0.68950758286E+03  0.50400001928E-02 0.  1.
</event>
<event>
 5   0  0.2930868E-03  0.1090036E+04  0.7818609E-02  0.9214959E-01
       -1   -1    0    0    0  501  0.00000000000E+00  0.00000000000E+00  0.72148823103E+03  0.72148823104E+03  0.50400001928E-02 0. -1.
        1   -1    0    0  501    0  0.00000000000E+00  0.00000000000E+00 -0.41171070349E+03  0.41171070352E+03  0.50400001928E-02 0.  1.
    10030    2    1    2    0    0  0.00000000000E+00  0.00000000000E+00  0.30977752754E+03  0.11331989346E+04  0.10900356456E+04 0.  0.
        3    1    3    3  502    0 -0.15614653846E+03 -0.19028495409E+03  0.66040961802E+03  0.70479144362E+03  0.10100000352E+00 0. -1.
       -3    1    3    3    0  502  0.15614653846E+03  0.19028495409E+03 -0.35063209048E+03  0.42840749095E+03  0.10100000352E+00 0.  1.
</event>
<event>
 5   0  0.2930868E-03  0.1176109E+04  0.7818609E-02  0.9134029E-01
        1   -1    0    0  501    0  0.00000000000E+00  0.00000000000E+00  0.12492087595E+04  0.12492087595E+04  0.50400001928E-02 0. -1.
       -1   -1    0    0    0  501  0.00000000000E+00  0.00000000000E+00 -0.27682178092E+03  0.27682178096E+03  0.50400001928E-02 0.  1.
    10030    2    1    2    0    0  0.00000000000E+00  0.00000000000E+00  0.97238697856E+03  0.15260305404E+04  0.11761091677E+04 0.  0.
        3    1    3    3  502    0 -0.58103234035E+03 -0.57911563643E+02  0.39577684511E+03  0.70540176571E+03  0.10100000352E+00 0.  1.
       -3    1    3    3    0  502  0.58103234035E+03  0.57911563643E+02  0.57661013344E+03  0.82062877474E+03  0.10100000352E+00 0. -1.
</event>
<event>
 5   0  0.2938349E-03  0.1195167E+04  0.7818609E-02  0.9117097E-01
        1   -1    0    0  501    0  0.00000000000E+00  0.00000000000E+00  0.10780536940E+04  0.10780536940E+04  0.50400001928E-02 0.  1.
       -1   -1    0    0    0  501  0.00000000000E+00  0.00000000000E+00 -0.33125064676E+03  0.33125064680E+03  0.50400001928E-02 0. -1.
    10030    2    1    2    0    0  0.00000000000E+00  0.00000000000E+00  0.74680304726E+03  0.14093043408E+04  0.11951669062E+04 0.  0.
        4    1    3    3  502    0 -0.18461885513E+03  0.12069798429E+03  0.10282942976E+04  0.10516857423E+04  0.12699999809E+01 0.  1.
       -4    1    3    3    0  502  0.18461885513E+03 -0.12069798429E+03 -0.28149125038E+03  0.35761859854E+03  0.12699999809E+01 0. -1.
</event>
<event>
 5   0  0.2930868E-03  0.1196810E+04  0.7818609E-02  0.9115653E-01
       -1   -1    0    0    0  501  0.00000000000E+00  0.00000000000E+00  0.32035560097E+03  0.32035560101E+03  0.50400001928E-02 0.  1.
        1   -1    0    0  501    0  0.00000000000E+00  0.00000000000E+00 -0.11177851336E+04  0.11177851336E+04  0.50400001928E-02 0. -1.
    10030    2    1    2    0    0  0.00000000000E+00  0.00000000000E+00 -0.79742953260E+03  0.14381407346E+04  0.11968103079E+04 0.  0.
        3    1    3    3  502    0 -0.30126642394E+02  0.53443157741E+03 -0.77257425704E+02  0.54082663169E+03  0.10100000352E+00 0.  1.
       -3    1    3    3    0  502  0.30126642394E+02 -0.53443157741E+03 -0.72017210689E+03  0.89731410290E+03  0.10100000352E+00 0. -1.
</event>
<event>
 5   0  0.2875848E-03  0.8990051E+03  0.7818609E-02  0.9426826E-01
        1   -1    0    0  501    0  0.00000000000E+00  0.00000000000E+00  0.24621284053E+03  0.24621284058E+03  0.50400001928E-02 0.  1.
       -1   -1    0    0    0  501  0.00000000000E+00  0.00000000000E+00 -0.82064182058E+03  0.82064182059E+03  0.50400001928E-02 0. -1.
    10030    2    1    2    0    0  0.00000000000E+00  0.00000000000E+00 -0.57442898005E+03  0.10668546612E+04  0.89900512509E+03 0.  0.
        1    1    3    3  502    0  0.82634085338E+02 -0.40950197291E+03 -0.90306061978E+02  0.42740547812E+03  0.50400001928E-02 0.  1.
       -1    1    3    3    0  502 -0.82634085338E+02  0.40950197291E+03 -0.48412291807E+03  0.63944918305E+03  0.50400001928E-02 0. -1.
</event>
<event>
 5   0  0.2926844E-03  0.1137562E+04  0.7818609E-02  0.9169335E-01
        1   -1    0    0  501    0  0.00000000000E+00  0.00000000000E+00  0.11494569481E+04  0.11494569481E+04  0.50400001928E-02 0.  1.
       -1   -1    0    0    0  501  0.00000000000E+00  0.00000000000E+00 -0.28144765632E+03  0.28144765636E+03  0.50400001928E-02 0. -1.
    10030    2    1    2    0    0  0.00000000000E+00  0.00000000000E+00  0.86800929177E+03  0.14309046045E+04  0.11375622429E+04 0.  0.
        5    1    3    3  502    0 -0.89394685174E+02 -0.15491396060E+03 -0.24512843883E+03  0.30347946628E+03  0.46999998093E+01 0. -1.
       -5    1    3    3    0  502  0.89394685174E+02  0.15491396060E+03  0.11131377306E+04  0.11274251382E+04  0.46999998093E+01 0.  1.
</event>
<event>
 5   0  0.5108045E-03  0.1205556E+04  0.7818609E-02  0.9108008E-01
       -2   -1    0    0    0  501  0.00000000000E+00  0.00000000000E+00  0.78377439485E+03  0.78377439486E+03  0.25500000920E-02 0.  1.
        2   -1    0    0  501    0  0.00000000000E+00  0.00000000000E+00 -0.46357864151E+03  0.46357864152E+03  0.25500000920E-02 0. -1.
    10030    2    1    2    0    0  0.00000000000E+00  0.00000000000E+00  0.32019575334E+03  0.12473530364E+04  0.12055555885E+04 0.  0.
        3    1    3    3  502    0  0.56978458131E+03  0.57654546754E+02 -0.34471233712E+02  0.57373059184E+03  0.10100000352E+00 0. -1.
       -3    1    3    3    0  502 -0.56978458131E+03 -0.57654546754E+02  0.35466698706E+03  0.67362244453E+03  0.10100000352E+00 0.  1.
</event>
<event>
 5   0  0.5003526E-03  0.1195081E+04  0.7818609E-02  0.9117173E-01
       -2   -1    0    0    0  501  0.00000000000E+00  0.00000000000E+00  0.33472303447E+03  0.33472303448E+03  0.25500000920E-02 0. -1.
        2   -1    0    0  501    0  0.00000000000E+00  0.00000000000E+00 -0.10667165356E+04  0.10667165356E+04  0.25500000920E-02 0.  1.
    10030    2    1    2    0    0  0.00000000000E+00  0.00000000000E+00 -0.73199350109E+03  0.14014395700E+04  0.11950809106E+04 0.  0.
        2    1    3    3  502    0 -0.31903312414E+03 -0.22162042963E+03  0.16644971403E+03  0.42261478493E+03  0.25500000920E-02 0. -1.
       -2    1    3    3    0  502  0.31903312414E+03  0.22162042963E+03 -0.89844321512E+03  0.97882478510E+03  0.25500000920E-02 0.  1.
</event>
<event>
 5   0  0.2926844E-03  0.1103359E+04  0.7818609E-02  0.9201924E-01
        1   -1    0    0  501    0  0.00000000000E+00  0.00000000000E+00  0.12374340662E+04  0.12374340662E+04  0.50400001928E-02 0. -1.
       -1   -1    0    0    0  501  0.00000000000E+00  0.00000000000E+00 -0.24595278516E+03  0.24595278522E+03  0.50400001928E-02 0.  1.
    10030    2    1    2    0    0  0.00000000000E+00  0.00000000000E+00  0.99148128105E+03  0.14833868514E+04  0.11033591529E+04 0.  0.
        5    1    3    3  502    0  0.97271614796E+02 -0.29122578416E+03 -0.12043289735E+03  0.32984905209E+03  0.46999998093E+01 0.  1.
       -5    1    3    3    0  502 -0.97271614796E+02  0.29122578416E+03  0.11119141784E+04  0.11535377993E+04  0.46999998093E+01 0. -1.
</event>
<event>
 5   0  0.5108045E-03  0.8618257E+03  0.7818609E-02  0.9474601E-01
        2   -1    0    0  501    0  0.00000000000E+00  0.00000000000E+00  0.20350995892E+04  0.20350995892E+04  0.25500000920E-02 0. -1.
       -2   -1    0    0    0  501  0.00000000000E+00  0.00000000000E+00 -0.91241662446E+02  0.91241662482E+02  0.25500000920E-02 0.  1.
    10030    2    1    2    0    0  0.00000000000E+00  0.00000000000E+00  0.19438579268E+04  0.21263412517E+04  0.86182566636E+03 0.  0.
        3    1    3    3  502    0 -0.14287369791E+03 -0.32169567927E+03  0.35865495316E+03  0.50252799847E+03  0.10100000352E+00 0.  1.
       -3    1    3    3    0  502  0.14287369791E+03  0.32169567927E+03  0.15852029736E+04  0.16238132532E+04  0.10100000352E+00 0. -1.
</event>
<event>
 5   0  0.5467554E-03  0.1209884E+04  0.7818609E-02  0.9104248E-01
        2   -1    0    0  501    0  0.00000000000E+00  0.00000000000E+00  0.36249210821E+03  0.36249210822E+03  0.25500000920E-02 0.  1.
       -2   -1    0    0    0  501  0.00000000000E+00  0.00000000000E+00 -0.10095533588E+04  0.10095533588E+04  0.25500000920E-02 0. -1.
    10030    2    1    2    0    0  0.00000000000E+00  0.00000000000E+00 -0.64706125064E+03  0.13720454671E+04  0.12098844993E+04 0.  0.
        1    1    3    3  502    0 -0.57827316186E+03  0.72404648888E+02 -0.50748430241E+03  0.77277590550E+03  0.50400001928E-02 0. -1.
       -1    1    3    3    0  502  0.57827316186E+03 -0.72404648888E+02 -0.13957694823E+03  0.59926956156E+03  0.50400001928E-02 0.  1.
</event>
<event>
 5   0  0.5189537E-03  0.1170536E+04  0.7818609E-02  0.9139044E-01
       -2   -1    0    0    0  501  0.00000000000E+00  0.00000000000E+00  0.21692935442E+03  0.21692935444E+03  0.25500000920E-02 0.  1.
        2   -1    0    0  501    0  0.00000000000E+00  0.00000000000E+00 -0.15790332831E+04  0.15790332831E+04  0.25500000920E-02 0. -1.
    10030    2    1    2    0    0  0.00000000000E+00  0.00000000000E+00 -0.13621039286E+04  0.17959626375E+04  0.11705360665E+04 0.  0.
        4    1    3    3  502    0 -0.35404873478E+02  0.56932281179E+03 -0.48009226045E+03  0.74556834733E+03  0.12699999809E+01 0. -1.
       -4    1    3    3    0  502  0.35404873478E+02 -0.56932281179E+03 -0.88201166818E+03  0.10503942902E+04  0.12699999809E+01 0.  1.
</event>
<event>
 5   0  0.5003526E-03  0.1299478E+04  0.7818609E-02  0.9029979E-01
        2   -1    0    0  501    0  0.00000000000E+00  0.00000000000E+00  0.10346119886E+04  0.10346119886E+04  0.25500000920E-02 0.  1.
       -2   -1    0    0    0  501  0.00000000000E+00  0.00000000000E+00 -0.40803787342E+03  0.40803787343E+03  0.25500000920E-02 0. -1.
    10030    2    1    2    0    0  0.00000000000E+00  0.00000000000E+00  0.62657411515E+03  0.14426498620E+04  0.12994781655E+04 0.  0.
        2    1    3    3  502    0 -0.57947811249E+03  0.20222262990E+03  0.76551232972E+02  0.61850542938E+03  0.25500000920E-02 0. -1.
       -2    1    3    3    0  502  0.57947811249E+03 -0.20222262990E+03  0.55002288218E+03  0.82414443262E+03  0.25500000920E-02 0.  1.
</event>
<event>
 5   0  0.2926844E-03  0.1171949E+04  0.7818609E-02  0.9137770E-01
       -1   -1    0    0    0  501  0.00000000000E+00  0.00000000000E+00  0.77433376489E+03  0.77433376491E+03  0.50400001928E-02 0.  1.
        1   -1    0    0  501    0  0.00000000000E+00  0.00000000000E+00 -0.44343433321E+03  0.44343433324E+03  0.50400001928E-02 0. -1.
    10030    2    1    2    0    0  0.00000000000E+00  0.00000000000E+00  0.33089943168E+03  0.12177680981E+04  0.11719491060E+04 0.  0.
        5    1    3    3  502    0 -0.34139274503E+03  0.41649512656E+03  0.40540425436E+03  0.67408597097E+03  0.46999998093E+01 0.  1.
       -5    1    3    3    0  502  0.34139274503E+03 -0.41649512656E+03 -0.74504822678E+02  0.54368212717E+03  0.46999998093E+01 0. -1.
</event>
<event>
 5   0  0.5003526E-03  0.1201542E+04  0.7818609E-02  0.9111508E-01
       -2   -1    0    0    0  501  0.00000000000E+00  0.00000000000E+00  0.23896903874E+03  0.23896903876E+03  0.25500000920E-02 0. -1.
        2   -1    0    0  501    0  0.00000000000E+00  0.00000000000E+00 -0.15103452248E+04  0.15103452248E+04  0.25500000920E-02 0.  1.
    10030    2    1    2    0    0  0.00000000000E+00  0.00000000000E+00 -0.12713761861E+04  0.17493142636E+04  0.12015419203E+04 0.  0.
        2    1    3    3  502    0  0.37050768586E+03  0.37165107767E+03 -0.20991701564E+03  0.56521289996E+03  0.25500000920E-02 0. -1.
       -2    1    3    3    0  502 -0.37050768586E+03 -0.37165107767E+03 -0.10614591705E+04  0.11841013636E+04  0.25500000920E-02 0.  1.
</event>
<event>
 5   0  0.2926844E-03  0.1017277E+04  0.7818609E-02  0.9289796E-01
        1   -1    0    0  501    0  0.00000000000E+00  0.00000000000E+00  0.26180391505E+03  0.26180391510E+03  0.50400001928E-02 0.  1.
       -1   -1    0    0    0  501  0.00000000000E+00  0.00000000000E+00 -0.98819386135E+03  0.98819386136E+03  0.50400001928E-02 0. -1.
    10030    2    1    2    0    0  0.00000000000E+00  0.00000000000E+00 -0.72638994630E+03  0.12499977765E+04  0.10172767996E+04 0.  0.
        5    1    3    3  502    0 -0.43859667368E+02 -0.10467929525E+03 -0.97240836003E+03  0.97902070148E+03  0.46999998093E+01 0. -1.
       -5    1    3    3    0  502  0.43859667368E+02  0.10467929525E+03  0.24601841373E+03  0.27097707498E+03  0.46999998093E+01 0.  1.
</event>
<event>
 5   0  0.2938349E-03  0.1154222E+04  0.7818609E-02  0.9153898E-01
       -1   -1    0    0    0  501  0.00000000000E+00  0.00000000000E+00  0.44754237136E+03  0.44754237139E+03  0.50400001928E-02 0.  1.
        1   -1    0    0  501    0  0.00000000000E+00  0.00000000000E+00 -0.74419095757E+03  0.74419095759E+03  0.50400001928E-02 0. -1.
    10030    2    1    2    0    0  0.00000000000E+00  0.00000000000E+00 -0.29664858621E+03  0.11917333290E+04  0.11542217914E+04 0.  0.
        4    1    3    3  502    0 -0.99001377129E+02  0.18665320715E+03  0.40617180861E+03  0.45784041261E+03  0.12699999809E+01 0.  1.
       -4    1    3    3    0  502  0.99001377129E+02 -0.18665320715E+03 -0.70282039482E+03  0.73389291636E+03  0.12699999809E+01 0. -1.
</event>
<event>
 5   0  0.2792518E-03  0.1149169E+04  0.7818609E-02  0.9158551E-01
        1   -1    0    0  501    0  0.00000000000E+00  0.00000000000E+00  0.18327331596E+04  0.18327331596E+04  0.50400001928E-02 0. -1.
       -1   -1    0    0    0  501  0.00000000000E+00  0.00000000000E+00 -0.18013920383E+03  0.18013920390E+03  0.50400001928E-02 0.  1.
    10030    2    1    2    0    0  0.00000000000E+00  0.00000000000E+00  0.16525939558E+04  0.20128723635E+04  0.11491685556E+04 0.  0.
        2    1    3    3  502    0 -0.13094319111E+03  0.24534613734E+03 -0.54399790697E+02  0.28337287033E+03  0.25500000920E-02 0.  1.
       -2    1    3    3    0  502  0.13094319111E+03 -0.24534613734E+03  0.17069937465E+04  0.17294994932E+04  0.25500000920E-02 0. -1.
</event>
<event>
 5   0  0.2938349E-03  0.1199640E+04  0.7818609E-02  0.9113172E-01
        1   -1    0    0  501    0  0.00000000000E+00  0.00000000000E+00  0.25960418652E+03  0.25960418657E+03  0.50400001928E-02 0. -1.
       -1   -1    0    0    0  501  0.00000000000E+00  0.00000000000E+00 -0.13858949042E+04  0.13858949043E+04  0.50400001928E-02 0.  1.
    10030    2    1    2    0    0  0.00000000000E+00  0.00000000000E+00 -0.11262907177E+04  0.16454990908E+04  0.11996401448E+04 0.  0.
        4    1    3    3  502    0  0.38212280018E+03  0.80217842309E+02 -0.11877101368E+04  0.12502438637E+04  0.12699999809E+01 0.  1.
       -4    1    3    3    0  502 -0.38212280018E+03 -0.80217842309E+02  0.61419419102E+02  0.39525522715E+03  0.12699999809E+01 0. -1.
</event>
<event>
 5   0  0.5467554E-03  0.1194353E+04  0.7818609E-02  0.9117814E-01
       -2   -1    0    0    0  501  0.00000000000E+00  0.00000000000E+00  0.38440529367E+03  0.38440529368E+03  0.25500000920E-02 0. -1.
        2   -1    0    0  501    0  0.00000000000E+00  0.00000000000E+00 -0.92771805073E+03  0.92771805073E+03  0.25500000920E-02 0.  1.
    10030    2    1    2    0    0  0.00000000000E+00  0.00000000000E+00 -0.54331275706E+03  0.13121233444E+04  0.11943529290E+04 0.  0.
        1    1    3    3  502    0 -0.47848252930E+03 -0.29893774991E+03 -0.56625691241E+02  0.56702361335E+03  0.50400001928E-02 0. -1.
       -1    1    3    3    0  502  0.47848252930E+03  0.29893774991E+03 -0.48668706581E+03  0.74509973106E+03  0.50400001928E-02 0.  1.
</event>
<event>
 5   0  0.5189537E-03  0.1198504E+04  0.7818609E-02  0.9114167E-01
        2   -1    0    0  501    0  0.00000000000E+00  0.00000000000E+00  0.22456549892E+03  0.22456549893E+03  0.25500000920E-02 0.  1.
       -2   -1    0    0    0  501  0.00000000000E+00  0.00000000000E+00 -0.15991021243E+04  0.15991021243E+04  0.25500000920E-02 0. -1.
    10030    2    1    2    0    0  0.00000000000E+00  0.00000000000E+00 -0.13745366254E+04  0.18236676233E+04  0.11985043452E+04 0.  0.
        4    1    3    3  502    0 -0.41215599169E+03 -0.26853417798E+03 -0.16653109701E+03  0.51934322505E+03  0.12699999809E+01 0.  1.
       -4    1    3    3    0  502  0.41215599169E+03  0.26853417798E+03 -0.12080055284E+04  0.13043243982E+04  0.12699999809E+01 0. -1.
</event>
<event>
 5   0  0.2930868E-03  0.1177344E+04  0.7818609E-02  0.9132921E-01
       -1   -1    0    0    0  501  0.00000000000E+00  0.00000000000E+00  0.38471469485E+03  0.38471469489E+03  0.50400001928E-02 0. -1.
        1   -1    0    0  501    0  0.00000000000E+00  0.00000000000E+00 -0.90075817136E+03  0.90075817137E+03  0.50400001928E-02 0.  1.
    10030    2    1    2    0    0  0.00000000000E+00  0.00000000000E+00 -0.51604347650E+03  0.12854728663E+04  0.11773443083E+04 0.  0.
        3    1    3    3  502    0 -0.15954629129E+03  0.41128063036E+03 -0.68359908799E+03  0.81358128007E+03  0.10100000352E+00 0.  1.
       -3    1    3    3    0  502  0.15954629129E+03 -0.41128063036E+03  0.16755561149E+03  0.47189158619E+03  0.10100000352E+00 0. -1.
</event>
<event>
 5   0  0.5108045E-03  0.1210892E+04  0.7818609E-02  0.9103375E-01
       -2   -1    0    0    0  501  0.00000000000E+00  0.00000000000E+00  0.23790004833E+03  0.23790004834E+03  0.25500000920E-02 0.  1.
        2   -1    0    0  501    0  0.00000000000E+00  0.00000000000E+00 -0.15408366843E+04  0.15408366843E+04  0.25500000920E-02 0. -1.
    10030    2    1    2    0    0  0.00000000000E+00  0.00000000000E+00 -0.13029366360E+04  0.17787367326E+04  0.12108924340E+04 0.  0.
        3    1    3    3  502    0 -0.75258508862E+02 -0.16275011831E+03 -0.15009384579E+04  0.15116109648E+04  0.10100000352E+00 0. -1.
       -3    1    3    3    0  502  0.75258508862E+02  0.16275011831E+03  0.19800182195E+03  0.26712576787E+03  0.10100000352E+00 0.  1.
</event>
<event>
 5   0  0.2930868E-03  0.1187270E+04  0.7818609E-02  0.9124073E-01
        1   -1    0    0  501    0  0.00000000000E+00  0.00000000000E+00  0.83518830706E+03  0.83518830708E+03  0.50400001928E-02 0. -1.
       -1   -1    0    0    0  501  0.00000000000E+00  0.00000000000E+00 -0.42194361714E+03  0.42194361717E+03  0.50400001928E-02 0.  1.
    10030    2    1    2    0    0  0.00000000000E+00  0.00000000000E+00  0.41324468992E+03  0.12571319242E+04  0.11872697677E+04 0.  0.
        3    1    3    3  502    0  0.35260001730E+03 -0.27065253182E+03 -0.21000608750E+03  0.49161176976E+03  0.10100000352E+00 0.  1.
       -3    1    3    3    0  502 -0.35260001730E+03  0.27065253182E+03  0.62325077742E+03  0.76552015449E+03  0.10100000352E+00 0. -1.
</event>
<event>
 5   0  0.2792518E-03  0.1166676E+04  0.7818609E-02  0.9142536E-01
       -1   -1    0    0    0  501  0.00000000000E+00  0.00000000000E+00  0.17555777856E+04  0.17555777856E+04  0.50400001928E-02 0.  1.
        1   -1    0    0  501    0  0.00000000000E+00  0.00000000000E+00 -0.19382963481E+03  0.19382963488E+03  0.50400001928E-02 0. -1.
    10030    2    1    2    0    0  0.00000000000E+00  0.00000000000E+00  0.15617481508E+04  0.19494074205E+04  0.11666756210E+04 0.  0.
        2    1    3    3  502    0 -0.10819774351E+02 -0.25420608502E+03 -0.96225532755E+02  0.27202417969E+03  0.25500000920E-02 0. -1.
       -2    1    3    3    0  502  0.10819774351E+02  0.25420608502E+03  0.16579736835E+04  0.16773832408E+04  0.25500000920E-02 0.  1.
</event>
<event>
 5   0  0.5003526E-03  0.1261780E+04  0.7818609E-02  0.9060435E-01
       -2   -1    0    0    0  501  0.00000000000E+00  0.00000000000E+00  0.51452844940E+03  0.51452844940E+03  0.25500000920E-02 0. -1.
        2   -1    0    0  501    0  0.00000000000E+00  0.00000000000E+00 -0.77356720597E+03  0.77356720598E+03  0.25500000920E-02 0.  1.
    10030    2    1    2    0    0  0.00000000000E+00  0.00000000000E+00 -0.25903875658E+03  0.12880956554E+04  0.12617802265E+04 0.  0.
        2    1    3    3  502    0 -0.21534125993E+02  0.28112362557E+03 -0.70567299142E+03  0.75991353605E+03  0.25500000920E-02 0.  1.
       -2    1    3    3    0  502  0.21534125993E+02 -0.28112362557E+03  0.44663423485E+03  0.52818211933E+03  0.25500000920E-02 0. -1.
</event>
<event>
 5   0  0.1922125E-03  0.1163658E+04  0.7818609E-02  0.9145276E-01
        3   -1    0    0  501    0  0.00000000000E+00  0.00000000000E+00  0.27285663588E+03  0.27285665457E+03  0.10100000352E+00 0. -1.
       -3   -1    0    0    0  501  0.00000000000E+00  0.00000000000E+00 -0.12406687688E+04  0.12406687729E+04  0.10100000352E+00 0.  1.
    10030    2    1    2    0    0  0.00000000000E+00  0.00000000000E+00 -0.96781213296E+03  0.15135254275E+04  0.11636575506E+04 0.  0.
        2    1    3    3  502    0 -0.28076657620E+03 -0.50851607341E+03 -0.52716665784E+03  0.78442536444E+03  0.25500000920E-02 0. -1.
       -2    1    3    3    0  502  0.28076657620E+03  0.50851607341E+03 -0.44064547512E+03  0.72910006308E+03  0.25500000920E-02 0.  1.
</event>
<event>
 5   0  0.2875848E-03  0.1234684E+04  0.7818609E-02  0.9083028E-01
       -1   -1    0    0    0  501  0.00000000000E+00  0.00000000000E+00  0.36597808827E+03  0.36597808831E+03  0.50400001928E-02 0.  1.
        1   -1    0    0  501    0  0.00000000000E+00  0.00000000000E+00 -0.10413494581E+04  0.10413494581E+04  0.50400001928E-02 0. -1.
    10030    2    1    2    0    0  0.00000000000E+00  0.00000000000E+00 -0.67537136981E+03  0.14073275464E+04  0.12346839011E+04 0.  0.
        1    1    3    3  502    0  0.29068497836E+03  0.12102037279E+03 -0.94294133212E+03  0.99412375644E+03  0.50400001928E-02 0. -1.
       -1    1    3    3    0  502 -0.29068497836E+03 -0.12102037279E+03  0.26756996231E+03  0.41320378995E+03  0.50400001928E-02 0.  1.
</event>
<event>
 5   0  0.5189537E-03  0.1206114E+04  0.7818609E-02  0.9107522E-01
       -2   -1    0    0    0  501  0.00000000000E+00  0.00000000000E+00  0.39233845178E+03  0.39233845179E+03  0.25500000920E-02 0. -1.
        2   -1    0    0  501    0  0.00000000000E+00  0.00000000000E+00 -0.92694934096E+03  0.92694934096E+03  0.25500000920E-02 0.  1.
    10030    2    1    2    0    0  0.00000000000E+00  0.00000000000E+00 -0.53461088918E+03  0.13192877927E+04  0.12061142057E+04 0.  0.
        4    1    3    3  502    0 -0.24358029842E+01  0.39799187945E+03  0.22827801249E+03  0.45882015336E+03  0.12699999809E+01 0. -1.
       -4    1    3    3    0  502  0.24358029842E+01 -0.39799187945E+03 -0.76288890167E+03  0.86046763939E+03  0.12699999809E+01 0.  1.
</event>
<event>
 5   0  0.2875848E-03  0.1193368E+04  0.7818609E-02  0.9118682E-01
       -1   -1    0    0    0  501  0.00000000000E+00  0.00000000000E+00  0.27888897328E+03  0.27888897333E+03  0.50400001928E-02 0.  1.
        1   -1    0    0  501    0  0.00000000000E+00  0.00000000000E+00 -0.12766071239E+04  0.12766071239E+04  0.50400001928E-02 0. -1.
    10030    2    1    2    0    0  0.00000000000E+00  0.00000000000E+00 -0.99771815064E+03  0.15554960973E+04  0.11933677557E+04 0.  0.
        1    1    3    3  502    0 -0.14294059386E+03 -0.32370779688E+03 -0.11250758030E+04  0.11794126986E+04  0.50400001928E-02 0. -1.
       -1    1    3    3    0  502  0.14294059386E+03  0.32370779688E+03  0.12735765231E+03  0.37608339868E+03  0.50400001928E-02 0.  1.
</event>
<event>
 5   0  0.5189537E-03  0.1219666E+04  0.7818609E-02  0.9095815E-01
        2   -1    0    0  501    0  0.00000000000E+00  0.00000000000E+00  0.75099379949E+03  0.75099379949E+03  0.25500000920E-02 0.  1.
       -2   -1    0    0    0  501  0.00000000000E+00  0.00000000000E+00 -0.49520521870E+03  0.49520521871E+03  0.25500000920E-02 0. -1.
    10030    2    1    2    0    0  0.00000000000E+00  0.00000000000E+00  0.25578858078E+03  0.12461990182E+04  0.12196656078E+04 0.  0.
        4    1    3    3  502    0  0.16630390179E+03  0.28944374611E+03 -0.39356084638E+03  0.51606823446E+03  0.12699999809E+01 0. -1.
       -4    1    3    3    0  502 -0.16630390179E+03 -0.28944374611E+03  0.64934942717E+03  0.73013078375E+03  0.12699999809E+01 0.  1.
</event>
<event>
 5   0  0.5031575E-03  0.1521407E+04  0.7818609E-02  0.8870341E-01
        2   -1    0    0  501    0  0.00000000000E+00  0.00000000000E+00  0.42379470438E+03  0.42379470439E+03  0.25500000920E-02 0. -1.
       -2   -1    0    0    0  501  0.00000000000E+00  0.00000000000E+00 -0.13654477419E+04  0.13654477419E+04  0.25500000920E-02 0.  1.
    10030    2    1    2    0    0  0.00000000000E+00  0.00000000000E+00 -0.94165303751E+03  0.17892424463E+04  0.15214066151E+04 0.  0.
        5    1    3    3  502    0  0.70074142142E+03 -0.28372920306E+03 -0.56996809023E+03  0.94679803244E+03  0.46999998093E+01 0.  1.
       -5    1    3    3    0  502 -0.70074142142E+03  0.28372920306E+03 -0.37168494728E+03  0.84244441383E+03  0.46999998093E+01 0. -1.
</event>
<event>
 5   0  0.2938349E-03  0.1176998E+04  0.7818609E-02  0.9133232E-01
        1   -1    0    0  501    0  0.00000000000E+00  0.00000000000E+00  0.12222236869E+04  0.12222236869E+04  0.50400001928E-02 0.  1.
       -1   -1    0    0    0  501  0.00000000000E+00  0.00000000000E+00 -0.28336126563E+03  0.28336126567E+03  0.50400001928E-02 0. -1.
    10030    2    1    2    0    0  0.00000000000E+00  0.00000000000E+00  0.93886242123E+03  0.15055849525E+04  0.11769976225E+04 0.  0.
        4    1    3    3  502    0 -0.41622758135E+03 -0.19501418047E+03  0.93952259632E+03  0.10459351089E+04  0.12699999809E+01 0.  1.
       -4    1    3    3    0  502  0.41622758135E+03  0.19501418047E+03 -0.66017508833E+00  0.45964984368E+03  0.12699999809E+01 0. -1.
</event>
<event>
 5   0  0.5031575E-03  0.1192452E+04  0.7818609E-02  0.9119489E-01
       -2   -1    0    0    0  501  0.00000000000E+00  0.00000000000E+00  0.36751603970E+03  0.36751603971E+03  0.25500000920E-02 0. -1.
        2   -1    0    0  501    0  0.00000000000E+00  0.00000000000E+00 -0.96726444605E+03  0.96726444605E+03  0.25500000920E-02 0.  1.
    10030    2    1    2    0    0  0.00000000000E+00  0.00000000000E+00 -0.59974840635E+03  0.13347804858E+04  0.11924515899E+04 0.  0.
        5    1    3    3  502    0 -0.36240032031E+03  0.29456521427E+03 -0.71473265826E+03  0.85379594775E+03  0.46999998093E+01 0.  1.
       -5    1    3    3    0  502  0.36240032031E+03 -0.29456521427E+03  0.11498425191E+03  0.48098453801E+03  0.46999998093E+01 0. -1.
</event>
<event>
 5   0  0.2792518E-03  0.1194439E+04  0.7818609E-02  0.9117738E-01
       -1   -1    0    0    0  501  0.00000000000E+00  0.00000000000E+00  0.10856286319E+04  0.10856286319E+04  0.50400001928E-02 0.  1.
        1   -1    0    0  501    0  0.00000000000E+00  0.00000000000E+00 -0.32853855626E+03  0.32853855630E+03  0.50400001928E-02 0. -1.
    10030    2    1    2    0    0  0.00000000000E+00  0.00000000000E+00  0.75709007564E+03  0.14141671882E+04  0.11944385516E+04 0.  0.
        2    1    3    3  502    0 -0.39342688438E+03 -0.11440482296E+03 -0.13589561227E+03  0.43167209118E+03  0.25500000920E-02 0. -1.
       -2    1    3    3    0  502  0.39342688438E+03  0.11440482296E+03  0.89298568791E+03  0.98249509703E+03  0.25500000920E-02 0.  1.
</event>
<event>
 5   0  0.5003526E-03  0.1230702E+04  0.7818609E-02  0.9086400E-01
        2   -1    0    0  501    0  0.00000000000E+00  0.00000000000E+00  0.51044949560E+03  0.51044949561E+03  0.25500000920E-02 0.  1.
       -2   -1    0    0    0  501  0.00000000000E+00  0.00000000000E+00 -0.74181053368E+03  0.74181053368E+03  0.25500000920E-02 0. -1.
    10030    2    1    2    0    0  0.00000000000E+00  0.00000000000E+00 -0.23136103808E+03  0.12522600293E+04  0.12307019343E+04 0.  0.
        2    1    3    3  502    0 -0.23120217328E+03  0.91001163810E+02  0.45713826514E+03  0.52029900077E+03  0.25500000920E-02 0.  1.
       -2    1    3    3    0  502  0.23120217328E+03 -0.91001163810E+02 -0.68849930322E+03  0.73196102852E+03  0.25500000920E-02 0. -1.
</event>
<event>
 5   0  0.2926844E-03  0.1162573E+04  0.7818609E-02  0.9146262E-01
       -1   -1    0    0    0  501  0.00000000000E+00  0.00000000000E+00  0.27736550098E+03  0.27736550102E+03  0.50400001928E-02 0. -1.
        1   -1    0    0  501    0  0.00000000000E+00  0.00000000000E+00 -0.12182263640E+04  0.12182263640E+04  0.50400001928E-02 0.  1.
    10030    2    1    2    0    0  0.00000000000E+00  0.00000000000E+00 -0.94086086300E+03  0.14955918650E+04  0.11625729496E+04 0.  0.
        5    1    3    3  502    0 -0.18423594456E+03  0.47938337454E+03 -0.82066762466E+03  0.96812640870E+03  0.46999998093E+01 0.  1.
       -5    1    3    3    0  502  0.18423594456E+03 -0.47938337454E+03 -0.12019323833E+03  0.52746545630E+03  0.46999998093E+01 0. -1.
</event>
</LesHouchesEvents>
